Title t=  35.00000 step= 17500
46055
    1GLY      N    1   2.962   2.732   1.074
    1GLY    HT1    2   2.962   2.743   0.971
    1GLY    HT2    3   2.879   2.681   1.110
    1GLY    HT3    4   3.048   2.678   1.097
    1GLY     CA    5   2.968   2.865   1.133
    1GLY    HA1    6   2.880   2.924   1.114
    1GLY    HA2    7   3.055   2.916   1.095
    1GLY      C    8   2.967   2.871   1.284
    1GLY      O    9   2.980   2.770   1.352
    2PRO      N   10   2.956   2.988   1.340
    2PRO     CD   11   2.978   3.117   1.278
    2PRO    HD1   12   2.887   3.140   1.218
    2PRO    HD2   13   3.068   3.128   1.214
    2PRO     CA   14   2.931   3.004   1.488
    2PRO     HA   15   3.021   2.975   1.540
    2PRO     CB   16   2.894   3.151   1.502
    2PRO    HB1   17   2.919   3.183   1.605
    2PRO    HB2   18   2.784   3.162   1.488
    2PRO     CG   19   2.980   3.220   1.398
    2PRO    HG1   20   2.940   3.321   1.374
    2PRO    HG2   21   3.089   3.213   1.418
    2PRO      C   22   2.826   2.921   1.557
    2PRO      O   23   2.719   2.894   1.506
    3GLY      N   24   2.854   2.877   1.683
    3GLY     HN   25   2.941   2.910   1.717
    3GLY     CA   26   2.777   2.783   1.756
    3GLY    HA1   27   2.851   2.715   1.796
    3GLY    HA2   28   2.694   2.739   1.702
    3GLY      C   29   2.714   2.863   1.871
    3GLY      O   30   2.645   2.962   1.848
    4ALA      N   31   2.735   2.816   1.997
    4ALA     HN   32   2.762   2.722   2.014
    4ALA     CA   33   2.687   2.886   2.117
    4ALA     HA   34   2.588   2.922   2.092
    4ALA     CB   35   2.679   2.780   2.224
    4ALA    HB1   36   2.780   2.735   2.236
    4ALA    HB2   37   2.606   2.702   2.192
    4ALA    HB3   38   2.639   2.820   2.319
    4ALA      C   39   2.784   2.995   2.157
    4ALA      O   40   2.906   2.973   2.133
    5PRO      N   41   2.744   3.101   2.227
    5PRO     CD   42   2.604   3.136   2.256
    5PRO    HD1   43   2.562   3.057   2.321
    5PRO    HD2   44   2.549   3.139   2.159
    5PRO     CA   45   2.834   3.195   2.299
    5PRO     HA   46   2.868   3.270   2.230
    5PRO     CB   47   2.739   3.271   2.398
    5PRO    HB1   48   2.780   3.369   2.429
    5PRO    HB2   49   2.720   3.204   2.484
    5PRO     CG   50   2.609   3.275   2.319
    5PRO    HG1   51   2.526   3.304   2.386
    5PRO    HG2   52   2.609   3.353   2.240
    5PRO      C   53   2.961   3.147   2.367
    5PRO      O   54   2.960   3.034   2.415
    6GLY      N   55   3.067   3.226   2.365
    6GLY     HN   56   3.065   3.310   2.310
    6GLY     CA   57   3.190   3.201   2.450
    6GLY    HA1   58   3.277   3.237   2.398
    6GLY    HA2   59   3.200   3.096   2.474
    6GLY      C   60   3.186   3.274   2.586
    6GLY      O   61   3.082   3.328   2.628
    7PRO      N   62   3.298   3.278   2.662
    7PRO     CD   63   3.428   3.224   2.616
    7PRO    HD1   64   3.470   3.281   2.530
    7PRO    HD2   65   3.423   3.118   2.586
    7PRO     CA   66   3.300   3.324   2.801
    7PRO     HA   67   3.260   3.244   2.862
    7PRO     CB   68   3.452   3.342   2.823
    7PRO    HB1   69   3.490   3.345   2.927
    7PRO    HB2   70   3.487   3.436   2.775
    7PRO     CG   71   3.513   3.227   2.744
    7PRO    HG1   72   3.622   3.235   2.721
    7PRO    HG2   73   3.491   3.130   2.795
    7PRO      C   74   3.225   3.455   2.834
    7PRO      O   75   3.251   3.560   2.771
    8GLY      N   76   3.140   3.456   2.937
    8GLY     HN   77   3.149   3.376   2.996
    8GLY     CA   78   3.042   3.555   2.973
    8GLY    HA1   79   3.039   3.547   3.080
    8GLY    HA2   80   2.947   3.535   2.924
    8GLY      C   81   3.072   3.703   2.958
    8GLY      O   82   3.176   3.750   3.005
    9ALA      N   83   2.977   3.778   2.900
    9ALA     HN   84   2.900   3.730   2.858
    9ALA     CA   85   2.984   3.926   2.898
    9ALA     HA   86   3.083   3.945   2.857
    9ALA     CB   87   2.878   4.001   2.818
    9ALA    HB1   88   2.880   3.972   2.711
    9ALA    HB2   89   2.903   4.109   2.826
    9ALA    HB3   90   2.776   3.984   2.859
    9ALA      C   91   2.991   3.986   3.045
    9ALA      O   92   2.922   3.931   3.131
   10PRO      N   93   3.078   4.084   3.076
   10PRO     CD   94   3.180   4.140   2.983
   10PRO    HD1   95   3.135   4.187   2.893
   10PRO    HD2   96   3.244   4.058   2.945
   10PRO     CA   97   3.084   4.155   3.204
   10PRO     HA   98   3.125   4.084   3.275
   10PRO     CB   99   3.171   4.279   3.176
   10PRO    HB1  100   3.219   4.314   3.270
   10PRO    HB2  101   3.110   4.362   3.133
   10PRO     CG  102   3.270   4.228   3.072
   10PRO    HG1  103   3.315   4.311   3.013
   10PRO    HG2  104   3.350   4.174   3.126
   10PRO      C  105   2.951   4.183   3.266
   10PRO      O  106   2.877   4.251   3.200
   11GLY      N  107   2.911   4.141   3.394
   11GLY     HN  108   2.981   4.088   3.442
   11GLY     CA  109   2.788   4.165   3.458
   11GLY    HA1  110   2.760   4.072   3.504
   11GLY    HA2  111   2.716   4.204   3.387
   11GLY      C  112   2.813   4.248   3.570
   11GLY      O  113   2.924   4.301   3.581
   12PRO      N  114   2.715   4.275   3.651
   12PRO     CD  115   2.591   4.208   3.658
   12PRO    HD1  116   2.606   4.098   3.652
   12PRO    HD2  117   2.526   4.239   3.574
   12PRO     CA  118   2.718   4.395   3.732
   12PRO     HA  119   2.738   4.473   3.659
   12PRO     CB  120   2.577   4.402   3.795
   12PRO    HB1  121   2.505   4.461   3.734
   12PRO    HB2  122   2.575   4.433   3.901
   12PRO     CG  123   2.532   4.253   3.787
   12PRO    HG1  124   2.567   4.198   3.878
   12PRO    HG2  125   2.422   4.244   3.781
   12PRO      C  126   2.828   4.405   3.834
   12PRO      O  127   2.871   4.306   3.894
   13GLY      N  128   2.884   4.526   3.851
   13GLY     HN  129   2.851   4.601   3.795
   13GLY     CA  130   2.979   4.560   3.960
   13GLY    HA1  131   3.004   4.665   3.952
   13GLY    HA2  132   3.065   4.497   3.945
   13GLY      C  133   2.922   4.546   4.105
   13GLY      O  134   2.805   4.516   4.123
   14ALA      N  135   3.008   4.568   4.200
   14ALA     HN  136   3.102   4.594   4.179
   14ALA     CA  137   2.982   4.553   4.342
   14ALA     HA  138   2.894   4.494   4.363
   14ALA     CB  139   3.103   4.469   4.396
   14ALA    HB1  140   3.083   4.362   4.376
   14ALA    HB2  141   3.114   4.476   4.506
   14ALA    HB3  142   3.205   4.500   4.364
   14ALA      C  143   2.971   4.689   4.406
   14ALA      O  144   3.062   4.772   4.400
   15PRO      N  145   2.859   4.731   4.460
   15PRO     CD  146   2.724   4.683   4.425
   15PRO    HD1  147   2.700   4.600   4.496
   15PRO    HD2  148   2.713   4.644   4.321
   15PRO     CA  149   2.859   4.856   4.537
   15PRO     HA  150   2.896   4.929   4.466
   15PRO     CB  151   2.710   4.879   4.562
   15PRO    HB1  152   2.701   4.989   4.547
   15PRO    HB2  153   2.682   4.848   4.665
   15PRO     CG  154   2.636   4.800   4.457
   15PRO    HG1  155   2.540   4.763   4.499
   15PRO    HG2  156   2.624   4.845   4.356
   15PRO      C  157   2.934   4.854   4.659
   15PRO    OT1  158   2.941   4.747   4.728
   15PRO    OT2  159   3.001   4.957   4.695
   16LIT    LIT  160   5.304   5.362   2.808
   17LIT    LIT  161   2.972   5.746   4.760
   18LIT    LIT  162   6.083   5.136   6.586
   19LIT    LIT  163   5.523   5.343   1.474
   20LIT    LIT  164   3.505   6.283   2.716
   21LIT    LIT  165   8.413   5.135   2.768
   22LIT    LIT  166   0.803   7.423   3.892
   23LIT    LIT  167   7.318   4.356   4.098
   24LIT    LIT  168   5.709   5.652   3.194
   25LIT    LIT  169   4.997   0.075   6.069
   26LIT    LIT  170   6.955   2.384   3.475
   27LIT    LIT  171   7.712   4.065   1.700
   28LIT    LIT  172   1.024   5.678   4.640
   29LIT    LIT  173   4.232   1.531   2.310
   30LIT    LIT  174   4.224   4.088   2.099
   31LIT    LIT  175   6.966   3.008   5.217
   32LIT    LIT  176   1.284   3.831   4.540
   33LIT    LIT  177   5.575   6.984   2.828
   34LIT    LIT  178   0.565   5.065   0.778
   35LIT    LIT  179   8.218   0.429   4.435
   36LIT    LIT  180   7.526   6.801   5.909
   37LIT    LIT  181   1.909   5.956   2.308
   38LIT    LIT  182   0.764   6.255   2.021
   39LIT    LIT  183   3.651   1.369   5.449
   40LIT    LIT  184   0.285   6.495   5.451
   41LIT    LIT  185   1.763   2.516   5.083
   42LIT    LIT  186   6.747   4.683   1.405
   43LIT    LIT  187   8.291   6.646   1.115
   44LIT    LIT  188   4.553   7.608   0.753
   45LIT    LIT  189   8.031   6.077   2.623
   46LIT    LIT  190   0.645   4.416   3.207
   47LIT    LIT  191   1.426   0.837   1.087
   48LIT    LIT  192   1.281   6.824   2.303
   49LIT    LIT  193   0.179   0.312   6.742
   50LIT    LIT  194   4.157   5.055   1.751
   51LIT    LIT  195   3.637   7.395   0.268
   52LIT    LIT  196   7.568   1.456   5.430
   53LIT    LIT  197   4.640   5.764   4.748
   54LIT    LIT  198   4.857   2.432   5.261
   55LIT    LIT  199   3.738   0.567   3.262
   56LIT    LIT  200   7.278   5.789   2.171
   57LIT    LIT  201   0.017   0.501   6.132
   58LIT    LIT  202   3.116   4.818   4.797
   59CLA    CLA  203   3.501   5.445   1.822
   60CLA    CLA  204   3.560   6.349   3.475
   61CLA    CLA  205   5.422   6.516   1.586
   62CLA    CLA  206   2.402   7.312   4.592
   63CLA    CLA  207   2.030   6.862   2.756
   64CLA    CLA  208   2.947   5.999   5.340
   65CLA    CLA  209   1.281   2.609   6.708
   66CLA    CLA  210   1.528   5.589   0.358
   67CLA    CLA  211   6.500   4.745   4.417
   68CLA    CLA  212   7.105   4.292   2.483
   69CLA    CLA  213   5.493   7.848   4.789
   70CLA    CLA  214   5.391   0.588   0.100
   71CLA    CLA  215   0.407   3.251   2.065
   72CLA    CLA  216   7.269   5.208   6.313
   73CLA    CLA  217   0.921   5.834   4.768
   74CLA    CLA  218   4.645   7.701   1.296
   75CLA    CLA  219   5.490   5.069   5.537
   76CLA    CLA  220   0.091   2.917   0.950
   77CLA    CLA  221   4.037   2.774   4.365
   78CLA    CLA  222   7.942   0.958   5.354
   79CLA    CLA  223   6.824   4.921   1.779
   80CLA    CLA  224   7.701   5.231   1.258
   81CLA    CLA  225   2.222   1.788   1.586
   82CLA    CLA  226   4.927   4.505   2.754
   83CLA    CLA  227   8.193   6.545   3.470
   84CLA    CLA  228   0.445   6.420   2.878
   85CLA    CLA  229   0.182   6.976   2.304
   86CLA    CLA  230   7.288   3.859   6.899
   87CLA    CLA  231   2.013   0.726   6.104
   88CLA    CLA  232   5.694   5.224   2.989
   89CLA    CLA  233   4.241   3.265   0.256
   90CLA    CLA  234   3.665   6.122   1.078
   91CLA    CLA  235   2.941   4.197   6.637
   92CLA    CLA  236   5.660   4.856   1.383
   93CLA    CLA  237   3.020   1.071   5.230
   94CLA    CLA  238   6.389   7.034   5.118
   95CLA    CLA  239   2.705   0.445   1.259
   96CLA    CLA  240   6.244   1.314   3.508
   97CLA    CLA  241   1.886   2.739   4.284
   98CLA    CLA  242   5.919   4.244   5.884
   99CLA    CLA  243   0.618   4.836   2.721
  100CLA    CLA  244   8.219   4.009   0.495
  101CLA    CLA  245   1.620   0.877   1.208
  102TIP3   OH2  246   3.603   4.098   3.564
  102TIP3    H1  247   3.662   4.025   3.544
  102TIP3    H2  248   3.604   4.104   3.660
  103TIP3   OH2  249   7.084   5.194   5.647
  103TIP3    H1  250   7.017   5.137   5.684
  103TIP3    H2  251   7.165   5.165   5.688
  104TIP3   OH2  252   3.333   4.104   6.015
  104TIP3    H1  253   3.279   4.182   6.031
  104TIP3    H2  254   3.303   4.071   5.930
  105TIP3   OH2  255   6.240   2.477   0.383
  105TIP3    H1  256   6.246   2.564   0.421
  105TIP3    H2  257   6.225   2.419   0.458
  106TIP3   OH2  258   2.522   6.839   1.410
  106TIP3    H1  259   2.586   6.780   1.449
  106TIP3    H2  260   2.441   6.788   1.406
  107TIP3   OH2  261   5.743   5.643   6.623
  107TIP3    H1  262   5.669   5.701   6.641
  107TIP3    H2  263   5.715   5.592   6.547
  108TIP3   OH2  264   3.700   6.237   0.603
  108TIP3    H1  265   3.781   6.227   0.554
  108TIP3    H2  266   3.636   6.267   0.537
  109TIP3   OH2  267   5.229   6.304   4.015
  109TIP3    H1  268   5.150   6.350   3.986
  109TIP3    H2  269   5.204   6.261   4.096
  110TIP3   OH2  270   4.369   3.653   1.706
  110TIP3    H1  271   4.374   3.660   1.610
  110TIP3    H2  272   4.460   3.659   1.735
  111TIP3   OH2  273   3.883   2.321   5.449
  111TIP3    H1  274   3.896   2.326   5.354
  111TIP3    H2  275   3.790   2.337   5.461
  112TIP3   OH2  276   3.322   5.639   2.645
  112TIP3    H1  277   3.369   5.559   2.665
  112TIP3    H2  278   3.323   5.645   2.549
  113TIP3   OH2  279   4.643   6.810   0.803
  113TIP3    H1  280   4.587   6.835   0.876
  113TIP3    H2  281   4.729   6.796   0.843
  114TIP3   OH2  282   4.025   3.500   2.913
  114TIP3    H1  283   4.070   3.575   2.873
  114TIP3    H2  284   4.058   3.424   2.865
  115TIP3   OH2  285   7.986   1.332   6.501
  115TIP3    H1  286   8.075   1.300   6.487
  115TIP3    H2  287   7.949   1.339   6.413
  116TIP3   OH2  288   2.111   0.761   4.984
  116TIP3    H1  289   2.040   0.810   5.025
  116TIP3    H2  290   2.078   0.671   4.977
  117TIP3   OH2  291   3.923   2.838   6.798
  117TIP3    H1  292   3.885   2.844   6.711
  117TIP3    H2  293   3.915   2.926   6.834
  118TIP3   OH2  294   0.678   3.100   6.064
  118TIP3    H1  295   0.583   3.110   6.062
  118TIP3    H2  296   0.711   3.178   6.021
  119TIP3   OH2  297   5.659   5.438   5.788
  119TIP3    H1  298   5.723   5.475   5.848
  119TIP3    H2  299   5.583   5.497   5.795
  120TIP3   OH2  300   5.325   1.107   1.454
  120TIP3    H1  301   5.419   1.119   1.447
  120TIP3    H2  302   5.314   1.014   1.475
  121TIP3   OH2  303   1.259   6.288   5.529
  121TIP3    H1  304   1.164   6.276   5.521
  121TIP3    H2  305   1.271   6.335   5.611
  122TIP3   OH2  306   0.709   1.914   2.290
  122TIP3    H1  307   0.770   1.926   2.217
  122TIP3    H2  308   0.737   1.978   2.355
  123TIP3   OH2  309   6.396   7.255   2.431
  123TIP3    H1  310   6.317   7.302   2.459
  123TIP3    H2  311   6.465   7.289   2.489
  124TIP3   OH2  312   5.494   4.644   4.092
  124TIP3    H1  313   5.488   4.607   4.181
  124TIP3    H2  314   5.442   4.584   4.038
  125TIP3   OH2  315   3.961   6.306   6.355
  125TIP3    H1  316   3.871   6.285   6.383
  125TIP3    H2  317   4.006   6.222   6.355
  126TIP3   OH2  318   0.689   2.965   0.671
  126TIP3    H1  319   0.624   2.949   0.603
  126TIP3    H2  320   0.679   2.892   0.732
  127TIP3   OH2  321   2.594   0.644   4.078
  127TIP3    H1  322   2.515   0.591   4.081
  127TIP3    H2  323   2.566   0.731   4.107
  128TIP3   OH2  324   7.271   3.077   4.445
  128TIP3    H1  325   7.214   3.023   4.499
  128TIP3    H2  326   7.345   3.098   4.501
  129TIP3   OH2  327   6.734   6.960   3.281
  129TIP3    H1  328   6.753   6.866   3.277
  129TIP3    H2  329   6.663   6.968   3.345
  130TIP3   OH2  330   0.725   7.610   6.165
  130TIP3    H1  331   0.658   7.669   6.200
  130TIP3    H2  332   0.796   7.614   6.228
  131TIP3   OH2  333   4.949   1.529   6.492
  131TIP3    H1  334   4.958   1.624   6.499
  131TIP3    H2  335   5.016   1.502   6.429
  132TIP3   OH2  336   6.180   2.118   5.006
  132TIP3    H1  337   6.147   2.206   4.991
  132TIP3    H2  338   6.236   2.099   4.930
  133TIP3   OH2  339   6.464   0.327   1.209
  133TIP3    H1  340   6.498   0.257   1.264
  133TIP3    H2  341   6.524   0.330   1.134
  134TIP3   OH2  342   7.599   2.132   6.591
  134TIP3    H1  343   7.505   2.132   6.572
  134TIP3    H2  344   7.633   2.208   6.545
  135TIP3   OH2  345   1.652   7.559   5.150
  135TIP3    H1  346   1.627   7.474   5.115
  135TIP3    H2  347   1.746   7.551   5.168
  136TIP3   OH2  348   0.769   1.831   0.466
  136TIP3    H1  349   0.785   1.924   0.452
  136TIP3    H2  350   0.849   1.788   0.435
  137TIP3   OH2  351   6.286   5.923   3.126
  137TIP3    H1  352   6.306   6.002   3.075
  137TIP3    H2  353   6.335   5.935   3.208
  138TIP3   OH2  354   5.071   2.040   6.530
  138TIP3    H1  355   5.068   2.022   6.436
  138TIP3    H2  356   4.987   2.081   6.549
  139TIP3   OH2  357   2.957   5.998   0.108
  139TIP3    H1  358   2.996   5.911   0.120
  139TIP3    H2  359   3.023   6.058   0.140
  140TIP3   OH2  360   4.378   7.259   1.629
  140TIP3    H1  361   4.446   7.282   1.693
  140TIP3    H2  362   4.401   7.308   1.550
  141TIP3   OH2  363   3.106   2.151   6.072
  141TIP3    H1  364   3.137   2.079   6.019
  141TIP3    H2  365   3.058   2.208   6.012
  142TIP3   OH2  366   1.394   6.498   5.093
  142TIP3    H1  367   1.300   6.506   5.110
  142TIP3    H2  368   1.419   6.417   5.137
  143TIP3   OH2  369   3.863   7.889   5.415
  143TIP3    H1  370   3.937   7.830   5.399
  143TIP3    H2  371   3.804   7.874   5.341
  144TIP3   OH2  372   1.162   0.398   5.665
  144TIP3    H1  373   1.066   0.396   5.662
  144TIP3    H2  374   1.188   0.414   5.574
  145TIP3   OH2  375   2.842   5.301   4.546
  145TIP3    H1  376   2.809   5.353   4.473
  145TIP3    H2  377   2.780   5.318   4.617
  146TIP3   OH2  378   1.281   4.010   5.705
  146TIP3    H1  379   1.273   3.917   5.685
  146TIP3    H2  380   1.371   4.032   5.684
  147TIP3   OH2  381   0.577   6.789   4.880
  147TIP3    H1  382   0.626   6.714   4.914
  147TIP3    H2  383   0.644   6.847   4.843
  148TIP3   OH2  384   5.354   5.696   2.946
  148TIP3    H1  385   5.354   5.602   2.965
  148TIP3    H2  386   5.286   5.732   3.003
  149TIP3   OH2  387   4.737   4.119   1.127
  149TIP3    H1  388   4.690   4.038   1.144
  149TIP3    H2  389   4.670   4.187   1.129
  150TIP3   OH2  390   6.234   3.588   4.475
  150TIP3    H1  391   6.326   3.617   4.473
  150TIP3    H2  392   6.216   3.575   4.568
  151TIP3   OH2  393   3.390   5.809   2.852
  151TIP3    H1  394   3.481   5.804   2.825
  151TIP3    H2  395   3.341   5.773   2.778
  152TIP3   OH2  396   8.358   1.789   4.933
  152TIP3    H1  397   8.448   1.776   4.902
  152TIP3    H2  398   8.364   1.864   4.992
  153TIP3   OH2  399   7.567   1.751   0.821
  153TIP3    H1  400   7.524   1.740   0.736
  153TIP3    H2  401   7.607   1.838   0.816
  154TIP3   OH2  402   4.610   4.405   4.714
  154TIP3    H1  403   4.657   4.343   4.659
  154TIP3    H2  404   4.559   4.351   4.775
  155TIP3   OH2  405   1.779   2.290   4.589
  155TIP3    H1  406   1.762   2.361   4.527
  155TIP3    H2  407   1.719   2.221   4.562
  156TIP3   OH2  408   6.642   7.280   4.864
  156TIP3    H1  409   6.588   7.203   4.846
  156TIP3    H2  410   6.700   7.251   4.935
  157TIP3   OH2  411   0.992   0.095   1.843
  157TIP3    H1  412   1.073   0.137   1.871
  157TIP3    H2  413   0.970   0.139   1.761
  158TIP3   OH2  414   2.176   2.267   0.479
  158TIP3    H1  415   2.100   2.258   0.422
  158TIP3    H2  416   2.181   2.184   0.526
  159TIP3   OH2  417   6.278   5.872   4.647
  159TIP3    H1  418   6.342   5.850   4.715
  159TIP3    H2  419   6.331   5.897   4.572
  160TIP3   OH2  420   0.168   4.799   5.477
  160TIP3    H1  421   0.214   4.833   5.401
  160TIP3    H2  422   0.222   4.826   5.552
  161TIP3   OH2  423   2.405   7.654   3.131
  161TIP3    H1  424   2.352   7.583   3.095
  161TIP3    H2  425   2.342   7.708   3.179
  162TIP3   OH2  426   4.923   3.300   3.335
  162TIP3    H1  427   4.944   3.353   3.411
  162TIP3    H2  428   4.869   3.229   3.369
  163TIP3   OH2  429   7.635   1.911   5.578
  163TIP3    H1  430   7.621   2.000   5.612
  163TIP3    H2  431   7.603   1.854   5.647
  164TIP3   OH2  432   0.995   0.349   0.273
  164TIP3    H1  433   0.991   0.441   0.250
  164TIP3    H2  434   0.904   0.321   0.280
  165TIP3   OH2  435   1.032   2.624   1.767
  165TIP3    H1  436   1.113   2.652   1.810
  165TIP3    H2  437   1.019   2.688   1.697
  166TIP3   OH2  438   3.008   3.103   5.515
  166TIP3    H1  439   3.050   3.083   5.431
  166TIP3    H2  440   2.991   3.197   5.512
  167TIP3   OH2  441   6.006   4.368   3.182
  167TIP3    H1  442   5.977   4.448   3.139
  167TIP3    H2  443   5.926   4.330   3.220
  168TIP3   OH2  444   3.789   3.300   2.203
  168TIP3    H1  445   3.791   3.230   2.137
  168TIP3    H2  446   3.697   3.307   2.227
  169TIP3   OH2  447   0.866   5.946   2.830
  169TIP3    H1  448   0.936   5.993   2.875
  169TIP3    H2  449   0.804   5.923   2.899
  170TIP3   OH2  450   6.050   0.485   5.234
  170TIP3    H1  451   6.046   0.395   5.265
  170TIP3    H2  452   6.142   0.509   5.242
  171TIP3   OH2  453   6.218   6.175   2.097
  171TIP3    H1  454   6.311   6.177   2.120
  171TIP3    H2  455   6.215   6.137   2.010
  172TIP3   OH2  456   7.229   3.342   1.687
  172TIP3    H1  457   7.156   3.352   1.626
  172TIP3    H2  458   7.188   3.329   1.773
  173TIP3   OH2  459   6.317   1.780   3.531
  173TIP3    H1  460   6.288   1.765   3.621
  173TIP3    H2  461   6.236   1.785   3.480
  174TIP3   OH2  462   1.895   0.490   6.728
  174TIP3    H1  463   1.931   0.569   6.688
  174TIP3    H2  464   1.817   0.521   6.776
  175TIP3   OH2  465   0.661   2.745   0.823
  175TIP3    H1  466   0.626   2.656   0.816
  175TIP3    H2  467   0.751   2.738   0.791
  176TIP3   OH2  468   2.435   2.178   2.715
  176TIP3    H1  469   2.480   2.093   2.712
  176TIP3    H2  470   2.474   2.228   2.643
  177TIP3   OH2  471   1.424   6.923   5.482
  177TIP3    H1  472   1.459   6.870   5.411
  177TIP3    H2  473   1.419   7.011   5.446
  178TIP3   OH2  474   4.574   3.068   6.537
  178TIP3    H1  475   4.501   3.117   6.500
  178TIP3    H2  476   4.551   3.055   6.628
  179TIP3   OH2  477   6.263   0.651   0.542
  179TIP3    H1  478   6.205   0.593   0.494
  179TIP3    H2  479   6.235   0.643   0.633
  180TIP3   OH2  480   2.853   5.737   1.749
  180TIP3    H1  481   2.843   5.761   1.657
  180TIP3    H2  482   2.889   5.648   1.748
  181TIP3   OH2  483   7.632   2.098   5.025
  181TIP3    H1  484   7.677   2.152   5.090
  181TIP3    H2  485   7.655   2.137   4.941
  182TIP3   OH2  486   4.773   6.692   5.342
  182TIP3    H1  487   4.850   6.661   5.295
  182TIP3    H2  488   4.758   6.781   5.310
  183TIP3   OH2  489   2.395   6.960   1.878
  183TIP3    H1  490   2.478   6.931   1.916
  183TIP3    H2  491   2.354   6.880   1.845
  184TIP3   OH2  492   2.772   5.393   6.060
  184TIP3    H1  493   2.835   5.380   5.989
  184TIP3    H2  494   2.763   5.488   6.067
  185TIP3   OH2  495   3.909   5.184   0.727
  185TIP3    H1  496   3.886   5.272   0.699
  185TIP3    H2  497   3.829   5.148   0.764
  186TIP3   OH2  498   1.784   2.502   2.944
  186TIP3    H1  499   1.726   2.438   2.902
  186TIP3    H2  500   1.790   2.574   2.881
  187TIP3   OH2  501   5.302   3.069   0.275
  187TIP3    H1  502   5.249   3.140   0.311
  187TIP3    H2  503   5.294   2.998   0.339
  188TIP3   OH2  504   1.435   6.854   2.165
  188TIP3    H1  505   1.424   6.806   2.082
  188TIP3    H2  506   1.529   6.871   2.170
  189TIP3   OH2  507   3.922   5.936   4.038
  189TIP3    H1  508   3.886   6.021   4.064
  189TIP3    H2  509   3.955   5.950   3.949
  190TIP3   OH2  510   7.920   7.906   4.068
  190TIP3    H1  511   8.009   7.902   4.034
  190TIP3    H2  512   7.926   7.959   4.147
  191TIP3   OH2  513   2.577   3.302   4.894
  191TIP3    H1  514   2.596   3.217   4.856
  191TIP3    H2  515   2.614   3.366   4.833
  192TIP3   OH2  516   1.715   4.356   2.361
  192TIP3    H1  517   1.774   4.424   2.394
  192TIP3    H2  518   1.708   4.374   2.267
  193TIP3   OH2  519   4.144   6.996   3.262
  193TIP3    H1  520   4.062   6.948   3.277
  193TIP3    H2  521   4.159   6.990   3.167
  194TIP3   OH2  522   6.922   4.640   0.266
  194TIP3    H1  523   6.973   4.664   0.189
  194TIP3    H2  524   6.954   4.697   0.335
  195TIP3   OH2  525   1.685   3.607   2.875
  195TIP3    H1  526   1.721   3.556   2.802
  195TIP3    H2  527   1.638   3.679   2.834
  196TIP3   OH2  528   5.225   5.050   1.701
  196TIP3    H1  529   5.268   5.017   1.780
  196TIP3    H2  530   5.133   5.027   1.713
  197TIP3   OH2  531   3.371   2.679   1.630
  197TIP3    H1  532   3.369   2.736   1.707
  197TIP3    H2  533   3.441   2.617   1.647
  198TIP3   OH2  534   2.139   3.420  -0.017
  198TIP3    H1  535   2.072   3.367  -0.059
  198TIP3    H2  536   2.161   3.372   0.063
  199TIP3   OH2  537   0.781   4.072   0.097
  199TIP3    H1  538   0.834   4.119   0.161
  199TIP3    H2  539   0.725   4.140   0.057
  200TIP3   OH2  540   4.088   1.786   4.030
  200TIP3    H1  541   4.002   1.745   4.035
  200TIP3    H2  542   4.140   1.742   4.097
  201TIP3   OH2  543   5.563   6.769   0.040
  201TIP3    H1  544   5.532   6.707   0.107
  201TIP3    H2  545   5.540   6.855   0.076
  202TIP3   OH2  546   5.605   5.980   6.382
  202TIP3    H1  547   5.550   5.926   6.326
  202TIP3    H2  548   5.690   5.982   6.339
  203TIP3   OH2  549   5.809   7.594   4.552
  203TIP3    H1  550   5.886   7.588   4.496
  203TIP3    H2  551   5.825   7.530   4.621
  204TIP3   OH2  552   2.717   0.894   3.396
  204TIP3    H1  553   2.624   0.917   3.389
  204TIP3    H2  554   2.743   0.925   3.483
  205TIP3   OH2  555   0.892   4.582   5.705
  205TIP3    H1  556   0.973   4.533   5.711
  205TIP3    H2  557   0.823   4.518   5.722
  206TIP3   OH2  558   3.763   7.359   3.736
  206TIP3    H1  559   3.697   7.376   3.803
  206TIP3    H2  560   3.842   7.339   3.785
  207TIP3   OH2  561   6.801   1.610   4.407
  207TIP3    H1  562   6.782   1.625   4.499
  207TIP3    H2  563   6.896   1.604   4.402
  208TIP3   OH2  564   2.139   5.976   6.772
  208TIP3    H1  565   2.047   5.985   6.798
  208TIP3    H2  566   2.169   6.066   6.761
  209TIP3   OH2  567   1.978   2.613   0.416
  209TIP3    H1  568   1.963   2.540   0.476
  209TIP3    H2  569   2.000   2.687   0.474
  210TIP3   OH2  570   5.600   0.318   1.382
  210TIP3    H1  571   5.662   0.310   1.309
  210TIP3    H2  572   5.644   0.278   1.456
  211TIP3   OH2  573   7.623   5.555   4.284
  211TIP3    H1  574   7.667   5.510   4.212
  211TIP3    H2  575   7.681   5.628   4.306
  212TIP3   OH2  576   0.412   5.844   5.582
  212TIP3    H1  577   0.327   5.869   5.545
  212TIP3    H2  578   0.469   5.838   5.506
  213TIP3   OH2  579   8.264   5.586   6.595
  213TIP3    H1  580   8.313   5.604   6.515
  213TIP3    H2  581   8.271   5.667   6.645
  214TIP3   OH2  582   2.567   4.919   2.320
  214TIP3    H1  583   2.646   4.925   2.268
  214TIP3    H2  584   2.596   4.935   2.410
  215TIP3   OH2  585   0.132   4.581   4.017
  215TIP3    H1  586   0.062   4.518   3.998
  215TIP3    H2  587   0.168   4.552   4.101
  216TIP3   OH2  588   6.749   1.375   4.691
  216TIP3    H1  589   6.692   1.346   4.763
  216TIP3    H2  590   6.744   1.470   4.694
  217TIP3   OH2  591   5.498   4.445   1.713
  217TIP3    H1  592   5.479   4.481   1.627
  217TIP3    H2  593   5.522   4.354   1.696
  218TIP3   OH2  594   7.175   4.135   6.827
  218TIP3    H1  595   7.225   4.057   6.850
  218TIP3    H2  596   7.106   4.102   6.769
  219TIP3   OH2  597   7.088   3.950   5.088
  219TIP3    H1  598   7.141   3.873   5.067
  219TIP3    H2  599   7.058   3.983   5.003
  220TIP3   OH2  600   2.865   1.097   4.040
  220TIP3    H1  601   2.920   1.174   4.028
  220TIP3    H2  602   2.778   1.124   4.008
  221TIP3   OH2  603   4.704   6.511   5.126
  221TIP3    H1  604   4.630   6.571   5.131
  221TIP3    H2  605   4.780   6.564   5.150
  222TIP3   OH2  606   8.152   6.144   2.103
  222TIP3    H1  607   8.076   6.104   2.060
  222TIP3    H2  608   8.127   6.236   2.115
  223TIP3   OH2  609   5.773   6.502   1.577
  223TIP3    H1  610   5.813   6.444   1.642
  223TIP3    H2  611   5.689   6.461   1.557
  224TIP3   OH2  612   4.552   2.794   5.849
  224TIP3    H1  613   4.617   2.777   5.781
  224TIP3    H2  614   4.478   2.831   5.802
  225TIP3   OH2  615   3.698   0.970   4.678
  225TIP3    H1  616   3.669   1.054   4.715
  225TIP3    H2  617   3.622   0.938   4.629
  226TIP3   OH2  618   2.754   7.431   3.820
  226TIP3    H1  619   2.710   7.502   3.773
  226TIP3    H2  620   2.737   7.449   3.913
  227TIP3   OH2  621   5.204   6.914   1.828
  227TIP3    H1  622   5.295   6.909   1.797
  227TIP3    H2  623   5.173   6.998   1.796
  228TIP3   OH2  624   4.228   1.130   1.933
  228TIP3    H1  625   4.250   1.101   2.021
  228TIP3    H2  626   4.281   1.075   1.875
  229TIP3   OH2  627   6.541   7.058   6.878
  229TIP3    H1  628   6.499   7.127   6.930
  229TIP3    H2  629   6.574   7.102   6.800
  230TIP3   OH2  630   2.544   5.054   0.114
  230TIP3    H1  631   2.605   5.128   0.110
  230TIP3    H2  632   2.471   5.081   0.058
  231TIP3   OH2  633   0.851   0.358   5.141
  231TIP3    H1  634   0.818   0.443   5.112
  231TIP3    H2  635   0.899   0.324   5.065
  232TIP3   OH2  636   7.996   7.472   5.525
  232TIP3    H1  637   7.942   7.483   5.447
  232TIP3    H2  638   7.947   7.412   5.581
  233TIP3   OH2  639   5.726   4.544   0.311
  233TIP3    H1  640   5.758   4.485   0.379
  233TIP3    H2  641   5.768   4.628   0.330
  234TIP3   OH2  642   7.614   7.775   6.388
  234TIP3    H1  643   7.637   7.826   6.310
  234TIP3    H2  644   7.576   7.838   6.448
  235TIP3   OH2  645   6.373   2.236   3.860
  235TIP3    H1  646   6.438   2.176   3.822
  235TIP3    H2  647   6.289   2.201   3.831
  236TIP3   OH2  648   5.734   3.314   2.855
  236TIP3    H1  649   5.818   3.282   2.821
  236TIP3    H2  650   5.744   3.310   2.950
  237TIP3   OH2  651   3.051   2.395   3.729
  237TIP3    H1  652   3.089   2.396   3.641
  237TIP3    H2  653   3.125   2.403   3.788
  238TIP3   OH2  654   2.584   7.921   1.723
  238TIP3    H1  655   2.630   7.892   1.644
  238TIP3    H2  656   2.653   7.932   1.788
  239TIP3   OH2  657   4.562   5.987   5.781
  239TIP3    H1  658   4.488   6.027   5.736
  239TIP3    H2  659   4.637   6.042   5.757
  240TIP3   OH2  660   4.197   2.593   5.050
  240TIP3    H1  661   4.117   2.568   5.004
  240TIP3    H2  662   4.265   2.592   4.982
  241TIP3   OH2  663   4.028   5.857   1.919
  241TIP3    H1  664   3.941   5.817   1.928
  241TIP3    H2  665   4.027   5.899   1.833
  242TIP3   OH2  666   5.451   3.826   2.773
  242TIP3    H1  667   5.373   3.850   2.723
  242TIP3    H2  668   5.438   3.735   2.797
  243TIP3   OH2  669   0.303   4.034   4.477
  243TIP3    H1  670   0.325   4.073   4.562
  243TIP3    H2  671   0.209   4.018   4.482
  244TIP3   OH2  672   4.976   1.923   4.059
  244TIP3    H1  673   5.023   1.874   4.127
  244TIP3    H2  674   4.896   1.953   4.103
  245TIP3   OH2  675   6.852   2.540   6.689
  245TIP3    H1  676   6.938   2.500   6.704
  245TIP3    H2  677   6.801   2.519   6.768
  246TIP3   OH2  678   2.991   0.835   4.655
  246TIP3    H1  679   3.006   0.801   4.743
  246TIP3    H2  680   2.989   0.930   4.667
  247TIP3   OH2  681   6.201   3.823   2.245
  247TIP3    H1  682   6.137   3.795   2.310
  247TIP3    H2  683   6.187   3.764   2.171
  248TIP3   OH2  684   2.192   4.623   1.764
  248TIP3    H1  685   2.195   4.535   1.800
  248TIP3    H2  686   2.266   4.626   1.702
  249TIP3   OH2  687   4.400   7.128   3.999
  249TIP3    H1  688   4.354   7.046   3.981
  249TIP3    H2  689   4.448   7.146   3.918
  250TIP3   OH2  690   8.268   7.043   5.938
  250TIP3    H1  691   8.352   6.997   5.932
  250TIP3    H2  692   8.260   7.065   6.030
  251TIP3   OH2  693   3.561   2.007   5.223
  251TIP3    H1  694   3.516   2.007   5.139
  251TIP3    H2  695   3.562   1.915   5.250
  252TIP3   OH2  696   4.711   4.225   4.075
  252TIP3    H1  697   4.747   4.219   3.987
  252TIP3    H2  698   4.783   4.262   4.128
  253TIP3   OH2  699   5.012   1.634   0.212
  253TIP3    H1  700   4.919   1.611   0.210
  253TIP3    H2  701   5.058   1.551   0.223
  254TIP3   OH2  702   4.248   1.685   0.396
  254TIP3    H1  703   4.240   1.637   0.479
  254TIP3    H2  704   4.181   1.753   0.401
  255TIP3   OH2  705   4.628   1.853   4.731
  255TIP3    H1  706   4.594   1.838   4.819
  255TIP3    H2  707   4.594   1.780   4.679
  256TIP3   OH2  708   4.458   7.383   5.301
  256TIP3    H1  709   4.481   7.394   5.209
  256TIP3    H2  710   4.482   7.293   5.321
  257TIP3   OH2  711   0.210   2.078   3.064
  257TIP3    H1  712   0.195   2.104   3.155
  257TIP3    H2  713   0.302   2.098   3.048
  258TIP3   OH2  714   8.319   3.140   4.517
  258TIP3    H1  715   8.353   3.124   4.605
  258TIP3    H2  716   8.396   3.132   4.460
  259TIP3   OH2  717   3.914   5.135   4.200
  259TIP3    H1  718   3.998   5.178   4.184
  259TIP3    H2  719   3.883   5.170   4.283
  260TIP3   OH2  720   3.657   7.912   2.779
  260TIP3    H1  721   3.702   7.828   2.771
  260TIP3    H2  722   3.564   7.889   2.773
  261TIP3   OH2  723   2.748   1.177   5.126
  261TIP3    H1  724   2.838   1.145   5.135
  261TIP3    H2  725   2.716   1.138   5.045
  262TIP3   OH2  726   4.095   6.706   6.819
  262TIP3    H1  727   4.049   6.705   6.735
  262TIP3    H2  728   4.026   6.702   6.885
  263TIP3   OH2  729   6.064   4.777   3.569
  263TIP3    H1  730   5.982   4.728   3.560
  263TIP3    H2  731   6.085   4.804   3.479
  264TIP3   OH2  732   6.254   7.832   4.793
  264TIP3    H1  733   6.307   7.874   4.860
  264TIP3    H2  734   6.257   7.892   4.718
  265TIP3   OH2  735   0.191   1.805   2.567
  265TIP3    H1  736   0.182   1.900   2.576
  265TIP3    H2  737   0.285   1.788   2.571
  266TIP3   OH2  738   4.800   5.266   6.784
  266TIP3    H1  739   4.782   5.172   6.797
  266TIP3    H2  740   4.785   5.280   6.691
  267TIP3   OH2  741   1.003   1.201   3.983
  267TIP3    H1  742   1.042   1.139   3.920
  267TIP3    H2  743   0.997   1.151   4.065
  268TIP3   OH2  744   2.207   6.665   4.169
  268TIP3    H1  745   2.247   6.665   4.082
  268TIP3    H2  746   2.245   6.741   4.213
  269TIP3   OH2  747   3.675   4.101   6.160
  269TIP3    H1  748   3.682   4.192   6.191
  269TIP3    H2  749   3.599   4.066   6.207
  270TIP3   OH2  750   4.416   0.480   5.859
  270TIP3    H1  751   4.325   0.498   5.882
  270TIP3    H2  752   4.418   0.489   5.763
  271TIP3   OH2  753   3.699   1.967   3.753
  271TIP3    H1  754   3.781   1.953   3.704
  271TIP3    H2  755   3.697   2.061   3.770
  272TIP3   OH2  756   3.302   3.009   1.063
  272TIP3    H1  757   3.301   2.976   1.153
  272TIP3    H2  758   3.295   3.104   1.071
  273TIP3   OH2  759   4.658   7.492   0.857
  273TIP3    H1  760   4.623   7.406   0.876
  273TIP3    H2  761   4.703   7.519   0.938
  274TIP3   OH2  762   7.332   5.663   2.024
  274TIP3    H1  763   7.416   5.618   2.016
  274TIP3    H2  764   7.298   5.666   1.934
  275TIP3   OH2  765   2.837   1.121   1.496
  275TIP3    H1  766   2.775   1.160   1.557
  275TIP3    H2  767   2.813   1.157   1.410
  276TIP3   OH2  768   1.319   7.854   1.111
  276TIP3    H1  769   1.336   7.875   1.202
  276TIP3    H2  770   1.391   7.895   1.063
  277TIP3   OH2  771   7.617   4.614   3.131
  277TIP3    H1  772   7.537   4.579   3.093
  277TIP3    H2  773   7.591   4.648   3.216
  278TIP3   OH2  774   6.288   5.413   3.995
  278TIP3    H1  775   6.347   5.489   3.999
  278TIP3    H2  776   6.328   5.356   3.929
  279TIP3   OH2  777   7.386   2.673   0.323
  279TIP3    H1  778   7.353   2.656   0.411
  279TIP3    H2  779   7.322   2.734   0.285
  280TIP3   OH2  780   6.694   3.877   4.198
  280TIP3    H1  781   6.618   3.902   4.145
  280TIP3    H2  782   6.768   3.878   4.138
  281TIP3   OH2  783   1.382   2.475   3.633
  281TIP3    H1  784   1.374   2.496   3.540
  281TIP3    H2  785   1.466   2.513   3.659
  282TIP3   OH2  786   5.489   1.214   4.204
  282TIP3    H1  787   5.443   1.273   4.264
  282TIP3    H2  788   5.580   1.242   4.209
  283TIP3   OH2  789   8.076   0.874   6.331
  283TIP3    H1  790   8.060   0.967   6.319
  283TIP3    H2  791   8.170   0.867   6.345
  284TIP3   OH2  792   0.659   0.212   3.662
  284TIP3    H1  793   0.619   0.183   3.744
  284TIP3    H2  794   0.743   0.250   3.688
  285TIP3   OH2  795   7.699   3.907   6.351
  285TIP3    H1  796   7.742   3.967   6.412
  285TIP3    H2  797   7.642   3.853   6.406
  286TIP3   OH2  798   2.485   4.202   6.813
  286TIP3    H1  799   2.567   4.237   6.776
  286TIP3    H2  800   2.452   4.143   6.745
  287TIP3   OH2  801   4.227   0.082   5.572
  287TIP3    H1  802   4.237   0.174   5.548
  287TIP3    H2  803   4.184   0.083   5.657
  288TIP3   OH2  804   8.088   5.486   5.344
  288TIP3    H1  805   8.051   5.401   5.369
  288TIP3    H2  806   8.036   5.512   5.268
  289TIP3   OH2  807   2.842   1.526   2.564
  289TIP3    H1  808   2.818   1.434   2.567
  289TIP3    H2  809   2.886   1.543   2.647
  290TIP3   OH2  810   4.382   2.925   2.876
  290TIP3    H1  811   4.335   2.986   2.818
  290TIP3    H2  812   4.431   2.869   2.817
  291TIP3   OH2  813   7.023   2.324   0.796
  291TIP3    H1  814   7.063   2.399   0.839
  291TIP3    H2  815   7.037   2.251   0.856
  292TIP3   OH2  816   5.050   6.207   1.452
  292TIP3    H1  817   5.033   6.168   1.366
  292TIP3    H2  818   4.966   6.200   1.498
  293TIP3   OH2  819   6.916   6.362   6.139
  293TIP3    H1  820   6.906   6.426   6.208
  293TIP3    H2  821   6.852   6.388   6.072
  294TIP3   OH2  822   1.564   3.000   0.566
  294TIP3    H1  823   1.624   2.926   0.571
  294TIP3    H2  824   1.477   2.960   0.564
  295TIP3   OH2  825   2.619   4.192   1.857
  295TIP3    H1  826   2.713   4.199   1.839
  295TIP3    H2  827   2.605   4.099   1.874
  296TIP3   OH2  828   8.119   1.461   4.936
  296TIP3    H1  829   8.081   1.394   4.879
  296TIP3    H2  830   8.058   1.534   4.931
  297TIP3   OH2  831   0.643   5.625   3.315
  297TIP3    H1  832   0.728   5.621   3.272
  297TIP3    H2  833   0.662   5.644   3.407
  298TIP3   OH2  834   5.988   3.038   6.446
  298TIP3    H1  835   5.981   3.027   6.351
  298TIP3    H2  836   5.919   2.981   6.482
  299TIP3   OH2  837   2.675   0.061   1.857
  299TIP3    H1  838   2.611   0.010   1.807
  299TIP3    H2  839   2.627   0.138   1.888
  300TIP3   OH2  840   8.320   3.508   6.748
  300TIP3    H1  841   8.414   3.490   6.747
  300TIP3    H2  842   8.287   3.454   6.820
  301TIP3   OH2  843   5.888   3.876   4.723
  301TIP3    H1  844   5.900   3.852   4.815
  301TIP3    H2  845   5.893   3.793   4.675
  302TIP3   OH2  846   1.897   4.147   6.441
  302TIP3    H1  847   1.937   4.125   6.357
  302TIP3    H2  848   1.837   4.219   6.420
  303TIP3   OH2  849   3.250   7.591   5.704
  303TIP3    H1  850   3.157   7.589   5.727
  303TIP3    H2  851   3.274   7.683   5.704
  304TIP3   OH2  852   2.781   6.269   2.369
  304TIP3    H1  853   2.851   6.258   2.304
  304TIP3    H2  854   2.740   6.352   2.344
  305TIP3   OH2  855   5.689   6.902   6.921
  305TIP3    H1  856   5.611   6.930   6.872
  305TIP3    H2  857   5.673   6.810   6.942
  306TIP3   OH2  858   4.003   2.583   5.458
  306TIP3    H1  859   3.941   2.510   5.458
  306TIP3    H2  860   3.949   2.660   5.475
  307TIP3   OH2  861   1.830   5.865   0.739
  307TIP3    H1  862   1.784   5.861   0.655
  307TIP3    H2  863   1.913   5.907   0.718
  308TIP3   OH2  864   2.664   2.087   1.619
  308TIP3    H1  865   2.638   2.022   1.553
  308TIP3    H2  866   2.695   2.162   1.569
  309TIP3   OH2  867   3.945   2.506   1.143
  309TIP3    H1  868   3.998   2.441   1.096
  309TIP3    H2  869   4.008   2.572   1.172
  310TIP3   OH2  870   7.065   1.387   2.684
  310TIP3    H1  871   6.986   1.334   2.697
  310TIP3    H2  872   7.043   1.473   2.722
  311TIP3   OH2  873   6.824   1.746   0.088
  311TIP3    H1  874   6.737   1.718   0.116
  311TIP3    H2  875   6.809   1.823   0.034
  312TIP3   OH2  876   6.245   2.059   2.871
  312TIP3    H1  877   6.252   2.134   2.812
  312TIP3    H2  878   6.330   2.017   2.866
  313TIP3   OH2  879   7.340   4.019   1.458
  313TIP3    H1  880   7.325   4.109   1.427
  313TIP3    H2  881   7.262   3.999   1.510
  314TIP3   OH2  882   3.800   2.477   5.201
  314TIP3    H1  883   3.804   2.570   5.223
  314TIP3    H2  884   3.892   2.452   5.188
  315TIP3   OH2  885   3.345   5.290   6.040
  315TIP3    H1  886   3.423   5.238   6.055
  315TIP3    H2  887   3.374   5.363   5.986
  316TIP3   OH2  888   4.750   5.224   4.571
  316TIP3    H1  889   4.782   5.290   4.632
  316TIP3    H2  890   4.830   5.183   4.536
  317TIP3   OH2  891   3.331   1.883   1.826
  317TIP3    H1  892   3.383   1.960   1.802
  317TIP3    H2  893   3.321   1.834   1.744
  318TIP3   OH2  894   1.362   3.016   5.917
  318TIP3    H1  895   1.404   2.978   5.994
  318TIP3    H2  896   1.302   2.948   5.887
  319TIP3   OH2  897   2.396   6.414   1.394
  319TIP3    H1  898   2.482   6.414   1.437
  319TIP3    H2  899   2.371   6.322   1.391
  320TIP3   OH2  900   2.360   5.763   1.387
  320TIP3    H1  901   2.410   5.835   1.348
  320TIP3    H2  902   2.280   5.758   1.335
  321TIP3   OH2  903   6.876   4.985   5.718
  321TIP3    H1  904   6.816   4.976   5.793
  321TIP3    H2  905   6.891   4.895   5.688
  322TIP3   OH2  906   5.690   3.648   2.190
  322TIP3    H1  907   5.750   3.681   2.123
  322TIP3    H2  908   5.652   3.727   2.229
  323TIP3   OH2  909   4.107   3.938   5.287
  323TIP3    H1  910   4.167   4.008   5.261
  323TIP3    H2  911   4.158   3.858   5.274
  324TIP3   OH2  912   2.670   2.641   1.445
  324TIP3    H1  913   2.575   2.634   1.434
  324TIP3    H2  914   2.685   2.731   1.472
  325TIP3   OH2  915   0.770   3.416   1.707
  325TIP3    H1  916   0.802   3.468   1.781
  325TIP3    H2  917   0.756   3.481   1.637
  326TIP3   OH2  918   1.565   0.429   5.813
  326TIP3    H1  919   1.596   0.364   5.750
  326TIP3    H2  920   1.643   0.452   5.863
  327TIP3   OH2  921   3.562   7.846   1.900
  327TIP3    H1  922   3.609   7.814   1.977
  327TIP3    H2  923   3.537   7.935   1.922
  328TIP3   OH2  924   4.119   5.010   6.711
  328TIP3    H1  925   4.129   4.962   6.793
  328TIP3    H2  926   4.148   5.099   6.730
  329TIP3   OH2  927   4.586   7.887   4.090
  329TIP3    H1  928   4.674   7.904   4.124
  329TIP3    H2  929   4.585   7.928   4.004
  330TIP3   OH2  930   7.569   6.153   5.871
  330TIP3    H1  931   7.581   6.248   5.864
  330TIP3    H2  932   7.502   6.143   5.938
  331TIP3   OH2  933   4.009   1.021   4.064
  331TIP3    H1  934   4.074   0.972   4.115
  331TIP3    H2  935   3.991   0.965   3.988
  332TIP3   OH2  936   5.612   0.003   6.832
  332TIP3    H1  937   5.645  -0.017   6.744
  332TIP3    H2  938   5.686   0.047   6.875
  333TIP3   OH2  939   6.114   7.493   3.024
  333TIP3    H1  940   6.178   7.429   3.055
  333TIP3    H2  941   6.158   7.577   3.035
  334TIP3   OH2  942  -0.010   5.570   1.746
  334TIP3    H1  943  -0.096   5.544   1.712
  334TIP3    H2  944   0.025   5.489   1.784
  335TIP3   OH2  945   5.467   0.878   5.555
  335TIP3    H1  946   5.381   0.863   5.594
  335TIP3    H2  947   5.516   0.798   5.571
  336TIP3   OH2  948   5.599   2.215   2.604
  336TIP3    H1  949   5.671   2.240   2.662
  336TIP3    H2  950   5.574   2.296   2.559
  337TIP3   OH2  951   7.232   0.731   2.893
  337TIP3    H1  952   7.241   0.820   2.927
  337TIP3    H2  953   7.230   0.676   2.971
  338TIP3   OH2  954   4.640   2.554   1.518
  338TIP3    H1  955   4.603   2.610   1.586
  338TIP3    H2  956   4.566   2.504   1.485
  339TIP3   OH2  957   3.661   5.851   3.990
  339TIP3    H1  958   3.673   5.764   4.029
  339TIP3    H2  959   3.750   5.885   3.978
  340TIP3   OH2  960   6.481   6.449   5.527
  340TIP3    H1  961   6.505   6.373   5.473
  340TIP3    H2  962   6.565   6.482   5.560
  341TIP3   OH2  963   6.295   6.699   2.660
  341TIP3    H1  964   6.260   6.692   2.571
  341TIP3    H2  965   6.287   6.792   2.682
  342TIP3   OH2  966   4.471   6.496   2.188
  342TIP3    H1  967   4.517   6.412   2.200
  342TIP3    H2  968   4.525   6.543   2.124
  343TIP3   OH2  969   7.489   4.826   0.368
  343TIP3    H1  970   7.547   4.858   0.298
  343TIP3    H2  971   7.457   4.906   0.410
  344TIP3   OH2  972   1.556   3.486   1.859
  344TIP3    H1  973   1.468   3.523   1.851
  344TIP3    H2  974   1.583   3.470   1.768
  345TIP3   OH2  975   1.804   0.206   4.847
  345TIP3    H1  976   1.750   0.274   4.807
  345TIP3    H2  977   1.743   0.134   4.863
  346TIP3   OH2  978   5.557   6.383   5.806
  346TIP3    H1  979   5.592   6.428   5.883
  346TIP3    H2  980   5.512   6.451   5.757
  347TIP3   OH2  981   3.389   1.105   6.079
  347TIP3    H1  982   3.443   1.111   5.999
  347TIP3    H2  983   3.453   1.093   6.149
  348TIP3   OH2  984   1.141   6.420   5.159
  348TIP3    H1  985   1.203   6.440   5.229
  348TIP3    H2  986   1.134   6.324   5.159
  349TIP3   OH2  987   7.408   2.643   4.931
  349TIP3    H1  988   7.490   2.625   4.885
  349TIP3    H2  989   7.357   2.563   4.921
  350TIP3   OH2  990   1.961   3.684   5.501
  350TIP3    H1  991   1.975   3.757   5.442
  350TIP3    H2  992   2.049   3.649   5.517
  351TIP3   OH2  993   2.081   0.259   3.260
  351TIP3    H1  994   2.070   0.170   3.295
  351TIP3    H2  995   2.132   0.247   3.180
  352TIP3   OH2  996   4.227   6.890   3.669
  352TIP3    H1  997   4.245   6.944   3.592
  352TIP3    H2  998   4.132   6.891   3.678
  353TIP3   OH2  999   6.967   6.082   2.081
  353TIP3    H1 1000   6.891   6.107   2.028
  353TIP3    H2 1001   7.040   6.132   2.043
  354TIP3   OH2 1002   7.938   0.650   4.711
  354TIP3    H1 1003   7.991   0.724   4.680
  354TIP3    H2 1004   7.851   0.688   4.725
  355TIP3   OH2 1005   3.510   0.017   4.538
  355TIP3    H1 1006   3.527   0.064   4.456
  355TIP3    H2 1007   3.499   0.085   4.604
  356TIP3   OH2 1008   6.418   5.804   6.689
  356TIP3    H1 1009   6.362   5.862   6.637
  356TIP3    H2 1010   6.356   5.750   6.739
  357TIP3   OH2 1011   1.291   1.302   6.853
  357TIP3    H1 1012   1.312   1.388   6.816
  357TIP3    H2 1013   1.369   1.277   6.902
  358TIP3   OH2 1014   6.979   5.616   1.210
  358TIP3    H1 1015   6.980   5.557   1.134
  358TIP3    H2 1016   6.976   5.557   1.286
  359TIP3   OH2 1017   3.116   1.271   1.615
  359TIP3    H1 1018   3.081   1.277   1.704
  359TIP3    H2 1019   3.207   1.299   1.624
  360TIP3   OH2 1020   3.346   2.350   5.408
  360TIP3    H1 1021   3.441   2.342   5.401
  360TIP3    H2 1022   3.324   2.418   5.344
  361TIP3   OH2 1023   1.707   5.943   6.263
  361TIP3    H1 1024   1.683   6.018   6.210
  361TIP3    H2 1025   1.759   5.979   6.335
  362TIP3   OH2 1026   4.810   6.361   2.888
  362TIP3    H1 1027   4.750   6.316   2.827
  362TIP3    H2 1028   4.868   6.292   2.919
  363TIP3   OH2 1029   0.493   1.821   4.176
  363TIP3    H1 1030   0.460   1.885   4.113
  363TIP3    H2 1031   0.566   1.778   4.130
  364TIP3   OH2 1032   7.089   0.025   0.443
  364TIP3    H1 1033   7.104  -0.047   0.382
  364TIP3    H2 1034   7.176   0.062   0.459
  365TIP3   OH2 1035   3.204   2.326   3.517
  365TIP3    H1 1036   3.192   2.254   3.456
  365TIP3    H2 1037   3.294   2.315   3.549
  366TIP3   OH2 1038   6.507   0.777   3.554
  366TIP3    H1 1039   6.448   0.706   3.579
  366TIP3    H2 1040   6.454   0.856   3.563
  367TIP3   OH2 1041   3.092   7.123   2.799
  367TIP3    H1 1042   3.176   7.135   2.754
  367TIP3    H2 1043   3.051   7.210   2.797
  368TIP3   OH2 1044   1.032   6.062   0.660
  368TIP3    H1 1045   1.031   5.973   0.696
  368TIP3    H2 1046   0.940   6.090   0.665
  369TIP3   OH2 1047   7.234   7.762   4.075
  369TIP3    H1 1048   7.149   7.718   4.076
  369TIP3    H2 1049   7.297   7.691   4.059
  370TIP3   OH2 1050   5.152   4.905   1.139
  370TIP3    H1 1051   5.133   4.814   1.115
  370TIP3    H2 1052   5.167   4.902   1.233
  371TIP3   OH2 1053   1.280   6.081   3.948
  371TIP3    H1 1054   1.191   6.111   3.931
  371TIP3    H2 1055   1.324   6.155   3.989
  372TIP3   OH2 1056   3.810   1.522   6.031
  372TIP3    H1 1057   3.760   1.472   6.096
  372TIP3    H2 1058   3.793   1.614   6.054
  373TIP3   OH2 1059   3.103   0.067   0.409
  373TIP3    H1 1060   3.171   0.000   0.402
  373TIP3    H2 1061   3.020   0.018   0.405
  374TIP3   OH2 1062   5.058   6.364   1.953
  374TIP3    H1 1063   5.089   6.349   1.863
  374TIP3    H2 1064   5.054   6.459   1.961
  375TIP3   OH2 1065   3.836   6.453   3.099
  375TIP3    H1 1066   3.807   6.473   3.010
  375TIP3    H2 1067   3.774   6.387   3.130
  376TIP3   OH2 1068   3.746   6.356   0.877
  376TIP3    H1 1069   3.731   6.339   0.783
  376TIP3    H2 1070   3.704   6.282   0.921
  377TIP3   OH2 1071   7.578   5.225   0.976
  377TIP3    H1 1072   7.565   5.319   0.960
  377TIP3    H2 1073   7.646   5.222   1.044
  378TIP3   OH2 1074   1.501   2.639   0.819
  378TIP3    H1 1075   1.592   2.625   0.793
  378TIP3    H2 1076   1.450   2.609   0.743
  379TIP3   OH2 1077   3.336   6.621   2.028
  379TIP3    H1 1078   3.366   6.612   1.937
  379TIP3    H2 1079   3.408   6.665   2.073
  380TIP3   OH2 1080   4.735   5.808   1.823
  380TIP3    H1 1081   4.750   5.789   1.730
  380TIP3    H2 1082   4.664   5.872   1.823
  381TIP3   OH2 1083   7.371   3.766   2.282
  381TIP3    H1 1084   7.334   3.835   2.337
  381TIP3    H2 1085   7.441   3.727   2.336
  382TIP3   OH2 1086   5.488   0.946   4.186
  382TIP3    H1 1087   5.473   1.040   4.193
  382TIP3    H2 1088   5.575   0.932   4.224
  383TIP3   OH2 1089   1.006   4.302   4.857
  383TIP3    H1 1090   1.034   4.322   4.946
  383TIP3    H2 1091   0.934   4.362   4.839
  384TIP3   OH2 1092   7.440   6.139   0.168
  384TIP3    H1 1093   7.384   6.140   0.246
  384TIP3    H2 1094   7.418   6.220   0.122
  385TIP3   OH2 1095   5.610   2.845   4.262
  385TIP3    H1 1096   5.692   2.798   4.277
  385TIP3    H2 1097   5.555   2.822   4.337
  386TIP3   OH2 1098   1.791   3.521   2.641
  386TIP3    H1 1099   1.782   3.506   2.547
  386TIP3    H2 1100   1.795   3.433   2.679
  387TIP3   OH2 1101   3.526   5.140   2.412
  387TIP3    H1 1102   3.591   5.206   2.389
  387TIP3    H2 1103   3.523   5.140   2.507
  388TIP3   OH2 1104   5.955   6.766   0.681
  388TIP3    H1 1105   5.903   6.685   0.686
  388TIP3    H2 1106   5.972   6.789   0.773
  389TIP3   OH2 1107   2.825   5.487   3.017
  389TIP3    H1 1108   2.867   5.403   3.036
  389TIP3    H2 1109   2.831   5.496   2.922
  390TIP3   OH2 1110   7.822   5.339   3.844
  390TIP3    H1 1111   7.769   5.403   3.797
  390TIP3    H2 1112   7.779   5.255   3.828
  391TIP3   OH2 1113   8.279   4.543   0.471
  391TIP3    H1 1114   8.277   4.612   0.538
  391TIP3    H2 1115   8.190   4.507   0.471
  392TIP3   OH2 1116   3.163   4.962   5.951
  392TIP3    H1 1117   3.139   4.962   6.044
  392TIP3    H2 1118   3.258   4.977   5.951
  393TIP3   OH2 1119   4.571   6.851   5.477
  393TIP3    H1 1120   4.527   6.775   5.514
  393TIP3    H2 1121   4.640   6.815   5.422
  394TIP3   OH2 1122   3.945   5.947   5.013
  394TIP3    H1 1123   3.901   6.028   5.039
  394TIP3    H2 1124   3.943   5.949   4.917
  395TIP3   OH2 1125   5.340   1.771   2.755
  395TIP3    H1 1126   5.393   1.819   2.691
  395TIP3    H2 1127   5.263   1.826   2.768
  396TIP3   OH2 1128   0.448   7.042   2.639
  396TIP3    H1 1129   0.527   7.086   2.671
  396TIP3    H2 1130   0.479   6.986   2.568
  397TIP3   OH2 1131   0.769   4.421   2.467
  397TIP3    H1 1132   0.786   4.460   2.381
  397TIP3    H2 1133   0.674   4.421   2.474
  398TIP3   OH2 1134   4.251   2.954   6.601
  398TIP3    H1 1135   4.301   3.022   6.646
  398TIP3    H2 1136   4.160   2.982   6.611
  399TIP3   OH2 1137   2.427   0.852   2.079
  399TIP3    H1 1138   2.414   0.802   1.998
  399TIP3    H2 1139   2.485   0.797   2.132
  400TIP3   OH2 1140   0.575   4.959   0.598
  400TIP3    H1 1141   0.619   4.916   0.524
  400TIP3    H2 1142   0.493   4.910   0.608
  401TIP3   OH2 1143   7.918   4.542   6.303
  401TIP3    H1 1144   7.984   4.526   6.235
  401TIP3    H2 1145   7.970   4.559   6.382
  402TIP3   OH2 1146   3.636   3.984   1.258
  402TIP3    H1 1147   3.645   3.892   1.233
  402TIP3    H2 1148   3.568   4.018   1.200
  403TIP3   OH2 1149   3.212   4.973   4.901
  403TIP3    H1 1150   3.186   5.064   4.889
  403TIP3    H2 1151   3.308   4.976   4.901
  404TIP3   OH2 1152   0.471   1.113   0.324
  404TIP3    H1 1153   0.487   1.057   0.248
  404TIP3    H2 1154   0.377   1.128   0.323
  405TIP3   OH2 1155   1.952   1.221   3.905
  405TIP3    H1 1156   1.910   1.142   3.870
  405TIP3    H2 1157   1.961   1.279   3.829
  406TIP3   OH2 1158   3.763   2.912   0.882
  406TIP3    H1 1159   3.766   2.819   0.905
  406TIP3    H2 1160   3.822   2.954   0.945
  407TIP3   OH2 1161   3.057   2.547   2.228
  407TIP3    H1 1162   3.045   2.625   2.283
  407TIP3    H2 1163   3.151   2.537   2.220
  408TIP3   OH2 1164   5.781   2.685   4.937
  408TIP3    H1 1165   5.812   2.636   4.861
  408TIP3    H2 1166   5.798   2.776   4.915
  409TIP3   OH2 1167   6.049   1.493   0.822
  409TIP3    H1 1168   6.050   1.460   0.912
  409TIP3    H2 1169   6.114   1.563   0.821
  410TIP3   OH2 1170   2.750   6.204   4.532
  410TIP3    H1 1171   2.732   6.208   4.626
  410TIP3    H2 1172   2.747   6.295   4.503
  411TIP3   OH2 1173   1.271   0.645   0.417
  411TIP3    H1 1174   1.346   0.694   0.452
  411TIP3    H2 1175   1.227   0.708   0.360
  412TIP3   OH2 1176   0.152   0.807   2.613
  412TIP3    H1 1177   0.199   0.850   2.684
  412TIP3    H2 1178   0.220   0.783   2.550
  413TIP3   OH2 1179   7.456   7.179   2.515
  413TIP3    H1 1180   7.544   7.189   2.478
  413TIP3    H2 1181   7.461   7.223   2.600
  414TIP3   OH2 1182   0.970   0.975   6.766
  414TIP3    H1 1183   0.881   0.976   6.802
  414TIP3    H2 1184   1.016   1.043   6.815
  415TIP3   OH2 1185   8.271   5.809   3.115
  415TIP3    H1 1186   8.331   5.748   3.072
  415TIP3    H2 1187   8.322   5.889   3.126
  416TIP3   OH2 1188   0.085   2.413   4.664
  416TIP3    H1 1189   0.092   2.333   4.715
  416TIP3    H2 1190   0.009   2.400   4.609
  417TIP3   OH2 1191   6.528   5.310   0.826
  417TIP3    H1 1192   6.528   5.331   0.733
  417TIP3    H2 1193   6.586   5.376   0.865
  418TIP3   OH2 1194   6.204   3.832   5.077
  418TIP3    H1 1195   6.252   3.874   5.148
  418TIP3    H2 1196   6.240   3.872   4.997
  419TIP3   OH2 1197   3.067   4.105   1.675
  419TIP3    H1 1198   3.014   4.178   1.708
  419TIP3    H2 1199   3.122   4.144   1.608
  420TIP3   OH2 1200   0.627   4.812   3.842
  420TIP3    H1 1201   0.547   4.759   3.834
  420TIP3    H2 1202   0.613   4.885   3.781
  421TIP3   OH2 1203   2.666   0.906   0.066
  421TIP3    H1 1204   2.611   0.950   0.132
  421TIP3    H2 1205   2.743   0.962   0.058
  422TIP3   OH2 1206   4.379   3.421   4.871
  422TIP3    H1 1207   4.338   3.455   4.950
  422TIP3    H2 1208   4.429   3.345   4.900
  423TIP3   OH2 1209   1.509   6.020   5.928
  423TIP3    H1 1210   1.583   6.037   5.869
  423TIP3    H2 1211   1.432   6.044   5.877
  424TIP3   OH2 1212   2.745   1.438   1.370
  424TIP3    H1 1213   2.752   1.370   1.303
  424TIP3    H2 1214   2.835   1.464   1.388
  425TIP3   OH2 1215   1.945   3.785   6.559
  425TIP3    H1 1216   1.916   3.876   6.566
  425TIP3    H2 1217   1.873   3.740   6.515
  426TIP3   OH2 1218   5.583   4.164   0.165
  426TIP3    H1 1219   5.581   4.171   0.261
  426TIP3    H2 1220   5.676   4.170   0.143
  427TIP3   OH2 1221   0.812   1.897   0.120
  427TIP3    H1 1222   0.851   1.832   0.062
  427TIP3    H2 1223   0.844   1.875   0.207
  428TIP3   OH2 1224   6.103   0.640   1.237
  428TIP3    H1 1225   6.080   0.592   1.317
  428TIP3    H2 1226   6.174   0.587   1.198
  429TIP3   OH2 1227   5.079   1.914   1.018
  429TIP3    H1 1228   5.034   1.958   0.947
  429TIP3    H2 1229   5.037   1.828   1.024
  430TIP3   OH2 1230   3.621   5.834   5.768
  430TIP3    H1 1231   3.700   5.844   5.715
  430TIP3    H2 1232   3.622   5.909   5.828
  431TIP3   OH2 1233   7.746   5.158   1.552
  431TIP3    H1 1234   7.688   5.214   1.603
  431TIP3    H2 1235   7.730   5.182   1.460
  432TIP3   OH2 1236   0.836   5.632   2.510
  432TIP3    H1 1237   0.929   5.649   2.494
  432TIP3    H2 1238   0.810   5.571   2.441
  433TIP3   OH2 1239   7.894   6.612   5.573
  433TIP3    H1 1240   7.873   6.675   5.642
  433TIP3    H2 1241   7.932   6.665   5.503
  434TIP3   OH2 1242   0.809   4.609   1.274
  434TIP3    H1 1243   0.782   4.649   1.192
  434TIP3    H2 1244   0.884   4.661   1.303
  435TIP3   OH2 1245   1.613   5.779   1.566
  435TIP3    H1 1246   1.626   5.716   1.496
  435TIP3    H2 1247   1.544   5.741   1.620
  436TIP3   OH2 1248   0.692   0.714   2.868
  436TIP3    H1 1249   0.745   0.696   2.946
  436TIP3    H2 1250   0.651   0.629   2.847
  437TIP3   OH2 1251   4.736   2.619   1.028
  437TIP3    H1 1252   4.666   2.559   1.051
  437TIP3    H2 1253   4.695   2.706   1.033
  438TIP3   OH2 1254   5.345   5.418   1.529
  438TIP3    H1 1255   5.277   5.425   1.462
  438TIP3    H2 1256   5.302   5.375   1.603
  439TIP3   OH2 1257   2.704   7.115   3.906
  439TIP3    H1 1258   2.710   7.020   3.915
  439TIP3    H2 1259   2.784   7.148   3.946
  440TIP3   OH2 1260   4.373   0.421   4.053
  440TIP3    H1 1261   4.449   0.467   4.088
  440TIP3    H2 1262   4.408   0.368   3.981
  441TIP3   OH2 1263   5.251   6.019   0.045
  441TIP3    H1 1264   5.197   5.980   0.113
  441TIP3    H2 1265   5.337   5.978   0.056
  442TIP3   OH2 1266   3.549   3.519   1.965
  442TIP3    H1 1267   3.499   3.561   2.036
  442TIP3    H2 1268   3.543   3.581   1.892
  443TIP3   OH2 1269   2.388   6.589   6.209
  443TIP3    H1 1270   2.475   6.630   6.206
  443TIP3    H2 1271   2.391   6.532   6.286
  444TIP3   OH2 1272   4.519   3.910   2.816
  444TIP3    H1 1273   4.585   3.850   2.851
  444TIP3    H2 1274   4.467   3.936   2.892
  445TIP3   OH2 1275   6.136   0.309   5.716
  445TIP3    H1 1276   6.187   0.295   5.636
  445TIP3    H2 1277   6.200   0.302   5.786
  446TIP3   OH2 1278   8.174   7.797   0.243
  446TIP3    H1 1279   8.172   7.887   0.210
  446TIP3    H2 1280   8.236   7.800   0.317
  447TIP3   OH2 1281   0.265   6.579   6.582
  447TIP3    H1 1282   0.286   6.502   6.529
  447TIP3    H2 1283   0.340   6.637   6.570
  448TIP3   OH2 1284   7.766   2.262   3.328
  448TIP3    H1 1285   7.695   2.204   3.302
  448TIP3    H2 1286   7.745   2.288   3.417
  449TIP3   OH2 1287   2.052   5.697   0.434
  449TIP3    H1 1288   2.093   5.724   0.352
  449TIP3    H2 1289   1.982   5.638   0.408
  450TIP3   OH2 1290   3.957   3.398   4.614
  450TIP3    H1 1291   4.030   3.444   4.572
  450TIP3    H2 1292   3.998   3.332   4.668
  451TIP3   OH2 1293   2.453   2.889   1.612
  451TIP3    H1 1294   2.540   2.924   1.632
  451TIP3    H2 1295   2.410   2.959   1.562
  452TIP3   OH2 1296   8.306   5.523   2.852
  452TIP3    H1 1297   8.271   5.579   2.783
  452TIP3    H2 1298   8.398   5.549   2.858
  453TIP3   OH2 1299   6.252   2.016   0.237
  453TIP3    H1 1300   6.302   2.070   0.299
  453TIP3    H2 1301   6.169   2.063   0.226
  454TIP3   OH2 1302   0.163   0.249   4.286
  454TIP3    H1 1303   0.156   0.157   4.262
  454TIP3    H2 1304   0.257   0.267   4.286
  455TIP3   OH2 1305   6.595   1.336   5.199
  455TIP3    H1 1306   6.655   1.262   5.210
  455TIP3    H2 1307   6.642   1.411   5.236
  456TIP3   OH2 1308   4.051   0.363   3.519
  456TIP3    H1 1309   4.037   0.321   3.604
  456TIP3    H2 1310   4.078   0.292   3.461
  457TIP3   OH2 1311   8.165   1.828   1.636
  457TIP3    H1 1312   8.163   1.886   1.712
  457TIP3    H2 1313   8.185   1.742   1.673
  458TIP3   OH2 1314   8.055   1.518   3.931
  458TIP3    H1 1315   8.089   1.453   3.869
  458TIP3    H2 1316   8.084   1.602   3.895
  459TIP3   OH2 1317   5.493   5.281   4.382
  459TIP3    H1 1318   5.408   5.239   4.367
  459TIP3    H2 1319   5.556   5.223   4.341
  460TIP3   OH2 1320   7.050   2.758   4.808
  460TIP3    H1 1321   7.074   2.671   4.840
  460TIP3    H2 1322   6.962   2.748   4.773
  461TIP3   OH2 1323   5.165   1.195   0.371
  461TIP3    H1 1324   5.216   1.158   0.299
  461TIP3    H2 1325   5.231   1.226   0.434
  462TIP3   OH2 1326   6.527   3.293   0.952
  462TIP3    H1 1327   6.527   3.377   0.907
  462TIP3    H2 1328   6.467   3.238   0.901
  463TIP3   OH2 1329   3.987   0.885   3.358
  463TIP3    H1 1330   4.028   0.968   3.383
  463TIP3    H2 1331   4.032   0.820   3.412
  464TIP3   OH2 1332   1.597   1.978   6.859
  464TIP3    H1 1333   1.547   1.909   6.903
  464TIP3    H2 1334   1.574   1.968   6.766
  465TIP3   OH2 1335   7.149   0.562   3.575
  465TIP3    H1 1336   7.213   0.495   3.551
  465TIP3    H2 1337   7.093   0.570   3.497
  466TIP3   OH2 1338   4.158   1.058   2.682
  466TIP3    H1 1339   4.162   1.097   2.769
  466TIP3    H2 1340   4.116   1.124   2.627
  467TIP3   OH2 1341   6.039   6.669   1.236
  467TIP3    H1 1342   6.073   6.759   1.236
  467TIP3    H2 1343   6.104   6.619   1.287
  468TIP3   OH2 1344   6.224   2.585   1.872
  468TIP3    H1 1345   6.142   2.599   1.824
  468TIP3    H2 1346   6.278   2.534   1.811
  469TIP3   OH2 1347   3.771   4.472   4.058
  469TIP3    H1 1348   3.804   4.411   4.125
  469TIP3    H2 1349   3.781   4.558   4.097
  470TIP3   OH2 1350   0.327   4.808   0.642
  470TIP3    H1 1351   0.354   4.783   0.731
  470TIP3    H2 1352   0.232   4.795   0.641
  471TIP3   OH2 1353   7.903   6.162   1.056
  471TIP3    H1 1354   7.974   6.115   1.014
  471TIP3    H2 1355   7.860   6.209   0.984
  472TIP3   OH2 1356   1.683   0.838   2.679
  472TIP3    H1 1357   1.593   0.831   2.647
  472TIP3    H2 1358   1.734   0.860   2.601
  473TIP3   OH2 1359   5.994   5.633   4.330
  473TIP3    H1 1360   5.946   5.557   4.363
  473TIP3    H2 1361   5.968   5.641   4.238
  474TIP3   OH2 1362   4.688   3.067   1.348
  474TIP3    H1 1363   4.713   3.022   1.428
  474TIP3    H2 1364   4.770   3.095   1.309
  475TIP3   OH2 1365   5.597   1.153   5.737
  475TIP3    H1 1366   5.514   1.192   5.765
  475TIP3    H2 1367   5.592   1.063   5.768
  476TIP3   OH2 1368   2.271   6.866   6.558
  476TIP3    H1 1369   2.222   6.948   6.563
  476TIP3    H2 1370   2.205   6.799   6.538
  477TIP3   OH2 1371   5.427   5.481   4.023
  477TIP3    H1 1372   5.481   5.500   3.946
  477TIP3    H2 1373   5.410   5.387   4.018
  478TIP3   OH2 1374   7.066   1.225   5.794
  478TIP3    H1 1375   7.052   1.133   5.815
  478TIP3    H2 1376   7.077   1.269   5.879
  479TIP3   OH2 1377   1.600   0.581   1.352
  479TIP3    H1 1378   1.544   0.539   1.287
  479TIP3    H2 1379   1.617   0.668   1.316
  480TIP3   OH2 1380   1.715   3.586   4.871
  480TIP3    H1 1381   1.648   3.518   4.868
  480TIP3    H2 1382   1.797   3.540   4.854
  481TIP3   OH2 1383   7.224   4.573   5.321
  481TIP3    H1 1384   7.212   4.478   5.319
  481TIP3    H2 1385   7.167   4.606   5.251
  482TIP3   OH2 1386   3.123   4.667   6.023
  482TIP3    H1 1387   3.209   4.707   6.005
  482TIP3    H2 1388   3.115   4.672   6.118
  483TIP3   OH2 1389   5.289   1.528   3.847
  483TIP3    H1 1390   5.267   1.470   3.774
  483TIP3    H2 1391   5.379   1.556   3.829
  484TIP3   OH2 1392   4.091   4.852   5.622
  484TIP3    H1 1393   4.088   4.934   5.672
  484TIP3    H2 1394   4.024   4.864   5.554
  485TIP3   OH2 1395   7.538   6.977   1.845
  485TIP3    H1 1396   7.458   6.960   1.796
  485TIP3    H2 1397   7.535   7.071   1.864
  486TIP3   OH2 1398   6.462   1.372   0.454
  486TIP3    H1 1399   6.466   1.461   0.421
  486TIP3    H2 1400   6.545   1.332   0.428
  487TIP3   OH2 1401   6.191   7.824   2.759
  487TIP3    H1 1402   6.110   7.781   2.732
  487TIP3    H2 1403   6.250   7.813   2.685
  488TIP3   OH2 1404   0.734   5.240   3.758
  488TIP3    H1 1405   0.684   5.185   3.697
  488TIP3    H2 1406   0.742   5.324   3.713
  489TIP3   OH2 1407   0.564   6.626   5.878
  489TIP3    H1 1408   0.633   6.622   5.944
  489TIP3    H2 1409   0.598   6.573   5.805
  490TIP3   OH2 1410   7.345   0.487   0.001
  490TIP3    H1 1411   7.390   0.523   0.077
  490TIP3    H2 1412   7.359   0.392   0.008
  491TIP3   OH2 1413   3.798   0.544   5.521
  491TIP3    H1 1414   3.843   0.628   5.525
  491TIP3    H2 1415   3.865   0.479   5.542
  492TIP3   OH2 1416   5.641   2.559   3.638
  492TIP3    H1 1417   5.717   2.519   3.597
  492TIP3    H2 1418   5.576   2.566   3.568
  493TIP3   OH2 1419   0.995   6.661   1.588
  493TIP3    H1 1420   1.081   6.690   1.619
  493TIP3    H2 1421   0.978   6.713   1.509
  494TIP3   OH2 1422   1.595   2.066   4.578
  494TIP3    H1 1423   1.597   1.973   4.601
  494TIP3    H2 1424   1.603   2.068   4.483
  495TIP3   OH2 1425   3.517   7.720   5.920
  495TIP3    H1 1426   3.574   7.683   5.987
  495TIP3    H2 1427   3.569   7.718   5.840
  496TIP3   OH2 1428   4.901   0.719   4.461
  496TIP3    H1 1429   4.989   0.684   4.449
  496TIP3    H2 1430   4.911   0.813   4.448
  497TIP3   OH2 1431   7.812   4.597   0.999
  497TIP3    H1 1432   7.870   4.634   0.933
  497TIP3    H2 1433   7.821   4.655   1.075
  498TIP3   OH2 1434   2.117   2.026   2.953
  498TIP3    H1 1435   2.080   1.953   3.003
  498TIP3    H2 1436   2.187   2.059   3.008
  499TIP3   OH2 1437   1.772   4.302   6.088
  499TIP3    H1 1438   1.740   4.358   6.158
  499TIP3    H2 1439   1.867   4.296   6.103
  500TIP3   OH2 1440   7.927   3.286   4.880
  500TIP3    H1 1441   7.858   3.248   4.933
  500TIP3    H2 1442   7.886   3.364   4.841
  501TIP3   OH2 1443   2.296   5.913   4.698
  501TIP3    H1 1444   2.248   5.996   4.698
  501TIP3    H2 1445   2.311   5.894   4.606
  502TIP3   OH2 1446   0.598   0.585   5.303
  502TIP3    H1 1447   0.573   0.673   5.276
  502TIP3    H2 1448   0.693   0.580   5.287
  503TIP3   OH2 1449   3.889   4.457   4.471
  503TIP3    H1 1450   3.840   4.386   4.429
  503TIP3    H2 1451   3.845   4.537   4.443
  504TIP3   OH2 1452   3.118   1.018   3.306
  504TIP3    H1 1453   3.110   1.104   3.346
  504TIP3    H2 1454   3.030   0.999   3.272
  505TIP3   OH2 1455   2.341   2.942   6.068
  505TIP3    H1 1456   2.314   2.904   5.985
  505TIP3    H2 1457   2.380   2.869   6.117
  506TIP3   OH2 1458   4.825   0.418   4.204
  506TIP3    H1 1459   4.915   0.389   4.217
  506TIP3    H2 1460   4.772   0.340   4.217
  507TIP3   OH2 1461   6.620   2.766   0.493
  507TIP3    H1 1462   6.585   2.677   0.495
  507TIP3    H2 1463   6.542   2.821   0.486
  508TIP3   OH2 1464   8.333   1.875   0.112
  508TIP3    H1 1465   8.253   1.845   0.156
  508TIP3    H2 1466   8.305   1.901   0.025
  509TIP3   OH2 1467   2.510   4.134   2.759
  509TIP3    H1 1468   2.524   4.143   2.854
  509TIP3    H2 1469   2.452   4.059   2.750
  510TIP3   OH2 1470   6.472   0.456   0.253
  510TIP3    H1 1471   6.443   0.486   0.339
  510TIP3    H2 1472   6.564   0.433   0.265
  511TIP3   OH2 1473   4.953   7.470   2.227
  511TIP3    H1 1474   5.014   7.458   2.299
  511TIP3    H2 1475   4.869   7.436   2.260
  512TIP3   OH2 1476   1.420   1.531   3.321
  512TIP3    H1 1477   1.423   1.626   3.306
  512TIP3    H2 1478   1.332   1.516   3.357
  513TIP3   OH2 1479   0.407   3.136   6.052
  513TIP3    H1 1480   0.329   3.189   6.070
  513TIP3    H2 1481   0.406   3.068   6.119
  514TIP3   OH2 1482   4.616   0.823   2.412
  514TIP3    H1 1483   4.619   0.733   2.445
  514TIP3    H2 1484   4.635   0.815   2.319
  515TIP3   OH2 1485   1.204   5.868   0.530
  515TIP3    H1 1486   1.274   5.904   0.476
  515TIP3    H2 1487   1.147   5.943   0.548
  516TIP3   OH2 1488   0.355   1.540   4.096
  516TIP3    H1 1489   0.336   1.581   4.180
  516TIP3    H2 1490   0.417   1.600   4.054
  517TIP3   OH2 1491   0.132   7.524   6.156
  517TIP3    H1 1492   0.218   7.565   6.149
  517TIP3    H2 1493   0.070   7.593   6.134
  518TIP3   OH2 1494   3.529   7.387   1.983
  518TIP3    H1 1495   3.435   7.366   1.982
  518TIP3    H2 1496   3.532   7.483   1.989
  519TIP3   OH2 1497   0.659   7.047   0.680
  519TIP3    H1 1498   0.581   7.065   0.628
  519TIP3    H2 1499   0.714   7.125   0.671
  520TIP3   OH2 1500   5.527   5.753   1.759
  520TIP3    H1 1501   5.547   5.666   1.793
  520TIP3    H2 1502   5.493   5.801   1.834
  521TIP3   OH2 1503   4.913   4.761   6.436
  521TIP3    H1 1504   4.962   4.701   6.380
  521TIP3    H2 1505   4.958   4.845   6.426
  522TIP3   OH2 1506   2.873   7.391   3.163
  522TIP3    H1 1507   2.833   7.348   3.239
  522TIP3    H2 1508   2.949   7.437   3.199
  523TIP3   OH2 1509   3.541   4.080   6.616
  523TIP3    H1 1510   3.447   4.061   6.623
  523TIP3    H2 1511   3.584   4.003   6.652
  524TIP3   OH2 1512   3.627   4.722   0.675
  524TIP3    H1 1513   3.552   4.719   0.615
  524TIP3    H2 1514   3.647   4.631   0.694
  525TIP3   OH2 1515   0.460   2.248   5.793
  525TIP3    H1 1516   0.540   2.292   5.766
  525TIP3    H2 1517   0.450   2.270   5.886
  526TIP3   OH2 1518   7.079   7.532   2.294
  526TIP3    H1 1519   7.084   7.620   2.256
  526TIP3    H2 1520   7.080   7.546   2.389
  527TIP3   OH2 1521   1.035   0.132   3.640
  527TIP3    H1 1522   1.124   0.098   3.632
  527TIP3    H2 1523   0.990   0.070   3.697
  528TIP3   OH2 1524   4.115   1.014   6.189
  528TIP3    H1 1525   4.166   0.936   6.167
  528TIP3    H2 1526   4.176   1.086   6.177
  529TIP3   OH2 1527   7.275   0.734   4.208
  529TIP3    H1 1528   7.217   0.746   4.133
  529TIP3    H2 1529   7.356   0.701   4.171
  530TIP3   OH2 1530   7.955   3.641   0.652
  530TIP3    H1 1531   7.884   3.704   0.641
  530TIP3    H2 1532   8.026   3.692   0.691
  531TIP3   OH2 1533   3.814   2.345   0.387
  531TIP3    H1 1534   3.819   2.374   0.295
  531TIP3    H2 1535   3.721   2.331   0.403
  532TIP3   OH2 1536   6.121   4.697   4.718
  532TIP3    H1 1537   6.086   4.670   4.634
  532TIP3    H2 1538   6.051   4.676   4.781
  533TIP3   OH2 1539   4.623   5.739   5.873
  533TIP3    H1 1540   4.593   5.675   5.809
  533TIP3    H2 1541   4.596   5.823   5.838
  534TIP3   OH2 1542   7.074   4.118   1.125
  534TIP3    H1 1543   7.114   4.181   1.185
  534TIP3    H2 1544   7.001   4.081   1.174
  535TIP3   OH2 1545   7.531   6.507   0.835
  535TIP3    H1 1546   7.452   6.454   0.843
  535TIP3    H2 1547   7.503   6.585   0.789
  536TIP3   OH2 1548   5.735   0.985   3.744
  536TIP3    H1 1549   5.739   1.076   3.715
  536TIP3    H2 1550   5.642   0.970   3.761
  537TIP3   OH2 1551   7.879   2.246   5.774
  537TIP3    H1 1552   7.791   2.217   5.754
  537TIP3    H2 1553   7.931   2.221   5.698
  538TIP3   OH2 1554   5.999   7.709   0.598
  538TIP3    H1 1555   5.990   7.804   0.593
  538TIP3    H2 1556   6.032   7.683   0.512
  539TIP3   OH2 1557   3.845   1.779   2.360
  539TIP3    H1 1558   3.880   1.852   2.309
  539TIP3    H2 1559   3.759   1.763   2.323
  540TIP3   OH2 1560   8.324   1.291   5.898
  540TIP3    H1 1561   8.394   1.252   5.951
  540TIP3    H2 1562   8.330   1.385   5.918
  541TIP3   OH2 1563   3.169   7.476   6.018
  541TIP3    H1 1564   3.160   7.571   6.007
  541TIP3    H2 1565   3.262   7.459   6.008
  542TIP3   OH2 1566   5.936   2.212   5.281
  542TIP3    H1 1567   6.021   2.193   5.322
  542TIP3    H2 1568   5.891   2.127   5.279
  543TIP3   OH2 1569   6.580   4.983   2.523
  543TIP3    H1 1570   6.550   5.055   2.577
  543TIP3    H2 1571   6.665   5.012   2.489
  544TIP3   OH2 1572   0.491   3.586   5.988
  544TIP3    H1 1573   0.436   3.661   6.012
  544TIP3    H2 1574   0.540   3.566   6.067
  545TIP3   OH2 1575   6.759   6.786   4.508
  545TIP3    H1 1576   6.702   6.852   4.470
  545TIP3    H2 1577   6.773   6.815   4.598
  546TIP3   OH2 1578   1.041   5.385   4.231
  546TIP3    H1 1579   1.041   5.305   4.178
  546TIP3    H2 1580   0.950   5.397   4.258
  547TIP3   OH2 1581   3.826   1.484   5.125
  547TIP3    H1 1582   3.916   1.452   5.127
  547TIP3    H2 1583   3.774   1.409   5.096
  548TIP3   OH2 1584   5.591   1.619   5.235
  548TIP3    H1 1585   5.558   1.682   5.170
  548TIP3    H2 1586   5.598   1.537   5.186
  549TIP3   OH2 1587   1.921   5.312   6.352
  549TIP3    H1 1588   2.010   5.277   6.354
  549TIP3    H2 1589   1.866   5.235   6.336
  550TIP3   OH2 1590   2.480   5.783   2.451
  550TIP3    H1 1591   2.424   5.754   2.523
  550TIP3    H2 1592   2.501   5.703   2.403
  551TIP3   OH2 1593   0.336   5.754   4.378
  551TIP3    H1 1594   0.411   5.732   4.433
  551TIP3    H2 1595   0.276   5.800   4.437
  552TIP3   OH2 1596   6.106   2.241   3.495
  552TIP3    H1 1597   6.065   2.186   3.428
  552TIP3    H2 1598   6.039   2.306   3.516
  553TIP3   OH2 1599   2.061   7.366   1.497
  553TIP3    H1 1600   2.091   7.440   1.443
  553TIP3    H2 1601   2.136   7.345   1.553
  554TIP3   OH2 1602   0.618   4.860   3.472
  554TIP3    H1 1603   0.602   4.843   3.379
  554TIP3    H2 1604   0.692   4.804   3.495
  555TIP3   OH2 1605   1.103   1.328   5.691
  555TIP3    H1 1606   1.048   1.286   5.625
  555TIP3    H2 1607   1.041   1.376   5.747
  556TIP3   OH2 1608   6.065   0.936   3.563
  556TIP3    H1 1609   6.058   0.951   3.469
  556TIP3    H2 1610   6.018   1.008   3.604
  557TIP3   OH2 1611   3.305   2.421   3.263
  557TIP3    H1 1612   3.260   2.500   3.235
  557TIP3    H2 1613   3.265   2.398   3.347
  558TIP3   OH2 1614   7.188   5.248   0.005
  558TIP3    H1 1615   7.179   5.232   0.098
  558TIP3    H2 1616   7.261   5.311  -0.001
  559TIP3   OH2 1617   7.504   7.556   5.938
  559TIP3    H1 1618   7.570   7.589   5.999
  559TIP3    H2 1619   7.498   7.463   5.957
  560TIP3   OH2 1620   5.426   7.219   0.697
  560TIP3    H1 1621   5.514   7.238   0.731
  560TIP3    H2 1622   5.372   7.291   0.728
  561TIP3   OH2 1623   1.899   1.633   3.827
  561TIP3    H1 1624   1.853   1.558   3.864
  561TIP3    H2 1625   1.894   1.700   3.895
  562TIP3   OH2 1626   4.764   2.405   3.390
  562TIP3    H1 1627   4.761   2.384   3.483
  562TIP3    H2 1628   4.713   2.335   3.348
  563TIP3   OH2 1629   2.613   6.093   6.217
  563TIP3    H1 1630   2.598   6.129   6.129
  563TIP3    H2 1631   2.534   6.114   6.265
  564TIP3   OH2 1632   0.554   6.071   2.699
  564TIP3    H1 1633   0.597   6.134   2.641
  564TIP3    H2 1634   0.580   5.985   2.664
  565TIP3   OH2 1635   7.181   0.726   0.024
  565TIP3    H1 1636   7.251   0.660   0.024
  565TIP3    H2 1637   7.227   0.809   0.033
  566TIP3   OH2 1638   4.878   0.781   2.857
  566TIP3    H1 1639   4.862   0.852   2.920
  566TIP3    H2 1640   4.817   0.799   2.785
  567TIP3   OH2 1641   5.962   2.481   1.954
  567TIP3    H1 1642   5.950   2.567   1.915
  567TIP3    H2 1643   6.057   2.469   1.957
  568TIP3   OH2 1644   6.877   6.264   2.722
  568TIP3    H1 1645   6.844   6.178   2.696
  568TIP3    H2 1646   6.800   6.320   2.722
  569TIP3   OH2 1647   1.378   4.468   6.482
  569TIP3    H1 1648   1.417   4.469   6.395
  569TIP3    H2 1649   1.424   4.537   6.530
  570TIP3   OH2 1650   2.889   2.114   5.783
  570TIP3    H1 1651   2.807   2.086   5.823
  570TIP3    H2 1652   2.903   2.202   5.816
  571TIP3   OH2 1653   0.568   3.466   6.593
  571TIP3    H1 1654   0.501   3.437   6.531
  571TIP3    H2 1655   0.566   3.402   6.664
  572TIP3   OH2 1656   3.194   7.792   6.529
  572TIP3    H1 1657   3.194   7.742   6.610
  572TIP3    H2 1658   3.101   7.804   6.508
  573TIP3   OH2 1659   5.385   2.058   6.310
  573TIP3    H1 1660   5.441   2.118   6.261
  573TIP3    H2 1661   5.357   2.108   6.386
  574TIP3   OH2 1662   6.932   6.976   0.654
  574TIP3    H1 1663   6.919   7.023   0.737
  574TIP3    H2 1664   6.859   7.003   0.599
  575TIP3   OH2 1665   6.026   1.000   3.314
  575TIP3    H1 1666   6.049   0.946   3.238
  575TIP3    H2 1667   6.050   1.089   3.289
  576TIP3   OH2 1668   7.091   7.368   6.130
  576TIP3    H1 1669   7.045   7.368   6.047
  576TIP3    H2 1670   7.135   7.453   6.134
  577TIP3   OH2 1671   5.082   6.221   0.128
  577TIP3    H1 1672   5.005   6.259   0.086
  577TIP3    H2 1673   5.123   6.168   0.060
  578TIP3   OH2 1674   0.876   1.876   3.643
  578TIP3    H1 1675   0.830   1.856   3.562
  578TIP3    H2 1676   0.967   1.854   3.625
  579TIP3   OH2 1677   6.528   1.253   5.850
  579TIP3    H1 1678   6.617   1.220   5.835
  579TIP3    H2 1679   6.492   1.263   5.762
  580TIP3   OH2 1680   6.507   1.924   2.467
  580TIP3    H1 1681   6.554   1.844   2.445
  580TIP3    H2 1682   6.536   1.945   2.556
  581TIP3   OH2 1683   6.851   4.353   2.333
  581TIP3    H1 1684   6.830   4.262   2.313
  581TIP3    H2 1685   6.929   4.348   2.388
  582TIP3   OH2 1686   2.056   3.302   2.580
  582TIP3    H1 1687   2.059   3.228   2.520
  582TIP3    H2 1688   1.967   3.302   2.614
  583TIP3   OH2 1689   0.016   4.976   1.549
  583TIP3    H1 1690  -0.061   4.987   1.494
  583TIP3    H2 1691  -0.019   4.948   1.634
  584TIP3   OH2 1692   7.449   0.629   0.210
  584TIP3    H1 1693   7.414   0.687   0.278
  584TIP3    H2 1694   7.539   0.657   0.198
  585TIP3   OH2 1695   7.158   7.207   3.684
  585TIP3    H1 1696   7.121   7.238   3.602
  585TIP3    H2 1697   7.215   7.277   3.714
  586TIP3   OH2 1698   2.211   4.642   0.417
  586TIP3    H1 1699   2.174   4.706   0.356
  586TIP3    H2 1700   2.143   4.575   0.426
  587TIP3   OH2 1701   3.520   1.854   0.970
  587TIP3    H1 1702   3.439   1.809   0.993
  587TIP3    H2 1703   3.567   1.863   1.053
  588TIP3   OH2 1704   1.105   3.174   1.041
  588TIP3    H1 1705   1.043   3.228   1.091
  588TIP3    H2 1706   1.148   3.236   0.981
  589TIP3   OH2 1707   1.828   7.026   6.348
  589TIP3    H1 1708   1.913   7.066   6.329
  589TIP3    H2 1709   1.809   6.973   6.271
  590TIP3   OH2 1710   7.544   2.794   1.058
  590TIP3    H1 1711   7.550   2.889   1.057
  590TIP3    H2 1712   7.578   2.767   0.972
  591TIP3   OH2 1713   5.822   2.998   5.177
  591TIP3    H1 1714   5.900   2.945   5.190
  591TIP3    H2 1715   5.751   2.946   5.214
  592TIP3   OH2 1716   1.652   4.015   0.700
  592TIP3    H1 1717   1.737   4.040   0.664
  592TIP3    H2 1718   1.650   4.055   0.787
  593TIP3   OH2 1719   7.837   0.585   6.113
  593TIP3    H1 1720   7.823   0.678   6.093
  593TIP3    H2 1721   7.763   0.541   6.071
  594TIP3   OH2 1722   5.440   2.544   3.835
  594TIP3    H1 1723   5.518   2.573   3.787
  594TIP3    H2 1724   5.433   2.451   3.814
  595TIP3   OH2 1725   3.600   4.092   1.753
  595TIP3    H1 1726   3.653   4.045   1.817
  595TIP3    H2 1727   3.601   4.183   1.784
  596TIP3   OH2 1728   3.022   5.615   2.145
  596TIP3    H1 1729   2.979   5.588   2.227
  596TIP3    H2 1730   3.024   5.536   2.092
  597TIP3   OH2 1731   6.747   6.693   6.132
  597TIP3    H1 1732   6.742   6.787   6.113
  597TIP3    H2 1733   6.810   6.686   6.203
  598TIP3   OH2 1734   2.086   0.467   4.951
  598TIP3    H1 1735   2.077   0.474   4.856
  598TIP3    H2 1736   2.171   0.425   4.965
  599TIP3   OH2 1737   7.703   5.238   5.763
  599TIP3    H1 1738   7.654   5.219   5.683
  599TIP3    H2 1739   7.784   5.279   5.734
  600TIP3   OH2 1740   7.980   4.188   0.818
  600TIP3    H1 1741   7.944   4.126   0.754
  600TIP3    H2 1742   7.906   4.242   0.844
  601TIP3   OH2 1743   1.913   7.514   4.761
  601TIP3    H1 1744   1.857   7.531   4.686
  601TIP3    H2 1745   1.889   7.581   4.825
  602TIP3   OH2 1746   7.183   3.741   6.453
  602TIP3    H1 1747   7.202   3.822   6.499
  602TIP3    H2 1748   7.101   3.710   6.492
  603TIP3   OH2 1749   2.139   2.576   5.903
  603TIP3    H1 1750   2.048   2.555   5.882
  603TIP3    H2 1751   2.156   2.658   5.856
  604TIP3   OH2 1752   4.174   5.356   3.026
  604TIP3    H1 1753   4.257   5.378   3.067
  604TIP3    H2 1754   4.180   5.392   2.938
  605TIP3   OH2 1755   1.310   3.539   3.486
  605TIP3    H1 1756   1.319   3.634   3.479
  605TIP3    H2 1757   1.234   3.518   3.433
  606TIP3   OH2 1758   0.604   6.464   4.314
  606TIP3    H1 1759   0.578   6.484   4.404
  606TIP3    H2 1760   0.581   6.542   4.264
  607TIP3   OH2 1761   6.576   5.129   4.083
  607TIP3    H1 1762   6.579   5.214   4.126
  607TIP3    H2 1763   6.493   5.091   4.111
  608TIP3   OH2 1764   0.501   2.523   3.899
  608TIP3    H1 1765   0.461   2.597   3.854
  608TIP3    H2 1766   0.549   2.562   3.972
  609TIP3   OH2 1767   3.485   6.461   2.744
  609TIP3    H1 1768   3.414   6.523   2.761
  609TIP3    H2 1769   3.559   6.515   2.717
  610TIP3   OH2 1770   6.036   3.598   6.535
  610TIP3    H1 1771   6.062   3.507   6.522
  610TIP3    H2 1772   6.115   3.649   6.517
  611TIP3   OH2 1773   2.539   4.205   0.134
  611TIP3    H1 1774   2.582   4.285   0.165
  611TIP3    H2 1775   2.605   4.137   0.143
  612TIP3   OH2 1776   5.007   1.239   1.817
  612TIP3    H1 1777   4.925   1.251   1.865
  612TIP3    H2 1778   5.053   1.323   1.828
  613TIP3   OH2 1779   3.388   1.641   1.219
  613TIP3    H1 1780   3.366   1.707   1.285
  613TIP3    H2 1781   3.321   1.573   1.231
  614TIP3   OH2 1782   4.284   0.220   2.976
  614TIP3    H1 1783   4.358   0.220   2.915
  614TIP3    H2 1784   4.285   0.133   3.015
  615TIP3   OH2 1785   6.454   5.354   2.364
  615TIP3    H1 1786   6.542   5.392   2.353
  615TIP3    H2 1787   6.465   5.289   2.434
  616TIP3   OH2 1788   6.225   2.741   0.503
  616TIP3    H1 1789   6.212   2.731   0.597
  616TIP3    H2 1790   6.272   2.824   0.494
  617TIP3   OH2 1791   8.285   4.855   0.622
  617TIP3    H1 1792   8.341   4.817   0.555
  617TIP3    H2 1793   8.320   4.944   0.635
  618TIP3   OH2 1794   4.331   0.305   3.526
  618TIP3    H1 1795   4.374   0.252   3.460
  618TIP3    H2 1796   4.255   0.342   3.482
  619TIP3   OH2 1797   3.644   6.191   5.858
  619TIP3    H1 1798   3.593   6.135   5.916
  619TIP3    H2 1799   3.700   6.242   5.916
  620TIP3   OH2 1800   3.004   6.164   3.933
  620TIP3    H1 1801   2.996   6.134   4.024
  620TIP3    H2 1802   2.979   6.257   3.936
  621TIP3   OH2 1803   5.016   5.611   0.328
  621TIP3    H1 1804   5.055   5.616   0.415
  621TIP3    H2 1805   4.943   5.672   0.331
  622TIP3   OH2 1806   3.913   5.659   4.864
  622TIP3    H1 1807   3.983   5.696   4.811
  622TIP3    H2 1808   3.948   5.576   4.897
  623TIP3   OH2 1809   6.161   1.050   4.857
  623TIP3    H1 1810   6.134   1.029   4.767
  623TIP3    H2 1811   6.098   1.003   4.912
  624TIP3   OH2 1812   4.045   2.790   2.568
  624TIP3    H1 1813   4.004   2.705   2.554
  624TIP3    H2 1814   4.005   2.846   2.501
  625TIP3   OH2 1815   7.514   6.299   6.422
  625TIP3    H1 1816   7.525   6.214   6.378
  625TIP3    H2 1817   7.430   6.293   6.466
  626TIP3   OH2 1818   2.092   1.505   5.877
  626TIP3    H1 1819   2.052   1.418   5.868
  626TIP3    H2 1820   2.092   1.522   5.971
  627TIP3   OH2 1821   7.439   3.264   6.380
  627TIP3    H1 1822   7.368   3.325   6.360
  627TIP3    H2 1823   7.480   3.300   6.459
  628TIP3   OH2 1824   6.276   4.096   6.767
  628TIP3    H1 1825   6.267   4.080   6.861
  628TIP3    H2 1826   6.215   4.034   6.727
  629TIP3   OH2 1827   2.650   4.322   5.598
  629TIP3    H1 1828   2.600   4.401   5.619
  629TIP3    H2 1829   2.741   4.351   5.592
  630TIP3   OH2 1830   0.661   0.188   6.383
  630TIP3    H1 1831   0.665   0.173   6.289
  630TIP3    H2 1832   0.725   0.257   6.400
  631TIP3   OH2 1833   2.725   4.665   5.524
  631TIP3    H1 1834   2.650   4.669   5.464
  631TIP3    H2 1835   2.690   4.628   5.605
  632TIP3   OH2 1836   2.351   1.978   4.232
  632TIP3    H1 1837   2.383   2.058   4.273
  632TIP3    H2 1838   2.378   1.987   4.140
  633TIP3   OH2 1839   4.970   5.223   1.623
  633TIP3    H1 1840   4.918   5.182   1.692
  633TIP3    H2 1841   4.917   5.214   1.544
  634TIP3   OH2 1842   6.704   1.016   1.966
  634TIP3    H1 1843   6.624   0.998   2.016
  634TIP3    H2 1844   6.704   0.950   1.897
  635TIP3   OH2 1845   5.723   7.552   1.663
  635TIP3    H1 1846   5.706   7.611   1.736
  635TIP3    H2 1847   5.811   7.575   1.633
  636TIP3   OH2 1848   6.684   4.215   6.190
  636TIP3    H1 1849   6.767   4.230   6.235
  636TIP3    H2 1850   6.671   4.293   6.136
  637TIP3   OH2 1851   2.182   6.774   6.176
  637TIP3    H1 1852   2.256   6.726   6.214
  637TIP3    H2 1853   2.121   6.785   6.249
  638TIP3   OH2 1854   5.780   0.478   1.804
  638TIP3    H1 1855   5.723   0.401   1.800
  638TIP3    H2 1856   5.767   0.522   1.720
  639TIP3   OH2 1857   8.129   3.895   3.413
  639TIP3    H1 1858   8.123   3.822   3.475
  639TIP3    H2 1859   8.133   3.973   3.468
  640TIP3   OH2 1860   3.048   1.391   5.062
  640TIP3    H1 1861   3.119   1.369   5.002
  640TIP3    H2 1862   3.065   1.337   5.140
  641TIP3   OH2 1863   7.294   4.696   4.651
  641TIP3    H1 1864   7.297   4.601   4.660
  641TIP3    H2 1865   7.239   4.724   4.725
  642TIP3   OH2 1866   0.878   0.621   2.179
  642TIP3    H1 1867   0.903   0.538   2.139
  642TIP3    H2 1868   0.944   0.683   2.148
  643TIP3   OH2 1869   5.625   6.537   6.041
  643TIP3    H1 1870   5.648   6.461   6.095
  643TIP3    H2 1871   5.702   6.594   6.046
  644TIP3   OH2 1872   7.386   7.494   4.975
  644TIP3    H1 1873   7.382   7.577   4.928
  644TIP3    H2 1874   7.295   7.477   5.001
  645TIP3   OH2 1875   0.446   1.722   2.576
  645TIP3    H1 1876   0.481   1.698   2.490
  645TIP3    H2 1877   0.498   1.799   2.602
  646TIP3   OH2 1878   7.722   1.570   0.934
  646TIP3    H1 1879   7.676   1.653   0.920
  646TIP3    H2 1880   7.683   1.510   0.870
  647TIP3   OH2 1881   2.315   0.127   4.310
  647TIP3    H1 1882   2.292   0.206   4.261
  647TIP3    H2 1883   2.248   0.121   4.378
  648TIP3   OH2 1884   7.768   5.701   0.990
  648TIP3    H1 1885   7.715   5.774   0.957
  648TIP3    H2 1886   7.719   5.623   0.965
  649TIP3   OH2 1887   4.076   7.138   5.036
  649TIP3    H1 1888   4.064   7.118   5.129
  649TIP3    H2 1889   4.147   7.202   5.035
  650TIP3   OH2 1890   0.638   1.894   5.626
  650TIP3    H1 1891   0.559   1.946   5.636
  650TIP3    H2 1892   0.609   1.815   5.579
  651TIP3   OH2 1893   5.832   0.404   4.772
  651TIP3    H1 1894   5.784   0.402   4.855
  651TIP3    H2 1895   5.816   0.318   4.733
  652TIP3   OH2 1896   3.665   2.225   3.769
  652TIP3    H1 1897   3.740   2.267   3.727
  652TIP3    H2 1898   3.635   2.288   3.834
  653TIP3   OH2 1899   0.473   2.450   5.004
  653TIP3    H1 1900   0.444   2.448   5.095
  653TIP3    H2 1901   0.396   2.477   4.955
  654TIP3   OH2 1902   1.909   6.767   0.436
  654TIP3    H1 1903   1.822   6.799   0.414
  654TIP3    H2 1904   1.912   6.677   0.404
  655TIP3   OH2 1905   5.767   3.289   3.632
  655TIP3    H1 1906   5.831   3.263   3.699
  655TIP3    H2 1907   5.685   3.301   3.681
  656TIP3   OH2 1908   0.149   7.220   4.018
  656TIP3    H1 1909   0.102   7.276   3.956
  656TIP3    H2 1910   0.082   7.190   4.079
  657TIP3   OH2 1911   2.869   2.531   2.035
  657TIP3    H1 1912   2.937   2.536   2.102
  657TIP3    H2 1913   2.914   2.500   1.957
  658TIP3   OH2 1914   5.942   1.987   3.880
  658TIP3    H1 1915   5.857   1.992   3.836
  658TIP3    H2 1916   5.981   1.905   3.848
  659TIP3   OH2 1917   7.795   1.053   3.962
  659TIP3    H1 1918   7.702   1.053   3.938
  659TIP3    H2 1919   7.838   1.104   3.894
  660TIP3   OH2 1920   1.494   2.309   5.512
  660TIP3    H1 1921   1.420   2.286   5.456
  660TIP3    H2 1922   1.481   2.258   5.592
  661TIP3   OH2 1923   0.297   0.750   0.909
  661TIP3    H1 1924   0.298   0.756   1.005
  661TIP3    H2 1925   0.389   0.754   0.883
  662TIP3   OH2 1926   2.499   7.558   2.338
  662TIP3    H1 1927   2.524   7.646   2.309
  662TIP3    H2 1928   2.450   7.572   2.419
  663TIP3   OH2 1929   1.654   5.698   5.624
  663TIP3    H1 1930   1.722   5.631   5.622
  663TIP3    H2 1931   1.652   5.733   5.535
  664TIP3   OH2 1932   3.789   4.798   1.776
  664TIP3    H1 1933   3.817   4.795   1.867
  664TIP3    H2 1934   3.696   4.817   1.780
  665TIP3   OH2 1935   6.617   2.338   2.650
  665TIP3    H1 1936   6.628   2.430   2.675
  665TIP3    H2 1937   6.700   2.315   2.607
  666TIP3   OH2 1938   7.484   1.413   4.481
  666TIP3    H1 1939   7.449   1.326   4.460
  666TIP3    H2 1940   7.560   1.395   4.536
  667TIP3   OH2 1941   6.349   6.193   5.745
  667TIP3    H1 1942   6.405   6.268   5.768
  667TIP3    H2 1943   6.331   6.205   5.652
  668TIP3   OH2 1944   6.685   3.630   4.318
  668TIP3    H1 1945   6.711   3.710   4.271
  668TIP3    H2 1946   6.648   3.662   4.400
  669TIP3   OH2 1947   1.088   4.816   0.147
  669TIP3    H1 1948   1.066   4.782   0.233
  669TIP3    H2 1949   1.121   4.904   0.163
  670TIP3   OH2 1950   3.845   4.801   2.063
  670TIP3    H1 1951   3.805   4.805   2.150
  670TIP3    H2 1952   3.932   4.764   2.080
  671TIP3   OH2 1953   5.535   3.916   6.819
  671TIP3    H1 1954   5.590   3.891   6.894
  671TIP3    H2 1955   5.590   3.896   6.743
  672TIP3   OH2 1956   0.250   5.572   5.432
  672TIP3    H1 1957   0.326   5.589   5.487
  672TIP3    H2 1958   0.214   5.490   5.466
  673TIP3   OH2 1959   6.194   3.443   0.994
  673TIP3    H1 1960   6.199   3.517   0.934
  673TIP3    H2 1961   6.100   3.433   1.010
  674TIP3   OH2 1962   2.730   7.223   2.202
  674TIP3    H1 1963   2.775   7.159   2.148
  674TIP3    H2 1964   2.785   7.233   2.279
  675TIP3   OH2 1965   2.653   0.711   1.069
  675TIP3    H1 1966   2.631   0.668   1.152
  675TIP3    H2 1967   2.675   0.639   1.010
  676TIP3   OH2 1968   1.023   6.175   3.802
  676TIP3    H1 1969   0.952   6.131   3.755
  676TIP3    H2 1970   0.993   6.180   3.892
  677TIP3   OH2 1971   0.678   7.739   6.706
  677TIP3    H1 1972   0.734   7.808   6.741
  677TIP3    H2 1973   0.733   7.660   6.709
  678TIP3   OH2 1974   5.894   0.843   2.599
  678TIP3    H1 1975   5.892   0.749   2.615
  678TIP3    H2 1976   5.855   0.855   2.513
  679TIP3   OH2 1977   1.694   7.038   5.386
  679TIP3    H1 1978   1.694   7.087   5.469
  679TIP3    H2 1979   1.710   7.105   5.319
  680TIP3   OH2 1980   3.782   6.217   6.576
  680TIP3    H1 1981   3.707   6.156   6.574
  680TIP3    H2 1982   3.849   6.170   6.625
  681TIP3   OH2 1983   5.784   0.418   4.445
  681TIP3    H1 1984   5.849   0.362   4.402
  681TIP3    H2 1985   5.758   0.369   4.523
  682TIP3   OH2 1986   6.631   3.974   2.783
  682TIP3    H1 1987   6.696   3.979   2.713
  682TIP3    H2 1988   6.547   3.962   2.738
  683TIP3   OH2 1989   0.490   6.849   4.590
  683TIP3    H1 1990   0.399   6.876   4.582
  683TIP3    H2 1991   0.495   6.807   4.676
  684TIP3   OH2 1992   0.568   0.860   0.966
  684TIP3    H1 1993   0.614   0.819   0.893
  684TIP3    H2 1994   0.611   0.945   0.976
  685TIP3   OH2 1995   6.633   2.633   4.465
  685TIP3    H1 1996   6.661   2.721   4.440
  685TIP3    H2 1997   6.682   2.575   4.405
  686TIP3   OH2 1998   7.215   1.743   3.179
  686TIP3    H1 1999   7.227   1.785   3.094
  686TIP3    H2 2000   7.236   1.811   3.243
  687TIP3   OH2 2001   0.416   3.603   5.694
  687TIP3    H1 2002   0.374   3.677   5.737
  687TIP3    H2 2003   0.507   3.630   5.682
  688TIP3   OH2 2004   5.992   5.647   6.796
  688TIP3    H1 2005   6.056   5.607   6.737
  688TIP3    H2 2006   5.925   5.684   6.739
  689TIP3   OH2 2007   7.953   4.432   5.191
  689TIP3    H1 2008   8.040   4.392   5.198
  689TIP3    H2 2009   7.918   4.426   5.280
  690TIP3   OH2 2010   1.868   0.245   4.420
  690TIP3    H1 2011   1.836   0.302   4.490
  690TIP3    H2 2012   1.789   0.222   4.371
  691TIP3   OH2 2013   6.123   3.920   2.544
  691TIP3    H1 2014   6.072   3.856   2.494
  691TIP3    H2 2015   6.140   3.991   2.482
  692TIP3   OH2 2016   1.109   1.033   5.736
  692TIP3    H1 2017   1.191   0.991   5.708
  692TIP3    H2 2018   1.105   1.114   5.685
  693TIP3   OH2 2019   0.387   1.294   1.022
  693TIP3    H1 2020   0.327   1.265   1.090
  693TIP3    H2 2021   0.442   1.359   1.064
  694TIP3   OH2 2022   4.439   4.893   5.247
  694TIP3    H1 2023   4.426   4.839   5.326
  694TIP3    H2 2024   4.351   4.904   5.211
  695TIP3   OH2 2025   4.794   0.928   2.618
  695TIP3    H1 2026   4.718   0.895   2.570
  695TIP3    H2 2027   4.773   1.019   2.636
  696TIP3   OH2 2028   3.750   3.487   2.959
  696TIP3    H1 2029   3.834   3.525   2.985
  696TIP3    H2 2030   3.770   3.435   2.880
  697TIP3   OH2 2031   0.001   5.812   2.799
  697TIP3    H1 2032   0.022   5.898   2.762
  697TIP3    H2 2033  -0.045   5.832   2.881
  698TIP3   OH2 2034   7.664   7.429   0.948
  698TIP3    H1 2035   7.657   7.338   0.977
  698TIP3    H2 2036   7.728   7.468   1.008
  699TIP3   OH2 2037   4.258   7.294   2.489
  699TIP3    H1 2038   4.319   7.331   2.552
  699TIP3    H2 2039   4.311   7.272   2.413
  700TIP3   OH2 2040   7.076   3.458   2.767
  700TIP3    H1 2041   7.120   3.520   2.708
  700TIP3    H2 2042   7.115   3.476   2.853
  701TIP3   OH2 2043   4.207   3.349   3.562
  701TIP3    H1 2044   4.289   3.333   3.609
  701TIP3    H2 2045   4.150   3.277   3.589
  702TIP3   OH2 2046   6.210   5.512   1.488
  702TIP3    H1 2047   6.262   5.442   1.527
  702TIP3    H2 2048   6.201   5.576   1.558
  703TIP3   OH2 2049   8.370   6.770   3.573
  703TIP3    H1 2050   8.447   6.807   3.530
  703TIP3    H2 2051   8.337   6.705   3.511
  704TIP3   OH2 2052   8.129   4.755   5.840
  704TIP3    H1 2053   8.213   4.735   5.800
  704TIP3    H2 2054   8.148   4.827   5.900
  705TIP3   OH2 2055   0.572   3.985   3.868
  705TIP3    H1 2056   0.488   4.024   3.844
  705TIP3    H2 2057   0.632   4.012   3.798
  706TIP3   OH2 2058   4.078   4.695   0.146
  706TIP3    H1 2059   4.064   4.612   0.101
  706TIP3    H2 2060   3.990   4.733   0.154
  707TIP3   OH2 2061   8.193   1.606   3.270
  707TIP3    H1 2062   8.255   1.564   3.211
  707TIP3    H2 2063   8.237   1.608   3.355
  708TIP3   OH2 2064   6.530   4.487   0.467
  708TIP3    H1 2065   6.486   4.490   0.382
  708TIP3    H2 2066   6.459   4.474   0.530
  709TIP3   OH2 2067   2.675   2.436   5.987
  709TIP3    H1 2068   2.642   2.457   5.900
  709TIP3    H2 2069   2.598   2.442   6.044
  710TIP3   OH2 2070   1.034   7.407   0.600
  710TIP3    H1 2071   1.011   7.491   0.641
  710TIP3    H2 2072   1.122   7.422   0.565
  711TIP3   OH2 2073   0.077   1.890   1.440
  711TIP3    H1 2074   0.095   1.930   1.525
  711TIP3    H2 2075   0.012   1.822   1.459
  712TIP3   OH2 2076   4.247   5.760   5.997
  712TIP3    H1 2077   4.323   5.702   6.001
  712TIP3    H2 2078   4.181   5.716   6.050
  713TIP3   OH2 2079   7.338   7.186   4.734
  713TIP3    H1 2080   7.427   7.152   4.741
  713TIP3    H2 2081   7.335   7.232   4.650
  714TIP3   OH2 2082   0.283   1.144   3.435
  714TIP3    H1 2083   0.294   1.239   3.431
  714TIP3    H2 2084   0.193   1.131   3.463
  715TIP3   OH2 2085   2.666   5.405   4.321
  715TIP3    H1 2086   2.600   5.449   4.268
  715TIP3    H2 2087   2.720   5.357   4.258
  716TIP3   OH2 2088   1.561   3.475   3.564
  716TIP3    H1 2089   1.472   3.505   3.579
  716TIP3    H2 2090   1.615   3.554   3.564
  717TIP3   OH2 2091   7.842   5.814   5.711
  717TIP3    H1 2092   7.833   5.790   5.619
  717TIP3    H2 2093   7.762   5.863   5.731
  718TIP3   OH2 2094   1.059   2.766   0.525
  718TIP3    H1 2095   1.006   2.846   0.514
  718TIP3    H2 2096   1.024   2.705   0.460
  719TIP3   OH2 2097   7.952   6.439   4.924
  719TIP3    H1 2098   7.879   6.473   4.976
  719TIP3    H2 2099   8.001   6.383   4.984
  720TIP3   OH2 2100   2.809   7.715   4.525
  720TIP3    H1 2101   2.754   7.702   4.602
  720TIP3    H2 2102   2.856   7.633   4.514
  721TIP3   OH2 2103   6.296   4.854   0.144
  721TIP3    H1 2104   6.255   4.792   0.204
  721TIP3    H2 2105   6.326   4.925   0.201
  722TIP3   OH2 2106   6.535   3.176   1.859
  722TIP3    H1 2107   6.550   3.132   1.943
  722TIP3    H2 2108   6.618   3.165   1.812
  723TIP3   OH2 2109   4.277   4.432   1.452
  723TIP3    H1 2110   4.276   4.499   1.521
  723TIP3    H2 2111   4.187   4.432   1.419
  724TIP3   OH2 2112   0.418   0.066   0.428
  724TIP3    H1 2113   0.393   0.026   0.345
  724TIP3    H2 2114   0.433   0.158   0.407
  725TIP3   OH2 2115   6.779   2.313   5.119
  725TIP3    H1 2116   6.686   2.337   5.118
  725TIP3    H2 2117   6.821   2.376   5.061
  726TIP3   OH2 2118   4.997   6.042   0.393
  726TIP3    H1 2119   5.093   6.047   0.392
  726TIP3    H2 2120   4.972   6.047   0.300
  727TIP3   OH2 2121   4.239   1.228   4.898
  727TIP3    H1 2122   4.215   1.150   4.849
  727TIP3    H2 2123   4.235   1.299   4.834
  728TIP3   OH2 2124   8.247   6.887   1.407
  728TIP3    H1 2125   8.343   6.892   1.399
  728TIP3    H2 2126   8.215   6.917   1.322
  729TIP3   OH2 2127   0.279   1.592   1.512
  729TIP3    H1 2128   0.222   1.595   1.436
  729TIP3    H2 2129   0.308   1.500   1.516
  730TIP3   OH2 2130   1.659   5.101   3.140
  730TIP3    H1 2131   1.612   5.028   3.099
  730TIP3    H2 2132   1.728   5.122   3.078
  731TIP3   OH2 2133   2.379   5.921   4.448
  731TIP3    H1 2134   2.325   5.986   4.402
  731TIP3    H2 2135   2.443   5.893   4.383
  732TIP3   OH2 2136   2.520   3.555   0.249
  732TIP3    H1 2137   2.469   3.634   0.233
  732TIP3    H2 2138   2.462   3.498   0.299
  733TIP3   OH2 2139   7.675   0.638   4.160
  733TIP3    H1 2140   7.590   0.613   4.123
  733TIP3    H2 2141   7.658   0.646   4.254
  734TIP3   OH2 2142   5.421   0.341   2.657
  734TIP3    H1 2143   5.328   0.364   2.662
  734TIP3    H2 2144   5.427   0.279   2.584
  735TIP3   OH2 2145   1.091   4.482   0.539
  735TIP3    H1 2146   1.090   4.425   0.461
  735TIP3    H2 2147   1.158   4.444   0.595
  736TIP3   OH2 2148   5.549   5.682   5.830
  736TIP3    H1 2149   5.631   5.700   5.875
  736TIP3    H2 2150   5.514   5.769   5.809
  737TIP3   OH2 2151   5.113   4.346   3.906
  737TIP3    H1 2152   5.082   4.414   3.965
  737TIP3    H2 2153   5.033   4.312   3.865
  738TIP3   OH2 2154   0.174   2.306   5.822
  738TIP3    H1 2155   0.234   2.343   5.757
  738TIP3    H2 2156   0.230   2.253   5.879
  739TIP3   OH2 2157   6.787   0.624   3.361
  739TIP3    H1 2158   6.729   0.698   3.345
  739TIP3    H2 2159   6.729   0.551   3.383
  740TIP3   OH2 2160   8.295   1.938   6.307
  740TIP3    H1 2161   8.297   2.027   6.271
  740TIP3    H2 2162   8.205   1.908   6.292
  741TIP3   OH2 2163   6.356   2.065   4.805
  741TIP3    H1 2164   6.428   2.009   4.835
  741TIP3    H2 2165   6.399   2.141   4.767
  742TIP3   OH2 2166   0.378   6.417   5.876
  742TIP3    H1 2167   0.439   6.491   5.867
  742TIP3    H2 2168   0.394   6.383   5.964
  743TIP3   OH2 2169   0.339   4.136   1.190
  743TIP3    H1 2170   0.360   4.061   1.134
  743TIP3    H2 2171   0.246   4.152   1.173
  744TIP3   OH2 2172   6.515   2.685   3.701
  744TIP3    H1 2173   6.500   2.603   3.749
  744TIP3    H2 2174   6.450   2.745   3.738
  745TIP3   OH2 2175   3.733   1.978   1.813
  745TIP3    H1 2176   3.699   1.995   1.901
  745TIP3    H2 2177   3.700   1.891   1.791
  746TIP3   OH2 2178   8.030   4.384   3.373
  746TIP3    H1 2179   8.086   4.458   3.352
  746TIP3    H2 2180   8.039   4.373   3.468
  747TIP3   OH2 2181   3.277   4.520   3.431
  747TIP3    H1 2182   3.369   4.499   3.443
  747TIP3    H2 2183   3.266   4.529   3.336
  748TIP3   OH2 2184   7.602   0.172   2.663
  748TIP3    H1 2185   7.618   0.090   2.616
  748TIP3    H2 2186   7.588   0.145   2.754
  749TIP3   OH2 2187   1.685   2.816   1.082
  749TIP3    H1 2188   1.623   2.855   1.144
  749TIP3    H2 2189   1.770   2.850   1.109
  750TIP3   OH2 2190   2.905   6.459   5.848
  750TIP3    H1 2191   2.893   6.486   5.757
  750TIP3    H2 2192   2.998   6.474   5.865
  751TIP3   OH2 2193   2.499   6.918   3.588
  751TIP3    H1 2194   2.475   6.995   3.640
  751TIP3    H2 2195   2.431   6.854   3.608
  752TIP3   OH2 2196   5.986   1.360   2.368
  752TIP3    H1 2197   5.985   1.265   2.358
  752TIP3    H2 2198   5.895   1.387   2.358
  753TIP3   OH2 2199   6.396   2.347   2.431
  753TIP3    H1 2200   6.425   2.267   2.386
  753TIP3    H2 2201   6.453   2.353   2.507
  754TIP3   OH2 2202   4.582   0.164   6.230
  754TIP3    H1 2203   4.513   0.168   6.163
  754TIP3    H2 2204   4.583   0.072   6.256
  755TIP3   OH2 2205   0.804   4.283   3.928
  755TIP3    H1 2206   0.799   4.372   3.893
  755TIP3    H2 2207   0.713   4.258   3.943
  756TIP3   OH2 2208   5.959   7.212   2.970
  756TIP3    H1 2209   6.033   7.152   2.962
  756TIP3    H2 2210   5.999   7.299   2.977
  757TIP3   OH2 2211   4.083   6.380   4.194
  757TIP3    H1 2212   4.054   6.460   4.239
  757TIP3    H2 2213   4.002   6.330   4.181
  758TIP3   OH2 2214   0.926   1.184   2.747
  758TIP3    H1 2215   0.931   1.279   2.758
  758TIP3    H2 2216   0.901   1.171   2.656
  759TIP3   OH2 2217   2.162   1.399   1.333
  759TIP3    H1 2218   2.099   1.330   1.315
  759TIP3    H2 2219   2.218   1.364   1.403
  760TIP3   OH2 2220   7.787   6.897   3.039
  760TIP3    H1 2221   7.699   6.903   3.075
  760TIP3    H2 2222   7.824   6.818   3.078
  761TIP3   OH2 2223   6.115   6.957   6.684
  761TIP3    H1 2224   6.049   6.988   6.746
  761TIP3    H2 2225   6.066   6.936   6.605
  762TIP3   OH2 2226   4.305   2.594   6.608
  762TIP3    H1 2227   4.229   2.550   6.570
  762TIP3    H2 2228   4.271   2.640   6.685
  763TIP3   OH2 2229   5.444   7.007   6.639
  763TIP3    H1 2230   5.392   7.057   6.702
  763TIP3    H2 2231   5.381   6.948   6.597
  764TIP3   OH2 2232   1.061   3.133   5.049
  764TIP3    H1 2233   1.090   3.052   5.007
  764TIP3    H2 2234   0.984   3.160   4.999
  765TIP3   OH2 2235   2.413   5.387   6.251
  765TIP3    H1 2236   2.455   5.432   6.324
  765TIP3    H2 2237   2.485   5.347   6.202
  766TIP3   OH2 2238   3.828   6.406   1.487
  766TIP3    H1 2239   3.896   6.346   1.519
  766TIP3    H2 2240   3.842   6.410   1.392
  767TIP3   OH2 2241   7.878   2.686   2.256
  767TIP3    H1 2242   7.876   2.634   2.176
  767TIP3    H2 2243   7.948   2.647   2.308
  768TIP3   OH2 2244   2.127   7.453   4.524
  768TIP3    H1 2245   2.188   7.381   4.538
  768TIP3    H2 2246   2.040   7.414   4.538
  769TIP3   OH2 2247   6.437   6.359   0.277
  769TIP3    H1 2248   6.411   6.390   0.190
  769TIP3    H2 2249   6.358   6.320   0.314
  770TIP3   OH2 2250   4.112   2.380   4.356
  770TIP3    H1 2251   4.060   2.423   4.423
  770TIP3    H2 2252   4.066   2.399   4.274
  771TIP3   OH2 2253   3.258   5.586   0.215
  771TIP3    H1 2254   3.354   5.581   0.210
  771TIP3    H2 2255   3.241   5.654   0.280
  772TIP3   OH2 2256   0.137   0.555   0.813
  772TIP3    H1 2257   0.201   0.610   0.859
  772TIP3    H2 2258   0.107   0.493   0.880
  773TIP3   OH2 2259   0.412   7.184   1.258
  773TIP3    H1 2260   0.472   7.256   1.236
  773TIP3    H2 2261   0.330   7.207   1.213
  774TIP3   OH2 2262   5.827   5.883   5.608
  774TIP3    H1 2263   5.756   5.866   5.547
  774TIP3    H2 2264   5.803   5.965   5.651
  775TIP3   OH2 2265   0.910   5.767   2.254
  775TIP3    H1 2266   0.938   5.705   2.187
  775TIP3    H2 2267   0.991   5.791   2.300
  776TIP3   OH2 2268   4.413   3.119   6.755
  776TIP3    H1 2269   4.350   3.169   6.807
  776TIP3    H2 2270   4.498   3.143   6.791
  777TIP3   OH2 2271   7.181   4.787   1.021
  777TIP3    H1 2272   7.150   4.858   1.077
  777TIP3    H2 2273   7.273   4.777   1.045
  778TIP3   OH2 2274   2.014   4.482   1.109
  778TIP3    H1 2275   2.001   4.462   1.016
  778TIP3    H2 2276   2.006   4.577   1.115
  779TIP3   OH2 2277   0.857   0.095   3.983
  779TIP3    H1 2278   0.862   0.049   3.900
  779TIP3    H2 2279   0.881   0.030   4.048
  780TIP3   OH2 2280   5.512   5.943   0.065
  780TIP3    H1 2281   5.574   5.873   0.080
  780TIP3    H2 2282   5.551   5.995  -0.005
  781TIP3   OH2 2283   0.506   0.613   4.360
  781TIP3    H1 2284   0.492   0.697   4.317
  781TIP3    H2 2285   0.474   0.627   4.449
  782TIP3   OH2 2286   7.641   2.234   4.153
  782TIP3    H1 2287   7.657   2.328   4.152
  782TIP3    H2 2288   7.639   2.211   4.246
  783TIP3   OH2 2289   7.410   3.919   6.584
  783TIP3    H1 2290   7.437   3.829   6.567
  783TIP3    H2 2291   7.386   3.920   6.677
  784TIP3   OH2 2292   7.418   7.423   4.486
  784TIP3    H1 2293   7.512   7.442   4.488
  784TIP3    H2 2294   7.403   7.389   4.397
  785TIP3   OH2 2295   8.306   2.132   0.496
  785TIP3    H1 2296   8.239   2.190   0.530
  785TIP3    H2 2297   8.389   2.175   0.518
  786TIP3   OH2 2298   5.249   6.092   4.190
  786TIP3    H1 2299   5.293   6.009   4.168
  786TIP3    H2 2300   5.158   6.077   4.167
  787TIP3   OH2 2301   2.062   2.046   1.453
  787TIP3    H1 2302   2.129   2.114   1.465
  787TIP3    H2 2303   2.104   1.965   1.482
  788TIP3   OH2 2304   6.862   5.898   6.184
  788TIP3    H1 2305   6.910   5.889   6.102
  788TIP3    H2 2306   6.894   5.979   6.223
  789TIP3   OH2 2307   2.112   1.325   5.366
  789TIP3    H1 2308   2.085   1.239   5.332
  789TIP3    H2 2309   2.086   1.324   5.458
  790TIP3   OH2 2310   2.707   3.932   6.023
  790TIP3    H1 2311   2.653   3.869   5.976
  790TIP3    H2 2312   2.671   3.934   6.111
  791TIP3   OH2 2313   6.186   5.212   2.589
  791TIP3    H1 2314   6.250   5.188   2.656
  791TIP3    H2 2315   6.205   5.304   2.571
  792TIP3   OH2 2316   5.846   5.653   2.676
  792TIP3    H1 2317   5.862   5.587   2.743
  792TIP3    H2 2318   5.924   5.652   2.622
  793TIP3   OH2 2319   1.634   2.974   3.565
  793TIP3    H1 2320   1.585   2.892   3.576
  793TIP3    H2 2321   1.586   3.038   3.618
  794TIP3   OH2 2322   1.608   3.247   3.711
  794TIP3    H1 2323   1.603   3.311   3.782
  794TIP3    H2 2324   1.608   3.300   3.631
  795TIP3   OH2 2325   6.559   2.244   0.449
  795TIP3    H1 2326   6.475   2.199   0.451
  795TIP3    H2 2327   6.622   2.179   0.419
  796TIP3   OH2 2328   1.109   1.629   5.075
  796TIP3    H1 2329   1.168   1.568   5.121
  796TIP3    H2 2330   1.148   1.638   4.988
  797TIP3   OH2 2331   4.601   0.196   1.536
  797TIP3    H1 2332   4.573   0.214   1.626
  797TIP3    H2 2333   4.651   0.273   1.511
  798TIP3   OH2 2334   0.320   5.547   5.160
  798TIP3    H1 2335   0.318   5.451   5.159
  798TIP3    H2 2336   0.324   5.570   5.253
  799TIP3   OH2 2337   5.272   6.479   6.413
  799TIP3    H1 2338   5.320   6.461   6.332
  799TIP3    H2 2339   5.185   6.442   6.399
  800TIP3   OH2 2340   4.284   0.421   6.661
  800TIP3    H1 2341   4.326   0.433   6.746
  800TIP3    H2 2342   4.195   0.452   6.673
  801TIP3   OH2 2343   1.165   0.478   1.235
  801TIP3    H1 2344   1.111   0.414   1.281
  801TIP3    H2 2345   1.181   0.547   1.300
  802TIP3   OH2 2346   4.556   6.518   5.395
  802TIP3    H1 2347   4.567   6.483   5.483
  802TIP3    H2 2348   4.630   6.579   5.385
  803TIP3   OH2 2349   2.642   7.095   1.573
  803TIP3    H1 2350   2.640   7.000   1.567
  803TIP3    H2 2351   2.676   7.124   1.489
  804TIP3   OH2 2352   1.215   7.028   6.305
  804TIP3    H1 2353   1.122   7.026   6.283
  804TIP3    H2 2354   1.218   7.052   6.398
  805TIP3   OH2 2355   3.958   6.196   1.720
  805TIP3    H1 2356   3.980   6.112   1.680
  805TIP3    H2 2357   3.893   6.175   1.786
  806TIP3   OH2 2358   4.405   3.471   6.272
  806TIP3    H1 2359   4.414   3.435   6.360
  806TIP3    H2 2360   4.310   3.467   6.255
  807TIP3   OH2 2361   7.247   7.705   0.579
  807TIP3    H1 2362   7.246   7.653   0.499
  807TIP3    H2 2363   7.289   7.787   0.553
  808TIP3   OH2 2364   6.487   4.546   6.266
  808TIP3    H1 2365   6.442   4.629   6.286
  808TIP3    H2 2366   6.481   4.537   6.171
  809TIP3   OH2 2367   6.351   6.118   3.733
  809TIP3    H1 2368   6.308   6.079   3.657
  809TIP3    H2 2369   6.280   6.162   3.781
  810TIP3   OH2 2370   6.684   4.829   6.252
  810TIP3    H1 2371   6.691   4.869   6.165
  810TIP3    H2 2372   6.635   4.749   6.237
  811TIP3   OH2 2373   6.086   2.201   3.085
  811TIP3    H1 2374   6.023   2.135   3.113
  811TIP3    H2 2375   6.152   2.151   3.036
  812TIP3   OH2 2376   5.930   4.154   0.453
  812TIP3    H1 2377   5.850   4.170   0.503
  812TIP3    H2 2378   5.903   4.094   0.383
  813TIP3   OH2 2379   2.691   2.305   3.056
  813TIP3    H1 2380   2.705   2.348   3.141
  813TIP3    H2 2381   2.772   2.255   3.042
  814TIP3   OH2 2382   6.758   6.485   5.869
  814TIP3    H1 2383   6.692   6.555   5.871
  814TIP3    H2 2384   6.785   6.481   5.777
  815TIP3   OH2 2385   2.851   6.894   4.784
  815TIP3    H1 2386   2.914   6.893   4.712
  815TIP3    H2 2387   2.768   6.872   4.743
  816TIP3   OH2 2388   7.386   6.051   3.903
  816TIP3    H1 2389   7.296   6.077   3.884
  816TIP3    H2 2390   7.438   6.093   3.834
  817TIP3   OH2 2391   7.716   5.791   6.780
  817TIP3    H1 2392   7.790   5.798   6.840
  817TIP3    H2 2393   7.639   5.784   6.837
  818TIP3   OH2 2394   7.756   5.182   4.487
  818TIP3    H1 2395   7.705   5.112   4.446
  818TIP3    H2 2396   7.691   5.242   4.522
  819TIP3   OH2 2397   5.481   1.326   5.400
  819TIP3    H1 2398   5.426   1.404   5.401
  819TIP3    H2 2399   5.531   1.331   5.481
  820TIP3   OH2 2400   5.158   3.486   2.512
  820TIP3    H1 2401   5.113   3.486   2.596
  820TIP3    H2 2402   5.184   3.395   2.499
  821TIP3   OH2 2403   6.099   0.462   0.430
  821TIP3    H1 2404   6.057   0.424   0.508
  821TIP3    H2 2405   6.040   0.440   0.358
  822TIP3   OH2 2406   4.643   6.587   0.130
  822TIP3    H1 2407   4.633   6.528   0.205
  822TIP3    H2 2408   4.561   6.637   0.128
  823TIP3   OH2 2409   0.219   3.867   6.897
  823TIP3    H1 2410   0.170   3.882   6.817
  823TIP3    H2 2411   0.305   3.837   6.868
  824TIP3   OH2 2412   4.778   7.050   4.812
  824TIP3    H1 2413   4.748   6.960   4.808
  824TIP3    H2 2414   4.863   7.049   4.767
  825TIP3   OH2 2415   0.642   7.269   2.165
  825TIP3    H1 2416   0.701   7.222   2.224
  825TIP3    H2 2417   0.584   7.318   2.223
  826TIP3   OH2 2418   7.906   0.654   2.508
  826TIP3    H1 2419   7.811   0.651   2.495
  826TIP3    H2 2420   7.917   0.710   2.585
  827TIP3   OH2 2421   0.786   2.300   6.003
  827TIP3    H1 2422   0.858   2.360   5.982
  827TIP3    H2 2423   0.709   2.356   6.010
  828TIP3   OH2 2424   7.855   7.736   5.415
  828TIP3    H1 2425   7.779   7.683   5.392
  828TIP3    H2 2426   7.854   7.740   5.511
  829TIP3   OH2 2427   5.550   3.824   3.067
  829TIP3    H1 2428   5.501   3.848   2.989
  829TIP3    H2 2429   5.529   3.732   3.081
  830TIP3   OH2 2430   2.461   1.580   3.723
  830TIP3    H1 2431   2.497   1.661   3.688
  830TIP3    H2 2432   2.538   1.528   3.745
  831TIP3   OH2 2433   5.531   7.118   1.428
  831TIP3    H1 2434   5.457   7.089   1.374
  831TIP3    H2 2435   5.517   7.212   1.439
  832TIP3   OH2 2436   6.281   3.925   4.827
  832TIP3    H1 2437   6.215   3.993   4.811
  832TIP3    H2 2438   6.355   3.952   4.772
  833TIP3   OH2 2439   0.468   0.310   0.303
  833TIP3    H1 2440   0.442   0.390   0.257
  833TIP3    H2 2441   0.524   0.264   0.241
  834TIP3   OH2 2442   1.864   0.530   2.431
  834TIP3    H1 2443   1.823   0.544   2.517
  834TIP3    H2 2444   1.826   0.598   2.375
  835TIP3   OH2 2445   3.503   4.589   3.956
  835TIP3    H1 2446   3.496   4.666   4.012
  835TIP3    H2 2447   3.592   4.556   3.971
  836TIP3   OH2 2448   8.371   6.516   2.567
  836TIP3    H1 2449   8.460   6.487   2.547
  836TIP3    H2 2450   8.368   6.606   2.534
  837TIP3   OH2 2451   4.676   1.004   0.301
  837TIP3    H1 2452   4.644   0.917   0.325
  837TIP3    H2 2453   4.753   1.017   0.357
  838TIP3   OH2 2454   3.861   1.573   0.106
  838TIP3    H1 2455   3.895   1.645   0.160
  838TIP3    H2 2456   3.869   1.605   0.016
  839TIP3   OH2 2457   6.664   1.986   0.813
  839TIP3    H1 2458   6.755   1.974   0.840
  839TIP3    H2 2459   6.657   2.079   0.792
  840TIP3   OH2 2460   8.148   5.986   6.283
  840TIP3    H1 2461   8.101   5.906   6.307
  840TIP3    H2 2462   8.138   6.043   6.359
  841TIP3   OH2 2463   7.639   2.550   4.814
  841TIP3    H1 2464   7.721   2.598   4.824
  841TIP3    H2 2465   7.632   2.534   4.720
  842TIP3   OH2 2466   3.894   4.099   5.163
  842TIP3    H1 2467   3.986   4.087   5.138
  842TIP3    H2 2468   3.892   4.183   5.209
  843TIP3   OH2 2469   1.680   4.833   1.107
  843TIP3    H1 2470   1.606   4.813   1.049
  843TIP3    H2 2471   1.650   4.807   1.194
  844TIP3   OH2 2472   3.000   0.614   6.482
  844TIP3    H1 2473   3.027   0.683   6.543
  844TIP3    H2 2474   3.069   0.548   6.489
  845TIP3   OH2 2475   4.543   4.459   1.992
  845TIP3    H1 2476   4.577   4.388   1.937
  845TIP3    H2 2477   4.460   4.424   2.026
  846TIP3   OH2 2478   1.571   7.225   6.197
  846TIP3    H1 2479   1.662   7.236   6.224
  846TIP3    H2 2480   1.545   7.139   6.231
  847TIP3   OH2 2481   0.982   4.350   3.254
  847TIP3    H1 2482   0.943   4.268   3.284
  847TIP3    H2 2483   0.947   4.364   3.167
  848TIP3   OH2 2484   3.123   1.140   4.948
  848TIP3    H1 2485   3.216   1.119   4.951
  848TIP3    H2 2486   3.088   1.104   5.030
  849TIP3   OH2 2487   5.775   1.593   4.401
  849TIP3    H1 2488   5.840   1.605   4.470
  849TIP3    H2 2489   5.782   1.672   4.348
  850TIP3   OH2 2490   0.303   5.906   3.068
  850TIP3    H1 2491   0.368   5.837   3.076
  850TIP3    H2 2492   0.349   5.979   3.026
  851TIP3   OH2 2493   1.068   6.748   4.551
  851TIP3    H1 2494   1.161   6.728   4.556
  851TIP3    H2 2495   1.058   6.800   4.472
  852TIP3   OH2 2496   5.001   6.655   4.884
  852TIP3    H1 2497   5.061   6.646   4.958
  852TIP3    H2 2498   5.056   6.681   4.810
  853TIP3   OH2 2499   3.506   7.068   1.502
  853TIP3    H1 2500   3.470   7.145   1.546
  853TIP3    H2 2501   3.597   7.092   1.483
  854TIP3   OH2 2502   2.535   7.398   3.288
  854TIP3    H1 2503   2.548   7.429   3.198
  854TIP3    H2 2504   2.458   7.341   3.283
  855TIP3   OH2 2505   6.862   0.136   3.912
  855TIP3    H1 2506   6.911   0.212   3.942
  855TIP3    H2 2507   6.866   0.074   3.985
  856TIP3   OH2 2508   6.119   5.834   5.613
  856TIP3    H1 2509   6.032   5.871   5.602
  856TIP3    H2 2510   6.151   5.822   5.523
  857TIP3   OH2 2511   2.111   4.825   0.235
  857TIP3    H1 2512   2.165   4.809   0.157
  857TIP3    H2 2513   2.022   4.834   0.201
  858TIP3   OH2 2514   1.162   2.321   2.677
  858TIP3    H1 2515   1.223   2.249   2.659
  858TIP3    H2 2516   1.189   2.353   2.764
  859TIP3   OH2 2517   7.474   7.192   2.062
  859TIP3    H1 2518   7.420   7.157   2.133
  859TIP3    H2 2519   7.551   7.228   2.106
  860TIP3   OH2 2520   6.400   3.448   2.017
  860TIP3    H1 2521   6.335   3.468   1.949
  860TIP3    H2 2522   6.426   3.358   1.999
  861TIP3   OH2 2523   0.599   3.286   2.919
  861TIP3    H1 2524   0.527   3.226   2.905
  861TIP3    H2 2525   0.591   3.351   2.849
  862TIP3   OH2 2526   3.813   6.322   6.059
  862TIP3    H1 2527   3.837   6.242   6.106
  862TIP3    H2 2528   3.779   6.381   6.127
  863TIP3   OH2 2529   5.949   6.217   6.112
  863TIP3    H1 2530   5.934   6.289   6.051
  863TIP3    H2 2531   6.037   6.186   6.092
  864TIP3   OH2 2532   0.445   1.494   3.029
  864TIP3    H1 2533   0.409   1.549   2.960
  864TIP3    H2 2534   0.382   1.423   3.038
  865TIP3   OH2 2535   7.547   5.150   6.459
  865TIP3    H1 2536   7.544   5.186   6.548
  865TIP3    H2 2537   7.473   5.192   6.414
  866TIP3   OH2 2538   0.693   0.801   6.070
  866TIP3    H1 2539   0.734   0.870   6.122
  866TIP3    H2 2540   0.656   0.846   5.994
  867TIP3   OH2 2541   2.264   7.783   3.323
  867TIP3    H1 2542   2.202   7.851   3.348
  867TIP3    H2 2543   2.214   7.701   3.328
  868TIP3   OH2 2544   2.122   3.272   5.103
  868TIP3    H1 2545   2.185   3.317   5.047
  868TIP3    H2 2546   2.145   3.179   5.094
  869TIP3   OH2 2547   0.818   4.579   0.614
  869TIP3    H1 2548   0.817   4.589   0.710
  869TIP3    H2 2549   0.900   4.534   0.596
  870TIP3   OH2 2550   0.127   7.349   6.714
  870TIP3    H1 2551   0.090   7.355   6.802
  870TIP3    H2 2552   0.109   7.260   6.685
  871TIP3   OH2 2553   6.152   7.032   2.925
  871TIP3    H1 2554   6.217   7.022   2.855
  871TIP3    H2 2555   6.204   7.034   3.006
  872TIP3   OH2 2556   6.432   6.209   4.037
  872TIP3    H1 2557   6.507   6.179   4.087
  872TIP3    H2 2558   6.470   6.255   3.962
  873TIP3   OH2 2559   5.668   6.017   1.380
  873TIP3    H1 2560   5.653   6.098   1.430
  873TIP3    H2 2561   5.645   5.947   1.441
  874TIP3   OH2 2562   2.366   6.451   1.815
  874TIP3    H1 2563   2.357   6.395   1.737
  874TIP3    H2 2564   2.391   6.390   1.885
  875TIP3   OH2 2565   3.378   0.124   2.558
  875TIP3    H1 2566   3.348   0.085   2.475
  875TIP3    H2 2567   3.298   0.142   2.606
  876TIP3   OH2 2568   3.650   7.090   4.359
  876TIP3    H1 2569   3.711   7.145   4.408
  876TIP3    H2 2570   3.568   7.141   4.358
  877TIP3   OH2 2571   3.831   5.969   3.285
  877TIP3    H1 2572   3.865   5.969   3.195
  877TIP3    H2 2573   3.740   5.996   3.275
  878TIP3   OH2 2574   4.119   0.552   0.256
  878TIP3    H1 2575   4.030   0.571   0.227
  878TIP3    H2 2576   4.168   0.538   0.175
  879TIP3   OH2 2577   7.923   7.872   1.967
  879TIP3    H1 2578   7.978   7.820   1.908
  879TIP3    H2 2579   7.963   7.861   2.053
  880TIP3   OH2 2580   8.212   1.062   0.847
  880TIP3    H1 2581   8.170   1.148   0.858
  880TIP3    H2 2582   8.257   1.046   0.930
  881TIP3   OH2 2583   1.937   6.944   5.661
  881TIP3    H1 2584   2.012   6.907   5.615
  881TIP3    H2 2585   1.945   7.038   5.649
  882TIP3   OH2 2586   3.448   0.093   0.500
  882TIP3    H1 2587   3.535   0.107   0.461
  882TIP3    H2 2588   3.394   0.163   0.463
  883TIP3   OH2 2589   4.068   0.817   2.422
  883TIP3    H1 2590   3.990   0.856   2.382
  883TIP3    H2 2591   4.076   0.861   2.506
  884TIP3   OH2 2592   8.190   1.586   1.151
  884TIP3    H1 2593   8.111   1.623   1.112
  884TIP3    H2 2594   8.214   1.514   1.093
  885TIP3   OH2 2595   8.064   5.388   3.442
  885TIP3    H1 2596   8.003   5.459   3.461
  885TIP3    H2 2597   8.088   5.400   3.350
  886TIP3   OH2 2598   3.941   2.922   0.204
  886TIP3    H1 2599   3.919   3.003   0.159
  886TIP3    H2 2600   4.021   2.942   0.252
  887TIP3   OH2 2601   0.592   7.681   4.547
  887TIP3    H1 2602   0.588   7.776   4.535
  887TIP3    H2 2603   0.682   7.657   4.526
  888TIP3   OH2 2604   2.343   4.484   5.045
  888TIP3    H1 2605   2.283   4.542   4.997
  888TIP3    H2 2606   2.419   4.538   5.063
  889TIP3   OH2 2607   2.155   3.716   6.403
  889TIP3    H1 2608   2.195   3.801   6.418
  889TIP3    H2 2609   2.077   3.715   6.459
  890TIP3   OH2 2610   1.142   4.378   5.109
  890TIP3    H1 2611   1.177   4.301   5.154
  890TIP3    H2 2612   1.219   4.423   5.075
  891TIP3   OH2 2613   1.001   0.820   1.141
  891TIP3    H1 2614   0.993   0.746   1.081
  891TIP3    H2 2615   0.929   0.808   1.203
  892TIP3   OH2 2616   2.389   5.220   3.834
  892TIP3    H1 2617   2.399   5.174   3.751
  892TIP3    H2 2618   2.387   5.313   3.810
  893TIP3   OH2 2619   7.853   7.828   3.780
  893TIP3    H1 2620   7.892   7.741   3.782
  893TIP3    H2 2621   7.858   7.859   3.870
  894TIP3   OH2 2622   7.506   1.939   1.432
  894TIP3    H1 2623   7.460   1.888   1.365
  894TIP3    H2 2624   7.571   1.990   1.383
  895TIP3   OH2 2625   5.098   5.195   6.614
  895TIP3    H1 2626   5.066   5.283   6.633
  895TIP3    H2 2627   5.193   5.201   6.630
  896TIP3   OH2 2628   0.392   5.024   0.850
  896TIP3    H1 2629   0.378   5.009   0.943
  896TIP3    H2 2630   0.311   5.065   0.819
  897TIP3   OH2 2631   6.710   5.642   2.777
  897TIP3    H1 2632   6.634   5.680   2.733
  897TIP3    H2 2633   6.765   5.608   2.707
  898TIP3   OH2 2634   8.007   1.661   5.461
  898TIP3    H1 2635   8.024   1.658   5.367
  898TIP3    H2 2636   8.047   1.581   5.495
  899TIP3   OH2 2637   0.426   3.240   1.603
  899TIP3    H1 2638   0.405   3.184   1.528
  899TIP3    H2 2639   0.393   3.191   1.679
  900TIP3   OH2 2640   6.651   1.415   2.982
  900TIP3    H1 2641   6.618   1.493   3.026
  900TIP3    H2 2642   6.589   1.346   3.006
  901TIP3   OH2 2643   2.373   7.858   1.872
  901TIP3    H1 2644   2.406   7.892   1.956
  901TIP3    H2 2645   2.441   7.880   1.809
  902TIP3   OH2 2646   4.759   3.444   4.886
  902TIP3    H1 2647   4.798   3.437   4.973
  902TIP3    H2 2648   4.714   3.361   4.873
  903TIP3   OH2 2649   7.323   7.657   1.995
  903TIP3    H1 2650   7.245   7.622   1.953
  903TIP3    H2 2651   7.340   7.597   2.068
  904TIP3   OH2 2652   7.162   2.559   6.414
  904TIP3    H1 2653   7.173   2.555   6.509
  904TIP3    H2 2654   7.185   2.649   6.391
  905TIP3   OH2 2655   5.652   6.679   4.115
  905TIP3    H1 2656   5.712   6.638   4.178
  905TIP3    H2 2657   5.573   6.625   4.119
  906TIP3   OH2 2658   1.923   4.330   0.840
  906TIP3    H1 2659   1.919   4.238   0.865
  906TIP3    H2 2660   1.838   4.366   0.864
  907TIP3   OH2 2661   1.295   5.741   0.751
  907TIP3    H1 2662   1.265   5.789   0.674
  907TIP3    H2 2663   1.363   5.682   0.717
  908TIP3   OH2 2664   5.733   7.121   1.074
  908TIP3    H1 2665   5.781   7.050   1.116
  908TIP3    H2 2666   5.647   7.120   1.115
  909TIP3   OH2 2667   3.156   4.904   2.055
  909TIP3    H1 2668   3.244   4.936   2.073
  909TIP3    H2 2669   3.100   4.980   2.063
  910TIP3   OH2 2670   4.707   3.580   4.508
  910TIP3    H1 2671   4.771   3.580   4.579
  910TIP3    H2 2672   4.722   3.662   4.461
  911TIP3   OH2 2673   2.121   4.225   4.459
  911TIP3    H1 2674   2.124   4.165   4.384
  911TIP3    H2 2675   2.183   4.187   4.522
  912TIP3   OH2 2676   1.895   1.842   0.867
  912TIP3    H1 2677   1.801   1.827   0.880
  912TIP3    H2 2678   1.933   1.833   0.954
  913TIP3   OH2 2679   0.601   2.830   1.077
  913TIP3    H1 2680   0.629   2.758   1.134
  913TIP3    H2 2681   0.639   2.809   0.991
  914TIP3   OH2 2682   6.924   7.042   5.222
  914TIP3    H1 2683   6.889   6.954   5.232
  914TIP3    H2 2684   6.855   7.091   5.178
  915TIP3   OH2 2685   3.092   1.708   0.548
  915TIP3    H1 2686   3.135   1.640   0.600
  915TIP3    H2 2687   3.142   1.787   0.566
  916TIP3   OH2 2688   6.003   5.877   3.627
  916TIP3    H1 2689   5.927   5.927   3.659
  916TIP3    H2 2690   6.061   5.943   3.590
  917TIP3   OH2 2691   8.113   2.830   6.314
  917TIP3    H1 2692   8.141   2.752   6.362
  917TIP3    H2 2693   8.028   2.806   6.277
  918TIP3   OH2 2694   4.862   7.338   3.514
  918TIP3    H1 2695   4.845   7.303   3.602
  918TIP3    H2 2696   4.910   7.419   3.531
  919TIP3   OH2 2697   7.866   0.153   5.201
  919TIP3    H1 2698   7.951   0.176   5.165
  919TIP3    H2 2699   7.877   0.160   5.295
  920TIP3   OH2 2700   7.842   1.281   4.387
  920TIP3    H1 2701   7.888   1.275   4.471
  920TIP3    H2 2702   7.798   1.365   4.390
  921TIP3   OH2 2703   5.800   0.725   3.409
  921TIP3    H1 2704   5.743   0.671   3.354
  921TIP3    H2 2705   5.776   0.702   3.499
  922TIP3   OH2 2706   1.251   2.593   4.861
  922TIP3    H1 2707   1.169   2.549   4.880
  922TIP3    H2 2708   1.240   2.627   4.772
  923TIP3   OH2 2709   3.184   1.454   1.181
  923TIP3    H1 2710   3.122   1.513   1.136
  923TIP3    H2 2711   3.232   1.412   1.110
  924TIP3   OH2 2712   3.427   3.672   2.511
  924TIP3    H1 2713   3.331   3.676   2.512
  924TIP3    H2 2714   3.453   3.702   2.598
  925TIP3   OH2 2715   3.547   6.788   3.564
  925TIP3    H1 2716   3.613   6.723   3.541
  925TIP3    H2 2717   3.558   6.858   3.499
  926TIP3   OH2 2718   3.629   0.964   2.738
  926TIP3    H1 2719   3.669   0.889   2.694
  926TIP3    H2 2720   3.600   0.929   2.823
  927TIP3   OH2 2721   3.738   7.791   4.231
  927TIP3    H1 2722   3.658   7.827   4.270
  927TIP3    H2 2723   3.799   7.865   4.231
  928TIP3   OH2 2724   5.151   1.230   4.109
  928TIP3    H1 2725   5.216   1.175   4.152
  928TIP3    H2 2726   5.071   1.219   4.161
  929TIP3   OH2 2727   0.758   4.585   5.440
  929TIP3    H1 2728   0.808   4.653   5.395
  929TIP3    H2 2729   0.760   4.610   5.532
  930TIP3   OH2 2730   5.230   4.516   4.222
  930TIP3    H1 2731   5.201   4.599   4.184
  930TIP3    H2 2732   5.254   4.538   4.312
  931TIP3   OH2 2733   1.310   5.070   1.263
  931TIP3    H1 2734   1.294   5.045   1.354
  931TIP3    H2 2735   1.242   5.135   1.244
  932TIP3   OH2 2736   1.391   6.773   6.761
  932TIP3    H1 2737   1.426   6.802   6.845
  932TIP3    H2 2738   1.468   6.764   6.705
  933TIP3   OH2 2739   4.625   5.110   3.299
  933TIP3    H1 2740   4.537   5.085   3.272
  933TIP3    H2 2741   4.628   5.088   3.392
  934TIP3   OH2 2742   2.336   5.123   2.214
  934TIP3    H1 2743   2.404   5.057   2.223
  934TIP3    H2 2744   2.293   5.103   2.131
  935TIP3   OH2 2745   0.654   3.352   5.303
  935TIP3    H1 2746   0.665   3.297   5.225
  935TIP3    H2 2747   0.722   3.419   5.295
  936TIP3   OH2 2748   3.388   3.239   3.170
  936TIP3    H1 2749   3.319   3.285   3.218
  936TIP3    H2 2750   3.451   3.307   3.148
  937TIP3   OH2 2751   7.444   1.828   1.177
  937TIP3    H1 2752   7.512   1.872   1.126
  937TIP3    H2 2753   7.418   1.753   1.124
  938TIP3   OH2 2754   8.039   1.356   2.691
  938TIP3    H1 2755   8.073   1.305   2.618
  938TIP3    H2 2756   7.989   1.427   2.649
  939TIP3   OH2 2757   2.108   5.451   3.984
  939TIP3    H1 2758   2.110   5.447   4.079
  939TIP3    H2 2759   2.103   5.544   3.964
  940TIP3   OH2 2760   4.918   2.793   6.251
  940TIP3    H1 2761   4.944   2.711   6.293
  940TIP3    H2 2762   4.834   2.774   6.209
  941TIP3   OH2 2763   1.494   7.703   1.640
  941TIP3    H1 2764   1.461   7.646   1.571
  941TIP3    H2 2765   1.589   7.707   1.625
  942TIP3   OH2 2766   1.561   7.273   3.547
  942TIP3    H1 2767   1.582   7.196   3.599
  942TIP3    H2 2768   1.476   7.253   3.508
  943TIP3   OH2 2769   1.798   6.997   3.226
  943TIP3    H1 2770   1.804   7.049   3.146
  943TIP3    H2 2771   1.829   6.910   3.201
  944TIP3   OH2 2772   6.663   5.128   3.796
  944TIP3    H1 2773   6.668   5.035   3.815
  944TIP3    H2 2774   6.651   5.170   3.882
  945TIP3   OH2 2775   5.062   5.754   6.683
  945TIP3    H1 2776   5.146   5.739   6.725
  945TIP3    H2 2777   5.068   5.708   6.600
  946TIP3   OH2 2778   3.010   0.814   5.651
  946TIP3    H1 2779   2.985   0.900   5.683
  946TIP3    H2 2780   2.929   0.778   5.614
  947TIP3   OH2 2781   7.541   6.768   2.300
  947TIP3    H1 2782   7.522   6.682   2.335
  947TIP3    H2 2783   7.496   6.829   2.358
  948TIP3   OH2 2784   8.001   7.373   0.031
  948TIP3    H1 2785   8.049   7.318   0.094
  948TIP3    H2 2786   7.934   7.416   0.084
  949TIP3   OH2 2787   8.037   0.483   5.556
  949TIP3    H1 2788   8.102   0.478   5.625
  949TIP3    H2 2789   7.981   0.557   5.581
  950TIP3   OH2 2790   3.500   7.893   2.447
  950TIP3    H1 2791   3.463   7.807   2.426
  950TIP3    H2 2792   3.535   7.883   2.535
  951TIP3   OH2 2793   2.318   4.877   6.287
  951TIP3    H1 2794   2.407   4.855   6.316
  951TIP3    H2 2795   2.329   4.960   6.239
  952TIP3   OH2 2796   7.657   5.320   2.572
  952TIP3    H1 2797   7.658   5.233   2.532
  952TIP3    H2 2798   7.598   5.371   2.518
  953TIP3   OH2 2799   7.957   2.556   0.812
  953TIP3    H1 2800   8.023   2.572   0.880
  953TIP3    H2 2801   7.972   2.624   0.747
  954TIP3   OH2 2802   5.667   3.093   4.479
  954TIP3    H1 2803   5.594   3.071   4.422
  954TIP3    H2 2804   5.627   3.116   4.563
  955TIP3   OH2 2805   6.969   5.356   1.765
  955TIP3    H1 2806   7.051   5.309   1.750
  955TIP3    H2 2807   6.979   5.393   1.853
  956TIP3   OH2 2808   5.460   4.867   4.275
  956TIP3    H1 2809   5.540   4.908   4.308
  956TIP3    H2 2810   5.491   4.806   4.208
  957TIP3   OH2 2811   5.285   7.851   5.824
  957TIP3    H1 2812   5.211   7.827   5.768
  957TIP3    H2 2813   5.264   7.939   5.855
  958TIP3   OH2 2814   6.947   5.486   5.636
  958TIP3    H1 2815   6.948   5.392   5.650
  958TIP3    H2 2816   6.948   5.524   5.724
  959TIP3   OH2 2817   5.205   3.962   2.026
  959TIP3    H1 2818   5.122   3.942   2.068
  959TIP3    H2 2819   5.184   3.968   1.933
  960TIP3   OH2 2820   3.125   6.911   6.002
  960TIP3    H1 2821   3.107   6.823   5.969
  960TIP3    H2 2822   3.043   6.937   6.045
  961TIP3   OH2 2823   8.091   6.276   5.091
  961TIP3    H1 2824   8.097   6.321   5.175
  961TIP3    H2 2825   8.147   6.199   5.101
  962TIP3   OH2 2826   5.182   1.854   5.226
  962TIP3    H1 2827   5.191   1.760   5.215
  962TIP3    H2 2828   5.219   1.872   5.313
  963TIP3   OH2 2829   1.900   2.969   5.568
  963TIP3    H1 2830   1.834   2.946   5.633
  963TIP3    H2 2831   1.884   3.061   5.549
  964TIP3   OH2 2832   6.548   2.706   4.797
  964TIP3    H1 2833   6.452   2.711   4.802
  964TIP3    H2 2834   6.567   2.615   4.775
  965TIP3   OH2 2835   2.898   2.170   5.346
  965TIP3    H1 2836   2.828   2.215   5.394
  965TIP3    H2 2837   2.862   2.083   5.329
  966TIP3   OH2 2838   2.610   6.919   1.117
  966TIP3    H1 2839   2.584   6.899   1.208
  966TIP3    H2 2840   2.627   6.833   1.078
  967TIP3   OH2 2841   3.558   0.626   3.220
  967TIP3    H1 2842   3.483   0.672   3.258
  967TIP3    H2 2843   3.520   0.563   3.159
  968TIP3   OH2 2844   0.811   0.244   2.037
  968TIP3    H1 2845   0.743   0.177   2.034
  968TIP3    H2 2846   0.834   0.260   1.946
  969TIP3   OH2 2847   3.007   2.094   4.092
  969TIP3    H1 2848   2.982   2.184   4.072
  969TIP3    H2 2849   2.924   2.045   4.086
  970TIP3   OH2 2850   3.981   7.189   3.831
  970TIP3    H1 2851   3.930   7.155   3.905
  970TIP3    H2 2852   3.948   7.141   3.755
  971TIP3   OH2 2853   4.279   7.767   5.076
  971TIP3    H1 2854   4.284   7.807   5.163
  971TIP3    H2 2855   4.311   7.835   5.017
  972TIP3   OH2 2856   8.128   2.857   5.884
  972TIP3    H1 2857   8.034   2.850   5.904
  972TIP3    H2 2858   8.171   2.808   5.954
  973TIP3   OH2 2859   2.088   7.579   3.366
  973TIP3    H1 2860   2.090   7.532   3.449
  973TIP3    H2 2861   2.023   7.532   3.313
  974TIP3   OH2 2862   0.517   5.334   2.557
  974TIP3    H1 2863   0.550   5.421   2.579
  974TIP3    H2 2864   0.579   5.274   2.597
  975TIP3   OH2 2865   3.746   0.754   2.618
  975TIP3    H1 2866   3.738   0.691   2.689
  975TIP3    H2 2867   3.840   0.759   2.600
  976TIP3   OH2 2868   3.144   0.140   4.230
  976TIP3    H1 2869   3.056   0.105   4.242
  976TIP3    H2 2870   3.175   0.159   4.319
  977TIP3   OH2 2871   1.602   3.865   4.636
  977TIP3    H1 2872   1.687   3.827   4.611
  977TIP3    H2 2873   1.604   3.954   4.601
  978TIP3   OH2 2874   2.626   2.198   5.134
  978TIP3    H1 2875   2.712   2.229   5.108
  978TIP3    H2 2876   2.611   2.235   5.220
  979TIP3   OH2 2877   4.242   1.235   6.079
  979TIP3    H1 2878   4.204   1.310   6.127
  979TIP3    H2 2879   4.337   1.244   6.092
  980TIP3   OH2 2880   7.686   5.018   2.730
  980TIP3    H1 2881   7.756   4.961   2.761
  980TIP3    H2 2882   7.728   5.102   2.715
  981TIP3   OH2 2883   3.406   2.856   0.867
  981TIP3    H1 2884   3.337   2.794   0.842
  981TIP3    H2 2885   3.364   2.912   0.933
  982TIP3   OH2 2886   1.731   3.904   3.970
  982TIP3    H1 2887   1.704   3.833   4.028
  982TIP3    H2 2888   1.754   3.975   4.029
  983TIP3   OH2 2889   4.157   2.588   5.687
  983TIP3    H1 2890   4.116   2.589   5.600
  983TIP3    H2 2891   4.172   2.680   5.707
  984TIP3   OH2 2892   0.042   5.962   0.498
  984TIP3    H1 2893  -0.045   5.998   0.484
  984TIP3    H2 2894   0.082   5.961   0.411
  985TIP3   OH2 2895   0.512   7.396   3.632
  985TIP3    H1 2896   0.550   7.466   3.684
  985TIP3    H2 2897   0.517   7.318   3.688
  986TIP3   OH2 2898   5.866   3.767   3.217
  986TIP3    H1 2899   5.918   3.817   3.154
  986TIP3    H2 2900   5.805   3.831   3.254
  987TIP3   OH2 2901   0.273   3.472   6.815
  987TIP3    H1 2902   0.297   3.421   6.893
  987TIP3    H2 2903   0.319   3.556   6.826
  988TIP3   OH2 2904   3.672   3.727   1.212
  988TIP3    H1 2905   3.665   3.633   1.196
  988TIP3    H2 2906   3.764   3.741   1.233
  989TIP3   OH2 2907   3.598   2.428   2.472
  989TIP3    H1 2908   3.526   2.464   2.421
  989TIP3    H2 2909   3.652   2.503   2.494
  990TIP3   OH2 2910   3.701   1.367   6.298
  990TIP3    H1 2911   3.725   1.275   6.311
  990TIP3    H2 2912   3.781   1.416   6.319
  991TIP3   OH2 2913   0.443   1.928   5.296
  991TIP3    H1 2914   0.503   1.949   5.225
  991TIP3    H2 2915   0.356   1.940   5.258
  992TIP3   OH2 2916   7.015   2.385   1.944
  992TIP3    H1 2917   7.082   2.451   1.960
  992TIP3    H2 2918   7.056   2.302   1.967
  993TIP3   OH2 2919   3.378   3.621   5.166
  993TIP3    H1 2920   3.347   3.685   5.102
  993TIP3    H2 2921   3.305   3.610   5.227
  994TIP3   OH2 2922   5.066   0.101   0.482
  994TIP3    H1 2923   5.112   0.139   0.407
  994TIP3    H2 2924   4.981   0.076   0.448
  995TIP3   OH2 2925   2.082   7.670   4.047
  995TIP3    H1 2926   2.110   7.694   3.959
  995TIP3    H2 2927   2.111   7.742   4.102
  996TIP3   OH2 2928   5.844   7.551   3.132
  996TIP3    H1 2929   5.812   7.638   3.106
  996TIP3    H2 2930   5.937   7.551   3.109
  997TIP3   OH2 2931   4.012   6.883   5.475
  997TIP3    H1 2932   4.032   6.815   5.539
  997TIP3    H2 2933   3.930   6.922   5.506
  998TIP3   OH2 2934   5.775   2.350   1.761
  998TIP3    H1 2935   5.753   2.257   1.747
  998TIP3    H2 2936   5.837   2.349   1.834
  999TIP3   OH2 2937   7.224   7.869   4.356
  999TIP3    H1 2938   7.236   7.846   4.264
  999TIP3    H2 2939   7.230   7.965   4.358
 1000TIP3   OH2 2940   8.003   5.769   6.351
 1000TIP3    H1 2941   7.965   5.686   6.322
 1000TIP3    H2 2942   7.949   5.795   6.426
 1001TIP3   OH2 2943   0.370   0.684   1.980
 1001TIP3    H1 2944   0.285   0.699   1.939
 1001TIP3    H2 2945   0.365   0.730   2.064
 1002TIP3   OH2 2946   3.215   3.516   5.572
 1002TIP3    H1 2947   3.232   3.594   5.518
 1002TIP3    H2 2948   3.231   3.545   5.662
 1003TIP3   OH2 2949   8.208   0.502   4.874
 1003TIP3    H1 2950   8.185   0.414   4.904
 1003TIP3    H2 2951   8.128   0.534   4.830
 1004TIP3   OH2 2952   6.353   4.184   3.681
 1004TIP3    H1 2953   6.276   4.167   3.736
 1004TIP3    H2 2954   6.325   4.251   3.619
 1005TIP3   OH2 2955   1.589   5.801   4.313
 1005TIP3    H1 2956   1.620   5.735   4.374
 1005TIP3    H2 2957   1.563   5.875   4.368
 1006TIP3   OH2 2958   3.042   3.869   0.463
 1006TIP3    H1 2959   3.003   3.834   0.383
 1006TIP3    H2 2960   2.987   3.943   0.486
 1007TIP3   OH2 2961   4.269   6.752   1.624
 1007TIP3    H1 2962   4.208   6.808   1.672
 1007TIP3    H2 2963   4.217   6.676   1.597
 1008TIP3   OH2 2964   5.901   3.760   0.538
 1008TIP3    H1 2965   5.934   3.792   0.453
 1008TIP3    H2 2966   5.969   3.700   0.568
 1009TIP3   OH2 2967   3.401   6.164   5.440
 1009TIP3    H1 2968   3.386   6.164   5.535
 1009TIP3    H2 2969   3.486   6.123   5.429
 1010TIP3   OH2 2970   0.843   0.410   4.672
 1010TIP3    H1 2971   0.866   0.317   4.679
 1010TIP3    H2 2972   0.753   0.415   4.706
 1011TIP3   OH2 2973   4.080   5.254   2.498
 1011TIP3    H1 2974   4.143   5.186   2.523
 1011TIP3    H2 2975   4.045   5.223   2.414
 1012TIP3   OH2 2976   1.264   1.532   4.277
 1012TIP3    H1 2977   1.171   1.557   4.282
 1012TIP3    H2 2978   1.262   1.436   4.274
 1013TIP3   OH2 2979   7.789   3.971   3.966
 1013TIP3    H1 2980   7.715   4.032   3.962
 1013TIP3    H2 2981   7.754   3.890   3.928
 1014TIP3   OH2 2982   4.796   0.365   5.806
 1014TIP3    H1 2983   4.830   0.454   5.814
 1014TIP3    H2 2984   4.854   0.323   5.742
 1015TIP3   OH2 2985   2.881   3.419   6.661
 1015TIP3    H1 2986   2.961   3.392   6.617
 1015TIP3    H2 2987   2.871   3.356   6.732
 1016TIP3   OH2 2988   0.590   3.419   0.304
 1016TIP3    H1 2989   0.667   3.370   0.331
 1016TIP3    H2 2990   0.552   3.452   0.386
 1017TIP3   OH2 2991   5.144   2.639   6.100
 1017TIP3    H1 2992   5.157   2.734   6.110
 1017TIP3    H2 2993   5.083   2.616   6.170
 1018TIP3   OH2 2994   0.606   0.013   0.130
 1018TIP3    H1 2995   0.520  -0.025   0.144
 1018TIP3    H2 2996   0.589   0.096   0.085
 1019TIP3   OH2 2997   0.433   4.530   2.218
 1019TIP3    H1 2998   0.524   4.499   2.215
 1019TIP3    H2 2999   0.402   4.523   2.128
 1020TIP3   OH2 3000   0.238   6.366   3.124
 1020TIP3    H1 3001   0.268   6.417   3.049
 1020TIP3    H2 3002   0.151   6.335   3.098
 1021TIP3   OH2 3003   3.746   7.782   6.405
 1021TIP3    H1 3004   3.702   7.732   6.336
 1021TIP3    H2 3005   3.678   7.835   6.444
 1022TIP3   OH2 3006   4.373   1.738   0.136
 1022TIP3    H1 3007   4.324   1.706   0.060
 1022TIP3    H2 3008   4.330   1.697   0.211
 1023TIP3   OH2 3009   2.082   5.358   5.000
 1023TIP3    H1 3010   2.174   5.370   4.978
 1023TIP3    H2 3011   2.072   5.401   5.085
 1024TIP3   OH2 3012   6.135   2.049   4.520
 1024TIP3    H1 3013   6.051   2.032   4.477
 1024TIP3    H2 3014   6.153   2.141   4.500
 1025TIP3   OH2 3015   6.828   3.472   2.636
 1025TIP3    H1 3016   6.915   3.456   2.671
 1025TIP3    H2 3017   6.837   3.552   2.584
 1026TIP3   OH2 3018   7.939   1.655   3.038
 1026TIP3    H1 3019   7.925   1.738   3.085
 1026TIP3    H2 3020   8.024   1.625   3.067
 1027TIP3   OH2 3021   8.106   3.994   1.700
 1027TIP3    H1 3022   8.121   3.981   1.794
 1027TIP3    H2 3023   8.131   3.911   1.660
 1028TIP3   OH2 3024   6.014   5.476   0.800
 1028TIP3    H1 3025   6.081   5.422   0.842
 1028TIP3    H2 3026   6.063   5.550   0.764
 1029TIP3   OH2 3027   0.239   0.553   1.729
 1029TIP3    H1 3028   0.266   0.644   1.743
 1029TIP3    H2 3029   0.186   0.556   1.650
 1030TIP3   OH2 3030   7.832   4.949   5.784
 1030TIP3    H1 3031   7.900   5.009   5.813
 1030TIP3    H2 3032   7.750   4.987   5.817
 1031TIP3   OH2 3033   6.580   2.952   2.048
 1031TIP3    H1 3034   6.631   2.909   2.116
 1031TIP3    H2 3035   6.504   2.988   2.093
 1032TIP3   OH2 3036   2.080   2.264   6.020
 1032TIP3    H1 3037   2.043   2.246   5.933
 1032TIP3    H2 3038   2.143   2.194   6.034
 1033TIP3   OH2 3039   4.201   7.211   5.575
 1033TIP3    H1 3040   4.227   7.155   5.502
 1033TIP3    H2 3041   4.149   7.154   5.631
 1034TIP3   OH2 3042   7.344   2.929   1.872
 1034TIP3    H1 3043   7.398   2.969   1.939
 1034TIP3    H2 3044   7.287   2.868   1.919
 1035TIP3   OH2 3045   1.180   0.691   1.432
 1035TIP3    H1 3046   1.106   0.744   1.461
 1035TIP3    H2 3047   1.205   0.640   1.509
 1036TIP3   OH2 3048   5.605   0.491   4.229
 1036TIP3    H1 3049   5.665   0.514   4.158
 1036TIP3    H2 3050   5.663   0.471   4.303
 1037TIP3   OH2 3051   2.521   3.837   4.672
 1037TIP3    H1 3052   2.477   3.759   4.707
 1037TIP3    H2 3053   2.473   3.910   4.709
 1038TIP3   OH2 3054   4.283   0.236   0.979
 1038TIP3    H1 3055   4.269   0.311   0.922
 1038TIP3    H2 3056   4.364   0.256   1.027
 1039TIP3   OH2 3057   1.531   6.159   1.541
 1039TIP3    H1 3058   1.625   6.162   1.523
 1039TIP3    H2 3059   1.511   6.245   1.578
 1040TIP3   OH2 3060   4.052   2.579   1.808
 1040TIP3    H1 3061   4.116   2.548   1.744
 1040TIP3    H2 3062   3.968   2.570   1.763
 1041TIP3   OH2 3063   7.512   0.010   5.244
 1041TIP3    H1 3064   7.446   0.020   5.313
 1041TIP3    H2 3065   7.596   0.020   5.288
 1042TIP3   OH2 3066   5.354   2.765   5.048
 1042TIP3    H1 3067   5.419   2.700   5.076
 1042TIP3    H2 3068   5.339   2.745   4.956
 1043TIP3   OH2 3069   0.046   4.127   5.855
 1043TIP3    H1 3070  -0.025   4.092   5.908
 1043TIP3    H2 3071   0.041   4.222   5.868
 1044TIP3   OH2 3072   8.181   1.962   3.139
 1044TIP3    H1 3073   8.129   1.939   3.062
 1044TIP3    H2 3074   8.116   1.991   3.204
 1045TIP3   OH2 3075   3.818   2.103   0.878
 1045TIP3    H1 3076   3.878   2.036   0.910
 1045TIP3    H2 3077   3.855   2.131   0.794
 1046TIP3   OH2 3078   2.111   6.173   2.756
 1046TIP3    H1 3079   2.120   6.156   2.850
 1046TIP3    H2 3080   2.111   6.268   2.749
 1047TIP3   OH2 3081   7.309   1.043   2.779
 1047TIP3    H1 3082   7.383   1.093   2.811
 1047TIP3    H2 3083   7.240   1.057   2.844
 1048TIP3   OH2 3084   2.252   0.394   1.115
 1048TIP3    H1 3085   2.294   0.453   1.052
 1048TIP3    H2 3086   2.159   0.415   1.109
 1049TIP3   OH2 3087   5.352   5.039   1.966
 1049TIP3    H1 3088   5.326   4.960   2.013
 1049TIP3    H2 3089   5.448   5.038   1.968
 1050TIP3   OH2 3090   1.755   0.290   0.978
 1050TIP3    H1 3091   1.742   0.195   0.969
 1050TIP3    H2 3092   1.837   0.299   1.026
 1051TIP3   OH2 3093   2.799   2.027   6.403
 1051TIP3    H1 3094   2.860   2.099   6.418
 1051TIP3    H2 3095   2.831   1.984   6.324
 1052TIP3   OH2 3096   0.945   5.081   3.056
 1052TIP3    H1 3097   1.004   5.093   3.131
 1052TIP3    H2 3098   0.958   5.159   3.003
 1053TIP3   OH2 3099   5.831   4.100   1.964
 1053TIP3    H1 3100   5.845   4.184   1.921
 1053TIP3    H2 3101   5.737   4.093   1.975
 1054TIP3   OH2 3102   0.812   6.966   5.508
 1054TIP3    H1 3103   0.901   6.959   5.543
 1054TIP3    H2 3104   0.825   6.990   5.416
 1055TIP3   OH2 3105   1.012   0.833   2.034
 1055TIP3    H1 3106   0.968   0.876   1.961
 1055TIP3    H2 3107   0.996   0.892   2.108
 1056TIP3   OH2 3108   0.435   3.850   1.598
 1056TIP3    H1 3109   0.412   3.860   1.505
 1056TIP3    H2 3110   0.375   3.907   1.644
 1057TIP3   OH2 3111   6.878   2.147   3.919
 1057TIP3    H1 3112   6.822   2.126   3.844
 1057TIP3    H2 3113   6.965   2.161   3.881
 1058TIP3   OH2 3114   4.793   1.649   1.271
 1058TIP3    H1 3115   4.721   1.626   1.330
 1058TIP3    H2 3116   4.872   1.626   1.319
 1059TIP3   OH2 3117   4.218   2.065   4.438
 1059TIP3    H1 3118   4.124   2.069   4.454
 1059TIP3    H2 3119   4.249   2.154   4.449
 1060TIP3   OH2 3120   0.811   7.144   6.657
 1060TIP3    H1 3121   0.743   7.106   6.601
 1060TIP3    H2 3122   0.821   7.082   6.729
 1061TIP3   OH2 3123   1.413   4.744   3.836
 1061TIP3    H1 3124   1.493   4.693   3.838
 1061TIP3    H2 3125   1.409   4.781   3.748
 1062TIP3   OH2 3126   6.783   4.509   0.566
 1062TIP3    H1 3127   6.703   4.500   0.514
 1062TIP3    H2 3128   6.755   4.550   0.648
 1063TIP3   OH2 3129   3.905   3.521   4.874
 1063TIP3    H1 3130   3.991   3.539   4.912
 1063TIP3    H2 3131   3.924   3.494   4.785
 1064TIP3   OH2 3132   7.978   1.263   4.789
 1064TIP3    H1 3133   7.957   1.226   4.703
 1064TIP3    H2 3134   7.894   1.270   4.834
 1065TIP3   OH2 3135   6.045   4.505   6.123
 1065TIP3    H1 3136   6.035   4.600   6.115
 1065TIP3    H2 3137   5.964   4.469   6.088
 1066TIP3   OH2 3138   3.687   4.622   4.451
 1066TIP3    H1 3139   3.623   4.594   4.386
 1066TIP3    H2 3140   3.715   4.709   4.421
 1067TIP3   OH2 3141   1.271   6.394   6.536
 1067TIP3    H1 3142   1.326   6.316   6.543
 1067TIP3    H2 3143   1.288   6.443   6.616
 1068TIP3   OH2 3144   2.066   5.045   6.735
 1068TIP3    H1 3145   2.012   5.075   6.662
 1068TIP3    H2 3146   2.129   4.984   6.695
 1069TIP3   OH2 3147   6.580   0.978   5.518
 1069TIP3    H1 3148   6.497   1.016   5.547
 1069TIP3    H2 3149   6.646   1.044   5.539
 1070TIP3   OH2 3150   3.406   5.847   1.794
 1070TIP3    H1 3151   3.431   5.776   1.735
 1070TIP3    H2 3152   3.312   5.860   1.778
 1071TIP3   OH2 3153   1.579   5.748   4.046
 1071TIP3    H1 3154   1.589   5.796   4.129
 1071TIP3    H2 3155   1.526   5.672   4.069
 1072TIP3   OH2 3156   3.696   3.979   4.991
 1072TIP3    H1 3157   3.690   3.885   5.009
 1072TIP3    H2 3158   3.743   4.014   5.067
 1073TIP3   OH2 3159   1.934   3.592   2.968
 1073TIP3    H1 3160   1.847   3.621   2.941
 1073TIP3    H2 3161   1.988   3.671   2.967
 1074TIP3   OH2 3162   5.192   5.792   3.151
 1074TIP3    H1 3163   5.159   5.731   3.216
 1074TIP3    H2 3164   5.221   5.868   3.202
 1075TIP3   OH2 3165   0.954   4.567   4.614
 1075TIP3    H1 3166   1.028   4.511   4.593
 1075TIP3    H2 3167   0.878   4.509   4.609
 1076TIP3   OH2 3168   7.479   7.632   3.654
 1076TIP3    H1 3169   7.387   7.605   3.659
 1076TIP3    H2 3170   7.528   7.550   3.655
 1077TIP3   OH2 3171   0.707   6.514   0.728
 1077TIP3    H1 3172   0.690   6.600   0.689
 1077TIP3    H2 3173   0.794   6.523   0.769
 1078TIP3   OH2 3174   2.332   1.316   6.643
 1078TIP3    H1 3175   2.345   1.263   6.721
 1078TIP3    H2 3176   2.240   1.301   6.619
 1079TIP3   OH2 3177   3.161   7.690   6.288
 1079TIP3    H1 3178   3.244   7.709   6.243
 1079TIP3    H2 3179   3.176   7.716   6.379
 1080TIP3   OH2 3180   1.830   5.894   5.717
 1080TIP3    H1 3181   1.775   5.817   5.702
 1080TIP3    H2 3182   1.771   5.968   5.706
 1081TIP3   OH2 3183   7.760   2.093   3.028
 1081TIP3    H1 3184   7.817   2.018   3.010
 1081TIP3    H2 3185   7.697   2.059   3.092
 1082TIP3   OH2 3186   3.327   5.138   6.325
 1082TIP3    H1 3187   3.386   5.191   6.272
 1082TIP3    H2 3188   3.376   5.120   6.405
 1083TIP3   OH2 3189   8.202   3.319   2.676
 1083TIP3    H1 3190   8.223   3.296   2.586
 1083TIP3    H2 3191   8.175   3.411   2.672
 1084TIP3   OH2 3192   4.166   7.177   2.225
 1084TIP3    H1 3193   4.178   7.252   2.166
 1084TIP3    H2 3194   4.071   7.166   2.231
 1085TIP3   OH2 3195   1.214   6.640   6.202
 1085TIP3    H1 3196   1.211   6.545   6.215
 1085TIP3    H2 3197   1.133   6.672   6.242
 1086TIP3   OH2 3198   5.751   3.228   4.231
 1086TIP3    H1 3199   5.778   3.212   4.322
 1086TIP3    H2 3200   5.667   3.183   4.223
 1087TIP3   OH2 3201   0.519   2.011   0.653
 1087TIP3    H1 3202   0.598   2.049   0.613
 1087TIP3    H2 3203   0.468   1.978   0.579
 1088TIP3   OH2 3204   8.259   2.452   1.520
 1088TIP3    H1 3205   8.311   2.532   1.509
 1088TIP3    H2 3206   8.264   2.409   1.435
 1089TIP3   OH2 3207   4.137   4.801   3.083
 1089TIP3    H1 3208   4.042   4.805   3.070
 1089TIP3    H2 3209   4.164   4.892   3.086
 1090TIP3   OH2 3210   4.212   4.469   3.700
 1090TIP3    H1 3211   4.226   4.485   3.607
 1090TIP3    H2 3212   4.147   4.535   3.727
 1091TIP3   OH2 3213   6.677   4.918   5.897
 1091TIP3    H1 3214   6.590   4.949   5.918
 1091TIP3    H2 3215   6.674   4.823   5.914
 1092TIP3   OH2 3216   1.940   3.037   0.655
 1092TIP3    H1 3217   1.923   3.033   0.561
 1092TIP3    H2 3218   1.863   2.998   0.696
 1093TIP3   OH2 3219   2.736   1.738   3.616
 1093TIP3    H1 3220   2.664   1.766   3.560
 1093TIP3    H2 3221   2.804   1.708   3.554
 1094TIP3   OH2 3222   7.527   7.017   5.191
 1094TIP3    H1 3223   7.521   7.112   5.195
 1094TIP3    H2 3224   7.449   6.985   5.237
 1095TIP3   OH2 3225   2.963   0.610   5.276
 1095TIP3    H1 3226   3.011   0.528   5.267
 1095TIP3    H2 3227   2.879   0.585   5.316
 1096TIP3   OH2 3228   1.211   2.791   5.853
 1096TIP3    H1 3229   1.191   2.714   5.907
 1096TIP3    H2 3230   1.139   2.795   5.790
 1097TIP3   OH2 3231   7.808   1.004   4.441
 1097TIP3    H1 3232   7.838   0.938   4.378
 1097TIP3    H2 3233   7.792   1.082   4.388
 1098TIP3   OH2 3234   0.318   6.748   4.904
 1098TIP3    H1 3235   0.411   6.772   4.906
 1098TIP3    H2 3236   0.289   6.756   4.995
 1099TIP3   OH2 3237   1.598   1.059   3.590
 1099TIP3    H1 3238   1.536   1.112   3.540
 1099TIP3    H2 3239   1.544   0.993   3.633
 1100TIP3   OH2 3240   6.189   0.409   2.130
 1100TIP3    H1 3241   6.190   0.402   2.225
 1100TIP3    H2 3242   6.168   0.501   2.112
 1101TIP3   OH2 3243   5.684   4.864   0.093
 1101TIP3    H1 3244   5.629   4.824   0.026
 1101TIP3    H2 3245   5.758   4.804   0.101
 1102TIP3   OH2 3246   1.121   5.632   2.503
 1102TIP3    H1 3247   1.152   5.636   2.413
 1102TIP3    H2 3248   1.199   5.614   2.555
 1103TIP3   OH2 3249   0.852   2.665   6.571
 1103TIP3    H1 3250   0.759   2.674   6.550
 1103TIP3    H2 3251   0.876   2.579   6.538
 1104TIP3   OH2 3252   1.719   3.142   2.456
 1104TIP3    H1 3253   1.723   3.198   2.534
 1104TIP3    H2 3254   1.747   3.198   2.384
 1105TIP3   OH2 3255   4.071   2.291   3.518
 1105TIP3    H1 3256   4.061   2.197   3.533
 1105TIP3    H2 3257   4.166   2.304   3.512
 1106TIP3   OH2 3258   0.294   4.011   1.947
 1106TIP3    H1 3259   0.269   4.040   1.859
 1106TIP3    H2 3260   0.278   4.087   2.002
 1107TIP3   OH2 3261   2.404   6.751   0.659
 1107TIP3    H1 3262   2.384   6.842   0.637
 1107TIP3    H2 3263   2.497   6.752   0.683
 1108TIP3   OH2 3264   3.585   4.760   5.606
 1108TIP3    H1 3265   3.504   4.762   5.556
 1108TIP3    H2 3266   3.606   4.667   5.615
 1109TIP3   OH2 3267   2.709   0.821   0.415
 1109TIP3    H1 3268   2.614   0.809   0.418
 1109TIP3    H2 3269   2.745   0.740   0.450
 1110TIP3   OH2 3270   0.670   0.675   3.798
 1110TIP3    H1 3271   0.632   0.638   3.719
 1110TIP3    H2 3272   0.654   0.769   3.790
 1111TIP3   OH2 3273   4.342   4.758   2.169
 1111TIP3    H1 3274   4.311   4.671   2.194
 1111TIP3    H2 3275   4.424   4.743   2.123
 1112TIP3   OH2 3276   1.620   4.153   1.620
 1112TIP3    H1 3277   1.587   4.083   1.563
 1112TIP3    H2 3278   1.709   4.126   1.642
 1113TIP3   OH2 3279   2.250   3.889   4.538
 1113TIP3    H1 3280   2.204   3.835   4.603
 1113TIP3    H2 3281   2.258   3.974   4.580
 1114TIP3   OH2 3282   3.803   5.932   6.624
 1114TIP3    H1 3283   3.737   5.863   6.631
 1114TIP3    H2 3284   3.869   5.896   6.564
 1115TIP3   OH2 3285   5.157   2.655   2.090
 1115TIP3    H1 3286   5.205   2.627   2.012
 1115TIP3    H2 3287   5.065   2.655   2.063
 1116TIP3   OH2 3288   7.833   6.801   1.492
 1116TIP3    H1 3289   7.788   6.763   1.567
 1116TIP3    H2 3290   7.920   6.762   1.493
 1117TIP3   OH2 3291   3.892   2.968   2.866
 1117TIP3    H1 3292   3.855   2.903   2.925
 1117TIP3    H2 3293   3.964   3.007   2.916
 1118TIP3   OH2 3294   2.378   1.412   5.555
 1118TIP3    H1 3295   2.453   1.411   5.614
 1118TIP3    H2 3296   2.343   1.323   5.559
 1119TIP3   OH2 3297   2.332   2.603   4.104
 1119TIP3    H1 3298   2.253   2.630   4.150
 1119TIP3    H2 3299   2.372   2.684   4.074
 1120TIP3   OH2 3300   4.074   0.130   4.568
 1120TIP3    H1 3301   3.993   0.172   4.539
 1120TIP3    H2 3302   4.069   0.130   4.664
 1121TIP3   OH2 3303   6.849   7.459   0.681
 1121TIP3    H1 3304   6.914   7.467   0.750
 1121TIP3    H2 3305   6.812   7.372   0.693
 1122TIP3   OH2 3306   6.538   0.804   0.103
 1122TIP3    H1 3307   6.458   0.857   0.106
 1122TIP3    H2 3308   6.510   0.720   0.068
 1123TIP3   OH2 3309   2.266   7.609   2.127
 1123TIP3    H1 3310   2.214   7.670   2.075
 1123TIP3    H2 3311   2.276   7.653   2.212
 1124TIP3   OH2 3312   0.697   6.908   5.756
 1124TIP3    H1 3313   0.669   6.817   5.759
 1124TIP3    H2 3314   0.742   6.916   5.672
 1125TIP3   OH2 3315   2.651   2.287   2.514
 1125TIP3    H1 3316   2.688   2.275   2.426
 1125TIP3    H2 3317   2.714   2.244   2.572
 1126TIP3   OH2 3318   2.924   2.352   4.007
 1126TIP3    H1 3319   2.974   2.422   3.965
 1126TIP3    H2 3320   2.932   2.370   4.101
 1127TIP3   OH2 3321   3.373   6.020   6.271
 1127TIP3    H1 3322   3.333   5.938   6.299
 1127TIP3    H2 3323   3.448   6.031   6.329
 1128TIP3   OH2 3324   6.830   3.314   1.482
 1128TIP3    H1 3325   6.777   3.292   1.406
 1128TIP3    H2 3326   6.789   3.267   1.555
 1129TIP3   OH2 3327   2.827   7.815   0.740
 1129TIP3    H1 3328   2.897   7.759   0.704
 1129TIP3    H2 3329   2.767   7.828   0.667
 1130TIP3   OH2 3330   6.971   6.085   0.425
 1130TIP3    H1 3331   7.062   6.115   0.425
 1130TIP3    H2 3332   6.935   6.118   0.343
 1131TIP3   OH2 3333   0.026   5.004   4.964
 1131TIP3    H1 3334   0.008   5.098   4.969
 1131TIP3    H2 3335  -0.060   4.962   4.973
 1132TIP3   OH2 3336   3.098   1.770   3.624
 1132TIP3    H1 3337   3.047   1.747   3.546
 1132TIP3    H2 3338   3.098   1.866   3.625
 1133TIP3   OH2 3339   8.195   6.071   0.399
 1133TIP3    H1 3340   8.202   6.069   0.303
 1133TIP3    H2 3341   8.108   6.106   0.416
 1134TIP3   OH2 3342   6.651   2.371   3.158
 1134TIP3    H1 3343   6.632   2.448   3.104
 1134TIP3    H2 3344   6.637   2.400   3.248
 1135TIP3   OH2 3345   3.184   0.387   4.975
 1135TIP3    H1 3346   3.197   0.409   4.883
 1135TIP3    H2 3347   3.220   0.462   5.023
 1136TIP3   OH2 3348   5.766   6.800   2.030
 1136TIP3    H1 3349   5.836   6.761   1.978
 1136TIP3    H2 3350   5.776   6.760   2.117
 1137TIP3   OH2 3351   2.387   3.632   6.505
 1137TIP3    H1 3352   2.401   3.538   6.507
 1137TIP3    H2 3353   2.299   3.643   6.470
 1138TIP3   OH2 3354   4.411   2.128   5.990
 1138TIP3    H1 3355   4.500   2.095   6.003
 1138TIP3    H2 3356   4.390   2.104   5.900
 1139TIP3   OH2 3357   7.262   4.417   0.010
 1139TIP3    H1 3358   7.260   4.461   0.095
 1139TIP3    H2 3359   7.303   4.332   0.029
 1140TIP3   OH2 3360   6.436   1.966   4.522
 1140TIP3    H1 3361   6.399   1.924   4.445
 1140TIP3    H2 3362   6.360   1.999   4.571
 1141TIP3   OH2 3363   2.705   2.117   6.681
 1141TIP3    H1 3364   2.737   2.146   6.596
 1141TIP3    H2 3365   2.631   2.059   6.661
 1142TIP3   OH2 3366   1.758   6.721   4.315
 1142TIP3    H1 3367   1.730   6.762   4.232
 1142TIP3    H2 3368   1.719   6.775   4.383
 1143TIP3   OH2 3369   3.458   4.126   1.069
 1143TIP3    H1 3370   3.423   4.132   0.980
 1143TIP3    H2 3371   3.517   4.201   1.077
 1144TIP3   OH2 3372   4.325   0.731   5.698
 1144TIP3    H1 3373   4.399   0.791   5.707
 1144TIP3    H2 3374   4.355   0.665   5.635
 1145TIP3   OH2 3375   8.115   5.878   2.888
 1145TIP3    H1 3376   8.127   5.855   2.980
 1145TIP3    H2 3377   8.155   5.965   2.880
 1146TIP3   OH2 3378   4.652   7.363   1.682
 1146TIP3    H1 3379   4.686   7.280   1.648
 1146TIP3    H2 3380   4.665   7.357   1.777
 1147TIP3   OH2 3381   3.815   5.511   1.854
 1147TIP3    H1 3382   3.744   5.470   1.804
 1147TIP3    H2 3383   3.787   5.602   1.865
 1148TIP3   OH2 3384   4.005   3.146   5.260
 1148TIP3    H1 3385   3.945   3.163   5.333
 1148TIP3    H2 3386   3.950   3.154   5.182
 1149TIP3   OH2 3387   7.661   1.501   0.483
 1149TIP3    H1 3388   7.567   1.499   0.471
 1149TIP3    H2 3389   7.683   1.416   0.520
 1150TIP3   OH2 3390   7.647   6.657   4.837
 1150TIP3    H1 3391   7.667   6.582   4.894
 1150TIP3    H2 3392   7.613   6.617   4.757
 1151TIP3   OH2 3393   8.072   6.950   3.996
 1151TIP3    H1 3394   8.125   6.875   4.025
 1151TIP3    H2 3395   7.981   6.918   4.002
 1152TIP3   OH2 3396   1.309   4.088   1.216
 1152TIP3    H1 3397   1.238   4.047   1.165
 1152TIP3    H2 3398   1.314   4.177   1.181
 1153TIP3   OH2 3399   7.300   0.143   5.878
 1153TIP3    H1 3400   7.261   0.065   5.840
 1153TIP3    H2 3401   7.320   0.119   5.969
 1154TIP3   OH2 3402   6.775   6.161   6.764
 1154TIP3    H1 3403   6.831   6.104   6.711
 1154TIP3    H2 3404   6.827   6.181   6.842
 1155TIP3   OH2 3405   5.251   5.943   6.563
 1155TIP3    H1 3406   5.310   6.014   6.537
 1155TIP3    H2 3407   5.197   5.982   6.632
 1156TIP3   OH2 3408   3.815   7.527   6.510
 1156TIP3    H1 3409   3.828   7.441   6.471
 1156TIP3    H2 3410   3.799   7.585   6.436
 1157TIP3   OH2 3411   5.309   5.305   0.494
 1157TIP3    H1 3412   5.345   5.387   0.459
 1157TIP3    H2 3413   5.266   5.330   0.575
 1158TIP3   OH2 3414   7.077   1.915   5.217
 1158TIP3    H1 3415   7.009   1.968   5.175
 1158TIP3    H2 3416   7.150   1.917   5.154
 1159TIP3   OH2 3417   0.743   2.332   3.035
 1159TIP3    H1 3418   0.695   2.369   3.109
 1159TIP3    H2 3419   0.808   2.275   3.076
 1160TIP3   OH2 3420   7.304   1.569   2.936
 1160TIP3    H1 3421   7.220   1.523   2.939
 1160TIP3    H2 3422   7.326   1.585   3.027
 1161TIP3   OH2 3423   3.578   2.861   1.128
 1161TIP3    H1 3424   3.580   2.767   1.147
 1161TIP3    H2 3425   3.521   2.869   1.052
 1162TIP3   OH2 3426   3.157   0.324   5.898
 1162TIP3    H1 3427   3.188   0.397   5.845
 1162TIP3    H2 3428   3.236   0.289   5.939
 1163TIP3   OH2 3429   4.807   1.967   0.153
 1163TIP3    H1 3430   4.796   2.041   0.094
 1163TIP3    H2 3431   4.805   2.005   0.241
 1164TIP3   OH2 3432   1.483   3.476   4.406
 1164TIP3    H1 3433   1.568   3.440   4.431
 1164TIP3    H2 3434   1.448   3.513   4.488
 1165TIP3   OH2 3435   3.863   6.182   4.161
 1165TIP3    H1 3436   3.836   6.222   4.078
 1165TIP3    H2 3437   3.788   6.196   4.219
 1166TIP3   OH2 3438   1.898   3.028   1.416
 1166TIP3    H1 3439   1.945   3.011   1.498
 1166TIP3    H2 3440   1.909   3.122   1.401
 1167TIP3   OH2 3441   6.301   6.788   6.296
 1167TIP3    H1 3442   6.232   6.765   6.235
 1167TIP3    H2 3443   6.375   6.732   6.271
 1168TIP3   OH2 3444   1.308   3.065   2.596
 1168TIP3    H1 3445   1.313   3.124   2.671
 1168TIP3    H2 3446   1.372   3.100   2.534
 1169TIP3   OH2 3447   3.659   1.621   5.671
 1169TIP3    H1 3448   3.752   1.630   5.693
 1169TIP3    H2 3449   3.645   1.684   5.600
 1170TIP3   OH2 3450   7.250   1.974   2.397
 1170TIP3    H1 3451   7.288   2.058   2.370
 1170TIP3    H2 3452   7.156   1.988   2.392
 1171TIP3   OH2 3453   7.951   4.364   1.914
 1171TIP3    H1 3454   7.864   4.367   1.955
 1171TIP3    H2 3455   7.992   4.285   1.950
 1172TIP3   OH2 3456   8.160   1.842   2.550
 1172TIP3    H1 3457   8.233   1.900   2.574
 1172TIP3    H2 3458   8.187   1.801   2.468
 1173TIP3   OH2 3459   3.018   5.758   4.570
 1173TIP3    H1 3460   3.012   5.685   4.508
 1173TIP3    H2 3461   3.049   5.831   4.517
 1174TIP3   OH2 3462   5.330   3.566   4.904
 1174TIP3    H1 3463   5.344   3.533   4.815
 1174TIP3    H2 3464   5.361   3.496   4.961
 1175TIP3   OH2 3465   2.486   7.243   2.699
 1175TIP3    H1 3466   2.491   7.188   2.778
 1175TIP3    H2 3467   2.394   7.237   2.673
 1176TIP3   OH2 3468   0.081   4.236   1.960
 1176TIP3    H1 3469   0.114   4.315   1.916
 1176TIP3    H2 3470  -0.007   4.224   1.924
 1177TIP3   OH2 3471   7.175   3.770   1.289
 1177TIP3    H1 3472   7.094   3.822   1.283
 1177TIP3    H2 3473   7.182   3.749   1.382
 1178TIP3   OH2 3474   0.485   4.276   2.460
 1178TIP3    H1 3475   0.506   4.191   2.499
 1178TIP3    H2 3476   0.504   4.264   2.367
 1179TIP3   OH2 3477   7.678   3.231   5.014
 1179TIP3    H1 3478   7.678   3.326   5.010
 1179TIP3    H2 3479   7.610   3.209   5.078
 1180TIP3   OH2 3480   5.148   2.650   2.871
 1180TIP3    H1 3481   5.100   2.611   2.798
 1180TIP3    H2 3482   5.214   2.706   2.830
 1181TIP3   OH2 3483   3.572   3.415   5.371
 1181TIP3    H1 3484   3.642   3.394   5.309
 1181TIP3    H2 3485   3.574   3.510   5.379
 1182TIP3   OH2 3486   3.420   0.800   1.404
 1182TIP3    H1 3487   3.380   0.828   1.487
 1182TIP3    H2 3488   3.361   0.734   1.369
 1183TIP3   OH2 3489   3.030   3.132   0.414
 1183TIP3    H1 3490   3.103   3.074   0.397
 1183TIP3    H2 3491   3.067   3.220   0.409
 1184TIP3   OH2 3492   1.870   6.248   6.449
 1184TIP3    H1 3493   1.953   6.284   6.420
 1184TIP3    H2 3494   1.889   6.155   6.466
 1185TIP3   OH2 3495   7.833   6.732   2.361
 1185TIP3    H1 3496   7.915   6.706   2.320
 1185TIP3    H2 3497   7.766   6.715   2.294
 1186TIP3   OH2 3498   4.051   0.449   6.807
 1186TIP3    H1 3499   4.036   0.543   6.801
 1186TIP3    H2 3500   4.021   0.426   6.895
 1187TIP3   OH2 3501   5.541   1.000   3.108
 1187TIP3    H1 3502   5.465   0.942   3.110
 1187TIP3    H2 3503   5.616   0.943   3.126
 1188TIP3   OH2 3504   2.703   7.218   3.645
 1188TIP3    H1 3505   2.615   7.179   3.646
 1188TIP3    H2 3506   2.715   7.253   3.733
 1189TIP3   OH2 3507   1.571   1.941   2.796
 1189TIP3    H1 3508   1.645   1.907   2.746
 1189TIP3    H2 3509   1.514   1.981   2.730
 1190TIP3   OH2 3510   0.921   2.672   0.299
 1190TIP3    H1 3511   0.923   2.577   0.310
 1190TIP3    H2 3512   0.847   2.688   0.240
 1191TIP3   OH2 3513   0.457   7.768   0.367
 1191TIP3    H1 3514   0.469   7.750   0.460
 1191TIP3    H2 3515   0.431   7.684   0.329
 1192TIP3   OH2 3516   1.837   2.863   2.917
 1192TIP3    H1 3517   1.856   2.915   2.838
 1192TIP3    H2 3518   1.835   2.773   2.886
 1193TIP3   OH2 3519   5.199   3.821   5.525
 1193TIP3    H1 3520   5.206   3.884   5.454
 1193TIP3    H2 3521   5.290   3.807   5.553
 1194TIP3   OH2 3522   1.886   5.948   5.258
 1194TIP3    H1 3523   1.942   5.945   5.336
 1194TIP3    H2 3524   1.850   6.037   5.258
 1195TIP3   OH2 3525   1.093   6.018   2.936
 1195TIP3    H1 3526   1.164   5.971   2.979
 1195TIP3    H2 3527   1.137   6.080   2.878
 1196TIP3   OH2 3528   5.729   5.846   2.064
 1196TIP3    H1 3529   5.772   5.816   2.145
 1196TIP3    H2 3530   5.649   5.887   2.094
 1197TIP3   OH2 3531   1.626   4.386   5.371
 1197TIP3    H1 3532   1.561   4.421   5.310
 1197TIP3    H2 3533   1.692   4.454   5.378
 1198TIP3   OH2 3534   2.437   2.756   3.605
 1198TIP3    H1 3535   2.454   2.677   3.554
 1198TIP3    H2 3536   2.497   2.751   3.679
 1199TIP3   OH2 3537   5.097   0.821   6.497
 1199TIP3    H1 3538   5.082   0.810   6.403
 1199TIP3    H2 3539   5.188   0.794   6.510
 1200TIP3   OH2 3540   5.055   2.870   2.581
 1200TIP3    H1 3541   5.028   2.818   2.506
 1200TIP3    H2 3542   5.063   2.959   2.547
 1201TIP3   OH2 3543   7.254   5.602   5.519
 1201TIP3    H1 3544   7.186   5.559   5.466
 1201TIP3    H2 3545   7.205   5.657   5.580
 1202TIP3   OH2 3546   5.941   7.181   0.224
 1202TIP3    H1 3547   6.005   7.250   0.241
 1202TIP3    H2 3548   5.858   7.228   0.214
 1203TIP3   OH2 3549   6.591   5.203   4.766
 1203TIP3    H1 3550   6.611   5.111   4.749
 1203TIP3    H2 3551   6.509   5.201   4.816
 1204TIP3   OH2 3552   5.690   3.930   4.346
 1204TIP3    H1 3553   5.648   3.990   4.407
 1204TIP3    H2 3554   5.780   3.962   4.338
 1205TIP3   OH2 3555   3.915   2.973   5.854
 1205TIP3    H1 3556   3.874   3.056   5.830
 1205TIP3    H2 3557   3.842   2.917   5.882
 1206TIP3   OH2 3558   5.090   2.340   0.190
 1206TIP3    H1 3559   5.139   2.358   0.111
 1206TIP3    H2 3560   5.031   2.415   0.200
 1207TIP3   OH2 3561   2.403   1.947   0.727
 1207TIP3    H1 3562   2.447   1.900   0.798
 1207TIP3    H2 3563   2.413   1.890   0.651
 1208TIP3   OH2 3564   5.849   6.164   2.410
 1208TIP3    H1 3565   5.767   6.209   2.389
 1208TIP3    H2 3566   5.917   6.218   2.369
 1209TIP3   OH2 3567   0.835   1.831   3.372
 1209TIP3    H1 3568   0.764   1.896   3.374
 1209TIP3    H2 3569   0.854   1.819   3.279
 1210TIP3   OH2 3570   3.275   7.907   5.439
 1210TIP3    H1 3571   3.221   7.907   5.518
 1210TIP3    H2 3572   3.351   7.853   5.463
 1211TIP3   OH2 3573   1.171   5.449   3.990
 1211TIP3    H1 3574   1.137   5.437   4.079
 1211TIP3    H2 3575   1.184   5.361   3.956
 1212TIP3   OH2 3576   2.662  -0.011   6.505
 1212TIP3    H1 3577   2.652   0.055   6.437
 1212TIP3    H2 3578   2.719   0.030   6.570
 1213TIP3   OH2 3579   1.550   0.697   5.767
 1213TIP3    H1 3580   1.566   0.612   5.809
 1213TIP3    H2 3581   1.591   0.689   5.681
 1214TIP3   OH2 3582   1.091   7.151   3.129
 1214TIP3    H1 3583   1.072   7.067   3.086
 1214TIP3    H2 3584   1.012   7.170   3.179
 1215TIP3   OH2 3585   1.509   0.841   4.869
 1215TIP3    H1 3586   1.589   0.791   4.886
 1215TIP3    H2 3587   1.510   0.854   4.774
 1216TIP3   OH2 3588   0.407   6.509   1.869
 1216TIP3    H1 3589   0.455   6.563   1.806
 1216TIP3    H2 3590   0.447   6.529   1.953
 1217TIP3   OH2 3591   5.679   1.655   5.816
 1217TIP3    H1 3592   5.764   1.677   5.854
 1217TIP3    H2 3593   5.687   1.564   5.788
 1218TIP3   OH2 3594   4.035   0.869   1.565
 1218TIP3    H1 3595   4.066   0.889   1.653
 1218TIP3    H2 3596   4.112   0.835   1.519
 1219TIP3   OH2 3597   0.956   3.890   6.031
 1219TIP3    H1 3598   1.012   3.829   5.983
 1219TIP3    H2 3599   1.000   3.974   6.023
 1220TIP3   OH2 3600   0.860   6.607   5.559
 1220TIP3    H1 3601   0.897   6.661   5.628
 1220TIP3    H2 3602   0.872   6.658   5.479
 1221TIP3   OH2 3603   6.601   7.319   2.605
 1221TIP3    H1 3604   6.597   7.410   2.636
 1221TIP3    H2 3605   6.651   7.273   2.673
 1222TIP3   OH2 3606   2.404   7.557   2.602
 1222TIP3    H1 3607   2.431   7.495   2.669
 1222TIP3    H2 3608   2.445   7.639   2.626
 1223TIP3   OH2 3609   6.829   0.110   5.669
 1223TIP3    H1 3610   6.745   0.143   5.638
 1223TIP3    H2 3611   6.815   0.094   5.762
 1224TIP3   OH2 3612   1.896   2.596   4.002
 1224TIP3    H1 3613   1.977   2.552   3.973
 1224TIP3    H2 3614   1.921   2.638   4.084
 1225TIP3   OH2 3615   7.015   0.551   5.055
 1225TIP3    H1 3616   7.041   0.469   5.097
 1225TIP3    H2 3617   7.015   0.530   4.961
 1226TIP3   OH2 3618   4.026   2.620   1.482
 1226TIP3    H1 3619   3.956   2.586   1.538
 1226TIP3    H2 3620   4.103   2.569   1.507
 1227TIP3   OH2 3621   4.065   0.303   0.093
 1227TIP3    H1 3622   4.148   0.335   0.130
 1227TIP3    H2 3623   4.067   0.333   0.002
 1228TIP3   OH2 3624   2.334   4.134   1.738
 1228TIP3    H1 3625   2.389   4.084   1.678
 1228TIP3    H2 3626   2.260   4.076   1.756
 1229TIP3   OH2 3627   7.534   7.242   0.463
 1229TIP3    H1 3628   7.457   7.264   0.517
 1229TIP3    H2 3629   7.523   7.294   0.383
 1230TIP3   OH2 3630   0.444   2.658   5.662
 1230TIP3    H1 3631   0.405   2.741   5.638
 1230TIP3    H2 3632   0.534   2.663   5.630
 1231TIP3   OH2 3633   5.885   4.635   5.504
 1231TIP3    H1 3634   5.827   4.711   5.500
 1231TIP3    H2 3635   5.850   4.581   5.576
 1232TIP3   OH2 3636   0.211   5.476   6.138
 1232TIP3    H1 3637   0.144   5.491   6.205
 1232TIP3    H2 3638   0.253   5.562   6.127
 1233TIP3   OH2 3639   6.113   7.620   1.372
 1233TIP3    H1 3640   6.209   7.615   1.381
 1233TIP3    H2 3641   6.095   7.714   1.364
 1234TIP3   OH2 3642   1.080   1.538   2.151
 1234TIP3    H1 3643   1.051   1.448   2.159
 1234TIP3    H2 3644   1.168   1.532   2.113
 1235TIP3   OH2 3645   1.064   7.185   2.813
 1235TIP3    H1 3646   1.063   7.191   2.908
 1235TIP3    H2 3647   1.102   7.099   2.795
 1236TIP3   OH2 3648   7.360   2.222   4.765
 1236TIP3    H1 3649   7.351   2.131   4.739
 1236TIP3    H2 3650   7.297   2.269   4.708
 1237TIP3   OH2 3651   1.576   0.769   1.936
 1237TIP3    H1 3652   1.549   0.799   1.850
 1237TIP3    H2 3653   1.598   0.848   1.984
 1238TIP3   OH2 3654   1.121   1.161   0.945
 1238TIP3    H1 3655   1.070   1.227   0.993
 1238TIP3    H2 3656   1.212   1.181   0.967
 1239TIP3   OH2 3657   3.161   0.514   3.619
 1239TIP3    H1 3658   3.181   0.422   3.634
 1239TIP3    H2 3659   3.181   0.557   3.702
 1240TIP3   OH2 3660   7.335   6.192   5.305
 1240TIP3    H1 3661   7.268   6.254   5.333
 1240TIP3    H2 3662   7.292   6.107   5.306
 1241TIP3   OH2 3663   5.947   7.888   6.562
 1241TIP3    H1 3664   5.895   7.808   6.564
 1241TIP3    H2 3665   6.035   7.858   6.538
 1242TIP3   OH2 3666   8.069   4.602   2.563
 1242TIP3    H1 3667   8.068   4.685   2.515
 1242TIP3    H2 3668   8.074   4.627   2.655
 1243TIP3   OH2 3669   0.394   0.460   0.604
 1243TIP3    H1 3670   0.310   0.496   0.631
 1243TIP3    H2 3671   0.393   0.466   0.508
 1244TIP3   OH2 3672   7.385   1.052   5.342
 1244TIP3    H1 3673   7.426   0.974   5.303
 1244TIP3    H2 3674   7.403   1.044   5.435
 1245TIP3   OH2 3675   5.411   4.774   2.763
 1245TIP3    H1 3676   5.422   4.730   2.847
 1245TIP3    H2 3677   5.499   4.799   2.737
 1246TIP3   OH2 3678   5.228   7.144   6.142
 1246TIP3    H1 3679   5.182   7.228   6.135
 1246TIP3    H2 3680   5.228   7.125   6.236
 1247TIP3   OH2 3681   5.836   5.870   4.320
 1247TIP3    H1 3682   5.904   5.804   4.334
 1247TIP3    H2 3683   5.757   5.832   4.358
 1248TIP3   OH2 3684   4.316   6.974   6.046
 1248TIP3    H1 3685   4.278   6.997   6.130
 1248TIP3    H2 3686   4.346   7.057   6.010
 1249TIP3   OH2 3687   7.224   5.270   4.891
 1249TIP3    H1 3688   7.241   5.256   4.984
 1249TIP3    H2 3689   7.213   5.364   4.882
 1250TIP3   OH2 3690   0.828   2.469   1.852
 1250TIP3    H1 3691   0.861   2.382   1.828
 1250TIP3    H2 3692   0.897   2.529   1.826
 1251TIP3   OH2 3693   3.364   2.403   4.766
 1251TIP3    H1 3694   3.359   2.353   4.685
 1251TIP3    H2 3695   3.292   2.370   4.820
 1252TIP3   OH2 3696   6.366   5.635   5.735
 1252TIP3    H1 3697   6.412   5.637   5.819
 1252TIP3    H2 3698   6.282   5.677   5.752
 1253TIP3   OH2 3699   5.998   0.562   5.741
 1253TIP3    H1 3700   6.045   0.480   5.752
 1253TIP3    H2 3701   5.963   0.558   5.652
 1254TIP3   OH2 3702   8.158   3.674   1.081
 1254TIP3    H1 3703   8.137   3.617   1.006
 1254TIP3    H2 3704   8.249   3.653   1.103
 1255TIP3   OH2 3705   4.452   6.549   2.534
 1255TIP3    H1 3706   4.396   6.594   2.471
 1255TIP3    H2 3707   4.401   6.548   2.615
 1256TIP3   OH2 3708   3.655   0.567   1.675
 1256TIP3    H1 3709   3.743   0.539   1.699
 1256TIP3    H2 3710   3.668   0.631   1.605
 1257TIP3   OH2 3711   7.091   4.663   6.358
 1257TIP3    H1 3712   7.106   4.659   6.263
 1257TIP3    H2 3713   7.178   4.679   6.395
 1258TIP3   OH2 3714   4.865   7.893   1.667
 1258TIP3    H1 3715   4.771   7.896   1.649
 1258TIP3    H2 3716   4.904   7.955   1.605
 1259TIP3   OH2 3717   8.004   3.595   1.556
 1259TIP3    H1 3718   8.050   3.517   1.525
 1259TIP3    H2 3719   8.073   3.652   1.589
 1260TIP3   OH2 3720   4.159   5.155   1.576
 1260TIP3    H1 3721   4.139   5.249   1.572
 1260TIP3    H2 3722   4.145   5.124   1.487
 1261TIP3   OH2 3723   7.591   5.528   5.403
 1261TIP3    H1 3724   7.520   5.546   5.465
 1261TIP3    H2 3725   7.627   5.444   5.433
 1262TIP3   OH2 3726   3.610   1.428   2.084
 1262TIP3    H1 3727   3.672   1.373   2.036
 1262TIP3    H2 3728   3.635   1.416   2.176
 1263TIP3   OH2 3729   6.891   6.738   4.793
 1263TIP3    H1 3730   6.957   6.698   4.849
 1263TIP3    H2 3731   6.841   6.664   4.757
 1264TIP3   OH2 3732   1.436   4.657   2.891
 1264TIP3    H1 3733   1.387   4.590   2.843
 1264TIP3    H2 3734   1.525   4.649   2.858
 1265TIP3   OH2 3735   5.404   5.829   4.180
 1265TIP3    H1 3736   5.368   5.741   4.189
 1265TIP3    H2 3737   5.429   5.836   4.088
 1266TIP3   OH2 3738   0.798   5.238   5.202
 1266TIP3    H1 3739   0.831   5.268   5.117
 1266TIP3    H2 3740   0.714   5.197   5.180
 1267TIP3   OH2 3741   5.619   1.532   3.286
 1267TIP3    H1 3742   5.677   1.575   3.223
 1267TIP3    H2 3743   5.602   1.446   3.247
 1268TIP3   OH2 3744   3.530   3.110   3.866
 1268TIP3    H1 3745   3.497   3.179   3.809
 1268TIP3    H2 3746   3.623   3.131   3.877
 1269TIP3   OH2 3747   3.830   5.163   0.082
 1269TIP3    H1 3748   3.894   5.196   0.019
 1269TIP3    H2 3749   3.879   5.153   0.164
 1270TIP3   OH2 3750   7.824   1.322   2.361
 1270TIP3    H1 3751   7.771   1.330   2.440
 1270TIP3    H2 3752   7.762   1.291   2.294
 1271TIP3   OH2 3753   2.191   6.159   4.750
 1271TIP3    H1 3754   2.193   6.151   4.845
 1271TIP3    H2 3755   2.098   6.167   4.728
 1272TIP3   OH2 3756   0.543   4.645   5.988
 1272TIP3    H1 3757   0.586   4.622   6.071
 1272TIP3    H2 3758   0.539   4.741   5.989
 1273TIP3   OH2 3759   7.089   0.401   0.507
 1273TIP3    H1 3760   7.091   0.416   0.413
 1273TIP3    H2 3761   7.031   0.470   0.541
 1274TIP3   OH2 3762   2.241   1.651   4.597
 1274TIP3    H1 3763   2.205   1.578   4.647
 1274TIP3    H2 3764   2.234   1.623   4.505
 1275TIP3   OH2 3765   6.954   1.389   5.575
 1275TIP3    H1 3766   6.996   1.329   5.637
 1275TIP3    H2 3767   7.018   1.460   5.564
 1276TIP3   OH2 3768   0.013   3.239   1.530
 1276TIP3    H1 3769   0.078   3.211   1.594
 1276TIP3    H2 3770   0.064   3.285   1.463
 1277TIP3   OH2 3771   5.294   7.088   4.882
 1277TIP3    H1 3772   5.331   7.017   4.829
 1277TIP3    H2 3773   5.341   7.166   4.852
 1278TIP3   OH2 3774   6.207   7.182   1.052
 1278TIP3    H1 3775   6.194   7.093   1.020
 1278TIP3    H2 3776   6.127   7.229   1.029
 1279TIP3   OH2 3777   7.219   7.299   1.029
 1279TIP3    H1 3778   7.237   7.206   1.038
 1279TIP3    H2 3779   7.296   7.334   0.984
 1280TIP3   OH2 3780   0.589   1.511   3.523
 1280TIP3    H1 3781   0.676   1.470   3.521
 1280TIP3    H2 3782   0.572   1.537   3.433
 1281TIP3   OH2 3783   0.681   7.350   6.857
 1281TIP3    H1 3784   0.633   7.326   6.778
 1281TIP3    H2 3785   0.633   7.309   6.929
 1282TIP3   OH2 3786   5.794   4.765   0.771
 1282TIP3    H1 3787   5.704   4.792   0.752
 1282TIP3    H2 3788   5.837   4.764   0.685
 1283TIP3   OH2 3789   6.776   7.244   0.232
 1283TIP3    H1 3790   6.797   7.320   0.285
 1283TIP3    H2 3791   6.693   7.266   0.189
 1284TIP3   OH2 3792   1.888   7.769   4.926
 1284TIP3    H1 3793   1.903   7.861   4.948
 1284TIP3    H2 3794   1.793   7.760   4.922
 1285TIP3   OH2 3795   3.326   0.822   4.947
 1285TIP3    H1 3796   3.247   0.813   5.001
 1285TIP3    H2 3797   3.398   0.828   5.011
 1286TIP3   OH2 3798   7.067   3.015   4.075
 1286TIP3    H1 3799   7.030   3.080   4.134
 1286TIP3    H2 3800   7.079   3.061   3.992
 1287TIP3   OH2 3801   8.083   2.534   2.369
 1287TIP3    H1 3802   8.025   2.499   2.437
 1287TIP3    H2 3803   8.145   2.588   2.417
 1288TIP3   OH2 3804   4.765   3.099   3.465
 1288TIP3    H1 3805   4.817   3.034   3.418
 1288TIP3    H2 3806   4.781   3.081   3.557
 1289TIP3   OH2 3807   7.168   6.397   5.756
 1289TIP3    H1 3808   7.130   6.458   5.818
 1289TIP3    H2 3809   7.098   6.379   5.694
 1290TIP3   OH2 3810   3.975   4.506   1.266
 1290TIP3    H1 3811   3.888   4.537   1.239
 1290TIP3    H2 3812   3.958   4.422   1.308
 1291TIP3   OH2 3813   4.793   2.901   1.544
 1291TIP3    H1 3814   4.727   2.850   1.592
 1291TIP3    H2 3815   4.862   2.918   1.608
 1292TIP3   OH2 3816   0.995   5.338   5.684
 1292TIP3    H1 3817   0.994   5.314   5.591
 1292TIP3    H2 3818   0.964   5.259   5.729
 1293TIP3   OH2 3819   4.299   3.968   3.422
 1293TIP3    H1 3820   4.256   3.929   3.498
 1293TIP3    H2 3821   4.363   4.029   3.459
 1294TIP3   OH2 3822   5.281   6.278   1.052
 1294TIP3    H1 3823   5.352   6.310   1.109
 1294TIP3    H2 3824   5.206   6.271   1.111
 1295TIP3   OH2 3825   5.873   1.818   1.946
 1295TIP3    H1 3826   5.791   1.867   1.932
 1295TIP3    H2 3827   5.900   1.841   2.035
 1296TIP3   OH2 3828   8.274   6.300   3.984
 1296TIP3    H1 3829   8.268   6.312   3.889
 1296TIP3    H2 3830   8.334   6.227   3.996
 1297TIP3   OH2 3831   0.109   7.660   1.312
 1297TIP3    H1 3832   0.133   7.722   1.242
 1297TIP3    H2 3833   0.013   7.659   1.311
 1298TIP3   OH2 3834   3.940   5.068   5.812
 1298TIP3    H1 3835   3.919   5.142   5.868
 1298TIP3    H2 3836   3.914   4.991   5.863
 1299TIP3   OH2 3837   0.513   0.200   1.297
 1299TIP3    H1 3838   0.473   0.189   1.211
 1299TIP3    H2 3839   0.606   0.208   1.279
 1300TIP3   OH2 3840   0.933   3.315   2.249
 1300TIP3    H1 3841   0.976   3.245   2.201
 1300TIP3    H2 3842   0.881   3.362   2.184
 1301TIP3   OH2 3843   0.411   3.790   5.193
 1301TIP3    H1 3844   0.362   3.810   5.272
 1301TIP3    H2 3845   0.348   3.747   5.135
 1302TIP3   OH2 3846   4.431   4.402   3.365
 1302TIP3    H1 3847   4.405   4.476   3.309
 1302TIP3    H2 3848   4.518   4.378   3.334
 1303TIP3   OH2 3849   0.081   6.695   4.549
 1303TIP3    H1 3850   0.134   6.775   4.545
 1303TIP3    H2 3851   0.003   6.715   4.497
 1304TIP3   OH2 3852   0.047   2.890   3.627
 1304TIP3    H1 3853  -0.007   2.947   3.572
 1304TIP3    H2 3854   0.136   2.924   3.617
 1305TIP3   OH2 3855   4.693   4.339   3.310
 1305TIP3    H1 3856   4.730   4.266   3.358
 1305TIP3    H2 3857   4.744   4.415   3.337
 1306TIP3   OH2 3858   0.023   6.852   5.727
 1306TIP3    H1 3859   0.085   6.792   5.768
 1306TIP3    H2 3860  -0.062   6.812   5.741
 1307TIP3   OH2 3861   6.244   4.537   3.658
 1307TIP3    H1 3862   6.203   4.624   3.658
 1307TIP3    H2 3863   6.206   4.493   3.582
 1308TIP3   OH2 3864   5.230   1.491   5.388
 1308TIP3    H1 3865   5.279   1.511   5.308
 1308TIP3    H2 3866   5.154   1.442   5.357
 1309TIP3   OH2 3867   4.255   7.562   3.537
 1309TIP3    H1 3868   4.271   7.469   3.554
 1309TIP3    H2 3869   4.165   7.565   3.505
 1310TIP3   OH2 3870   4.331   0.371   4.978
 1310TIP3    H1 3871   4.261   0.317   4.942
 1310TIP3    H2 3872   4.288   0.453   5.002
 1311TIP3   OH2 3873   0.444   1.143   2.572
 1311TIP3    H1 3874   0.495   1.074   2.615
 1311TIP3    H2 3875   0.366   1.152   2.628
 1312TIP3   OH2 3876   5.210   7.426   2.738
 1312TIP3    H1 3877   5.295   7.431   2.780
 1312TIP3    H2 3878   5.208   7.341   2.696
 1313TIP3   OH2 3879   0.496   1.522   1.134
 1313TIP3    H1 3880   0.436   1.592   1.105
 1313TIP3    H2 3881   0.520   1.547   1.224
 1314TIP3   OH2 3882   1.148   0.844   0.278
 1314TIP3    H1 3883   1.174   0.878   0.193
 1314TIP3    H2 3884   1.178   0.910   0.341
 1315TIP3   OH2 3885   6.315   4.057   2.776
 1315TIP3    H1 3886   6.238   4.056   2.833
 1315TIP3    H2 3887   6.386   4.089   2.832
 1316TIP3   OH2 3888   2.699   6.519   0.863
 1316TIP3    H1 3889   2.624   6.472   0.827
 1316TIP3    H2 3890   2.765   6.452   0.879
 1317TIP3   OH2 3891   2.222   3.636   5.557
 1317TIP3    H1 3892   2.296   3.592   5.516
 1317TIP3    H2 3893   2.244   3.729   5.555
 1318TIP3   OH2 3894   4.510   4.289   1.141
 1318TIP3    H1 3895   4.515   4.302   1.236
 1318TIP3    H2 3896   4.480   4.373   1.107
 1319TIP3   OH2 3897   2.399   2.337   4.000
 1319TIP3    H1 3898   2.360   2.411   4.046
 1319TIP3    H2 3899   2.437   2.375   3.920
 1320TIP3   OH2 3900   7.853   6.647   0.063
 1320TIP3    H1 3901   7.923   6.710   0.083
 1320TIP3    H2 3902   7.832   6.662  -0.029
 1321TIP3   OH2 3903   6.718   1.110   3.394
 1321TIP3    H1 3904   6.666   1.191   3.392
 1321TIP3    H2 3905   6.805   1.137   3.365
 1322TIP3   OH2 3906   8.020   1.630   6.603
 1322TIP3    H1 3907   8.031   1.707   6.546
 1322TIP3    H2 3908   8.046   1.556   6.548
 1323TIP3   OH2 3909   3.130   2.459   1.311
 1323TIP3    H1 3910   3.156   2.511   1.235
 1323TIP3    H2 3911   3.210   2.449   1.362
 1324TIP3   OH2 3912   0.314   0.835   0.174
 1324TIP3    H1 3913   0.279   0.899   0.236
 1324TIP3    H2 3914   0.393   0.876   0.139
 1325TIP3   OH2 3915   5.027   2.552   1.624
 1325TIP3    H1 3916   5.047   2.459   1.611
 1325TIP3    H2 3917   4.964   2.552   1.696
 1326TIP3   OH2 3918   5.583   4.350   2.002
 1326TIP3    H1 3919   5.584   4.330   2.096
 1326TIP3    H2 3920   5.496   4.388   1.987
 1327TIP3   OH2 3921   7.198   6.853   4.383
 1327TIP3    H1 3922   7.227   6.763   4.367
 1327TIP3    H2 3923   7.279   6.903   4.394
 1328TIP3   OH2 3924   0.322   2.592   4.794
 1328TIP3    H1 3925   0.255   2.649   4.756
 1328TIP3    H2 3926   0.405   2.628   4.763
 1329TIP3   OH2 3927   5.814   3.974   5.994
 1329TIP3    H1 3928   5.731   3.986   6.040
 1329TIP3    H2 3929   5.829   4.057   5.950
 1330TIP3   OH2 3930   4.217   3.844   4.614
 1330TIP3    H1 3931   4.203   3.936   4.594
 1330TIP3    H2 3932   4.311   3.830   4.601
 1331TIP3   OH2 3933   5.028   7.796   5.148
 1331TIP3    H1 3934   5.034   7.885   5.183
 1331TIP3    H2 3935   5.062   7.803   5.059
 1332TIP3   OH2 3936   3.171   5.735   1.654
 1332TIP3    H1 3937   3.217   5.715   1.572
 1332TIP3    H2 3938   3.100   5.794   1.628
 1333TIP3   OH2 3939   5.016   6.962   4.566
 1333TIP3    H1 3940   5.087   6.988   4.507
 1333TIP3    H2 3941   5.046   6.880   4.605
 1334TIP3   OH2 3942   2.178   3.105   0.776
 1334TIP3    H1 3943   2.087   3.090   0.750
 1334TIP3    H2 3944   2.202   3.027   0.826
 1335TIP3   OH2 3945   6.551   1.653   1.718
 1335TIP3    H1 3946   6.523   1.643   1.627
 1335TIP3    H2 3947   6.612   1.581   1.733
 1336TIP3   OH2 3948   1.905   5.205   1.792
 1336TIP3    H1 3949   1.920   5.126   1.845
 1336TIP3    H2 3950   1.812   5.224   1.803
 1337TIP3   OH2 3951   5.861   5.231   5.070
 1337TIP3    H1 3952   5.795   5.263   5.130
 1337TIP3    H2 3953   5.911   5.309   5.045
 1338TIP3   OH2 3954   1.964   3.366   5.914
 1338TIP3    H1 3955   1.975   3.351   5.820
 1338TIP3    H2 3956   1.961   3.462   5.922
 1339TIP3   OH2 3957   3.026   0.479   4.374
 1339TIP3    H1 3958   2.992   0.414   4.436
 1339TIP3    H2 3959   2.974   0.558   4.391
 1340TIP3   OH2 3960   5.908   3.620   3.444
 1340TIP3    H1 3961   5.821   3.590   3.471
 1340TIP3    H2 3962   5.892   3.689   3.380
 1341TIP3   OH2 3963   6.465   7.560   3.767
 1341TIP3    H1 3964   6.464   7.510   3.849
 1341TIP3    H2 3965   6.534   7.519   3.715
 1342TIP3   OH2 3966   2.288   5.604   6.448
 1342TIP3    H1 3967   2.243   5.681   6.484
 1342TIP3    H2 3968   2.237   5.580   6.371
 1343TIP3   OH2 3969   3.205   5.292   5.201
 1343TIP3    H1 3970   3.170   5.249   5.279
 1343TIP3    H2 3971   3.298   5.304   5.219
 1344TIP3   OH2 3972   0.268   3.046   6.469
 1344TIP3    H1 3973   0.360   3.053   6.441
 1344TIP3    H2 3974   0.256   3.119   6.530
 1345TIP3   OH2 3975   2.021   3.491   1.223
 1345TIP3    H1 3976   2.007   3.486   1.128
 1345TIP3    H2 3977   1.962   3.561   1.252
 1346TIP3   OH2 3978   2.564   2.178   2.024
 1346TIP3    H1 3979   2.644   2.155   1.975
 1346TIP3    H2 3980   2.536   2.095   2.062
 1347TIP3   OH2 3981   6.928   5.051   0.420
 1347TIP3    H1 3982   6.913   5.140   0.452
 1347TIP3    H2 3983   6.841   5.020   0.394
 1348TIP3   OH2 3984   1.696   6.517   0.904
 1348TIP3    H1 3985   1.645   6.487   0.829
 1348TIP3    H2 3986   1.787   6.503   0.878
 1349TIP3   OH2 3987   1.659   4.397   2.092
 1349TIP3    H1 3988   1.671   4.458   2.019
 1349TIP3    H2 3989   1.613   4.322   2.054
 1350TIP3   OH2 3990   5.724   5.119   3.937
 1350TIP3    H1 3991   5.741   5.025   3.935
 1350TIP3    H2 3992   5.753   5.151   3.851
 1351TIP3   OH2 3993   7.313   0.025   6.154
 1351TIP3    H1 3994   7.248  -0.043   6.136
 1351TIP3    H2 3995   7.392  -0.023   6.178
 1352TIP3   OH2 3996   2.188   6.283   0.281
 1352TIP3    H1 3997   2.159   6.349   0.218
 1352TIP3    H2 3998   2.107   6.245   0.314
 1353TIP3   OH2 3999   7.739   0.896   1.827
 1353TIP3    H1 4000   7.708   0.806   1.819
 1353TIP3    H2 4001   7.686   0.934   1.897
 1354TIP3   OH2 4002   2.601   0.704   4.498
 1354TIP3    H1 4003   2.593   0.795   4.469
 1354TIP3    H2 4004   2.512   0.680   4.526
 1355TIP3   OH2 4005   2.564   5.666   4.702
 1355TIP3    H1 4006   2.546   5.704   4.788
 1355TIP3    H2 4007   2.481   5.628   4.674
 1356TIP3   OH2 4008   8.273  -0.034   0.095
 1356TIP3    H1 4009   8.305  -0.099   0.158
 1356TIP3    H2 4010   8.205   0.013   0.143
 1357TIP3   OH2 4011   2.397   7.389   5.781
 1357TIP3    H1 4012   2.430   7.300   5.769
 1357TIP3    H2 4013   2.329   7.399   5.715
 1358TIP3   OH2 4014   2.458   4.546   6.689
 1358TIP3    H1 4015   2.518   4.619   6.703
 1358TIP3    H2 4016   2.515   4.470   6.679
 1359TIP3   OH2 4017   6.709   1.282   1.940
 1359TIP3    H1 4018   6.644   1.293   2.009
 1359TIP3    H2 4019   6.739   1.192   1.950
 1360TIP3   OH2 4020   5.618   1.353   5.135
 1360TIP3    H1 4021   5.604   1.276   5.079
 1360TIP3    H2 4022   5.663   1.318   5.212
 1361TIP3   OH2 4023   6.164   6.168   5.126
 1361TIP3    H1 4024   6.171   6.206   5.038
 1361TIP3    H2 4025   6.245   6.118   5.137
 1362TIP3   OH2 4026   7.061   6.354   0.982
 1362TIP3    H1 4027   6.970   6.373   1.004
 1362TIP3    H2 4028   7.063   6.359   0.886
 1363TIP3   OH2 4029   1.521   4.696   6.620
 1363TIP3    H1 4030   1.436   4.740   6.614
 1363TIP3    H2 4031   1.541   4.697   6.713
 1364TIP3   OH2 4032   7.877   5.829   6.064
 1364TIP3    H1 4033   7.879   5.793   6.153
 1364TIP3    H2 4034   7.966   5.815   6.031
 1365TIP3   OH2 4035   5.127   2.901   4.835
 1365TIP3    H1 4036   5.203   2.885   4.780
 1365TIP3    H2 4037   5.058   2.928   4.775
 1366TIP3   OH2 4038   2.184   4.697   5.436
 1366TIP3    H1 4039   2.180   4.684   5.341
 1366TIP3    H2 4040   2.107   4.651   5.469
 1367TIP3   OH2 4041   3.923   0.267   5.788
 1367TIP3    H1 4042   3.979   0.209   5.839
 1367TIP3    H2 4043   3.978   0.296   5.715
 1368TIP3   OH2 4044   0.374   0.534   3.656
 1368TIP3    H1 4045   0.461   0.495   3.643
 1368TIP3    H2 4046   0.331   0.526   3.571
 1369TIP3   OH2 4047   3.256   4.880   6.639
 1369TIP3    H1 4048   3.222   4.959   6.598
 1369TIP3    H2 4049   3.189   4.814   6.622
 1370TIP3   OH2 4050   3.208   3.395   1.685
 1370TIP3    H1 4051   3.116   3.421   1.678
 1370TIP3    H2 4052   3.213   3.312   1.636
 1371TIP3   OH2 4053   7.640   6.108   4.586
 1371TIP3    H1 4054   7.619   6.177   4.524
 1371TIP3    H2 4055   7.654   6.153   4.669
 1372TIP3   OH2 4056   5.162   4.038   6.748
 1372TIP3    H1 4057   5.106   3.965   6.721
 1372TIP3    H2 4058   5.237   3.996   6.790
 1373TIP3   OH2 4059   0.724   1.275   6.420
 1373TIP3    H1 4060   0.819   1.281   6.413
 1373TIP3    H2 4061   0.692   1.337   6.354
 1374TIP3   OH2 4062   5.380   2.142   5.436
 1374TIP3    H1 4063   5.387   2.184   5.351
 1374TIP3    H2 4064   5.431   2.197   5.495
 1375TIP3   OH2 4065   5.717   2.702   3.163
 1375TIP3    H1 4066   5.781   2.770   3.184
 1375TIP3    H2 4067   5.642   2.722   3.219
 1376TIP3   OH2 4068   1.899   0.424   2.085
 1376TIP3    H1 4069   1.849   0.489   2.035
 1376TIP3    H2 4070   1.923   0.358   2.021
 1377TIP3   OH2 4071   1.412   3.575   4.034
 1377TIP3    H1 4072   1.482   3.529   3.987
 1377TIP3    H2 4073   1.380   3.639   3.971
 1378TIP3   OH2 4074   0.573   6.634   1.433
 1378TIP3    H1 4075   0.478   6.629   1.449
 1378TIP3    H2 4076   0.585   6.719   1.391
 1379TIP3   OH2 4077   6.857   1.390   0.477
 1379TIP3    H1 4078   6.802   1.331   0.529
 1379TIP3    H2 4079   6.877   1.340   0.398
 1380TIP3   OH2 4080   1.126   1.596   2.594
 1380TIP3    H1 4081   1.054   1.562   2.647
 1380TIP3    H2 4082   1.174   1.518   2.566
 1381TIP3   OH2 4083   0.214   7.365   3.642
 1381TIP3    H1 4084   0.301   7.383   3.608
 1381TIP3    H2 4085   0.210   7.270   3.649
 1382TIP3   OH2 4086   1.513   2.589   4.524
 1382TIP3    H1 4087   1.430   2.547   4.504
 1382TIP3    H2 4088   1.578   2.538   4.474
 1383TIP3   OH2 4089   6.212   4.132   1.852
 1383TIP3    H1 4090   6.156   4.206   1.827
 1383TIP3    H2 4091   6.191   4.117   1.944
 1384TIP3   OH2 4092   0.437   4.576   5.213
 1384TIP3    H1 4093   0.459   4.483   5.222
 1384TIP3    H2 4094   0.439   4.592   5.118
 1385TIP3   OH2 4095   2.270   4.730   4.601
 1385TIP3    H1 4096   2.231   4.725   4.514
 1385TIP3    H2 4097   2.294   4.822   4.612
 1386TIP3   OH2 4098   2.412   3.990   0.610
 1386TIP3    H1 4099   2.341   4.044   0.574
 1386TIP3    H2 4100   2.486   4.006   0.552
 1387TIP3   OH2 4101   6.618   1.052   0.937
 1387TIP3    H1 4102   6.667   1.035   0.857
 1387TIP3    H2 4103   6.653   0.990   1.001
 1388TIP3   OH2 4104   7.877   4.013   6.533
 1388TIP3    H1 4105   7.900   4.097   6.571
 1388TIP3    H2 4106   7.905   3.948   6.597
 1389TIP3   OH2 4107   7.914   0.258   2.680
 1389TIP3    H1 4108   7.940   0.166   2.691
 1389TIP3    H2 4109   7.997   0.306   2.681
 1390TIP3   OH2 4110   1.886   5.318   1.459
 1390TIP3    H1 4111   1.801   5.332   1.502
 1390TIP3    H2 4112   1.884   5.376   1.383
 1391TIP3   OH2 4113   4.080   0.621   0.816
 1391TIP3    H1 4114   4.057   0.658   0.901
 1391TIP3    H2 4115   4.107   0.696   0.763
 1392TIP3   OH2 4116   3.331   7.260   0.820
 1392TIP3    H1 4117   3.315   7.167   0.837
 1392TIP3    H2 4118   3.253   7.290   0.774
 1393TIP3   OH2 4119   8.102   4.978   3.768
 1393TIP3    H1 4120   8.093   5.072   3.750
 1393TIP3    H2 4121   8.027   4.938   3.724
 1394TIP3   OH2 4122   7.966   1.295   1.095
 1394TIP3    H1 4123   7.902   1.327   1.159
 1394TIP3    H2 4124   8.050   1.300   1.141
 1395TIP3   OH2 4125   2.421   0.644   2.823
 1395TIP3    H1 4126   2.391   0.560   2.789
 1395TIP3    H2 4127   2.450   0.692   2.745
 1396TIP3   OH2 4128   7.231   2.607   0.559
 1396TIP3    H1 4129   7.150   2.657   0.569
 1396TIP3    H2 4130   7.276   2.617   0.643
 1397TIP3   OH2 4131   2.806   5.555   0.197
 1397TIP3    H1 4132   2.767   5.594   0.118
 1397TIP3    H2 4133   2.867   5.489   0.163
 1398TIP3   OH2 4134   2.075   7.168   6.292
 1398TIP3    H1 4135   2.133   7.136   6.223
 1398TIP3    H2 4136   2.037   7.248   6.256
 1399TIP3   OH2 4137   8.055   0.318   3.840
 1399TIP3    H1 4138   8.110   0.302   3.764
 1399TIP3    H2 4139   8.017   0.233   3.861
 1400TIP3   OH2 4140   0.540   2.627   6.413
 1400TIP3    H1 4141   0.467   2.659   6.361
 1400TIP3    H2 4142   0.601   2.590   6.349
 1401TIP3   OH2 4143   4.510   5.136   2.440
 1401TIP3    H1 4144   4.488   5.167   2.352
 1401TIP3    H2 4145   4.449   5.064   2.456
 1402TIP3   OH2 4146   1.619   6.520   0.270
 1402TIP3    H1 4147   1.557   6.470   0.323
 1402TIP3    H2 4148   1.569   6.544   0.192
 1403TIP3   OH2 4149   3.182   7.560   6.720
 1403TIP3    H1 4150   3.116   7.559   6.789
 1403TIP3    H2 4151   3.264   7.538   6.764
 1404TIP3   OH2 4152   3.286   0.409   2.458
 1404TIP3    H1 4153   3.349   0.383   2.525
 1404TIP3    H2 4154   3.217   0.455   2.506
 1405TIP3   OH2 4155   0.235   6.673   2.223
 1405TIP3    H1 4156   0.293   6.706   2.154
 1405TIP3    H2 4157   0.181   6.748   2.247
 1406TIP3   OH2 4158   0.527   7.253   6.303
 1406TIP3    H1 4159   0.618   7.249   6.273
 1406TIP3    H2 4160   0.492   7.166   6.286
 1407TIP3   OH2 4161   0.494   0.851   5.310
 1407TIP3    H1 4162   0.516   0.927   5.364
 1407TIP3    H2 4163   0.404   0.867   5.282
 1408TIP3   OH2 4164   3.868   3.931   2.631
 1408TIP3    H1 4165   3.793   3.980   2.595
 1408TIP3    H2 4166   3.832   3.844   2.651
 1409TIP3   OH2 4167   7.413   6.029   3.431
 1409TIP3    H1 4168   7.482   6.079   3.388
 1409TIP3    H2 4169   7.438   5.938   3.419
 1410TIP3   OH2 4170   5.508   4.621   0.169
 1410TIP3    H1 4171   5.579   4.582   0.221
 1410TIP3    H2 4172   5.429   4.600   0.217
 1411TIP3   OH2 4173   4.341   5.568   1.376
 1411TIP3    H1 4174   4.423   5.606   1.344
 1411TIP3    H2 4175   4.327   5.490   1.321
 1412TIP3   OH2 4176   1.577   3.081   4.685
 1412TIP3    H1 4177   1.657   3.107   4.731
 1412TIP3    H2 4178   1.510   3.080   4.753
 1413TIP3   OH2 4179   7.209   5.837   5.122
 1413TIP3    H1 4180   7.237   5.882   5.201
 1413TIP3    H2 4181   7.227   5.745   5.139
 1414TIP3   OH2 4182   6.954   3.184   2.649
 1414TIP3    H1 4183   7.031   3.241   2.659
 1414TIP3    H2 4184   6.881   3.239   2.676
 1415TIP3   OH2 4185   8.389   1.331   1.299
 1415TIP3    H1 4186   8.392   1.398   1.367
 1415TIP3    H2 4187   8.298   1.299   1.300
 1416TIP3   OH2 4188   2.160   6.171   5.024
 1416TIP3    H1 4189   2.128   6.247   5.073
 1416TIP3    H2 4190   2.240   6.145   5.069
 1417TIP3   OH2 4191   2.516   5.399   0.587
 1417TIP3    H1 4192   2.608   5.378   0.606
 1417TIP3    H2 4193   2.505   5.377   0.495
 1418TIP3   OH2 4194   2.537   6.504   3.189
 1418TIP3    H1 4195   2.520   6.598   3.188
 1418TIP3    H2 4196   2.452   6.465   3.168
 1419TIP3   OH2 4197   7.029   1.471   1.934
 1419TIP3    H1 4198   7.086   1.543   1.908
 1419TIP3    H2 4199   7.044   1.403   1.868
 1420TIP3   OH2 4200   7.980   3.003   0.392
 1420TIP3    H1 4201   8.023   3.019   0.308
 1420TIP3    H2 4202   7.992   3.085   0.441
 1421TIP3   OH2 4203   4.440   0.500   5.563
 1421TIP3    H1 4204   4.398   0.420   5.534
 1421TIP3    H2 4205   4.490   0.531   5.487
 1422TIP3   OH2 4206   2.965   5.588   6.782
 1422TIP3    H1 4207   3.055   5.600   6.813
 1422TIP3    H2 4208   2.912   5.640   6.842
 1423TIP3   OH2 4209   3.282   4.254   4.480
 1423TIP3    H1 4210   3.199   4.208   4.467
 1423TIP3    H2 4211   3.311   4.275   4.392
 1424TIP3   OH2 4212   4.592   1.721   6.128
 1424TIP3    H1 4213   4.584   1.727   6.223
 1424TIP3    H2 4214   4.542   1.642   6.105
 1425TIP3   OH2 4215   2.549   6.467   4.603
 1425TIP3    H1 4216   2.484   6.400   4.582
 1425TIP3    H2 4217   2.601   6.476   4.523
 1426TIP3   OH2 4218   3.498   7.623   3.134
 1426TIP3    H1 4219   3.559   7.692   3.161
 1426TIP3    H2 4220   3.507   7.556   3.201
 1427TIP3   OH2 4221   5.296   2.575   1.870
 1427TIP3    H1 4222   5.282   2.607   1.781
 1427TIP3    H2 4223   5.391   2.561   1.875
 1428TIP3   OH2 4224   5.825   4.644   3.604
 1428TIP3    H1 4225   5.852   4.566   3.556
 1428TIP3    H2 4226   5.804   4.708   3.536
 1429TIP3   OH2 4227   7.022   5.103   6.699
 1429TIP3    H1 4228   6.942   5.134   6.656
 1429TIP3    H2 4229   7.071   5.059   6.630
 1430TIP3   OH2 4230   4.237   7.094   6.674
 1430TIP3    H1 4231   4.171   7.050   6.728
 1430TIP3    H2 4232   4.256   7.033   6.603
 1431TIP3   OH2 4233   2.129   2.997   5.351
 1431TIP3    H1 4234   2.085   2.950   5.421
 1431TIP3    H2 4235   2.156   3.080   5.391
 1432TIP3   OH2 4236   0.428   1.367   0.058
 1432TIP3    H1 4237   0.456   1.299   0.119
 1432TIP3    H2 4238   0.345   1.336   0.023
 1433TIP3   OH2 4239   3.154   7.228   1.404
 1433TIP3    H1 4240   3.147   7.323   1.393
 1433TIP3    H2 4241   3.222   7.201   1.342
 1434TIP3   OH2 4242   3.672   3.333   1.350
 1434TIP3    H1 4243   3.652   3.245   1.319
 1434TIP3    H2 4244   3.590   3.382   1.336
 1435TIP3   OH2 4245   7.031   6.180   5.170
 1435TIP3    H1 4246   6.950   6.142   5.207
 1435TIP3    H2 4247   7.043   6.262   5.218
 1436TIP3   OH2 4248   0.791   3.250   6.449
 1436TIP3    H1 4249   0.807   3.344   6.449
 1436TIP3    H2 4250   0.841   3.217   6.524
 1437TIP3   OH2 4251   1.441   4.204   4.855
 1437TIP3    H1 4252   1.488   4.153   4.790
 1437TIP3    H2 4253   1.358   4.227   4.812
 1438TIP3   OH2 4254   1.010   5.263   2.872
 1438TIP3    H1 4255   0.972   5.308   2.797
 1438TIP3    H2 4256   1.104   5.277   2.863
 1439TIP3   OH2 4257   5.733   4.127   0.970
 1439TIP3    H1 4258   5.751   4.187   1.043
 1439TIP3    H2 4259   5.815   4.126   0.920
 1440TIP3   OH2 4260   7.072   2.837   1.902
 1440TIP3    H1 4261   7.063   2.921   1.858
 1440TIP3    H2 4262   7.058   2.857   1.995
 1441TIP3   OH2 4263   7.070   4.863   4.112
 1441TIP3    H1 4264   7.067   4.881   4.206
 1441TIP3    H2 4265   6.978   4.858   4.086
 1442TIP3   OH2 4266   1.413   3.298   6.359
 1442TIP3    H1 4267   1.381   3.218   6.400
 1442TIP3    H2 4268   1.381   3.368   6.416
 1443TIP3   OH2 4269   6.028   1.419   6.574
 1443TIP3    H1 4270   5.987   1.482   6.634
 1443TIP3    H2 4271   5.975   1.340   6.583
 1444TIP3   OH2 4272   7.924   5.915   2.566
 1444TIP3    H1 4273   7.873   5.916   2.485
 1444TIP3    H2 4274   7.906   5.830   2.606
 1445TIP3   OH2 4275   0.362   3.534   0.209
 1445TIP3    H1 4276   0.399   3.595   0.273
 1445TIP3    H2 4277   0.437   3.483   0.179
 1446TIP3   OH2 4278   1.362   6.240   2.393
 1446TIP3    H1 4279   1.365   6.254   2.488
 1446TIP3    H2 4280   1.327   6.321   2.358
 1447TIP3   OH2 4281   6.656   4.541   2.172
 1447TIP3    H1 4282   6.708   4.613   2.135
 1447TIP3    H2 4283   6.715   4.466   2.170
 1448TIP3   OH2 4284   4.502   2.527   2.441
 1448TIP3    H1 4285   4.418   2.503   2.401
 1448TIP3    H2 4286   4.556   2.556   2.367
 1449TIP3   OH2 4287   5.904   7.510   3.631
 1449TIP3    H1 4288   5.947   7.584   3.589
 1449TIP3    H2 4289   5.835   7.483   3.570
 1450TIP3   OH2 4290   2.034   2.154   5.760
 1450TIP3    H1 4291   1.981   2.075   5.756
 1450TIP3    H2 4292   2.122   2.125   5.739
 1451TIP3   OH2 4293   6.980   5.476   2.751
 1451TIP3    H1 4294   6.970   5.523   2.834
 1451TIP3    H2 4295   6.937   5.392   2.765
 1452TIP3   OH2 4296   4.960   4.822   0.248
 1452TIP3    H1 4297   4.999   4.908   0.238
 1452TIP3    H2 4298   5.031   4.766   0.279
 1453TIP3   OH2 4299   4.627   7.919   0.419
 1453TIP3    H1 4300   4.683   7.989   0.454
 1453TIP3    H2 4301   4.674   7.887   0.342
 1454TIP3   OH2 4302   3.263   3.825   1.173
 1454TIP3    H1 4303   3.215   3.907   1.163
 1454TIP3    H2 4304   3.286   3.822   1.266
 1455TIP3   OH2 4305   4.205   6.197   4.762
 1455TIP3    H1 4306   4.290   6.241   4.754
 1455TIP3    H2 4307   4.216   6.116   4.711
 1456TIP3   OH2 4308   4.979   4.954   5.765
 1456TIP3    H1 4309   4.967   4.962   5.860
 1456TIP3    H2 4310   5.050   5.016   5.745
 1457TIP3   OH2 4311   7.679   6.807   6.335
 1457TIP3    H1 4312   7.706   6.716   6.349
 1457TIP3    H2 4313   7.583   6.802   6.330
 1458TIP3   OH2 4314   8.373   3.202   0.804
 1458TIP3    H1 4315   8.400   3.257   0.878
 1458TIP3    H2 4316   8.300   3.150   0.837
 1459TIP3   OH2 4317   0.768   1.214   4.344
 1459TIP3    H1 4318   0.748   1.307   4.357
 1459TIP3    H2 4319   0.788   1.182   4.432
 1460TIP3   OH2 4320   0.113   7.552   2.497
 1460TIP3    H1 4321   0.054   7.559   2.572
 1460TIP3    H2 4322   0.196   7.523   2.535
 1461TIP3   OH2 4323   5.506   4.324   4.808
 1461TIP3    H1 4324   5.571   4.378   4.852
 1461TIP3    H2 4325   5.542   4.235   4.811
 1462TIP3   OH2 4326   4.183   3.504   4.497
 1462TIP3    H1 4327   4.210   3.468   4.413
 1462TIP3    H2 4328   4.265   3.510   4.547
 1463TIP3   OH2 4329   3.063   2.652   6.073
 1463TIP3    H1 4330   2.978   2.644   6.116
 1463TIP3    H2 4331   3.076   2.568   6.029
 1464TIP3   OH2 4332   3.350   7.673   2.388
 1464TIP3    H1 4333   3.323   7.596   2.438
 1464TIP3    H2 4334   3.279   7.687   2.325
 1465TIP3   OH2 4335   7.600   1.763   3.198
 1465TIP3    H1 4336   7.614   1.668   3.200
 1465TIP3    H2 4337   7.525   1.776   3.257
 1466TIP3   OH2 4338   6.224   3.755   5.670
 1466TIP3    H1 4339   6.229   3.839   5.624
 1466TIP3    H2 4340   6.151   3.765   5.731
 1467TIP3   OH2 4341   4.728   7.185   6.805
 1467TIP3    H1 4342   4.644   7.226   6.829
 1467TIP3    H2 4343   4.732   7.107   6.861
 1468TIP3   OH2 4344   7.830   2.812   0.303
 1468TIP3    H1 4345   7.891   2.878   0.335
 1468TIP3    H2 4346   7.763   2.861   0.256
 1469TIP3   OH2 4347   8.203   5.581   1.966
 1469TIP3    H1 4348   8.215   5.671   1.998
 1469TIP3    H2 4349   8.222   5.585   1.873
 1470TIP3   OH2 4350   6.176   3.094   1.255
 1470TIP3    H1 4351   6.263   3.071   1.222
 1470TIP3    H2 4352   6.153   3.023   1.314
 1471TIP3   OH2 4353   7.507   5.939   5.704
 1471TIP3    H1 4354   7.502   5.981   5.618
 1471TIP3    H2 4355   7.558   6.001   5.757
 1472TIP3   OH2 4356   5.824   5.372   0.639
 1472TIP3    H1 4357   5.881   5.412   0.705
 1472TIP3    H2 4358   5.848   5.279   0.639
 1473TIP3   OH2 4359   0.288   1.790   1.841
 1473TIP3    H1 4360   0.228   1.716   1.852
 1473TIP3    H2 4361   0.370   1.750   1.811
 1474TIP3   OH2 4362   0.336   3.261   6.632
 1474TIP3    H1 4363   0.389   3.271   6.712
 1474TIP3    H2 4364   0.270   3.329   6.639
 1475TIP3   OH2 4365   5.655   0.536   0.930
 1475TIP3    H1 4366   5.700   0.607   0.974
 1475TIP3    H2 4367   5.562   0.555   0.943
 1476TIP3   OH2 4368   2.194   2.144   6.431
 1476TIP3    H1 4369   2.211   2.065   6.482
 1476TIP3    H2 4370   2.139   2.198   6.487
 1477TIP3   OH2 4371   5.597   5.282   5.289
 1477TIP3    H1 4372   5.598   5.211   5.353
 1477TIP3    H2 4373   5.504   5.293   5.266
 1478TIP3   OH2 4374   0.420   2.576   1.052
 1478TIP3    H1 4375   0.416   2.593   1.147
 1478TIP3    H2 4376   0.328   2.562   1.027
 1479TIP3   OH2 4377   6.744   7.224   6.286
 1479TIP3    H1 4378   6.794   7.184   6.358
 1479TIP3    H2 4379   6.668   7.167   6.276
 1480TIP3   OH2 4380   7.021   4.880   2.908
 1480TIP3    H1 4381   7.102   4.882   2.960
 1480TIP3    H2 4382   7.051   4.882   2.817
 1481TIP3   OH2 4383   0.772   1.784   4.775
 1481TIP3    H1 4384   0.780   1.845   4.848
 1481TIP3    H2 4385   0.696   1.814   4.726
 1482TIP3   OH2 4386   1.848   6.772   2.031
 1482TIP3    H1 4387   1.818   6.724   1.953
 1482TIP3    H2 4388   1.915   6.831   1.998
 1483TIP3   OH2 4389   5.410   4.348   3.380
 1483TIP3    H1 4390   5.396   4.254   3.378
 1483TIP3    H2 4391   5.329   4.386   3.346
 1484TIP3   OH2 4392   0.163   5.967   1.020
 1484TIP3    H1 4393   0.142   6.026   1.092
 1484TIP3    H2 4394   0.092   5.980   0.957
 1485TIP3   OH2 4395   2.342   6.135   0.931
 1485TIP3    H1 4396   2.269   6.073   0.927
 1485TIP3    H2 4397   2.417   6.086   0.896
 1486TIP3   OH2 4398   3.173   2.325   5.628
 1486TIP3    H1 4399   3.227   2.321   5.549
 1486TIP3    H2 4400   3.132   2.238   5.632
 1487TIP3   OH2 4401   6.281   4.410   6.446
 1487TIP3    H1 4402   6.359   4.464   6.430
 1487TIP3    H2 4403   6.255   4.381   6.358
 1488TIP3   OH2 4404   3.464   6.721   2.456
 1488TIP3    H1 4405   3.385   6.670   2.437
 1488TIP3    H2 4406   3.518   6.662   2.508
 1489TIP3   OH2 4407   2.440   2.317   5.594
 1489TIP3    H1 4408   2.433   2.328   5.689
 1489TIP3    H2 4409   2.416   2.402   5.558
 1490TIP3   OH2 4410   0.947   6.408   1.435
 1490TIP3    H1 4411   0.973   6.498   1.457
 1490TIP3    H2 4412   0.893   6.380   1.509
 1491TIP3   OH2 4413   0.471   4.458   0.642
 1491TIP3    H1 4414   0.393   4.470   0.589
 1491TIP3    H2 4415   0.486   4.543   0.683
 1492TIP3   OH2 4416   0.749   6.175   3.929
 1492TIP3    H1 4417   0.757   6.083   3.955
 1492TIP3    H2 4418   0.694   6.214   3.996
 1493TIP3   OH2 4419   2.846   2.820   3.368
 1493TIP3    H1 4420   2.786   2.746   3.359
 1493TIP3    H2 4421   2.807   2.875   3.436
 1494TIP3   OH2 4422   6.788   3.093   5.245
 1494TIP3    H1 4423   6.753   3.109   5.333
 1494TIP3    H2 4424   6.716   3.115   5.186
 1495TIP3   OH2 4425   4.510   6.379   6.188
 1495TIP3    H1 4426   4.535   6.306   6.245
 1495TIP3    H2 4427   4.493   6.338   6.103
 1496TIP3   OH2 4428   7.608   5.454   1.431
 1496TIP3    H1 4429   7.619   5.420   1.519
 1496TIP3    H2 4430   7.646   5.387   1.374
 1497TIP3   OH2 4431   6.223   7.596   2.274
 1497TIP3    H1 4432   6.273   7.635   2.202
 1497TIP3    H2 4433   6.198   7.509   2.243
 1498TIP3   OH2 4434   6.668   5.634   3.530
 1498TIP3    H1 4435   6.608   5.572   3.572
 1498TIP3    H2 4436   6.686   5.595   3.445
 1499TIP3   OH2 4437   6.399   1.049   3.244
 1499TIP3    H1 4438   6.391   1.039   3.339
 1499TIP3    H2 4439   6.322   1.099   3.218
 1500TIP3   OH2 4440   5.307   4.554   3.832
 1500TIP3    H1 4441   5.257   4.491   3.883
 1500TIP3    H2 4442   5.283   4.639   3.869
 1501TIP3   OH2 4443   3.555   7.044   0.049
 1501TIP3    H1 4444   3.650   7.051   0.041
 1501TIP3    H2 4445   3.541   6.958   0.089
 1502TIP3   OH2 4446   7.677   4.981   6.092
 1502TIP3    H1 4447   7.690   4.894   6.130
 1502TIP3    H2 4448   7.605   4.969   6.029
 1503TIP3   OH2 4449   6.144   1.404   3.795
 1503TIP3    H1 4450   6.175   1.367   3.712
 1503TIP3    H2 4451   6.101   1.486   3.770
 1504TIP3   OH2 4452   5.493   5.043   6.041
 1504TIP3    H1 4453   5.577   5.046   6.087
 1504TIP3    H2 4454   5.502   5.107   5.970
 1505TIP3   OH2 4455   7.458   5.744   3.078
 1505TIP3    H1 4456   7.534   5.701   3.038
 1505TIP3    H2 4457   7.474   5.737   3.172
 1506TIP3   OH2 4458   3.503   2.570   6.268
 1506TIP3    H1 4459   3.500   2.652   6.317
 1506TIP3    H2 4460   3.439   2.582   6.198
 1507TIP3   OH2 4461   2.819   7.107   1.120
 1507TIP3    H1 4462   2.757   7.039   1.147
 1507TIP3    H2 4463   2.796   7.125   1.029
 1508TIP3   OH2 4464   4.844   0.616   6.205
 1508TIP3    H1 4465   4.756   0.632   6.241
 1508TIP3    H2 4466   4.839   0.528   6.169
 1509TIP3   OH2 4467   7.661   0.502   0.725
 1509TIP3    H1 4468   7.742   0.452   0.735
 1509TIP3    H2 4469   7.664   0.535   0.636
 1510TIP3   OH2 4470   3.845   0.890   2.276
 1510TIP3    H1 4471   3.843   0.984   2.260
 1510TIP3    H2 4472   3.766   0.856   2.235
 1511TIP3   OH2 4473   4.062   4.356   6.376
 1511TIP3    H1 4474   4.044   4.406   6.456
 1511TIP3    H2 4475   4.031   4.267   6.396
 1512TIP3   OH2 4476   4.584   3.561   3.201
 1512TIP3    H1 4477   4.585   3.635   3.262
 1512TIP3    H2 4478   4.493   3.534   3.196
 1513TIP3   OH2 4479   5.319   6.111   5.416
 1513TIP3    H1 4480   5.272   6.031   5.394
 1513TIP3    H2 4481   5.304   6.123   5.510
 1514TIP3   OH2 4482   3.165   0.584   2.670
 1514TIP3    H1 4483   3.190   0.599   2.761
 1514TIP3    H2 4484   3.078   0.544   2.675
 1515TIP3   OH2 4485   4.134   3.107   0.012
 1515TIP3    H1 4486   4.181   3.163   0.075
 1515TIP3    H2 4487   4.166   3.137  -0.073
 1516TIP3   OH2 4488   1.651   4.818   2.140
 1516TIP3    H1 4489   1.561   4.789   2.152
 1516TIP3    H2 4490   1.700   4.775   2.210
 1517TIP3   OH2 4491   7.036   7.067   3.879
 1517TIP3    H1 4492   7.086   7.093   3.802
 1517TIP3    H2 4493   6.972   7.137   3.891
 1518TIP3   OH2 4494   4.764   4.284   2.860
 1518TIP3    H1 4495   4.816   4.352   2.816
 1518TIP3    H2 4496   4.748   4.218   2.793
 1519TIP3   OH2 4497   7.209   5.194   1.625
 1519TIP3    H1 4498   7.115   5.193   1.609
 1519TIP3    H2 4499   7.248   5.203   1.538
 1520TIP3   OH2 4500   4.599   4.155   6.624
 1520TIP3    H1 4501   4.517   4.191   6.590
 1520TIP3    H2 4502   4.661   4.166   6.552
 1521TIP3   OH2 4503   6.620   5.395   1.288
 1521TIP3    H1 4504   6.697   5.414   1.234
 1521TIP3    H2 4505   6.588   5.480   1.317
 1522TIP3   OH2 4506   5.916   1.643   4.616
 1522TIP3    H1 4507   5.998   1.645   4.665
 1522TIP3    H2 4508   5.872   1.725   4.639
 1523TIP3   OH2 4509   3.136   3.405   0.700
 1523TIP3    H1 4510   3.231   3.401   0.712
 1523TIP3    H2 4511   3.122   3.380   0.608
 1524TIP3   OH2 4512   7.392   3.202   1.473
 1524TIP3    H1 4513   7.326   3.232   1.535
 1524TIP3    H2 4514   7.343   3.150   1.409
 1525TIP3   OH2 4515   2.170   2.014   6.173
 1525TIP3    H1 4516   2.181   2.077   6.245
 1525TIP3    H2 4517   2.240   1.951   6.185
 1526TIP3   OH2 4518   8.200   5.736   5.242
 1526TIP3    H1 4519   8.288   5.715   5.272
 1526TIP3    H2 4520   8.149   5.746   5.322
 1527TIP3   OH2 4521   6.232   5.916   4.160
 1527TIP3    H1 4522   6.228   5.904   4.065
 1527TIP3    H2 4523   6.237   6.011   4.172
 1528TIP3   OH2 4524   6.638   6.729   2.912
 1528TIP3    H1 4525   6.602   6.729   2.823
 1528TIP3    H2 4526   6.644   6.821   2.936
 1529TIP3   OH2 4527   2.199   1.456   6.314
 1529TIP3    H1 4528   2.125   1.490   6.263
 1529TIP3    H2 4529   2.167   1.454   6.404
 1530TIP3   OH2 4530   5.616   7.579   1.218
 1530TIP3    H1 4531   5.637   7.523   1.143
 1530TIP3    H2 4532   5.663   7.660   1.201
 1531TIP3   OH2 4533   1.407   6.790   6.070
 1531TIP3    H1 4534   1.426   6.725   6.002
 1531TIP3    H2 4535   1.337   6.750   6.122
 1532TIP3   OH2 4536   7.107   4.322   5.024
 1532TIP3    H1 4537   7.155   4.280   5.095
 1532TIP3    H2 4538   7.020   4.340   5.061
 1533TIP3   OH2 4539   5.258   0.565   3.684
 1533TIP3    H1 4540   5.211   0.566   3.768
 1533TIP3    H2 4541   5.233   0.483   3.643
 1534TIP3   OH2 4542   0.668   7.514   0.505
 1534TIP3    H1 4543   0.708   7.492   0.420
 1534TIP3    H2 4544   0.703   7.601   0.525
 1535TIP3   OH2 4545   6.656   7.378   5.297
 1535TIP3    H1 4546   6.697   7.461   5.273
 1535TIP3    H2 4547   6.565   7.399   5.313
 1536TIP3   OH2 4548   1.403   5.038   2.739
 1536TIP3    H1 4549   1.475   5.095   2.766
 1536TIP3    H2 4550   1.399   4.970   2.805
 1537TIP3   OH2 4551   7.977   7.897   4.905
 1537TIP3    H1 4552   7.941   7.897   4.993
 1537TIP3    H2 4553   8.070   7.918   4.917
 1538TIP3   OH2 4554   8.234   7.136   2.122
 1538TIP3    H1 4555   8.175   7.090   2.061
 1538TIP3    H2 4556   8.320   7.128   2.082
 1539TIP3   OH2 4557   4.688   0.618   6.517
 1539TIP3    H1 4558   4.657   0.605   6.427
 1539TIP3    H2 4559   4.609   0.621   6.569
 1540TIP3   OH2 4560   0.302   2.167   4.248
 1540TIP3    H1 4561   0.295   2.100   4.316
 1540TIP3    H2 4562   0.359   2.128   4.182
 1541TIP3   OH2 4563   4.019   7.557   3.390
 1541TIP3    H1 4564   4.004   7.648   3.414
 1541TIP3    H2 4565   4.011   7.555   3.294
 1542TIP3   OH2 4566   5.433   3.887   1.296
 1542TIP3    H1 4567   5.337   3.897   1.297
 1542TIP3    H2 4568   5.463   3.938   1.372
 1543TIP3   OH2 4569   3.655   3.720   6.323
 1543TIP3    H1 4570   3.673   3.626   6.328
 1543TIP3    H2 4571   3.726   3.761   6.373
 1544TIP3   OH2 4572   0.819   3.623   4.488
 1544TIP3    H1 4573   0.869   3.612   4.569
 1544TIP3    H2 4574   0.874   3.582   4.421
 1545TIP3   OH2 4575   6.633   4.652   3.532
 1545TIP3    H1 4576   6.597   4.564   3.541
 1545TIP3    H2 4577   6.727   4.638   3.522
 1546TIP3   OH2 4578   3.523   5.736   0.636
 1546TIP3    H1 4579   3.436   5.743   0.675
 1546TIP3    H2 4580   3.550   5.827   0.621
 1547TIP3   OH2 4581   0.625   6.807   6.733
 1547TIP3    H1 4582   0.688   6.748   6.774
 1547TIP3    H2 4583   0.592   6.758   6.658
 1548TIP3   OH2 4584   5.004   6.257   3.518
 1548TIP3    H1 4585   5.043   6.178   3.481
 1548TIP3    H2 4586   5.019   6.248   3.612
 1549TIP3   OH2 4587   5.922   6.023   1.267
 1549TIP3    H1 4588   5.841   5.989   1.306
 1549TIP3    H2 4589   5.897   6.109   1.233
 1550TIP3   OH2 4590   1.313   6.992   0.550
 1550TIP3    H1 4591   1.366   7.047   0.607
 1550TIP3    H2 4592   1.349   7.005   0.463
 1551TIP3   OH2 4593   4.469   2.257   1.583
 1551TIP3    H1 4594   4.438   2.254   1.492
 1551TIP3    H2 4595   4.441   2.174   1.621
 1552TIP3   OH2 4596   7.650   1.023   2.067
 1552TIP3    H1 4597   7.730   1.076   2.065
 1552TIP3    H2 4598   7.614   1.036   2.154
 1553TIP3   OH2 4599   8.256   4.366   4.914
 1553TIP3    H1 4600   8.298   4.447   4.886
 1553TIP3    H2 4601   8.180   4.394   4.964
 1554TIP3   OH2 4602   4.014   7.676   5.338
 1554TIP3    H1 4603   3.934   7.642   5.297
 1554TIP3    H2 4604   4.084   7.623   5.300
 1555TIP3   OH2 4605   4.969   5.361   0.210
 1555TIP3    H1 4606   4.998   5.448   0.237
 1555TIP3    H2 4607   4.911   5.377   0.136
 1556TIP3   OH2 4608   6.270   6.627   1.400
 1556TIP3    H1 4609   6.319   6.702   1.433
 1556TIP3    H2 4610   6.257   6.571   1.476
 1557TIP3   OH2 4611   6.462   6.327   3.279
 1557TIP3    H1 4612   6.420   6.355   3.199
 1557TIP3    H2 4613   6.472   6.232   3.269
 1558TIP3   OH2 4614   3.760   1.196   1.953
 1558TIP3    H1 4615   3.690   1.130   1.955
 1558TIP3    H2 4616   3.773   1.213   1.860
 1559TIP3   OH2 4617   2.499   1.360   1.242
 1559TIP3    H1 4618   2.488   1.276   1.285
 1559TIP3    H2 4619   2.547   1.413   1.305
 1560TIP3   OH2 4620   0.181   4.475   1.865
 1560TIP3    H1 4621   0.153   4.550   1.917
 1560TIP3    H2 4622   0.196   4.511   1.777
 1561TIP3   OH2 4623   0.059   6.367   2.248
 1561TIP3    H1 4624   0.012   6.284   2.259
 1561TIP3    H2 4625   0.017   6.408   2.171
 1562TIP3   OH2 4626   2.345   3.259   3.133
 1562TIP3    H1 4627   2.349   3.268   3.228
 1562TIP3    H2 4628   2.271   3.313   3.107
 1563TIP3   OH2 4629   2.289   3.267   6.671
 1563TIP3    H1 4630   2.377   3.300   6.651
 1563TIP3    H2 4631   2.251   3.246   6.586
 1564TIP3   OH2 4632   6.842   2.428   1.662
 1564TIP3    H1 4633   6.815   2.347   1.704
 1564TIP3    H2 4634   6.928   2.447   1.699
 1565TIP3   OH2 4635   1.416   0.748   4.233
 1565TIP3    H1 4636   1.481   0.803   4.277
 1565TIP3    H2 4637   1.433   0.760   4.140
 1566TIP3   OH2 4638   6.589   4.844   5.611
 1566TIP3    H1 4639   6.659   4.823   5.549
 1566TIP3    H2 4640   6.634   4.854   5.695
 1567TIP3   OH2 4641   0.722   3.350   1.031
 1567TIP3    H1 4642   0.658   3.279   1.044
 1567TIP3    H2 4643   0.779   3.318   0.962
 1568TIP3   OH2 4644   8.112   1.614   6.121
 1568TIP3    H1 4645   8.049   1.586   6.055
 1568TIP3    H2 4646   8.187   1.557   6.109
 1569TIP3   OH2 4647   3.868   3.061   2.058
 1569TIP3    H1 4648   3.826   3.066   1.972
 1569TIP3    H2 4649   3.954   3.024   2.040
 1570TIP3   OH2 4650   2.882   0.346   2.415
 1570TIP3    H1 4651   2.795   0.381   2.396
 1570TIP3    H2 4652   2.883   0.260   2.373
 1571TIP3   OH2 4653   2.761   5.413   0.968
 1571TIP3    H1 4654   2.839   5.429   0.914
 1571TIP3    H2 4655   2.687   5.427   0.909
 1572TIP3   OH2 4656   3.267   7.164   0.412
 1572TIP3    H1 4657   3.190   7.216   0.392
 1572TIP3    H2 4658   3.253   7.081   0.365
 1573TIP3   OH2 4659   1.482   7.677   4.471
 1573TIP3    H1 4660   1.517   7.747   4.415
 1573TIP3    H2 4661   1.558   7.624   4.494
 1574TIP3   OH2 4662   2.277   5.937   2.667
 1574TIP3    H1 4663   2.229   6.018   2.650
 1574TIP3    H2 4664   2.337   5.959   2.738
 1575TIP3   OH2 4665   3.412   6.597   1.777
 1575TIP3    H1 4666   3.452   6.661   1.718
 1575TIP3    H2 4667   3.346   6.553   1.723
 1576TIP3   OH2 4668   7.191   1.245   3.827
 1576TIP3    H1 4669   7.147   1.228   3.910
 1576TIP3    H2 4670   7.138   1.313   3.785
 1577TIP3   OH2 4671   8.118   2.285   0.604
 1577TIP3    H1 4672   8.180   2.357   0.590
 1577TIP3    H2 4673   8.075   2.306   0.687
 1578TIP3   OH2 4674   6.606   3.580   6.154
 1578TIP3    H1 4675   6.688   3.625   6.137
 1578TIP3    H2 4676   6.567   3.628   6.227
 1579TIP3   OH2 4677   4.923   4.913   3.051
 1579TIP3    H1 4678   4.994   4.883   2.995
 1579TIP3    H2 4679   4.843   4.879   3.010
 1580TIP3   OH2 4680   0.522   7.856   4.272
 1580TIP3    H1 4681   0.569   7.931   4.235
 1580TIP3    H2 4682   0.445   7.895   4.313
 1581TIP3   OH2 4683   4.322   6.885   0.549
 1581TIP3    H1 4684   4.362   6.841   0.625
 1581TIP3    H2 4685   4.247   6.830   0.527
 1582TIP3   OH2 4686   7.943   3.847   0.360
 1582TIP3    H1 4687   7.904   3.934   0.363
 1582TIP3    H2 4688   8.024   3.856   0.409
 1583TIP3   OH2 4689   4.649   6.794   0.505
 1583TIP3    H1 4690   4.639   6.802   0.600
 1583TIP3    H2 4691   4.682   6.705   0.492
 1584TIP3   OH2 4692   3.206   2.716   3.624
 1584TIP3    H1 4693   3.155   2.648   3.579
 1584TIP3    H2 4694   3.291   2.715   3.580
 1585TIP3   OH2 4695   0.743   7.158   2.405
 1585TIP3    H1 4696   0.688   7.191   2.476
 1585TIP3    H2 4697   0.776   7.074   2.438
 1586TIP3   OH2 4698   1.682   1.763   3.363
 1586TIP3    H1 4699   1.720   1.679   3.388
 1586TIP3    H2 4700   1.698   1.769   3.268
 1587TIP3   OH2 4701   1.523   3.199   0.150
 1587TIP3    H1 4702   1.584   3.267   0.122
 1587TIP3    H2 4703   1.571   3.117   0.139
 1588TIP3   OH2 4704   3.476   6.966   2.576
 1588TIP3    H1 4705   3.496   6.892   2.518
 1588TIP3    H2 4706   3.425   7.026   2.521
 1589TIP3   OH2 4707   4.795   6.317   6.064
 1589TIP3    H1 4708   4.731   6.346   5.999
 1589TIP3    H2 4709   4.863   6.385   6.062
 1590TIP3   OH2 4710   8.168   5.439   0.679
 1590TIP3    H1 4711   8.169   5.386   0.759
 1590TIP3    H2 4712   8.119   5.518   0.703
 1591TIP3   OH2 4713   5.859   7.684   4.126
 1591TIP3    H1 4714   5.861   7.636   4.044
 1591TIP3    H2 4715   5.950   7.714   4.138
 1592TIP3   OH2 4716   5.480   3.255   1.136
 1592TIP3    H1 4717   5.509   3.337   1.098
 1592TIP3    H2 4718   5.547   3.233   1.200
 1593TIP3   OH2 4719   3.971   1.728   6.587
 1593TIP3    H1 4720   3.965   1.640   6.625
 1593TIP3    H2 4721   3.880   1.758   6.582
 1594TIP3   OH2 4722   7.234   2.292   4.359
 1594TIP3    H1 4723   7.146   2.263   4.334
 1594TIP3    H2 4724   7.287   2.278   4.281
 1595TIP3   OH2 4725   6.653   2.002   6.808
 1595TIP3    H1 4726   6.653   1.935   6.740
 1595TIP3    H2 4727   6.740   1.999   6.846
 1596TIP3   OH2 4728   3.500   3.668   2.764
 1596TIP3    H1 4729   3.440   3.595   2.778
 1596TIP3    H2 4730   3.485   3.725   2.839
 1597TIP3   OH2 4731   0.454   1.138   5.835
 1597TIP3    H1 4732   0.435   1.186   5.916
 1597TIP3    H2 4733   0.454   1.205   5.767
 1598TIP3   OH2 4734   6.538   2.090   5.354
 1598TIP3    H1 4735   6.581   2.006   5.373
 1598TIP3    H2 4736   6.457   2.065   5.308
 1599TIP3   OH2 4737   6.110   5.552   5.916
 1599TIP3    H1 4738   6.181   5.545   5.979
 1599TIP3    H2 4739   6.110   5.468   5.870
 1600TIP3   OH2 4740   4.328   5.786   3.068
 1600TIP3    H1 4741   4.347   5.816   2.980
 1600TIP3    H2 4742   4.410   5.744   3.098
 1601TIP3   OH2 4743   4.357   1.451   6.507
 1601TIP3    H1 4744   4.426   1.514   6.485
 1601TIP3    H2 4745   4.402   1.368   6.516
 1602TIP3   OH2 4746   6.304   1.998   4.242
 1602TIP3    H1 4747   6.312   1.908   4.213
 1602TIP3    H2 4748   6.209   2.015   4.243
 1603TIP3   OH2 4749   7.436   0.466   2.856
 1603TIP3    H1 4750   7.462   0.485   2.947
 1603TIP3    H2 4751   7.519   0.451   2.810
 1604TIP3   OH2 4752   7.089   3.566   0.564
 1604TIP3    H1 4753   7.009   3.537   0.521
 1604TIP3    H2 4754   7.068   3.567   0.657
 1605TIP3   OH2 4755   2.892   5.606   3.456
 1605TIP3    H1 4756   2.907   5.542   3.386
 1605TIP3    H2 4757   2.797   5.610   3.464
 1606TIP3   OH2 4758   0.083   3.804   1.768
 1606TIP3    H1 4759   0.013   3.844   1.819
 1606TIP3    H2 4760   0.159   3.859   1.784
 1607TIP3   OH2 4761   7.147   6.033   2.503
 1607TIP3    H1 4762   7.082   5.986   2.450
 1607TIP3    H2 4763   7.178   6.103   2.446
 1608TIP3   OH2 4764   3.529   7.131   4.819
 1608TIP3    H1 4765   3.602   7.172   4.772
 1608TIP3    H2 4766   3.548   7.148   4.912
 1609TIP3   OH2 4767   2.335   3.405   3.658
 1609TIP3    H1 4768   2.253   3.355   3.658
 1609TIP3    H2 4769   2.311   3.492   3.690
 1610TIP3   OH2 4770   7.202   3.608   2.538
 1610TIP3    H1 4771   7.180   3.588   2.447
 1610TIP3    H2 4772   7.291   3.643   2.534
 1611TIP3   OH2 4773   4.970   4.023   0.029
 1611TIP3    H1 4774   4.997   4.081  -0.043
 1611TIP3    H2 4775   5.015   4.059   0.106
 1612TIP3   OH2 4776   4.266   1.672   4.206
 1612TIP3    H1 4777   4.320   1.597   4.178
 1612TIP3    H2 4778   4.321   1.718   4.269
 1613TIP3   OH2 4779   2.155   6.177   5.499
 1613TIP3    H1 4780   2.158   6.195   5.593
 1613TIP3    H2 4781   2.128   6.085   5.494
 1614TIP3   OH2 4782   0.992   7.571   5.785
 1614TIP3    H1 4783   0.940   7.634   5.835
 1614TIP3    H2 4784   0.973   7.591   5.693
 1615TIP3   OH2 4785   5.894   3.199   2.474
 1615TIP3    H1 4786   5.802   3.226   2.477
 1615TIP3    H2 4787   5.931   3.231   2.557
 1616TIP3   OH2 4788   4.888   3.771   0.786
 1616TIP3    H1 4789   4.900   3.806   0.698
 1616TIP3    H2 4790   4.836   3.691   0.773
 1617TIP3   OH2 4791   6.136   3.117   3.463
 1617TIP3    H1 4792   6.180   3.116   3.548
 1617TIP3    H2 4793   6.080   3.195   3.466
 1618TIP3   OH2 4794   3.994   2.278   4.674
 1618TIP3    H1 4795   3.962   2.333   4.746
 1618TIP3    H2 4796   3.918   2.226   4.647
 1619TIP3   OH2 4797   2.742   2.929   3.751
 1619TIP3    H1 4798   2.796   2.965   3.822
 1619TIP3    H2 4799   2.741   2.835   3.767
 1620TIP3   OH2 4800   6.420   2.810   1.865
 1620TIP3    H1 4801   6.477   2.853   1.929
 1620TIP3    H2 4802   6.466   2.730   1.842
 1621TIP3   OH2 4803   8.154   5.583   2.259
 1621TIP3    H1 4804   8.234   5.556   2.303
 1621TIP3    H2 4805   8.173   5.573   2.166
 1622TIP3   OH2 4806   5.024   6.147   3.766
 1622TIP3    H1 4807   5.087   6.080   3.792
 1622TIP3    H2 4808   5.031   6.215   3.833
 1623TIP3   OH2 4809   6.063   0.555   1.741
 1623TIP3    H1 4810   6.071   0.460   1.752
 1623TIP3    H2 4811   5.980   0.577   1.783
 1624TIP3   OH2 4812   3.435   0.516   6.672
 1624TIP3    H1 4813   3.467   0.571   6.601
 1624TIP3    H2 4814   3.510   0.463   6.698
 1625TIP3   OH2 4815   0.242   1.364   4.761
 1625TIP3    H1 4816   0.217   1.403   4.677
 1625TIP3    H2 4817   0.162   1.325   4.795
 1626TIP3   OH2 4818   1.790   7.843   6.367
 1626TIP3    H1 4819   1.778   7.890   6.450
 1626TIP3    H2 4820   1.702   7.815   6.343
 1627TIP3   OH2 4821   3.698   6.502   6.218
 1627TIP3    H1 4822   3.604   6.491   6.204
 1627TIP3    H2 4823   3.708   6.595   6.240
 1628TIP3   OH2 4824   6.571   0.748   6.150
 1628TIP3    H1 4825   6.647   0.743   6.092
 1628TIP3    H2 4826   6.578   0.670   6.205
 1629TIP3   OH2 4827   0.247   0.938   5.251
 1629TIP3    H1 4828   0.180   0.968   5.313
 1629TIP3    H2 4829   0.225   0.846   5.235
 1630TIP3   OH2 4830   0.255   3.497   4.097
 1630TIP3    H1 4831   0.254   3.403   4.116
 1630TIP3    H2 4832   0.347   3.523   4.107
 1631TIP3   OH2 4833   0.790   0.333   6.087
 1631TIP3    H1 4834   0.816   0.419   6.053
 1631TIP3    H2 4835   0.797   0.275   6.011
 1632TIP3   OH2 4836   3.757   2.473   1.358
 1632TIP3    H1 4837   3.763   2.530   1.435
 1632TIP3    H2 4838   3.819   2.510   1.295
 1633TIP3   OH2 4839   2.388   5.627   6.764
 1633TIP3    H1 4840   2.461   5.626   6.703
 1633TIP3    H2 4841   2.384   5.718   6.794
 1634TIP3   OH2 4842   4.453   5.218   5.208
 1634TIP3    H1 4843   4.375   5.221   5.151
 1634TIP3    H2 4844   4.425   5.167   5.284
 1635TIP3   OH2 4845   2.880   3.802   6.249
 1635TIP3    H1 4846   2.874   3.725   6.306
 1635TIP3    H2 4847   2.946   3.857   6.291
 1636TIP3   OH2 4848   2.883   3.577   5.582
 1636TIP3    H1 4849   2.874   3.579   5.487
 1636TIP3    H2 4850   2.913   3.665   5.605
 1637TIP3   OH2 4851   0.477   6.877   2.400
 1637TIP3    H1 4852   0.447   6.795   2.440
 1637TIP3    H2 4853   0.396   6.929   2.391
 1638TIP3   OH2 4854   5.124   5.565   5.240
 1638TIP3    H1 4855   5.209   5.566   5.197
 1638TIP3    H2 4856   5.076   5.637   5.199
 1639TIP3   OH2 4857   4.723   6.269   3.516
 1639TIP3    H1 4858   4.695   6.301   3.602
 1639TIP3    H2 4859   4.818   6.265   3.521
 1640TIP3   OH2 4860   2.468   5.995   2.876
 1640TIP3    H1 4861   2.428   6.071   2.918
 1640TIP3    H2 4862   2.537   5.967   2.937
 1641TIP3   OH2 4863   7.628   0.123   3.935
 1641TIP3    H1 4864   7.680   0.179   3.878
 1641TIP3    H2 4865   7.678   0.118   4.016
 1642TIP3   OH2 4866   2.615   3.572   1.634
 1642TIP3    H1 4867   2.622   3.554   1.540
 1642TIP3    H2 4868   2.577   3.492   1.670
 1643TIP3   OH2 4869   2.606   2.307   0.447
 1643TIP3    H1 4870   2.539   2.354   0.496
 1643TIP3    H2 4871   2.606   2.219   0.485
 1644TIP3   OH2 4872   5.886   5.620   3.217
 1644TIP3    H1 4873   5.976   5.646   3.198
 1644TIP3    H2 4874   5.888   5.524   3.212
 1645TIP3   OH2 4875   7.780   2.517   5.675
 1645TIP3    H1 4876   7.854   2.478   5.627
 1645TIP3    H2 4877   7.763   2.599   5.629
 1646TIP3   OH2 4878   1.346   4.088   2.959
 1646TIP3    H1 4879   1.278   4.027   2.991
 1646TIP3    H2 4880   1.320   4.173   2.994
 1647TIP3   OH2 4881   6.972   2.710   0.205
 1647TIP3    H1 4882   7.022   2.629   0.192
 1647TIP3    H2 4883   7.037   2.779   0.198
 1648TIP3   OH2 4884   0.120   1.721   4.181
 1648TIP3    H1 4885   0.053   1.653   4.170
 1648TIP3    H2 4886   0.141   1.748   4.091
 1649TIP3   OH2 4887   2.281   4.222   0.489
 1649TIP3    H1 4888   2.289   4.216   0.394
 1649TIP3    H2 4889   2.197   4.266   0.504
 1650TIP3   OH2 4890   5.256   5.373   3.017
 1650TIP3    H1 4891   5.165   5.371   3.045
 1650TIP3    H2 4892   5.296   5.298   3.061
 1651TIP3   OH2 4893   5.791   0.573   5.918
 1651TIP3    H1 4894   5.785   0.666   5.939
 1651TIP3    H2 4895   5.874   0.564   5.871
 1652TIP3   OH2 4896   1.819   3.981   1.393
 1652TIP3    H1 4897   1.870   4.045   1.443
 1652TIP3    H2 4898   1.751   3.951   1.454
 1653TIP3   OH2 4899   0.432   2.160   0.002
 1653TIP3    H1 4900   0.403   2.236  -0.048
 1653TIP3    H2 4901   0.379   2.088  -0.032
 1654TIP3   OH2 4902   2.355   0.072   1.488
 1654TIP3    H1 4903   2.311   0.139   1.541
 1654TIP3    H2 4904   2.323   0.087   1.399
 1655TIP3   OH2 4905   2.356   1.332   5.219
 1655TIP3    H1 4906   2.444   1.342   5.256
 1655TIP3    H2 4907   2.298   1.334   5.295
 1656TIP3   OH2 4908   7.687   1.928   1.062
 1656TIP3    H1 4909   7.743   1.907   0.987
 1656TIP3    H2 4910   7.747   1.935   1.136
 1657TIP3   OH2 4911   3.261   7.230   2.197
 1657TIP3    H1 4912   3.330   7.174   2.162
 1657TIP3    H2 4913   3.292   7.254   2.284
 1658TIP3   OH2 4914   7.117   2.339   2.934
 1658TIP3    H1 4915   7.192   2.290   2.900
 1658TIP3    H2 4916   7.154   2.421   2.967
 1659TIP3   OH2 4917   3.598   4.281   5.460
 1659TIP3    H1 4918   3.572   4.192   5.434
 1659TIP3    H2 4919   3.542   4.339   5.408
 1660TIP3   OH2 4920   4.054   3.988   3.959
 1660TIP3    H1 4921   4.118   3.920   3.980
 1660TIP3    H2 4922   4.068   4.055   4.026
 1661TIP3   OH2 4923   5.735   4.203   6.730
 1661TIP3    H1 4924   5.729   4.114   6.696
 1661TIP3    H2 4925   5.809   4.201   6.791
 1662TIP3   OH2 4926   3.825   1.900   4.317
 1662TIP3    H1 4927   3.760   1.966   4.293
 1662TIP3    H2 4928   3.907   1.949   4.326
 1663TIP3   OH2 4929   5.762   7.644   4.991
 1663TIP3    H1 4930   5.857   7.644   4.994
 1663TIP3    H2 4931   5.738   7.736   4.980
 1664TIP3   OH2 4932   5.827   4.137   0.052
 1664TIP3    H1 4933   5.889   4.210   0.046
 1664TIP3    H2 4934   5.797   4.125  -0.038
 1665TIP3   OH2 4935   7.316   6.993   0.158
 1665TIP3    H1 4936   7.310   7.042   0.240
 1665TIP3    H2 4937   7.397   7.024   0.118
 1666TIP3   OH2 4938   7.553   3.096   5.436
 1666TIP3    H1 4939   7.517   3.143   5.361
 1666TIP3    H2 4940   7.523   3.006   5.425
 1667TIP3   OH2 4941   3.080   5.069   6.516
 1667TIP3    H1 4942   3.111   5.159   6.504
 1667TIP3    H2 4943   2.995   5.066   6.472
 1668TIP3   OH2 4944   6.613   0.502   2.337
 1668TIP3    H1 4945   6.554   0.470   2.270
 1668TIP3    H2 4946   6.564   0.494   2.419
 1669TIP3   OH2 4947   6.515   2.948   5.957
 1669TIP3    H1 4948   6.590   2.986   5.911
 1669TIP3    H2 4949   6.554   2.889   6.021
 1670TIP3   OH2 4950   5.221   7.752   5.356
 1670TIP3    H1 4951   5.203   7.779   5.446
 1670TIP3    H2 4952   5.138   7.764   5.310
 1671TIP3   OH2 4953   3.269   2.446   3.920
 1671TIP3    H1 4954   3.311   2.406   3.997
 1671TIP3    H2 4955   3.328   2.516   3.894
 1672TIP3   OH2 4956   5.338   0.956   5.849
 1672TIP3    H1 4957   5.350   1.049   5.830
 1672TIP3    H2 4958   5.425   0.918   5.835
 1673TIP3   OH2 4959   7.793   0.443   1.744
 1673TIP3    H1 4960   7.887   0.458   1.730
 1673TIP3    H2 4961   7.777   0.473   1.833
 1674TIP3   OH2 4962   0.794   3.114   3.505
 1674TIP3    H1 4963   0.804   3.144   3.415
 1674TIP3    H2 4964   0.883   3.096   3.534
 1675TIP3   OH2 4965   3.255   1.778   0.169
 1675TIP3    H1 4966   3.238   1.750   0.079
 1675TIP3    H2 4967   3.170   1.770   0.213
 1676TIP3   OH2 4968   5.556   2.404   6.439
 1676TIP3    H1 4969   5.626   2.392   6.503
 1676TIP3    H2 4970   5.563   2.496   6.414
 1677TIP3   OH2 4971   0.784   0.586   0.646
 1677TIP3    H1 4972   0.820   0.498   0.640
 1677TIP3    H2 4973   0.822   0.633   0.572
 1678TIP3   OH2 4974   8.105   5.434   4.565
 1678TIP3    H1 4975   8.047   5.469   4.633
 1678TIP3    H2 4976   8.054   5.442   4.485
 1679TIP3   OH2 4977   3.582   5.366   3.232
 1679TIP3    H1 4978   3.624   5.301   3.288
 1679TIP3    H2 4979   3.495   5.378   3.270
 1680TIP3   OH2 4980   5.769   5.223   5.640
 1680TIP3    H1 4981   5.725   5.294   5.687
 1680TIP3    H2 4982   5.698   5.171   5.603
 1681TIP3   OH2 4983   2.565   2.905   3.371
 1681TIP3    H1 4984   2.583   2.979   3.429
 1681TIP3    H2 4985   2.485   2.866   3.405
 1682TIP3   OH2 4986   7.068   0.178   3.663
 1682TIP3    H1 4987   7.113   0.139   3.589
 1682TIP3    H2 4988   7.024   0.104   3.705
 1683TIP3   OH2 4989   2.717   6.200   0.898
 1683TIP3    H1 4990   2.778   6.195   0.824
 1683TIP3    H2 4991   2.638   6.239   0.861
 1684TIP3   OH2 4992   6.764   3.735   0.853
 1684TIP3    H1 4993   6.854   3.708   0.870
 1684TIP3    H2 4994   6.711   3.659   0.879
 1685TIP3   OH2 4995   5.112   2.316   1.838
 1685TIP3    H1 4996   5.057   2.260   1.893
 1685TIP3    H2 4997   5.175   2.355   1.898
 1686TIP3   OH2 4998   7.720   6.589   3.707
 1686TIP3    H1 4999   7.796   6.639   3.676
 1686TIP3    H2 5000   7.740   6.569   3.798
 1687TIP3   OH2 5001   1.825   3.474   6.667
 1687TIP3    H1 5002   1.779   3.545   6.713
 1687TIP3    H2 5003   1.905   3.461   6.718
 1688TIP3   OH2 5004   5.352   4.072   3.307
 1688TIP3    H1 5005   5.298   4.027   3.242
 1688TIP3    H2 5006   5.436   4.026   3.304
 1689TIP3   OH2 5007   2.435   7.072   0.975
 1689TIP3    H1 5008   2.361   7.069   1.035
 1689TIP3    H2 5009   2.507   7.032   1.024
 1690TIP3   OH2 5010   6.512   7.314   0.173
 1690TIP3    H1 5011   6.425   7.306   0.134
 1690TIP3    H2 5012   6.563   7.363   0.108
 1691TIP3   OH2 5013   3.712   3.474   1.087
 1691TIP3    H1 5014   3.713   3.411   1.014
 1691TIP3    H2 5015   3.750   3.426   1.160
 1692TIP3   OH2 5016   7.052   0.187   5.515
 1692TIP3    H1 5017   7.080   0.278   5.525
 1692TIP3    H2 5018   6.974   0.180   5.570
 1693TIP3   OH2 5019   2.457   4.435   3.390
 1693TIP3    H1 5020   2.449   4.518   3.438
 1693TIP3    H2 5021   2.542   4.441   3.347
 1694TIP3   OH2 5022   5.494   0.533   3.886
 1694TIP3    H1 5023   5.471   0.612   3.838
 1694TIP3    H2 5024   5.433   0.531   3.960
 1695TIP3   OH2 5025   1.526   1.686   2.908
 1695TIP3    H1 5026   1.498   1.652   2.823
 1695TIP3    H2 5027   1.562   1.772   2.889
 1696TIP3   OH2 5028   2.638   7.037   0.381
 1696TIP3    H1 5029   2.552   7.077   0.385
 1696TIP3    H2 5030   2.698   7.107   0.408
 1697TIP3   OH2 5031   5.730   3.237   1.942
 1697TIP3    H1 5032   5.671   3.287   1.999
 1697TIP3    H2 5033   5.815   3.280   1.952
 1698TIP3   OH2 5034   4.447   5.360   1.630
 1698TIP3    H1 5035   4.528   5.411   1.632
 1698TIP3    H2 5036   4.437   5.334   1.539
 1699TIP3   OH2 5037   0.217   2.016   5.963
 1699TIP3    H1 5038   0.215   1.929   5.923
 1699TIP3    H2 5039   0.136   2.021   6.013
 1700TIP3   OH2 5040   4.307   0.458   4.359
 1700TIP3    H1 5041   4.361   0.434   4.434
 1700TIP3    H2 5042   4.364   0.448   4.283
 1701TIP3   OH2 5043   3.737   5.798   0.290
 1701TIP3    H1 5044   3.734   5.803   0.194
 1701TIP3    H2 5045   3.762   5.887   0.317
 1702TIP3   OH2 5046   4.066   4.857   2.398
 1702TIP3    H1 5047   4.113   4.800   2.458
 1702TIP3    H2 5048   4.003   4.903   2.453
 1703TIP3   OH2 5049   1.555   2.388   1.898
 1703TIP3    H1 5050   1.627   2.432   1.853
 1703TIP3    H2 5051   1.555   2.299   1.863
 1704TIP3   OH2 5052   6.745   7.857   4.009
 1704TIP3    H1 5053   6.699   7.885   4.088
 1704TIP3    H2 5054   6.798   7.933   3.984
 1705TIP3   OH2 5055   6.983   2.866   1.418
 1705TIP3    H1 5056   6.921   2.860   1.490
 1705TIP3    H2 5057   7.019   2.777   1.410
 1706TIP3   OH2 5058   6.721   6.593   5.569
 1706TIP3    H1 5059   6.734   6.614   5.477
 1706TIP3    H2 5060   6.653   6.653   5.599
 1707TIP3   OH2 5061   0.672   2.387   5.700
 1707TIP3    H1 5062   0.721   2.327   5.644
 1707TIP3    H2 5063   0.721   2.470   5.696
 1708TIP3   OH2 5064   3.423   1.369   6.283
 1708TIP3    H1 5065   3.518   1.383   6.276
 1708TIP3    H2 5066   3.414   1.274   6.295
 1709TIP3   OH2 5067   1.527   1.743   5.121
 1709TIP3    H1 5068   1.558   1.771   5.035
 1709TIP3    H2 5069   1.606   1.738   5.175
 1710TIP3   OH2 5070   7.917   3.762   5.422
 1710TIP3    H1 5071   7.924   3.795   5.512
 1710TIP3    H2 5072   7.877   3.676   5.431
 1711TIP3   OH2 5073   6.304   7.136   5.383
 1711TIP3    H1 5074   6.327   7.072   5.450
 1711TIP3    H2 5075   6.344   7.102   5.303
 1712TIP3   OH2 5076   0.862   6.629   6.603
 1712TIP3    H1 5077   0.891   6.719   6.619
 1712TIP3    H2 5078   0.936   6.575   6.632
 1713TIP3   OH2 5079   5.896   5.830   5.086
 1713TIP3    H1 5080   5.972   5.774   5.071
 1713TIP3    H2 5081   5.908   5.903   5.025
 1714TIP3   OH2 5082   3.335   3.989   3.805
 1714TIP3    H1 5083   3.288   4.000   3.722
 1714TIP3    H2 5084   3.267   3.969   3.869
 1715TIP3   OH2 5085   5.526   0.422   0.333
 1715TIP3    H1 5086   5.505   0.474   0.255
 1715TIP3    H2 5087   5.460   0.446   0.397
 1716TIP3   OH2 5088   1.578   3.963   0.429
 1716TIP3    H1 5089   1.592   4.056   0.413
 1716TIP3    H2 5090   1.586   3.954   0.524
 1717TIP3   OH2 5091   3.544   1.994   2.724
 1717TIP3    H1 5092   3.596   2.047   2.784
 1717TIP3    H2 5093   3.493   2.057   2.674
 1718TIP3   OH2 5094   5.895   6.375   4.414
 1718TIP3    H1 5095   5.942   6.428   4.350
 1718TIP3    H2 5096   5.928   6.286   4.401
 1719TIP3   OH2 5097   5.264   6.530   6.009
 1719TIP3    H1 5098   5.311   6.467   6.064
 1719TIP3    H2 5099   5.333   6.584   5.971
 1720TIP3   OH2 5100   5.968   5.005   3.395
 1720TIP3    H1 5101   6.038   5.049   3.346
 1720TIP3    H2 5102   5.905   4.978   3.327
 1721TIP3   OH2 5103   6.628   5.638   1.399
 1721TIP3    H1 5104   6.588   5.711   1.447
 1721TIP3    H2 5105   6.684   5.595   1.463
 1722TIP3   OH2 5106   5.715   4.802   3.952
 1722TIP3    H1 5107   5.722   4.736   4.022
 1722TIP3    H2 5108   5.638   4.776   3.902
 1723TIP3   OH2 5109   6.488   4.851   1.196
 1723TIP3    H1 5110   6.559   4.815   1.142
 1723TIP3    H2 5111   6.418   4.787   1.189
 1724TIP3   OH2 5112   8.109   7.775   3.182
 1724TIP3    H1 5113   8.039   7.769   3.116
 1724TIP3    H2 5114   8.182   7.816   3.136
 1725TIP3   OH2 5115   8.378   0.918   2.379
 1725TIP3    H1 5116   8.369   0.957   2.465
 1725TIP3    H2 5117   8.296   0.871   2.364
 1726TIP3   OH2 5118   1.476   2.628   1.090
 1726TIP3    H1 5119   1.563   2.669   1.092
 1726TIP3    H2 5120   1.465   2.600   0.999
 1727TIP3   OH2 5121   6.930   2.635   3.064
 1727TIP3    H1 5122   7.008   2.595   3.102
 1727TIP3    H2 5123   6.942   2.625   2.969
 1728TIP3   OH2 5124   5.768   2.182   3.084
 1728TIP3    H1 5125   5.754   2.117   3.153
 1728TIP3    H2 5126   5.746   2.266   3.125
 1729TIP3   OH2 5127   2.370   2.932   0.289
 1729TIP3    H1 5128   2.286   2.956   0.251
 1729TIP3    H2 5129   2.357   2.941   0.384
 1730TIP3   OH2 5130   2.362   3.052   2.960
 1730TIP3    H1 5131   2.297   3.079   2.895
 1730TIP3    H2 5132   2.354   3.116   3.031
 1731TIP3   OH2 5133   5.679   1.112   0.718
 1731TIP3    H1 5134   5.613   1.043   0.716
 1731TIP3    H2 5135   5.762   1.067   0.731
 1732TIP3   OH2 5136   5.316   0.891   3.992
 1732TIP3    H1 5137   5.353   0.935   3.916
 1732TIP3    H2 5138   5.382   0.903   4.061
 1733TIP3   OH2 5139   7.925   2.547   0.062
 1733TIP3    H1 5140   7.973   2.536   0.145
 1733TIP3    H2 5141   7.833   2.536   0.087
 1734TIP3   OH2 5142   2.220   7.377   2.234
 1734TIP3    H1 5143   2.309   7.346   2.214
 1734TIP3    H2 5144   2.214   7.461   2.188
 1735TIP3   OH2 5145   1.128   0.807   4.038
 1735TIP3    H1 5146   1.103   0.725   4.081
 1735TIP3    H2 5147   1.221   0.817   4.058
 1736TIP3   OH2 5148   6.321   1.892   6.129
 1736TIP3    H1 5149   6.340   1.837   6.206
 1736TIP3    H2 5150   6.282   1.971   6.165
 1737TIP3   OH2 5151   6.864   1.183   6.684
 1737TIP3    H1 5152   6.932   1.242   6.715
 1737TIP3    H2 5153   6.911   1.116   6.633
 1738TIP3   OH2 5154   4.523   6.870   6.213
 1738TIP3    H1 5155   4.463   6.903   6.146
 1738TIP3    H2 5156   4.501   6.777   6.221
 1739TIP3   OH2 5157   0.562   4.070   2.229
 1739TIP3    H1 5158   0.631   4.130   2.202
 1739TIP3    H2 5159   0.549   4.013   2.153
 1740TIP3   OH2 5160   2.688   6.786   4.119
 1740TIP3    H1 5161   2.744   6.798   4.195
 1740TIP3    H2 5162   2.735   6.830   4.048
 1741TIP3   OH2 5163   8.217   5.265   0.448
 1741TIP3    H1 5164   8.130   5.241   0.416
 1741TIP3    H2 5165   8.200   5.317   0.527
 1742TIP3   OH2 5166   6.492   1.595   1.447
 1742TIP3    H1 5167   6.570   1.597   1.392
 1742TIP3    H2 5168   6.419   1.598   1.385
 1743TIP3   OH2 5169   8.278   4.361   6.408
 1743TIP3    H1 5170   8.234   4.440   6.441
 1743TIP3    H2 5171   8.335   4.334   6.480
 1744TIP3   OH2 5172   4.127   1.183   5.832
 1744TIP3    H1 5173   4.135   1.089   5.819
 1744TIP3    H2 5174   4.175   1.201   5.913
 1745TIP3   OH2 5175   3.731   0.017   0.070
 1745TIP3    H1 5176   3.662  -0.032   0.114
 1745TIP3    H2 5177   3.733   0.102   0.115
 1746TIP3   OH2 5178   0.552   1.117   4.215
 1746TIP3    H1 5179   0.569   1.186   4.150
 1746TIP3    H2 5180   0.618   1.132   4.283
 1747TIP3   OH2 5181   2.859   7.476   5.546
 1747TIP3    H1 5182   2.898   7.493   5.632
 1747TIP3    H2 5183   2.928   7.498   5.484
 1748TIP3   OH2 5184   5.560   3.805   6.281
 1748TIP3    H1 5185   5.564   3.887   6.330
 1748TIP3    H2 5186   5.506   3.825   6.205
 1749TIP3   OH2 5187   4.552   7.074   0.761
 1749TIP3    H1 5188   4.611   6.999   0.764
 1749TIP3    H2 5189   4.608   7.149   0.783
 1750TIP3   OH2 5190   6.008   6.276   2.219
 1750TIP3    H1 5191   5.929   6.265   2.166
 1750TIP3    H2 5192   6.078   6.237   2.166
 1751TIP3   OH2 5193   7.326   5.706   2.814
 1751TIP3    H1 5194   7.381   5.724   2.890
 1751TIP3    H2 5195   7.316   5.791   2.770
 1752TIP3   OH2 5196   4.098   7.864   4.841
 1752TIP3    H1 5197   4.060   7.813   4.771
 1752TIP3    H2 5198   4.188   7.831   4.849
 1753TIP3   OH2 5199   2.022   1.319   4.565
 1753TIP3    H1 5200   2.088   1.254   4.540
 1753TIP3    H2 5201   2.065   1.372   4.633
 1754TIP3   OH2 5202   2.188   2.744   1.636
 1754TIP3    H1 5203   2.151   2.832   1.633
 1754TIP3    H2 5204   2.283   2.758   1.637
 1755TIP3   OH2 5205   1.472   0.164   5.468
 1755TIP3    H1 5206   1.543   0.187   5.528
 1755TIP3    H2 5207   1.476   0.230   5.398
 1756TIP3   OH2 5208   2.645   4.108   6.507
 1756TIP3    H1 5209   2.603   4.031   6.547
 1756TIP3    H2 5210   2.721   4.125   6.563
 1757TIP3   OH2 5211   7.714   3.418   1.865
 1757TIP3    H1 5212   7.657   3.370   1.925
 1757TIP3    H2 5213   7.664   3.424   1.784
 1758TIP3   OH2 5214   4.257   2.113   1.763
 1758TIP3    H1 5215   4.273   2.036   1.817
 1758TIP3    H2 5216   4.192   2.164   1.811
 1759TIP3   OH2 5217   1.819   5.309   5.817
 1759TIP3    H1 5218   1.865   5.341   5.895
 1759TIP3    H2 5219   1.741   5.364   5.812
 1760TIP3   OH2 5220   2.665   0.484   0.619
 1760TIP3    H1 5221   2.636   0.567   0.655
 1760TIP3    H2 5222   2.748   0.505   0.575
 1761TIP3   OH2 5223   1.631   6.286   4.049
 1761TIP3    H1 5224   1.547   6.268   4.008
 1761TIP3    H2 5225   1.676   6.346   3.990
 1762TIP3   OH2 5226   2.613   0.761   6.099
 1762TIP3    H1 5227   2.605   0.743   6.193
 1762TIP3    H2 5228   2.702   0.793   6.088
 1763TIP3   OH2 5229   4.123   3.261   6.512
 1763TIP3    H1 5230   4.063   3.187   6.525
 1763TIP3    H2 5231   4.068   3.338   6.523
 1764TIP3   OH2 5232   8.334   5.260   2.901
 1764TIP3    H1 5233   8.291   5.255   2.986
 1764TIP3    H2 5234   8.331   5.352   2.878
 1765TIP3   OH2 5235   7.061   6.568   3.700
 1765TIP3    H1 5236   6.976   6.524   3.707
 1765TIP3    H2 5237   7.104   6.524   3.626
 1766TIP3   OH2 5238   2.483   5.208   5.815
 1766TIP3    H1 5239   2.534   5.287   5.798
 1766TIP3    H2 5240   2.411   5.212   5.752
 1767TIP3   OH2 5241   4.219   4.801   0.523
 1767TIP3    H1 5242   4.132   4.838   0.509
 1767TIP3    H2 5243   4.203   4.708   0.539
 1768TIP3   OH2 5244   3.338   2.482   0.342
 1768TIP3    H1 5245   3.376   2.551   0.288
 1768TIP3    H2 5246   3.269   2.444   0.287
 1769TIP3   OH2 5247   7.508   6.590   4.315
 1769TIP3    H1 5248   7.481   6.568   4.226
 1769TIP3    H2 5249   7.591   6.636   4.305
 1770TIP3   OH2 5250   4.421   6.043   6.398
 1770TIP3    H1 5251   4.458   5.968   6.444
 1770TIP3    H2 5252   4.447   6.030   6.307
 1771TIP3   OH2 5253   3.317   3.313   1.405
 1771TIP3    H1 5254   3.271   3.255   1.466
 1771TIP3    H2 5255   3.266   3.394   1.407
 1772TIP3   OH2 5256   3.778   5.579   1.416
 1772TIP3    H1 5257   3.769   5.655   1.359
 1772TIP3    H2 5258   3.868   5.549   1.403
 1773TIP3   OH2 5259   1.846   4.821   0.697
 1773TIP3    H1 5260   1.856   4.890   0.763
 1773TIP3    H2 5261   1.753   4.798   0.702
 1774TIP3   OH2 5262   5.564   0.942   4.743
 1774TIP3    H1 5263   5.580   1.021   4.793
 1774TIP3    H2 5264   5.475   0.952   4.709
 1775TIP3   OH2 5265   6.574   6.984   3.008
 1775TIP3    H1 5266   6.569   7.055   2.944
 1775TIP3    H2 5267   6.563   7.027   3.093
 1776TIP3   OH2 5268   6.210   0.249   1.219
 1776TIP3    H1 5269   6.298   0.288   1.220
 1776TIP3    H2 5270   6.193   0.228   1.311
 1777TIP3   OH2 5271   0.230   7.044   2.799
 1777TIP3    H1 5272   0.309   7.043   2.746
 1777TIP3    H2 5273   0.253   6.996   2.878
 1778TIP3   OH2 5274   3.539   6.794   0.430
 1778TIP3    H1 5275   3.484   6.717   0.417
 1778TIP3    H2 5276   3.618   6.776   0.380
 1779TIP3   OH2 5277   1.424   6.514   2.534
 1779TIP3    H1 5278   1.403   6.438   2.588
 1779TIP3    H2 5279   1.513   6.497   2.502
 1780TIP3   OH2 5280   4.493   4.099   2.336
 1780TIP3    H1 5281   4.522   4.034   2.401
 1780TIP3    H2 5282   4.557   4.093   2.266
 1781TIP3   OH2 5283   2.986   6.985   5.540
 1781TIP3    H1 5284   3.060   6.947   5.493
 1781TIP3    H2 5285   2.911   6.973   5.481
 1782TIP3   OH2 5286   3.747   1.516   5.381
 1782TIP3    H1 5287   3.789   1.600   5.398
 1782TIP3    H2 5288   3.791   1.482   5.303
 1783TIP3   OH2 5289   1.271   7.428  -0.025
 1783TIP3    H1 5290   1.283   7.514   0.015
 1783TIP3    H2 5291   1.211   7.382   0.034
 1784TIP3   OH2 5292   6.275   6.241   4.505
 1784TIP3    H1 5293   6.266   6.301   4.431
 1784TIP3    H2 5294   6.318   6.164   4.469
 1785TIP3   OH2 5295   0.666   4.896   2.424
 1785TIP3    H1 5296   0.588   4.848   2.398
 1785TIP3    H2 5297   0.669   4.888   2.519
 1786TIP3   OH2 5298   6.273   3.544   1.749
 1786TIP3    H1 5299   6.331   3.485   1.700
 1786TIP3    H2 5300   6.185   3.524   1.716
 1787TIP3   OH2 5301   1.040   2.076   0.610
 1787TIP3    H1 5302   1.013   2.089   0.519
 1787TIP3    H2 5303   0.962   2.043   0.654
 1788TIP3   OH2 5304   0.766   4.044   5.808
 1788TIP3    H1 5305   0.850   4.042   5.763
 1788TIP3    H2 5306   0.775   4.115   5.872
 1789TIP3   OH2 5307   6.070   4.479   5.314
 1789TIP3    H1 5308   6.052   4.511   5.402
 1789TIP3    H2 5309   6.024   4.540   5.256
 1790TIP3   OH2 5310   2.928   4.476   2.704
 1790TIP3    H1 5311   2.905   4.446   2.792
 1790TIP3    H2 5312   3.000   4.420   2.677
 1791TIP3   OH2 5313   3.968   4.463   0.750
 1791TIP3    H1 5314   3.918   4.390   0.788
 1791TIP3    H2 5315   4.059   4.434   0.752
 1792TIP3   OH2 5316   6.528   3.634   3.243
 1792TIP3    H1 5317   6.444   3.664   3.276
 1792TIP3    H2 5318   6.514   3.542   3.220
 1793TIP3   OH2 5319   4.449   3.657   6.065
 1793TIP3    H1 5320   4.476   3.579   6.017
 1793TIP3    H2 5321   4.451   3.630   6.157
 1794TIP3   OH2 5322   8.164   0.244   6.637
 1794TIP3    H1 5323   8.081   0.290   6.622
 1794TIP3    H2 5324   8.160   0.216   6.728
 1795TIP3   OH2 5325   2.952   6.705   0.307
 1795TIP3    H1 5326   2.864   6.742   0.317
 1795TIP3    H2 5327   2.988   6.704   0.396
 1796TIP3   OH2 5328   0.933   2.047   1.172
 1796TIP3    H1 5329   0.973   1.962   1.191
 1796TIP3    H2 5330   0.839   2.031   1.175
 1797TIP3   OH2 5331   4.472   0.210   2.134
 1797TIP3    H1 5332   4.455   0.218   2.227
 1797TIP3    H2 5333   4.525   0.130   2.125
 1798TIP3   OH2 5334   4.342   3.762   2.342
 1798TIP3    H1 5335   4.253   3.739   2.369
 1798TIP3    H2 5336   4.373   3.686   2.293
 1799TIP3   OH2 5337   2.103   7.194   4.127
 1799TIP3    H1 5338   2.174   7.227   4.182
 1799TIP3    H2 5339   2.084   7.266   4.067
 1800TIP3   OH2 5340   5.844   4.714   3.346
 1800TIP3    H1 5341   5.774   4.756   3.295
 1800TIP3    H2 5342   5.902   4.676   3.280
 1801TIP3   OH2 5343   6.650   7.766   6.645
 1801TIP3    H1 5344   6.654   7.860   6.630
 1801TIP3    H2 5345   6.682   7.728   6.563
 1802TIP3   OH2 5346   3.544   2.771   3.619
 1802TIP3    H1 5347   3.606   2.709   3.582
 1802TIP3    H2 5348   3.579   2.857   3.594
 1803TIP3   OH2 5349   4.831   4.236   4.454
 1803TIP3    H1 5350   4.851   4.254   4.363
 1803TIP3    H2 5351   4.889   4.163   4.478
 1804TIP3   OH2 5352   0.742   1.948   4.062
 1804TIP3    H1 5353   0.682   1.980   3.995
 1804TIP3    H2 5354   0.700   1.971   4.145
 1805TIP3   OH2 5355   2.860   3.648   6.477
 1805TIP3    H1 5356   2.898   3.566   6.510
 1805TIP3    H2 5357   2.855   3.705   6.553
 1806TIP3   OH2 5358   4.861   4.031   3.714
 1806TIP3    H1 5359   4.953   4.049   3.734
 1806TIP3    H2 5360   4.818   4.027   3.799
 1807TIP3   OH2 5361   3.733   7.394   1.622
 1807TIP3    H1 5362   3.776   7.312   1.602
 1807TIP3    H2 5363   3.802   7.450   1.658
 1808TIP3   OH2 5364   8.337   2.704   5.982
 1808TIP3    H1 5365   8.341   2.632   5.920
 1808TIP3    H2 5366   8.425   2.741   5.982
 1809TIP3   OH2 5367   5.420   5.688   1.287
 1809TIP3    H1 5368   5.364   5.666   1.213
 1809TIP3    H2 5369   5.360   5.707   1.359
 1810TIP3   OH2 5370   6.199   7.768   6.631
 1810TIP3    H1 5371   6.220   7.861   6.640
 1810TIP3    H2 5372   6.275   7.723   6.668
 1811TIP3   OH2 5373   6.019   2.280   6.120
 1811TIP3    H1 5374   5.958   2.214   6.088
 1811TIP3    H2 5375   6.104   2.251   6.086
 1812TIP3   OH2 5376   1.923   2.956   3.551
 1812TIP3    H1 5377   1.949   2.979   3.641
 1812TIP3    H2 5378   1.840   2.911   3.562
 1813TIP3   OH2 5379   0.337   4.224   0.824
 1813TIP3    H1 5380   0.316   4.316   0.808
 1813TIP3    H2 5381   0.303   4.178   0.748
 1814TIP3   OH2 5382   0.318   5.268   5.484
 1814TIP3    H1 5383   0.347   5.240   5.397
 1814TIP3    H2 5384   0.382   5.334   5.511
 1815TIP3   OH2 5385   4.957   0.554   6.511
 1815TIP3    H1 5386   4.971   0.528   6.602
 1815TIP3    H2 5387   4.862   0.566   6.503
 1816TIP3   OH2 5388   6.966   0.727   1.650
 1816TIP3    H1 5389   7.051   0.685   1.663
 1816TIP3    H2 5390   6.918   0.709   1.731
 1817TIP3   OH2 5391   5.933   3.450   0.265
 1817TIP3    H1 5392   5.885   3.446   0.348
 1817TIP3    H2 5393   5.943   3.359   0.238
 1818TIP3   OH2 5394   7.613   6.990   4.216
 1818TIP3    H1 5395   7.571   6.928   4.276
 1818TIP3    H2 5396   7.545   7.052   4.193
 1819TIP3   OH2 5397   3.192   6.698   4.732
 1819TIP3    H1 5398   3.223   6.617   4.774
 1819TIP3    H2 5399   3.267   6.758   4.739
 1820TIP3   OH2 5400   3.601   6.958   0.626
 1820TIP3    H1 5401   3.566   6.925   0.543
 1820TIP3    H2 5402   3.612   6.879   0.679
 1821TIP3   OH2 5403   2.044   6.026   0.891
 1821TIP3    H1 5404   1.991   5.995   0.964
 1821TIP3    H2 5405   2.052   5.951   0.832
 1822TIP3   OH2 5406   6.369   3.647   4.151
 1822TIP3    H1 5407   6.401   3.654   4.062
 1822TIP3    H2 5408   6.356   3.553   4.166
 1823TIP3   OH2 5409   1.407   5.259   3.117
 1823TIP3    H1 5410   1.499   5.255   3.143
 1823TIP3    H2 5411   1.403   5.205   3.037
 1824TIP3   OH2 5412   4.995   7.018   5.301
 1824TIP3    H1 5413   4.977   7.055   5.387
 1824TIP3    H2 5414   4.912   7.026   5.254
 1825TIP3   OH2 5415   6.756   4.826   2.253
 1825TIP3    H1 5416   6.781   4.787   2.169
 1825TIP3    H2 5417   6.672   4.868   2.236
 1826TIP3   OH2 5418   2.633   3.204   5.425
 1826TIP3    H1 5419   2.645   3.110   5.406
 1826TIP3    H2 5420   2.669   3.248   5.348
 1827TIP3   OH2 5421   4.516   7.258   0.191
 1827TIP3    H1 5422   4.489   7.184   0.245
 1827TIP3    H2 5423   4.607   7.237   0.166
 1828TIP3   OH2 5424   2.463   0.603   3.685
 1828TIP3    H1 5425   2.479   0.555   3.766
 1828TIP3    H2 5426   2.463   0.536   3.617
 1829TIP3   OH2 5427   7.970   0.709   0.585
 1829TIP3    H1 5428   7.951   0.702   0.491
 1829TIP3    H2 5429   8.025   0.787   0.592
 1830TIP3   OH2 5430   5.752   2.073   6.311
 1830TIP3    H1 5431   5.749   2.003   6.375
 1830TIP3    H2 5432   5.798   2.036   6.236
 1831TIP3   OH2 5433   5.004   6.981   1.574
 1831TIP3    H1 5434   5.061   7.052   1.602
 1831TIP3    H2 5435   5.018   6.912   1.640
 1832TIP3   OH2 5436   3.226   2.297   0.525
 1832TIP3    H1 5437   3.262   2.373   0.480
 1832TIP3    H2 5438   3.214   2.231   0.456
 1833TIP3   OH2 5439   2.299   4.876   3.398
 1833TIP3    H1 5440   2.348   4.801   3.434
 1833TIP3    H2 5441   2.301   4.862   3.303
 1834TIP3   OH2 5442   3.206   5.797   6.358
 1834TIP3    H1 5443   3.204   5.763   6.448
 1834TIP3    H2 5444   3.135   5.751   6.314
 1835TIP3   OH2 5445   1.203   0.757   4.383
 1835TIP3    H1 5446   1.272   0.708   4.337
 1835TIP3    H2 5447   1.131   0.695   4.390
 1836TIP3   OH2 5448   0.231   5.671   0.368
 1836TIP3    H1 5449   0.147   5.672   0.413
 1836TIP3    H2 5450   0.227   5.595   0.310
 1837TIP3   OH2 5451   0.316   3.778   6.104
 1837TIP3    H1 5452   0.371   3.790   6.182
 1837TIP3    H2 5453   0.234   3.744   6.138
 1838TIP3   OH2 5454   6.512   6.574   4.377
 1838TIP3    H1 5455   6.493   6.559   4.284
 1838TIP3    H2 5456   6.591   6.629   4.375
 1839TIP3   OH2 5457   4.067   3.287   3.972
 1839TIP3    H1 5458   4.030   3.284   4.060
 1839TIP3    H2 5459   4.130   3.214   3.970
 1840TIP3   OH2 5460   2.084   2.489   1.612
 1840TIP3    H1 5461   2.116   2.579   1.605
 1840TIP3    H2 5462   2.100   2.464   1.703
 1841TIP3   OH2 5463   7.269   4.615   5.761
 1841TIP3    H1 5464   7.242   4.539   5.709
 1841TIP3    H2 5465   7.206   4.683   5.738
 1842TIP3   OH2 5466   4.470   2.921   1.263
 1842TIP3    H1 5467   4.544   2.970   1.298
 1842TIP3    H2 5468   4.393   2.963   1.301
 1843TIP3   OH2 5469   0.659   0.806   5.018
 1843TIP3    H1 5470   0.629   0.881   4.967
 1843TIP3    H2 5471   0.648   0.833   5.109
 1844TIP3   OH2 5472   1.280   6.030   6.461
 1844TIP3    H1 5473   1.304   6.028   6.368
 1844TIP3    H2 5474   1.185   6.013   6.461
 1845TIP3   OH2 5475   3.963   5.966   2.176
 1845TIP3    H1 5476   3.996   5.945   2.088
 1845TIP3    H2 5477   3.943   6.060   2.171
 1846TIP3   OH2 5478   0.291   5.167   6.724
 1846TIP3    H1 5479   0.270   5.226   6.796
 1846TIP3    H2 5480   0.268   5.216   6.645
 1847TIP3   OH2 5481   3.537   1.151   3.448
 1847TIP3    H1 5482   3.597   1.079   3.425
 1847TIP3    H2 5483   3.533   1.149   3.544
 1848TIP3   OH2 5484   0.461   6.654   2.607
 1848TIP3    H1 5485   0.472   6.563   2.636
 1848TIP3    H2 5486   0.534   6.701   2.647
 1849TIP3   OH2 5487   2.532   2.490   0.792
 1849TIP3    H1 5488   2.482   2.457   0.717
 1849TIP3    H2 5489   2.576   2.568   0.759
 1850TIP3   OH2 5490   5.924   0.101   2.406
 1850TIP3    H1 5491   5.949   0.134   2.492
 1850TIP3    H2 5492   5.901   0.180   2.356
 1851TIP3   OH2 5493   3.765   2.190   2.714
 1851TIP3    H1 5494   3.809   2.106   2.722
 1851TIP3    H2 5495   3.728   2.190   2.626
 1852TIP3   OH2 5496   5.782   0.127   5.855
 1852TIP3    H1 5497   5.702   0.178   5.869
 1852TIP3    H2 5498   5.752   0.036   5.853
 1853TIP3   OH2 5499   7.621   6.370   3.563
 1853TIP3    H1 5500   7.665   6.389   3.480
 1853TIP3    H2 5501   7.656   6.434   3.625
 1854TIP3   OH2 5502   3.472   6.563   6.746
 1854TIP3    H1 5503   3.387   6.519   6.741
 1854TIP3    H2 5504   3.532   6.505   6.699
 1855TIP3   OH2 5505   4.220   3.098   3.354
 1855TIP3    H1 5506   4.269   3.165   3.401
 1855TIP3    H2 5507   4.288   3.043   3.314
 1856TIP3   OH2 5508  -0.011   0.919   1.687
 1856TIP3    H1 5509   0.082   0.937   1.699
 1856TIP3    H2 5510  -0.016   0.824   1.678
 1857TIP3   OH2 5511   0.706   5.897   4.017
 1857TIP3    H1 5512   0.644   5.929   4.082
 1857TIP3    H2 5513   0.669   5.815   3.986
 1858TIP3   OH2 5514   1.241   7.577   3.738
 1858TIP3    H1 5515   1.225   7.663   3.776
 1858TIP3    H2 5516   1.207   7.515   3.803
 1859TIP3   OH2 5517   2.505   4.632   0.388
 1859TIP3    H1 5518   2.544   4.568   0.447
 1859TIP3    H2 5519   2.410   4.621   0.399
 1860TIP3   OH2 5520   8.032   5.658   4.073
 1860TIP3    H1 5521   7.939   5.671   4.054
 1860TIP3    H2 5522   8.041   5.680   4.166
 1861TIP3   OH2 5523   0.433   7.161   0.574
 1861TIP3    H1 5524   0.416   7.254   0.586
 1861TIP3    H2 5525   0.346   7.121   0.564
 1862TIP3   OH2 5526   3.462   5.241   6.766
 1862TIP3    H1 5527   3.370   5.249   6.792
 1862TIP3    H2 5528   3.459   5.217   6.673
 1863TIP3   OH2 5529   3.431   4.802   0.261
 1863TIP3    H1 5530   3.521   4.835   0.255
 1863TIP3    H2 5531   3.439   4.708   0.246
 1864TIP3   OH2 5532   1.456   6.343   5.998
 1864TIP3    H1 5533   1.390   6.278   5.976
 1864TIP3    H2 5534   1.431   6.421   5.948
 1865TIP3   OH2 5535   4.069   2.908   4.081
 1865TIP3    H1 5536   4.085   2.833   4.023
 1865TIP3    H2 5537   4.086   2.875   4.169
 1866TIP3   OH2 5538   5.873   0.397   1.038
 1866TIP3    H1 5539   5.872   0.491   1.022
 1866TIP3    H2 5540   5.781   0.375   1.055
 1867TIP3   OH2 5541   7.953   1.787   5.732
 1867TIP3    H1 5542   7.990   1.700   5.747
 1867TIP3    H2 5543   7.950   1.795   5.636
 1868TIP3   OH2 5544   7.957   1.158   0.632
 1868TIP3    H1 5545   8.012   1.194   0.563
 1868TIP3    H2 5546   7.987   1.068   0.643
 1869TIP3   OH2 5547   5.679   6.577   5.194
 1869TIP3    H1 5548   5.718   6.517   5.257
 1869TIP3    H2 5549   5.598   6.607   5.236
 1870TIP3   OH2 5550   2.039   3.163   1.071
 1870TIP3    H1 5551   1.982   3.169   0.994
 1870TIP3    H2 5552   2.108   3.227   1.056
 1871TIP3   OH2 5553   4.583   0.550   4.247
 1871TIP3    H1 5554   4.603   0.643   4.258
 1871TIP3    H2 5555   4.667   0.509   4.227
 1872TIP3   OH2 5556   4.631   0.208   4.166
 1872TIP3    H1 5557   4.560   0.144   4.172
 1872TIP3    H2 5558   4.630   0.254   4.250
 1873TIP3   OH2 5559   1.603   1.789   1.413
 1873TIP3    H1 5560   1.594   1.836   1.496
 1873TIP3    H2 5561   1.672   1.837   1.366
 1874TIP3   OH2 5562   4.014   0.324   2.617
 1874TIP3    H1 5563   3.932   0.344   2.571
 1874TIP3    H2 5564   4.056   0.409   2.628
 1875TIP3   OH2 5565   2.766   5.344   3.333
 1875TIP3    H1 5566   2.794   5.253   3.321
 1875TIP3    H2 5567   2.842   5.387   3.373
 1876TIP3   OH2 5568   5.706   5.338   2.669
 1876TIP3    H1 5569   5.713   5.277   2.742
 1876TIP3    H2 5570   5.774   5.310   2.608
 1877TIP3   OH2 5571   7.963   5.169   5.356
 1877TIP3    H1 5572   7.975   5.091   5.410
 1877TIP3    H2 5573   8.011   5.151   5.275
 1878TIP3   OH2 5574   6.854   7.444   5.582
 1878TIP3    H1 5575   6.944   7.437   5.614
 1878TIP3    H2 5576   6.849   7.382   5.509
 1879TIP3   OH2 5577   4.944   7.241   2.067
 1879TIP3    H1 5578   4.968   7.273   1.980
 1879TIP3    H2 5579   4.941   7.320   2.121
 1880TIP3   OH2 5580   8.071   2.037   1.828
 1880TIP3    H1 5581   7.986   2.054   1.868
 1880TIP3    H2 5582   8.097   2.121   1.790
 1881TIP3   OH2 5583   0.580   5.665   4.533
 1881TIP3    H1 5584   0.565   5.647   4.626
 1881TIP3    H2 5585   0.618   5.583   4.500
 1882TIP3   OH2 5586   4.744   4.561   6.754
 1882TIP3    H1 5587   4.794   4.541   6.675
 1882TIP3    H2 5588   4.705   4.647   6.737
 1883TIP3   OH2 5589   1.600   0.195   0.578
 1883TIP3    H1 5590   1.540   0.240   0.638
 1883TIP3    H2 5591   1.558   0.201   0.493
 1884TIP3   OH2 5592   4.211   6.750   0.792
 1884TIP3    H1 5593   4.229   6.682   0.857
 1884TIP3    H2 5594   4.209   6.831   0.842
 1885TIP3   OH2 5595   5.916   0.405   2.438
 1885TIP3    H1 5596   6.007   0.421   2.463
 1885TIP3    H2 5597   5.911   0.433   2.347
 1886TIP3   OH2 5598   0.191   6.405   4.559
 1886TIP3    H1 5599   0.139   6.481   4.584
 1886TIP3    H2 5600   0.280   6.439   4.547
 1887TIP3   OH2 5601   4.542   0.941   6.527
 1887TIP3    H1 5602   4.633   0.920   6.506
 1887TIP3    H2 5603   4.524   0.890   6.607
 1888TIP3   OH2 5604   0.685   2.387   1.568
 1888TIP3    H1 5605   0.620   2.455   1.547
 1888TIP3    H2 5606   0.746   2.430   1.628
 1889TIP3   OH2 5607   6.897   4.179   4.061
 1889TIP3    H1 5608   6.812   4.220   4.046
 1889TIP3    H2 5609   6.918   4.202   4.152
 1890TIP3   OH2 5610   4.501   2.701   4.201
 1890TIP3    H1 5611   4.440   2.646   4.250
 1890TIP3    H2 5612   4.456   2.720   4.119
 1891TIP3   OH2 5613   5.052   3.163   1.638
 1891TIP3    H1 5614   5.078   3.249   1.604
 1891TIP3    H2 5615   5.069   3.102   1.566
 1892TIP3   OH2 5616   2.631   0.994   6.261
 1892TIP3    H1 5617   2.597   1.046   6.189
 1892TIP3    H2 5618   2.707   0.948   6.224
 1893TIP3   OH2 5619   3.550   5.269   1.270
 1893TIP3    H1 5620   3.539   5.360   1.240
 1893TIP3    H2 5621   3.565   5.277   1.364
 1894TIP3   OH2 5622   5.141   6.724   4.651
 1894TIP3    H1 5623   5.176   6.672   4.578
 1894TIP3    H2 5624   5.218   6.744   4.704
 1895TIP3   OH2 5625   1.870   6.408   4.446
 1895TIP3    H1 5626   1.958   6.438   4.465
 1895TIP3    H2 5627   1.877   6.369   4.358
 1896TIP3   OH2 5628   1.600   5.558   1.383
 1896TIP3    H1 5629   1.575   5.610   1.307
 1896TIP3    H2 5630   1.540   5.484   1.382
 1897TIP3   OH2 5631   5.294   0.493   4.079
 1897TIP3    H1 5632   5.267   0.401   4.080
 1897TIP3    H2 5633   5.295   0.519   4.171
 1898TIP3   OH2 5634   5.733   4.540   6.827
 1898TIP3    H1 5635   5.653   4.524   6.776
 1898TIP3    H2 5636   5.770   4.620   6.789
 1899TIP3   OH2 5637   6.978   2.240   3.330
 1899TIP3    H1 5638   7.044   2.175   3.352
 1899TIP3    H2 5639   6.941   2.209   3.247
 1900TIP3   OH2 5640   8.012   1.484   1.465
 1900TIP3    H1 5641   8.092   1.503   1.514
 1900TIP3    H2 5642   7.993   1.564   1.417
 1901TIP3   OH2 5643   4.026   4.888   4.085
 1901TIP3    H1 5644   4.119   4.884   4.108
 1901TIP3    H2 5645   3.995   4.968   4.129
 1902TIP3   OH2 5646   0.927   5.611   4.488
 1902TIP3    H1 5647   0.882   5.535   4.524
 1902TIP3    H2 5648   0.904   5.611   4.395
 1903TIP3   OH2 5649   7.063   7.887   3.343
 1903TIP3    H1 5650   7.101   7.836   3.415
 1903TIP3    H2 5651   7.131   7.948   3.317
 1904TIP3   OH2 5652   1.748   5.891   2.948
 1904TIP3    H1 5653   1.748   5.986   2.939
 1904TIP3    H2 5654   1.776   5.858   2.863
 1905TIP3   OH2 5655   3.884   6.961   2.025
 1905TIP3    H1 5656   3.840   6.952   2.110
 1905TIP3    H2 5657   3.832   6.909   1.965
 1906TIP3   OH2 5658   7.729   0.491   2.954
 1906TIP3    H1 5659   7.740   0.404   2.992
 1906TIP3    H2 5660   7.709   0.475   2.862
 1907TIP3   OH2 5661   6.763   5.219   1.894
 1907TIP3    H1 5662   6.775   5.129   1.865
 1907TIP3    H2 5663   6.815   5.271   1.833
 1908TIP3   OH2 5664   7.285   2.541   3.854
 1908TIP3    H1 5665   7.374   2.539   3.888
 1908TIP3    H2 5666   7.295   2.531   3.759
 1909TIP3   OH2 5667   4.948   2.300   4.684
 1909TIP3    H1 5668   4.893   2.231   4.721
 1909TIP3    H2 5669   4.887   2.367   4.654
 1910TIP3   OH2 5670   3.953   3.059   4.434
 1910TIP3    H1 5671   3.978   2.968   4.421
 1910TIP3    H2 5672   3.905   3.060   4.516
 1911TIP3   OH2 5673   6.277   5.070   0.318
 1911TIP3    H1 5674   6.251   5.132   0.250
 1911TIP3    H2 5675   6.263   5.117   0.400
 1912TIP3   OH2 5676   3.470   1.955   4.977
 1912TIP3    H1 5677   3.514   1.877   4.944
 1912TIP3    H2 5678   3.506   2.027   4.926
 1913TIP3   OH2 5679   5.266   2.992   1.952
 1913TIP3    H1 5680   5.197   3.057   1.942
 1913TIP3    H2 5681   5.255   2.959   2.041
 1914TIP3   OH2 5682   4.163   7.695   6.721
 1914TIP3    H1 5683   4.084   7.709   6.670
 1914TIP3    H2 5684   4.141   7.622   6.779
 1915TIP3   OH2 5685   3.677   3.404   4.999
 1915TIP3    H1 5686   3.746   3.460   4.963
 1915TIP3    H2 5687   3.598   3.430   4.950
 1916TIP3   OH2 5688   3.686   7.388   0.075
 1916TIP3    H1 5689   3.626   7.381   0.001
 1916TIP3    H2 5690   3.765   7.343   0.047
 1917TIP3   OH2 5691   6.289   0.679   4.607
 1917TIP3    H1 5692   6.248   0.735   4.541
 1917TIP3    H2 5693   6.288   0.592   4.568
 1918TIP3   OH2 5694   0.283   4.479   2.551
 1918TIP3    H1 5695   0.314   4.421   2.481
 1918TIP3    H2 5696   0.199   4.513   2.518
 1919TIP3   OH2 5697   7.712   5.684   2.251
 1919TIP3    H1 5698   7.722   5.595   2.284
 1919TIP3    H2 5699   7.801   5.714   2.234
 1920TIP3   OH2 5700   1.410   6.763   1.111
 1920TIP3    H1 5701   1.439   6.674   1.092
 1920TIP3    H2 5702   1.486   6.805   1.152
 1921TIP3   OH2 5703   6.663   0.154   3.226
 1921TIP3    H1 5704   6.739   0.148   3.284
 1921TIP3    H2 5705   6.691   0.111   3.145
 1922TIP3   OH2 5706   7.984   4.963   5.554
 1922TIP3    H1 5707   8.071   4.998   5.576
 1922TIP3    H2 5708   7.938   4.960   5.638
 1923TIP3   OH2 5709   0.200   7.057   0.033
 1923TIP3    H1 5710   0.113   7.091   0.055
 1923TIP3    H2 5711   0.227   7.109  -0.042
 1924TIP3   OH2 5712   6.770   2.335   3.500
 1924TIP3    H1 5713   6.725   2.265   3.549
 1924TIP3    H2 5714   6.701   2.397   3.477
 1925TIP3   OH2 5715   5.675   1.440   2.942
 1925TIP3    H1 5716   5.655   1.347   2.946
 1925TIP3    H2 5717   5.753   1.446   2.886
 1926TIP3   OH2 5718   4.167   6.148   5.392
 1926TIP3    H1 5719   4.235   6.210   5.368
 1926TIP3    H2 5720   4.121   6.189   5.465
 1927TIP3   OH2 5721   2.931   1.794   0.769
 1927TIP3    H1 5722   2.914   1.887   0.757
 1927TIP3    H2 5723   2.978   1.767   0.690
 1928TIP3   OH2 5724   5.375   4.742   2.097
 1928TIP3    H1 5725   5.281   4.730   2.083
 1928TIP3    H2 5726   5.390   4.716   2.188
 1929TIP3   OH2 5727   5.545   7.692   0.658
 1929TIP3    H1 5728   5.498   7.763   0.703
 1929TIP3    H2 5729   5.519   7.701   0.566
 1930TIP3   OH2 5730   5.766   4.546   6.401
 1930TIP3    H1 5731   5.709   4.518   6.472
 1930TIP3    H2 5732   5.738   4.494   6.325
 1931TIP3   OH2 5733   4.841   2.497   1.836
 1931TIP3    H1 5734   4.870   2.441   1.908
 1931TIP3    H2 5735   4.825   2.582   1.876
 1932TIP3   OH2 5736   7.725   4.367   3.024
 1932TIP3    H1 5737   7.815   4.376   2.993
 1932TIP3    H2 5738   7.703   4.453   3.058
 1933TIP3   OH2 5739   3.061   2.984   4.341
 1933TIP3    H1 5740   3.102   3.021   4.263
 1933TIP3    H2 5741   3.121   3.006   4.413
 1934TIP3   OH2 5742   1.973   3.656   5.836
 1934TIP3    H1 5743   2.004   3.670   5.747
 1934TIP3    H2 5744   2.039   3.697   5.891
 1935TIP3   OH2 5745   3.940   7.802   6.615
 1935TIP3    H1 5746   3.946   7.893   6.586
 1935TIP3    H2 5747   3.884   7.760   6.550
 1936TIP3   OH2 5748   6.249   1.857   0.626
 1936TIP3    H1 5749   6.169   1.889   0.667
 1936TIP3    H2 5750   6.224   1.774   0.586
 1937TIP3   OH2 5751   6.380   3.364   2.552
 1937TIP3    H1 5752   6.308   3.306   2.579
 1937TIP3    H2 5753   6.407   3.408   2.633
 1938TIP3   OH2 5754   6.416   6.053   5.136
 1938TIP3    H1 5755   6.397   6.037   5.044
 1938TIP3    H2 5756   6.409   5.967   5.177
 1939TIP3   OH2 5757   8.347   2.870   2.871
 1939TIP3    H1 5758   8.375   2.941   2.814
 1939TIP3    H2 5759   8.374   2.790   2.825
 1940TIP3   OH2 5760   6.054   4.636   6.704
 1940TIP3    H1 5761   6.123   4.683   6.750
 1940TIP3    H2 5762   6.069   4.544   6.727
 1941TIP3   OH2 5763   2.366   3.117   1.830
 1941TIP3    H1 5764   2.300   3.128   1.898
 1941TIP3    H2 5765   2.416   3.040   1.858
 1942TIP3   OH2 5766   5.304   0.871   3.131
 1942TIP3    H1 5767   5.281   0.778   3.126
 1942TIP3    H2 5768   5.221   0.917   3.132
 1943TIP3   OH2 5769   6.716   1.204   1.211
 1943TIP3    H1 5770   6.717   1.115   1.247
 1943TIP3    H2 5771   6.628   1.237   1.231
 1944TIP3   OH2 5772   0.575   2.982   5.464
 1944TIP3    H1 5773   0.622   2.970   5.381
 1944TIP3    H2 5774   0.558   3.076   5.468
 1945TIP3   OH2 5775   7.405   3.986   4.850
 1945TIP3    H1 5776   7.389   3.918   4.785
 1945TIP3    H2 5777   7.402   3.940   4.934
 1946TIP3   OH2 5778   8.187   7.275   5.532
 1946TIP3    H1 5779   8.238   7.304   5.608
 1946TIP3    H2 5780   8.119   7.341   5.523
 1947TIP3   OH2 5781   1.305   6.140   0.749
 1947TIP3    H1 5782   1.294   6.125   0.655
 1947TIP3    H2 5783   1.217   6.130   0.785
 1948TIP3   OH2 5784   8.306   0.458   2.146
 1948TIP3    H1 5785   8.329   0.550   2.160
 1948TIP3    H2 5786   8.384   0.420   2.104
 1949TIP3   OH2 5787   6.896   5.509   2.193
 1949TIP3    H1 5788   6.823   5.451   2.214
 1949TIP3    H2 5789   6.863   5.563   2.121
 1950TIP3   OH2 5790   1.404   4.774   4.826
 1950TIP3    H1 5791   1.426   4.708   4.760
 1950TIP3    H2 5792   1.310   4.787   4.816
 1951TIP3   OH2 5793   2.012   3.890   1.167
 1951TIP3    H1 5794   1.940   3.921   1.222
 1951TIP3    H2 5795   2.065   3.968   1.149
 1952TIP3   OH2 5796   5.728   1.787   2.294
 1952TIP3    H1 5797   5.660   1.778   2.228
 1952TIP3    H2 5798   5.730   1.880   2.315
 1953TIP3   OH2 5799   0.087   5.356   0.992
 1953TIP3    H1 5800   0.134   5.378   1.072
 1953TIP3    H2 5801   0.030   5.431   0.976
 1954TIP3   OH2 5802   5.652   5.594   4.227
 1954TIP3    H1 5803   5.585   5.589   4.295
 1954TIP3    H2 5804   5.676   5.503   4.210
 1955TIP3   OH2 5805   0.026   2.275   5.157
 1955TIP3    H1 5806  -0.060   2.255   5.119
 1955TIP3    H2 5807   0.056   2.352   5.109
 1956TIP3   OH2 5808   2.440   7.054   3.152
 1956TIP3    H1 5809   2.404   7.110   3.221
 1956TIP3    H2 5810   2.364   7.023   3.103
 1957TIP3   OH2 5811   4.018   0.929   5.039
 1957TIP3    H1 5812   4.104   0.940   5.000
 1957TIP3    H2 5813   4.035   0.885   5.123
 1958TIP3   OH2 5814   6.178   1.091   0.143
 1958TIP3    H1 5815   6.147   1.059   0.058
 1958TIP3    H2 5816   6.098   1.106   0.194
 1959TIP3   OH2 5817   1.605   0.103   2.969
 1959TIP3    H1 5818   1.578   0.163   3.039
 1959TIP3    H2 5819   1.592   0.153   2.889
 1960TIP3   OH2 5820   6.838   3.887   4.953
 1960TIP3    H1 5821   6.893   3.938   4.894
 1960TIP3    H2 5822   6.766   3.946   4.977
 1961TIP3   OH2 5823   7.118   1.098   5.323
 1961TIP3    H1 5824   7.099   1.071   5.414
 1961TIP3    H2 5825   7.213   1.098   5.318
 1962TIP3   OH2 5826   4.404   3.198   4.521
 1962TIP3    H1 5827   4.442   3.163   4.440
 1962TIP3    H2 5828   4.442   3.286   4.530
 1963TIP3   OH2 5829   0.736   0.524   1.331
 1963TIP3    H1 5830   0.643   0.521   1.310
 1963TIP3    H2 5831   0.759   0.432   1.348
 1964TIP3   OH2 5832   2.277   5.301   2.923
 1964TIP3    H1 5833   2.312   5.233   2.981
 1964TIP3    H2 5834   2.333   5.377   2.938
 1965TIP3   OH2 5835   8.072   6.057   1.615
 1965TIP3    H1 5836   8.047   5.969   1.642
 1965TIP3    H2 5837   8.105   6.099   1.694
 1966TIP3   OH2 5838   7.067   0.552   5.961
 1966TIP3    H1 5839   7.024   0.500   5.893
 1966TIP3    H2 5840   6.997   0.571   6.024
 1967TIP3   OH2 5841   6.196   2.488  -0.036
 1967TIP3    H1 5842   6.265   2.457   0.022
 1967TIP3    H2 5843   6.160   2.565   0.008
 1968TIP3   OH2 5844   0.810   3.254   0.789
 1968TIP3    H1 5845   0.856   3.320   0.737
 1968TIP3    H2 5846   0.847   3.171   0.761
 1969TIP3   OH2 5847   7.028   6.949   0.350
 1969TIP3    H1 5848   7.077   6.891   0.291
 1969TIP3    H2 5849   6.936   6.929   0.332
 1970TIP3   OH2 5850   5.134   1.697   1.411
 1970TIP3    H1 5851   5.174   1.696   1.324
 1970TIP3    H2 5852   5.205   1.670   1.470
 1971TIP3   OH2 5853   7.445   7.710   1.360
 1971TIP3    H1 5854   7.383   7.768   1.315
 1971TIP3    H2 5855   7.421   7.718   1.453
 1972TIP3   OH2 5856   4.537   0.930   5.779
 1972TIP3    H1 5857   4.573   0.948   5.692
 1972TIP3    H2 5858   4.613   0.935   5.837
 1973TIP3   OH2 5859   4.456   1.252   5.062
 1973TIP3    H1 5860   4.453   1.345   5.084
 1973TIP3    H2 5861   4.378   1.239   5.007
 1974TIP3   OH2 5862   6.659   2.152   2.855
 1974TIP3    H1 5863   6.647   2.212   2.781
 1974TIP3    H2 5864   6.702   2.206   2.922
 1975TIP3   OH2 5865   2.018   7.316   3.152
 1975TIP3    H1 5866   2.054   7.243   3.203
 1975TIP3    H2 5867   1.949   7.275   3.098
 1976TIP3   OH2 5868   4.487   2.473   1.785
 1976TIP3    H1 5869   4.543   2.442   1.856
 1976TIP3    H2 5870   4.474   2.397   1.729
 1977TIP3   OH2 5871   0.890   6.645   3.033
 1977TIP3    H1 5872   0.945   6.568   3.051
 1977TIP3    H2 5873   0.901   6.661   2.940
 1978TIP3   OH2 5874   2.947   2.266   6.433
 1978TIP3    H1 5875   2.908   2.281   6.347
 1978TIP3    H2 5876   2.998   2.346   6.450
 1979TIP3   OH2 5877   2.606   7.950   1.325
 1979TIP3    H1 5878   2.697   7.929   1.304
 1979TIP3    H2 5879   2.557   7.874   1.295
 1980TIP3   OH2 5880   6.496   7.510   2.929
 1980TIP3    H1 5881   6.435   7.491   3.000
 1980TIP3    H2 5882   6.465   7.592   2.891
 1981TIP3   OH2 5883   8.353   5.127   5.236
 1981TIP3    H1 5884   8.397   5.079   5.306
 1981TIP3    H2 5885   8.308   5.060   5.185
 1982TIP3   OH2 5886   0.929   2.174   2.716
 1982TIP3    H1 5887   0.910   2.228   2.793
 1982TIP3    H2 5888   1.020   2.193   2.695
 1983TIP3   OH2 5889   1.879   4.073   0.515
 1983TIP3    H1 5890   1.821   4.081   0.438
 1983TIP3    H2 5891   1.938   4.148   0.508
 1984TIP3   OH2 5892   0.105   0.196   3.748
 1984TIP3    H1 5893   0.156   0.246   3.812
 1984TIP3    H2 5894   0.133   0.231   3.663
 1985TIP3   OH2 5895   1.947   4.319   1.997
 1985TIP3    H1 5896   1.857   4.339   2.023
 1985TIP3    H2 5897   1.997   4.321   2.079
 1986TIP3   OH2 5898   6.469   6.971   2.487
 1986TIP3    H1 5899   6.462   6.920   2.406
 1986TIP3    H2 5900   6.434   7.057   2.465
 1987TIP3   OH2 5901   1.804   2.149   1.492
 1987TIP3    H1 5902   1.767   2.101   1.418
 1987TIP3    H2 5903   1.894   2.116   1.500
 1988TIP3   OH2 5904   6.917   1.246   6.405
 1988TIP3    H1 5905   6.964   1.163   6.407
 1988TIP3    H2 5906   6.887   1.258   6.495
 1989TIP3   OH2 5907   3.705   4.820   5.260
 1989TIP3    H1 5908   3.699   4.875   5.182
 1989TIP3    H2 5909   3.614   4.800   5.282
 1990TIP3   OH2 5910   5.229   1.167   0.088
 1990TIP3    H1 5911   5.297   1.235   0.094
 1990TIP3    H2 5912   5.200   1.171  -0.003
 1991TIP3   OH2 5913   0.665   3.167   1.684
 1991TIP3    H1 5914   0.574   3.192   1.675
 1991TIP3    H2 5915   0.711   3.249   1.705
 1992TIP3   OH2 5916   7.690   7.764   4.068
 1992TIP3    H1 5917   7.644   7.825   4.010
 1992TIP3    H2 5918   7.777   7.802   4.078
 1993TIP3   OH2 5919   7.181   2.768   3.508
 1993TIP3    H1 5920   7.262   2.814   3.487
 1993TIP3    H2 5921   7.119   2.796   3.441
 1994TIP3   OH2 5922   6.906   0.586   1.022
 1994TIP3    H1 5923   6.993   0.549   1.008
 1994TIP3    H2 5924   6.912   0.677   0.993
 1995TIP3   OH2 5925   7.848   5.907   0.057
 1995TIP3    H1 5926   7.829   6.000   0.044
 1995TIP3    H2 5927   7.943   5.900   0.047
 1996TIP3   OH2 5928   1.130   0.638   3.474
 1996TIP3    H1 5929   1.180   0.716   3.453
 1996TIP3    H2 5930   1.183   0.565   3.440
 1997TIP3   OH2 5931   5.259   7.580   5.112
 1997TIP3    H1 5932   5.303   7.624   5.039
 1997TIP3    H2 5933   5.258   7.645   5.182
 1998TIP3   OH2 5934   2.434   1.572   0.768
 1998TIP3    H1 5935   2.417   1.559   0.861
 1998TIP3    H2 5936   2.526   1.549   0.756
 1999TIP3   OH2 5937   7.667   5.101   0.547
 1999TIP3    H1 5938   7.627   5.031   0.494
 1999TIP3    H2 5939   7.594   5.153   0.577
 2000TIP3   OH2 5940   4.159   6.635   1.284
 2000TIP3    H1 5941   4.089   6.699   1.283
 2000TIP3    H2 5942   4.174   6.613   1.192
 2001TIP3   OH2 5943   2.524   5.967   3.858
 2001TIP3    H1 5944   2.485   6.004   3.779
 2001TIP3    H2 5945   2.571   6.040   3.897
 2002TIP3   OH2 5946   2.107   5.076   5.660
 2002TIP3    H1 5947   2.099   4.988   5.624
 2002TIP3    H2 5948   2.023   5.092   5.703
 2003TIP3   OH2 5949   6.522   1.991   3.790
 2003TIP3    H1 5950   6.460   1.945   3.733
 2003TIP3    H2 5951   6.520   1.941   3.872
 2004TIP3   OH2 5952   4.749   7.528   6.450
 2004TIP3    H1 5953   4.681   7.502   6.512
 2004TIP3    H2 5954   4.744   7.623   6.447
 2005TIP3   OH2 5955   4.933   2.251   5.286
 2005TIP3    H1 5956   4.971   2.193   5.220
 2005TIP3    H2 5957   4.868   2.198   5.331
 2006TIP3   OH2 5958   1.877   2.040   3.851
 2006TIP3    H1 5959   1.829   2.000   3.778
 2006TIP3    H2 5960   1.819   2.109   3.883
 2007TIP3   OH2 5961   6.767   0.913   4.543
 2007TIP3    H1 5962   6.776   0.821   4.566
 2007TIP3    H2 5963   6.714   0.913   4.463
 2008TIP3   OH2 5964   4.937   2.659   0.846
 2008TIP3    H1 5965   4.871   2.644   0.914
 2008TIP3    H2 5966   4.976   2.743   0.868
 2009TIP3   OH2 5967   3.874   6.731   0.834
 2009TIP3    H1 5968   3.924   6.787   0.893
 2009TIP3    H2 5969   3.788   6.725   0.873
 2010TIP3   OH2 5970   4.669   5.261   0.610
 2010TIP3    H1 5971   4.609   5.332   0.587
 2010TIP3    H2 5972   4.660   5.198   0.538
 2011TIP3   OH2 5973   0.792   0.822   2.631
 2011TIP3    H1 5974   0.715   0.874   2.607
 2011TIP3    H2 5975   0.768   0.780   2.713
 2012TIP3   OH2 5976   4.711   6.395   3.121
 2012TIP3    H1 5977   4.759   6.384   3.039
 2012TIP3    H2 5978   4.682   6.306   3.143
 2013TIP3   OH2 5979   4.767   6.120   3.258
 2013TIP3    H1 5980   4.685   6.123   3.209
 2013TIP3    H2 5981   4.742   6.136   3.349
 2014TIP3   OH2 5982   5.918   5.107   0.651
 2014TIP3    H1 5983   5.972   5.043   0.697
 2014TIP3    H2 5984   5.895   5.063   0.569
 2015TIP3   OH2 5985   8.178   6.668   4.032
 2015TIP3    H1 5986   8.257   6.635   4.076
 2015TIP3    H2 5987   8.211   6.701   3.948
 2016TIP3   OH2 5988   1.552   0.914   0.379
 2016TIP3    H1 5989   1.612   0.969   0.328
 2016TIP3    H2 5990   1.576   0.824   0.355
 2017TIP3   OH2 5991   8.427   1.753   1.056
 2017TIP3    H1 5992   8.382   1.836   1.038
 2017TIP3    H2 5993   8.356   1.688   1.061
 2018TIP3   OH2 5994   1.519   6.738   1.413
 2018TIP3    H1 5995   1.592   6.779   1.458
 2018TIP3    H2 5996   1.516   6.782   1.328
 2019TIP3   OH2 5997   2.210   0.397   1.557
 2019TIP3    H1 5998   2.151   0.471   1.543
 2019TIP3    H2 5999   2.277   0.407   1.490
 2020TIP3   OH2 6000   2.861   2.905   6.153
 2020TIP3    H1 6001   2.814   2.888   6.072
 2020TIP3    H2 6002   2.843   2.828   6.207
 2021TIP3   OH2 6003   1.259   0.509   6.570
 2021TIP3    H1 6004   1.343   0.492   6.527
 2021TIP3    H2 6005   1.194   0.492   6.502
 2022TIP3   OH2 6006  -0.007   2.402   2.299
 2022TIP3    H1 6007  -0.016   2.482   2.248
 2022TIP3    H2 6008   0.072   2.360   2.265
 2023TIP3   OH2 6009   8.040   0.906   3.825
 2023TIP3    H1 6010   8.039   0.990   3.778
 2023TIP3    H2 6011   7.948   0.890   3.848
 2024TIP3   OH2 6012   6.840   0.275   3.441
 2024TIP3    H1 6013   6.873   0.265   3.530
 2024TIP3    H2 6014   6.917   0.296   3.389
 2025TIP3   OH2 6015   5.951   7.234   1.297
 2025TIP3    H1 6016   6.008   7.227   1.374
 2025TIP3    H2 6017   5.895   7.309   1.315
 2026TIP3   OH2 6018   6.882   4.444   5.467
 2026TIP3    H1 6019   6.816   4.375   5.460
 2026TIP3    H2 6020   6.850   4.514   5.411
 2027TIP3   OH2 6021   6.070   1.258   5.035
 2027TIP3    H1 6022   6.155   1.236   5.073
 2027TIP3    H2 6023   6.063   1.201   4.958
 2028TIP3   OH2 6024   0.639   1.136   1.042
 2028TIP3    H1 6025   0.699   1.140   0.967
 2028TIP3    H2 6026   0.554   1.163   1.006
 2029TIP3   OH2 6027   0.517   5.802   2.879
 2029TIP3    H1 6028   0.591   5.777   2.935
 2029TIP3    H2 6029   0.540   5.888   2.846
 2030TIP3   OH2 6030   3.698   3.098   0.548
 2030TIP3    H1 6031   3.642   3.020   0.543
 2030TIP3    H2 6032   3.725   3.103   0.639
 2031TIP3   OH2 6033   8.316   4.002   2.180
 2031TIP3    H1 6034   8.290   4.001   2.272
 2031TIP3    H2 6035   8.394   3.946   2.176
 2032TIP3   OH2 6036   2.883   4.006   1.181
 2032TIP3    H1 6037   2.899   3.965   1.096
 2032TIP3    H2 6038   2.960   4.060   1.197
 2033TIP3   OH2 6039   5.944   3.767   5.011
 2033TIP3    H1 6040   5.959   3.673   5.026
 2033TIP3    H2 6041   6.025   3.809   5.040
 2034TIP3   OH2 6042   8.351   0.634   2.702
 2034TIP3    H1 6043   8.328   0.670   2.787
 2034TIP3    H2 6044   8.424   0.688   2.671
 2035TIP3   OH2 6045   4.742   6.573   0.658
 2035TIP3    H1 6046   4.684   6.590   0.732
 2035TIP3    H2 6047   4.809   6.514   0.692
 2036TIP3   OH2 6048   8.010   1.194   3.425
 2036TIP3    H1 6049   8.102   1.208   3.450
 2036TIP3    H2 6050   7.994   1.260   3.358
 2037TIP3   OH2 6051   3.148   1.717   2.391
 2037TIP3    H1 6052   3.238   1.707   2.423
 2037TIP3    H2 6053   3.102   1.763   2.462
 2038TIP3   OH2 6054   1.045   0.156   6.630
 2038TIP3    H1 6055   0.957   0.188   6.610
 2038TIP3    H2 6056   1.099   0.186   6.557
 2039TIP3   OH2 6057   3.705   6.399   2.111
 2039TIP3    H1 6058   3.731   6.485   2.143
 2039TIP3    H2 6059   3.690   6.411   2.017
 2040TIP3   OH2 6060   8.283   6.098   2.947
 2040TIP3    H1 6061   8.336   6.055   3.014
 2040TIP3    H2 6062   8.333   6.176   2.923
 2041TIP3   OH2 6063   6.348   1.233   5.105
 2041TIP3    H1 6064   6.399   1.191   5.036
 2041TIP3    H2 6065   6.408   1.239   5.179
 2042TIP3   OH2 6066   5.545   7.824   5.094
 2042TIP3    H1 6067   5.538   7.816   4.999
 2042TIP3    H2 6068   5.604   7.899   5.107
 2043TIP3   OH2 6069   6.586   2.173   3.594
 2043TIP3    H1 6070   6.511   2.158   3.536
 2043TIP3    H2 6071   6.576   2.108   3.663
 2044TIP3   OH2 6072   6.232   5.126   5.177
 2044TIP3    H1 6073   6.182   5.195   5.221
 2044TIP3    H2 6074   6.320   5.134   5.214
 2045TIP3   OH2 6075   3.185   7.415   2.441
 2045TIP3    H1 6076   3.158   7.340   2.387
 2045TIP3    H2 6077   3.215   7.375   2.522
 2046TIP3   OH2 6078   8.043   5.069   4.145
 2046TIP3    H1 6079   8.110   5.114   4.093
 2046TIP3    H2 6080   8.081   5.065   4.233
 2047TIP3   OH2 6081   7.352   6.572   1.263
 2047TIP3    H1 6082   7.338   6.652   1.313
 2047TIP3    H2 6083   7.370   6.505   1.328
 2048TIP3   OH2 6084   7.570   2.206   1.588
 2048TIP3    H1 6085   7.598   2.175   1.502
 2048TIP3    H2 6086   7.650   2.207   1.640
 2049TIP3   OH2 6087   1.628   1.440   6.273
 2049TIP3    H1 6088   1.576   1.360   6.262
 2049TIP3    H2 6089   1.709   1.422   6.226
 2050TIP3   OH2 6090   1.285   3.758   3.882
 2050TIP3    H1 6091   1.339   3.836   3.868
 2050TIP3    H2 6092   1.204   3.776   3.834
 2051TIP3   OH2 6093   1.801   0.480   3.971
 2051TIP3    H1 6094   1.765   0.438   3.892
 2051TIP3    H2 6095   1.895   0.485   3.954
 2052TIP3   OH2 6096   4.634   0.547   3.714
 2052TIP3    H1 6097   4.692   0.478   3.748
 2052TIP3    H2 6098   4.605   0.513   3.629
 2053TIP3   OH2 6099   0.841   1.424   3.258
 2053TIP3    H1 6100   0.867   1.502   3.209
 2053TIP3    H2 6101   0.875   1.351   3.207
 2054TIP3   OH2 6102   3.407   3.422   0.782
 2054TIP3    H1 6103   3.428   3.456   0.869
 2054TIP3    H2 6104   3.489   3.426   0.734
 2055TIP3   OH2 6105   0.835   2.311   2.364
 2055TIP3    H1 6106   0.791   2.231   2.391
 2055TIP3    H2 6107   0.871   2.347   2.445
 2056TIP3   OH2 6108   1.341   4.434   0.192
 2056TIP3    H1 6109   1.315   4.350   0.231
 2056TIP3    H2 6110   1.429   4.450   0.228
 2057TIP3   OH2 6111   0.125   5.447   3.732
 2057TIP3    H1 6112   0.201   5.497   3.703
 2057TIP3    H2 6113   0.065   5.449   3.658
 2058TIP3   OH2 6114   7.701   6.145   5.018
 2058TIP3    H1 6115   7.617   6.174   5.053
 2058TIP3    H2 6116   7.729   6.074   5.076
 2059TIP3   OH2 6117   2.162   4.520   0.111
 2059TIP3    H1 6118   2.253   4.541   0.090
 2059TIP3    H2 6119   2.124   4.493   0.027
 2060TIP3   OH2 6120   5.793   3.590   1.008
 2060TIP3    H1 6121   5.784   3.681   0.978
 2060TIP3    H2 6122   5.841   3.597   1.090
 2061TIP3   OH2 6123   8.378   5.123   0.609
 2061TIP3    H1 6124   8.313   5.153   0.545
 2061TIP3    H2 6125   8.456   5.103   0.557
 2062TIP3   OH2 6126   4.335   5.578   4.371
 2062TIP3    H1 6127   4.413   5.590   4.317
 2062TIP3    H2 6128   4.301   5.667   4.384
 2063TIP3   OH2 6129   4.354   4.207   6.476
 2063TIP3    H1 6130   4.350   4.152   6.398
 2063TIP3    H2 6131   4.307   4.286   6.451
 2064TIP3   OH2 6132   4.509   4.262   3.064
 2064TIP3    H1 6133   4.549   4.227   3.144
 2064TIP3    H2 6134   4.433   4.207   3.049
 2065TIP3   OH2 6135   3.460   3.780   1.007
 2065TIP3    H1 6136   3.382   3.820   1.046
 2065TIP3    H2 6137   3.517   3.760   1.082
 2066TIP3   OH2 6138   8.044   6.368   1.188
 2066TIP3    H1 6139   8.017   6.277   1.177
 2066TIP3    H2 6140   7.965   6.419   1.173
 2067TIP3   OH2 6141   5.923   2.914   0.777
 2067TIP3    H1 6142   6.011   2.902   0.813
 2067TIP3    H2 6143   5.897   2.827   0.748
 2068TIP3   OH2 6144   7.859   4.689   6.555
 2068TIP3    H1 6145   7.830   4.684   6.646
 2068TIP3    H2 6146   7.937   4.634   6.552
 2069TIP3   OH2 6147   8.059   6.185   6.463
 2069TIP3    H1 6148   8.069   6.246   6.536
 2069TIP3    H2 6149   7.996   6.121   6.495
 2070TIP3   OH2 6150   4.361   6.078   3.610
 2070TIP3    H1 6151   4.423   6.056   3.541
 2070TIP3    H2 6152   4.359   6.174   3.611
 2071TIP3   OH2 6153   4.218   0.591   5.045
 2071TIP3    H1 6154   4.266   0.646   5.108
 2071TIP3    H2 6155   4.167   0.654   4.993
 2072TIP3   OH2 6156   4.144   7.937   3.198
 2072TIP3    H1 6157   4.105   7.993   3.131
 2072TIP3    H2 6158   4.197   7.874   3.149
 2073TIP3   OH2 6159   1.329   0.831   6.244
 2073TIP3    H1 6160   1.366   0.752   6.203
 2073TIP3    H2 6161   1.267   0.865   6.180
 2074TIP3   OH2 6162   4.400   3.356   6.528
 2074TIP3    H1 6163   4.403   3.400   6.613
 2074TIP3    H2 6164   4.312   3.318   6.524
 2075TIP3   OH2 6165   5.674   3.357   0.104
 2075TIP3    H1 6166   5.690   3.437   0.154
 2075TIP3    H2 6167   5.638   3.296   0.169
 2076TIP3   OH2 6168   1.120   1.930   3.345
 2076TIP3    H1 6169   1.169   1.911   3.265
 2076TIP3    H2 6170   1.047   1.868   3.344
 2077TIP3   OH2 6171   0.966   6.561   3.581
 2077TIP3    H1 6172   1.035   6.496   3.598
 2077TIP3    H2 6173   0.905   6.517   3.523
 2078TIP3   OH2 6174   7.370   1.564   1.424
 2078TIP3    H1 6175   7.327   1.617   1.490
 2078TIP3    H2 6176   7.442   1.618   1.392
 2079TIP3   OH2 6177   6.292   7.156   4.516
 2079TIP3    H1 6178   6.344   7.156   4.596
 2079TIP3    H2 6179   6.317   7.076   4.471
 2080TIP3   OH2 6180   3.328   6.934   4.708
 2080TIP3    H1 6181   3.388   6.986   4.761
 2080TIP3    H2 6182   3.369   6.930   4.621
 2081TIP3   OH2 6183   6.033   7.015   4.213
 2081TIP3    H1 6184   6.099   6.947   4.221
 2081TIP3    H2 6185   5.950   6.969   4.221
 2082TIP3   OH2 6186   7.734   2.805   5.285
 2082TIP3    H1 6187   7.810   2.768   5.330
 2082TIP3    H2 6188   7.763   2.892   5.257
 2083TIP3   OH2 6189   2.168   5.715   2.090
 2083TIP3    H1 6190   2.187   5.643   2.150
 2083TIP3    H2 6191   2.170   5.675   2.003
 2084TIP3   OH2 6192   2.441   0.678   1.863
 2084TIP3    H1 6193   2.525   0.635   1.848
 2084TIP3    H2 6194   2.377   0.607   1.858
 2085TIP3   OH2 6195   6.949   4.029   2.631
 2085TIP3    H1 6196   6.989   4.096   2.576
 2085TIP3    H2 6197   6.870   4.003   2.583
 2086TIP3   OH2 6198   4.059   5.009   1.365
 2086TIP3    H1 6199   3.974   5.006   1.408
 2086TIP3    H2 6200   4.072   4.920   1.331
 2087TIP3   OH2 6201   4.182   1.490   3.920
 2087TIP3    H1 6202   4.208   1.410   3.965
 2087TIP3    H2 6203   4.088   1.497   3.936
 2088TIP3   OH2 6204   0.455   2.196   2.747
 2088TIP3    H1 6205   0.522   2.254   2.711
 2088TIP3    H2 6206   0.374   2.226   2.707
 2089TIP3   OH2 6207   1.728   5.183   2.544
 2089TIP3    H1 6208   1.736   5.100   2.589
 2089TIP3    H2 6209   1.679   5.163   2.464
 2090TIP3   OH2 6210   7.878   1.002   0.255
 2090TIP3    H1 6211   7.792   0.988   0.294
 2090TIP3    H2 6212   7.890   1.097   0.256
 2091TIP3   OH2 6213   3.857   4.852   0.247
 2091TIP3    H1 6214   3.799   4.926   0.234
 2091TIP3    H2 6215   3.945   4.890   0.252
 2092TIP3   OH2 6216   1.108   4.882   5.757
 2092TIP3    H1 6217   1.012   4.886   5.753
 2092TIP3    H2 6218   1.132   4.951   5.819
 2093TIP3   OH2 6219   0.526   4.102   3.349
 2093TIP3    H1 6220   0.574   4.026   3.382
 2093TIP3    H2 6221   0.577   4.177   3.380
 2094TIP3   OH2 6222   6.553   1.618   3.130
 2094TIP3    H1 6223   6.567   1.711   3.113
 2094TIP3    H2 6224   6.518   1.615   3.219
 2095TIP3   OH2 6225   7.047   0.770   2.671
 2095TIP3    H1 6226   6.979   0.709   2.700
 2095TIP3    H2 6227   7.129   0.721   2.683
 2096TIP3   OH2 6228   7.497   5.807   3.848
 2096TIP3    H1 6229   7.458   5.887   3.884
 2096TIP3    H2 6230   7.455   5.736   3.898
 2097TIP3   OH2 6231   1.145   3.342   5.290
 2097TIP3    H1 6232   1.230   3.298   5.296
 2097TIP3    H2 6233   1.082   3.271   5.289
 2098TIP3   OH2 6234   4.363   2.207   1.003
 2098TIP3    H1 6235   4.320   2.170   1.080
 2098TIP3    H2 6236   4.454   2.179   1.011
 2099TIP3   OH2 6237   4.135   5.384   0.807
 2099TIP3    H1 6238   4.126   5.311   0.746
 2099TIP3    H2 6239   4.045   5.409   0.828
 2100TIP3   OH2 6240   4.976   3.667   5.596
 2100TIP3    H1 6241   5.019   3.599   5.649
 2100TIP3    H2 6242   5.046   3.729   5.576
 2101TIP3   OH2 6243   2.734   0.603   3.662
 2101TIP3    H1 6244   2.770   0.641   3.742
 2101TIP3    H2 6245   2.643   0.630   3.661
 2102TIP3   OH2 6246   1.072   5.109   2.321
 2102TIP3    H1 6247   1.076   5.186   2.378
 2102TIP3    H2 6248   1.129   5.132   2.247
 2103TIP3   OH2 6249   4.151   3.860   3.172
 2103TIP3    H1 6250   4.136   3.768   3.195
 2103TIP3    H2 6251   4.159   3.905   3.256
 2104TIP3   OH2 6252   1.577   5.335   2.311
 2104TIP3    H1 6253   1.594   5.242   2.298
 2104TIP3    H2 6254   1.510   5.356   2.247
 2105TIP3   OH2 6255   1.295   0.029   3.634
 2105TIP3    H1 6256   1.368   0.031   3.572
 2105TIP3    H2 6257   1.333   0.060   3.716
 2106TIP3   OH2 6258   1.495   4.693   1.611
 2106TIP3    H1 6259   1.515   4.604   1.583
 2106TIP3    H2 6260   1.580   4.730   1.635
 2107TIP3   OH2 6261   2.316   4.787   0.052
 2107TIP3    H1 6262   2.253   4.854   0.027
 2107TIP3    H2 6263   2.398   4.813   0.011
 2108TIP3   OH2 6264   5.868   7.302   0.717
 2108TIP3    H1 6265   5.819   7.242   0.660
 2108TIP3    H2 6266   5.804   7.370   0.740
 2109TIP3   OH2 6267   3.452   6.507   0.595
 2109TIP3    H1 6268   3.438   6.433   0.654
 2109TIP3    H2 6269   3.490   6.468   0.516
 2110TIP3   OH2 6270   6.533   7.538   1.288
 2110TIP3    H1 6271   6.518   7.599   1.217
 2110TIP3    H2 6272   6.627   7.541   1.304
 2111TIP3   OH2 6273   3.390   5.101   4.008
 2111TIP3    H1 6274   3.367   5.013   3.978
 2111TIP3    H2 6275   3.484   5.097   4.025
 2112TIP3   OH2 6276   4.949   6.020   2.627
 2112TIP3    H1 6277   4.871   6.074   2.617
 2112TIP3    H2 6278   5.007   6.071   2.683
 2113TIP3   OH2 6279   7.024   6.680   3.431
 2113TIP3    H1 6280   7.082   6.606   3.447
 2113TIP3    H2 6281   7.008   6.718   3.517
 2114TIP3   OH2 6282   1.605   7.804   5.586
 2114TIP3    H1 6283   1.568   7.721   5.556
 2114TIP3    H2 6284   1.531   7.864   5.585
 2115TIP3   OH2 6285   8.212   5.121   5.515
 2115TIP3    H1 6286   8.296   5.151   5.550
 2115TIP3    H2 6287   8.235   5.058   5.447
 2116TIP3   OH2 6288   3.696   7.945   5.650
 2116TIP3    H1 6289   3.748   7.949   5.570
 2116TIP3    H2 6290   3.692   7.851   5.671
 2117TIP3   OH2 6291   5.442   3.207   0.543
 2117TIP3    H1 6292   5.437   3.228   0.636
 2117TIP3    H2 6293   5.414   3.115   0.537
 2118TIP3   OH2 6294   4.137   3.588   3.189
 2118TIP3    H1 6295   4.168   3.515   3.136
 2118TIP3    H2 6296   4.149   3.559   3.279
 2119TIP3   OH2 6297   2.975   2.725   4.256
 2119TIP3    H1 6298   3.006   2.809   4.288
 2119TIP3    H2 6299   3.021   2.712   4.173
 2120TIP3   OH2 6300   4.077   7.162   4.513
 2120TIP3    H1 6301   4.044   7.072   4.510
 2120TIP3    H2 6302   4.001   7.214   4.542
 2121TIP3   OH2 6303   3.884   6.747   0.539
 2121TIP3    H1 6304   3.887   6.726   0.632
 2121TIP3    H2 6305   3.828   6.681   0.501
 2122TIP3   OH2 6306   0.886   1.339   5.528
 2122TIP3    H1 6307   0.803   1.380   5.554
 2122TIP3    H2 6308   0.899   1.366   5.437
 2123TIP3   OH2 6309   7.771   5.342   5.470
 2123TIP3    H1 6310   7.704   5.286   5.429
 2123TIP3    H2 6311   7.854   5.298   5.451
 2124TIP3   OH2 6312   8.306   7.094   3.466
 2124TIP3    H1 6313   8.276   7.070   3.553
 2124TIP3    H2 6314   8.386   7.044   3.453
 2125TIP3   OH2 6315   5.375   3.899   4.211
 2125TIP3    H1 6316   5.328   3.932   4.134
 2125TIP3    H2 6317   5.413   3.816   4.182
 2126TIP3   OH2 6318   0.394   4.757   2.344
 2126TIP3    H1 6319   0.381   4.673   2.300
 2126TIP3    H2 6320   0.389   4.736   2.437
 2127TIP3   OH2 6321   6.174   7.583   4.643
 2127TIP3    H1 6322   6.141   7.639   4.573
 2127TIP3    H2 6323   6.228   7.641   4.697
 2128TIP3   OH2 6324   5.495   6.741   1.335
 2128TIP3    H1 6325   5.491   6.687   1.415
 2128TIP3    H2 6326   5.423   6.804   1.346
 2129TIP3   OH2 6327   4.882   5.010   2.284
 2129TIP3    H1 6328   4.911   4.920   2.297
 2129TIP3    H2 6329   4.956   5.053   2.242
 2130TIP3   OH2 6330   2.582   0.103   2.444
 2130TIP3    H1 6331   2.501   0.148   2.468
 2130TIP3    H2 6332   2.642   0.173   2.419
 2131TIP3   OH2 6333   8.312   3.491   3.567
 2131TIP3    H1 6334   8.230   3.510   3.521
 2131TIP3    H2 6335   8.381   3.513   3.505
 2132TIP3   OH2 6336   7.220   0.169   6.575
 2132TIP3    H1 6337   7.184   0.080   6.579
 2132TIP3    H2 6338   7.307   0.158   6.537
 2133TIP3   OH2 6339   1.334   0.611   5.435
 2133TIP3    H1 6340   1.404   0.547   5.444
 2133TIP3    H2 6341   1.356   0.660   5.356
 2134TIP3   OH2 6342   6.641   7.294   2.298
 2134TIP3    H1 6343   6.548   7.272   2.302
 2134TIP3    H2 6344   6.685   7.216   2.333
 2135TIP3   OH2 6345   2.265   6.160   4.354
 2135TIP3    H1 6346   2.316   6.214   4.294
 2135TIP3    H2 6347   2.196   6.122   4.300
 2136TIP3   OH2 6348   5.767   2.961   4.060
 2136TIP3    H1 6349   5.857   2.985   4.083
 2136TIP3    H2 6350   5.725   2.946   4.145
 2137TIP3   OH2 6351   7.198   6.262   2.368
 2137TIP3    H1 6352   7.228   6.290   2.281
 2137TIP3    H2 6353   7.130   6.326   2.391
 2138TIP3   OH2 6354   5.413   5.165   3.126
 2138TIP3    H1 6355   5.414   5.071   3.141
 2138TIP3    H2 6356   5.492   5.183   3.075
 2139TIP3   OH2 6357   3.157   6.571   6.251
 2139TIP3    H1 6358   3.082   6.630   6.260
 2139TIP3    H2 6359   3.145   6.528   6.167
 2140TIP3   OH2 6360   3.328   6.554   5.488
 2140TIP3    H1 6361   3.412   6.510   5.500
 2140TIP3    H2 6362   3.264   6.482   5.487
 2141TIP3   OH2 6363   5.255   1.203   4.415
 2141TIP3    H1 6364   5.341   1.230   4.448
 2141TIP3    H2 6365   5.270   1.116   4.379
 2142TIP3   OH2 6366   3.864   1.185   2.967
 2142TIP3    H1 6367   3.841   1.093   2.952
 2142TIP3    H2 6368   3.781   1.232   2.961
 2143TIP3   OH2 6369   8.189   2.970   1.235
 2143TIP3    H1 6370   8.280   2.975   1.264
 2143TIP3    H2 6371   8.191   2.912   1.159
 2144TIP3   OH2 6372   2.041   6.760   1.569
 2144TIP3    H1 6373   2.112   6.697   1.557
 2144TIP3    H2 6374   2.079   6.844   1.545
 2145TIP3   OH2 6375   2.135   6.392   1.059
 2145TIP3    H1 6376   2.064   6.444   1.098
 2145TIP3    H2 6377   2.172   6.344   1.133
 2146TIP3   OH2 6378   5.098   4.418   0.116
 2146TIP3    H1 6379   5.015   4.462   0.134
 2146TIP3    H2 6380   5.076   4.350   0.053
 2147TIP3   OH2 6381   6.173   6.499   3.317
 2147TIP3    H1 6382   6.088   6.542   3.320
 2147TIP3    H2 6383   6.237   6.570   3.312
 2148TIP3   OH2 6384   0.029   5.098   3.789
 2148TIP3    H1 6385   0.006   5.013   3.750
 2148TIP3    H2 6386   0.060   5.150   3.714
 2149TIP3   OH2 6387   6.505   0.638   3.102
 2149TIP3    H1 6388   6.570   0.676   3.161
 2149TIP3    H2 6389   6.429   0.620   3.157
 2150TIP3   OH2 6390   3.692   0.127   2.195
 2150TIP3    H1 6391   3.659   0.180   2.122
 2150TIP3    H2 6392   3.613   0.096   2.240
 2151TIP3   OH2 6393   0.330   0.499   5.340
 2151TIP3    H1 6394   0.417   0.522   5.308
 2151TIP3    H2 6395   0.342   0.413   5.382
 2152TIP3   OH2 6396   2.631   6.133   4.295
 2152TIP3    H1 6397   2.680   6.172   4.367
 2152TIP3    H2 6398   2.554   6.189   4.284
 2153TIP3   OH2 6399   3.354   1.694   4.407
 2153TIP3    H1 6400   3.385   1.677   4.496
 2153TIP3    H2 6401   3.307   1.615   4.383
 2154TIP3   OH2 6402   4.294   7.422   1.269
 2154TIP3    H1 6403   4.199   7.430   1.279
 2154TIP3    H2 6404   4.329   7.502   1.308
 2155TIP3   OH2 6405   3.137   1.014   6.030
 2155TIP3    H1 6406   3.088   1.036   6.109
 2155TIP3    H2 6407   3.224   1.051   6.043
 2156TIP3   OH2 6408   7.848   3.529   3.959
 2156TIP3    H1 6409   7.929   3.479   3.965
 2156TIP3    H2 6410   7.821   3.542   4.050
 2157TIP3   OH2 6411   7.266   0.013   1.191
 2157TIP3    H1 6412   7.313  -0.057   1.238
 2157TIP3    H2 6413   7.276   0.090   1.246
 2158TIP3   OH2 6414   4.478   3.188   3.467
 2158TIP3    H1 6415   4.470   3.283   3.458
 2158TIP3    H2 6416   4.571   3.171   3.457
 2159TIP3   OH2 6417   0.921   3.571   3.958
 2159TIP3    H1 6418   0.972   3.649   3.981
 2159TIP3    H2 6419   0.832   3.604   3.944
 2160TIP3   OH2 6420   4.182   5.182   3.399
 2160TIP3    H1 6421   4.239   5.156   3.472
 2160TIP3    H2 6422   4.159   5.273   3.418
 2161TIP3   OH2 6423   8.295   3.922   3.216
 2161TIP3    H1 6424   8.362   3.884   3.274
 2161TIP3    H2 6425   8.219   3.934   3.273
 2162TIP3   OH2 6426   7.714   5.185   0.067
 2162TIP3    H1 6427   7.796   5.137   0.055
 2162TIP3    H2 6428   7.704   5.236  -0.014
 2163TIP3   OH2 6429   6.547   1.907   1.439
 2163TIP3    H1 6430   6.518   1.817   1.427
 2163TIP3    H2 6431   6.628   1.913   1.388
 2164TIP3   OH2 6432   2.016   6.601   3.846
 2164TIP3    H1 6433   1.972   6.599   3.931
 2164TIP3    H2 6434   2.070   6.680   3.849
 2165TIP3   OH2 6435   5.464   4.335   6.303
 2165TIP3    H1 6436   5.434   4.285   6.379
 2165TIP3    H2 6437   5.410   4.414   6.304
 2166TIP3   OH2 6438   2.966   6.635   3.132
 2166TIP3    H1 6439   2.991   6.715   3.086
 2166TIP3    H2 6440   2.945   6.664   3.221
 2167TIP3   OH2 6441   2.040   0.069   0.373
 2167TIP3    H1 6442   2.052   0.024   0.290
 2167TIP3    H2 6443   2.113   0.131   0.378
 2168TIP3   OH2 6444   4.604   3.166   2.432
 2168TIP3    H1 6445   4.663   3.091   2.441
 2168TIP3    H2 6446   4.591   3.197   2.522
 2169TIP3   OH2 6447   4.024   5.833   6.498
 2169TIP3    H1 6448   4.111   5.795   6.504
 2169TIP3    H2 6449   3.969   5.762   6.464
 2170TIP3   OH2 6450   6.731   2.269   0.800
 2170TIP3    H1 6451   6.825   2.270   0.818
 2170TIP3    H2 6452   6.718   2.334   0.731
 2171TIP3   OH2 6453   6.743   0.288   6.005
 2171TIP3    H1 6454   6.817   0.337   6.042
 2171TIP3    H2 6455   6.693   0.259   6.081
 2172TIP3   OH2 6456   0.314   4.636   6.415
 2172TIP3    H1 6457   0.404   4.666   6.407
 2172TIP3    H2 6458   0.261   4.716   6.419
 2173TIP3   OH2 6459   0.186   5.055   0.450
 2173TIP3    H1 6460   0.167   5.089   0.363
 2173TIP3    H2 6461   0.263   5.103   0.479
 2174TIP3   OH2 6462   8.017   6.431   3.720
 2174TIP3    H1 6463   8.062   6.470   3.645
 2174TIP3    H2 6464   8.009   6.503   3.783
 2175TIP3   OH2 6465   2.507   0.297   6.027
 2175TIP3    H1 6466   2.440   0.295   6.094
 2175TIP3    H2 6467   2.484   0.371   5.972
 2176TIP3   OH2 6468   0.526   7.518   6.392
 2176TIP3    H1 6469   0.519   7.433   6.349
 2176TIP3    H2 6470   0.619   7.527   6.413
 2177TIP3   OH2 6471   5.752   2.522   2.953
 2177TIP3    H1 6472   5.706   2.567   3.024
 2177TIP3    H2 6473   5.823   2.582   2.929
 2178TIP3   OH2 6474   2.435   5.340   4.860
 2178TIP3    H1 6475   2.434   5.411   4.924
 2178TIP3    H2 6476   2.439   5.260   4.913
 2179TIP3   OH2 6477   5.671   2.373   0.599
 2179TIP3    H1 6478   5.581   2.347   0.578
 2179TIP3    H2 6479   5.670   2.391   0.692
 2180TIP3   OH2 6480   1.765   7.901   2.897
 2180TIP3    H1 6481   1.728   7.932   2.815
 2180TIP3    H2 6482   1.695   7.910   2.961
 2181TIP3   OH2 6483   2.985   3.090   6.629
 2181TIP3    H1 6484   2.895   3.075   6.656
 2181TIP3    H2 6485   2.980   3.107   6.535
 2182TIP3   OH2 6486   6.675   0.996   5.872
 2182TIP3    H1 6487   6.668   0.943   5.793
 2182TIP3    H2 6488   6.591   0.982   5.918
 2183TIP3   OH2 6489   4.048   2.617   3.480
 2183TIP3    H1 6490   4.100   2.599   3.558
 2183TIP3    H2 6491   4.044   2.713   3.475
 2184TIP3   OH2 6492   1.486   3.517   3.084
 2184TIP3    H1 6493   1.442   3.597   3.057
 2184TIP3    H2 6494   1.570   3.519   3.040
 2185TIP3   OH2 6495   3.928   3.602   0.669
 2185TIP3    H1 6496   3.847   3.653   0.672
 2185TIP3    H2 6497   3.995   3.660   0.706
 2186TIP3   OH2 6498   4.043   0.309   0.452
 2186TIP3    H1 6499   4.065   0.386   0.400
 2186TIP3    H2 6500   4.048   0.236   0.390
 2187TIP3   OH2 6501   3.021   6.112   6.509
 2187TIP3    H1 6502   2.958   6.088   6.442
 2187TIP3    H2 6503   3.083   6.169   6.465
 2188TIP3   OH2 6504   3.542   1.111   4.054
 2188TIP3    H1 6505   3.462   1.163   4.046
 2188TIP3    H2 6506   3.518   1.026   4.017
 2189TIP3   OH2 6507   6.204   1.261   2.157
 2189TIP3    H1 6508   6.116   1.233   2.180
 2189TIP3    H2 6509   6.205   1.260   2.061
 2190TIP3   OH2 6510   0.270   3.509   4.495
 2190TIP3    H1 6511   0.233   3.596   4.508
 2190TIP3    H2 6512   0.365   3.523   4.492
 2191TIP3   OH2 6513   6.983   6.620   4.539
 2191TIP3    H1 6514   6.942   6.540   4.573
 2191TIP3    H2 6515   6.909   6.679   4.522
 2192TIP3   OH2 6516   4.223   2.980   1.028
 2192TIP3    H1 6517   4.287   2.933   0.974
 2192TIP3    H2 6518   4.240   3.072   1.011
 2193TIP3   OH2 6519   5.647   3.028   1.629
 2193TIP3    H1 6520   5.599   3.035   1.712
 2193TIP3    H2 6521   5.579   3.028   1.562
 2194TIP3   OH2 6522   8.215   2.569   6.419
 2194TIP3    H1 6523   8.194   2.485   6.459
 2194TIP3    H2 6524   8.304   2.558   6.386
 2195TIP3   OH2 6525   1.965   0.527   6.355
 2195TIP3    H1 6526   1.940   0.607   6.401
 2195TIP3    H2 6527   1.958   0.549   6.262
 2196TIP3   OH2 6528   3.335   3.847   4.225
 2196TIP3    H1 6529   3.343   3.757   4.255
 2196TIP3    H2 6530   3.406   3.857   4.161
 2197TIP3   OH2 6531   4.181   2.302   2.673
 2197TIP3    H1 6532   4.237   2.368   2.715
 2197TIP3    H2 6533   4.092   2.332   2.691
 2198TIP3   OH2 6534   5.693   1.935   1.401
 2198TIP3    H1 6535   5.758   1.886   1.351
 2198TIP3    H2 6536   5.622   1.951   1.339
 2199TIP3   OH2 6537   5.181   5.177   0.294
 2199TIP3    H1 6538   5.107   5.231   0.265
 2199TIP3    H2 6539   5.210   5.217   0.376
 2200TIP3   OH2 6540   2.323   0.983   6.693
 2200TIP3    H1 6541   2.314   0.994   6.598
 2200TIP3    H2 6542   2.331   0.889   6.705
 2201TIP3   OH2 6543   5.998   2.856   2.109
 2201TIP3    H1 6544   5.997   2.942   2.151
 2201TIP3    H2 6545   6.074   2.859   2.050
 2202TIP3   OH2 6546   0.261   0.761   3.741
 2202TIP3    H1 6547   0.296   0.807   3.665
 2202TIP3    H2 6548   0.300   0.673   3.736
 2203TIP3   OH2 6549   5.148   1.623   2.502
 2203TIP3    H1 6550   5.139   1.602   2.594
 2203TIP3    H2 6551   5.234   1.588   2.477
 2204TIP3   OH2 6552   5.598   6.912   4.469
 2204TIP3    H1 6553   5.505   6.911   4.446
 2204TIP3    H2 6554   5.605   6.857   4.547
 2205TIP3   OH2 6555   4.797   4.581   1.634
 2205TIP3    H1 6556   4.800   4.532   1.552
 2205TIP3    H2 6557   4.717   4.633   1.627
 2206TIP3   OH2 6558   6.618   6.862   1.399
 2206TIP3    H1 6559   6.687   6.928   1.398
 2206TIP3    H2 6560   6.574   6.872   1.314
 2207TIP3   OH2 6561   6.602   5.958   5.411
 2207TIP3    H1 6562   6.599   5.878   5.360
 2207TIP3    H2 6563   6.529   5.951   5.472
 2208TIP3   OH2 6564   1.462   3.892   2.120
 2208TIP3    H1 6565   1.530   3.875   2.186
 2208TIP3    H2 6566   1.380   3.891   2.170
 2209TIP3   OH2 6567   6.564   5.850   6.325
 2209TIP3    H1 6568   6.498   5.903   6.281
 2209TIP3    H2 6569   6.631   5.834   6.258
 2210TIP3   OH2 6570   1.061   4.802   0.867
 2210TIP3    H1 6571   1.139   4.806   0.811
 2210TIP3    H2 6572   1.091   4.833   0.952
 2211TIP3   OH2 6573   3.739   3.201   6.633
 2211TIP3    H1 6574   3.675   3.214   6.563
 2211TIP3    H2 6575   3.690   3.158   6.703
 2212TIP3   OH2 6576   3.273   7.823   1.980
 2212TIP3    H1 6577   3.279   7.868   2.064
 2212TIP3    H2 6578   3.362   7.826   1.945
 2213TIP3   OH2 6579   1.397   3.691   4.640
 2213TIP3    H1 6580   1.482   3.732   4.625
 2213TIP3    H2 6581   1.390   3.685   4.735
 2214TIP3   OH2 6582   4.719   4.969   6.490
 2214TIP3    H1 6583   4.781   5.041   6.501
 2214TIP3    H2 6584   4.774   4.891   6.488
 2215TIP3   OH2 6585   0.397   4.430   5.929
 2215TIP3    H1 6586   0.438   4.516   5.924
 2215TIP3    H2 6587   0.366   4.423   6.019
 2216TIP3   OH2 6588   3.853   3.624   0.127
 2216TIP3    H1 6589   3.884   3.538   0.156
 2216TIP3    H2 6590   3.838   3.613   0.033
 2217TIP3   OH2 6591   0.326   5.164   4.559
 2217TIP3    H1 6592   0.252   5.144   4.502
 2217TIP3    H2 6593   0.372   5.235   4.515
 2218TIP3   OH2 6594   4.728   5.810   0.056
 2218TIP3    H1 6595   4.635   5.790   0.061
 2218TIP3    H2 6596   4.751   5.799  -0.036
 2219TIP3   OH2 6597   1.523   4.254   3.398
 2219TIP3    H1 6598   1.572   4.309   3.458
 2219TIP3    H2 6599   1.589   4.205   3.350
 2220TIP3   OH2 6600   6.538   4.380   3.506
 2220TIP3    H1 6601   6.552   4.354   3.597
 2220TIP3    H2 6602   6.543   4.298   3.457
 2221TIP3   OH2 6603   6.059   4.409   4.329
 2221TIP3    H1 6604   6.134   4.463   4.302
 2221TIP3    H2 6605   6.004   4.404   4.250
 2222TIP3   OH2 6606   3.696   3.708   4.572
 2222TIP3    H1 6607   3.786   3.735   4.554
 2222TIP3    H2 6608   3.693   3.616   4.549
 2223TIP3   OH2 6609   0.079   7.042   4.674
 2223TIP3    H1 6610   0.054   7.085   4.756
 2223TIP3    H2 6611   0.139   7.105   4.632
 2224TIP3   OH2 6612   7.067   1.368   6.733
 2224TIP3    H1 6613   7.089   1.442   6.789
 2224TIP3    H2 6614   7.103   1.391   6.647
 2225TIP3   OH2 6615   1.941   5.427   4.186
 2225TIP3    H1 6616   1.882   5.502   4.193
 2225TIP3    H2 6617   1.964   5.405   4.276
 2226TIP3   OH2 6618   5.259   6.443   3.633
 2226TIP3    H1 6619   5.204   6.485   3.566
 2226TIP3    H2 6620   5.348   6.452   3.600
 2227TIP3   OH2 6621   4.980   0.639   0.686
 2227TIP3    H1 6622   4.950   0.657   0.775
 2227TIP3    H2 6623   5.028   0.556   0.693
 2228TIP3   OH2 6624   6.928   2.641   2.161
 2228TIP3    H1 6625   7.010   2.592   2.170
 2228TIP3    H2 6626   6.955   2.732   2.156
 2229TIP3   OH2 6627   5.673   2.030   2.034
 2229TIP3    H1 6628   5.707   2.107   1.989
 2229TIP3    H2 6629   5.727   2.022   2.113
 2230TIP3   OH2 6630   8.045   6.638   5.161
 2230TIP3    H1 6631   8.017   6.642   5.252
 2230TIP3    H2 6632   8.018   6.722   5.124
 2231TIP3   OH2 6633   5.588   3.400   2.147
 2231TIP3    H1 6634   5.500   3.437   2.153
 2231TIP3    H2 6635   5.646   3.475   2.160
 2232TIP3   OH2 6636   6.014   4.211   1.674
 2232TIP3    H1 6637   5.960   4.267   1.730
 2232TIP3    H2 6638   5.964   4.201   1.594
 2233TIP3   OH2 6639   5.666   5.202   1.126
 2233TIP3    H1 6640   5.722   5.226   1.052
 2233TIP3    H2 6641   5.634   5.115   1.104
 2234TIP3   OH2 6642   1.411   5.401   6.651
 2234TIP3    H1 6643   1.383   5.360   6.733
 2234TIP3    H2 6644   1.505   5.383   6.646
 2235TIP3   OH2 6645   6.151   5.996   0.161
 2235TIP3    H1 6646   6.059   6.017   0.171
 2235TIP3    H2 6647   6.154   5.900   0.154
 2236TIP3   OH2 6648   6.436   1.449   4.682
 2236TIP3    H1 6649   6.503   1.381   4.681
 2236TIP3    H2 6650   6.356   1.404   4.708
 2237TIP3   OH2 6651   1.321   4.812   0.457
 2237TIP3    H1 6652   1.298   4.861   0.535
 2237TIP3    H2 6653   1.252   4.747   0.448
 2238TIP3   OH2 6654   2.444   7.529   4.961
 2238TIP3    H1 6655   2.357   7.549   4.926
 2238TIP3    H2 6656   2.492   7.611   4.956
 2239TIP3   OH2 6657   6.803   6.213   0.237
 2239TIP3    H1 6658   6.816   6.304   0.209
 2239TIP3    H2 6659   6.749   6.220   0.315
 2240TIP3   OH2 6660   8.436   4.092   6.424
 2240TIP3    H1 6661   8.527   4.101   6.394
 2240TIP3    H2 6662   8.385   4.082   6.344
 2241TIP3   OH2 6663   0.573   5.719   2.070
 2241TIP3    H1 6664   0.545   5.644   2.018
 2241TIP3    H2 6665   0.492   5.756   2.105
 2242TIP3   OH2 6666   1.373   5.602   5.534
 2242TIP3    H1 6667   1.317   5.571   5.605
 2242TIP3    H2 6668   1.410   5.684   5.567
 2243TIP3   OH2 6669   7.361   5.779   6.727
 2243TIP3    H1 6670   7.353   5.721   6.803
 2243TIP3    H2 6671   7.270   5.799   6.703
 2244TIP3   OH2 6672   5.101   3.071   4.593
 2244TIP3    H1 6673   5.082   3.059   4.500
 2244TIP3    H2 6674   5.176   3.132   4.594
 2245TIP3   OH2 6675   2.905   1.375   5.736
 2245TIP3    H1 6676   2.891   1.360   5.642
 2245TIP3    H2 6677   2.960   1.302   5.764
 2246TIP3   OH2 6678   1.650   6.971   2.466
 2246TIP3    H1 6679   1.655   6.972   2.370
 2246TIP3    H2 6680   1.727   6.922   2.494
 2247TIP3   OH2 6681   6.398   1.287   3.044
 2247TIP3    H1 6682   6.460   1.299   3.116
 2247TIP3    H2 6683   6.328   1.350   3.062
 2248TIP3   OH2 6684   7.167   0.430   1.013
 2248TIP3    H1 6685   7.241   0.373   1.035
 2248TIP3    H2 6686   7.186   0.512   1.057
 2249TIP3   OH2 6687   2.590   6.134   5.925
 2249TIP3    H1 6688   2.603   6.125   5.830
 2249TIP3    H2 6689   2.669   6.178   5.956
 2250TIP3   OH2 6690   5.782   6.430   6.417
 2250TIP3    H1 6691   5.842   6.359   6.443
 2250TIP3    H2 6692   5.769   6.480   6.498
 2251TIP3   OH2 6693   4.317   3.452   6.768
 2251TIP3    H1 6694   4.269   3.383   6.815
 2251TIP3    H2 6695   4.272   3.533   6.790
 2252TIP3   OH2 6696   3.293   7.503   4.445
 2252TIP3    H1 6697   3.205   7.514   4.479
 2252TIP3    H2 6698   3.317   7.590   4.413
 2253TIP3   OH2 6699   4.750   1.799   2.891
 2253TIP3    H1 6700   4.773   1.884   2.926
 2253TIP3    H2 6701   4.812   1.738   2.931
 2254TIP3   OH2 6702   6.110   7.653   0.340
 2254TIP3    H1 6703   6.090   7.560   0.325
 2254TIP3    H2 6704   6.112   7.691   0.252
 2255TIP3   OH2 6705   5.187   3.854   3.964
 2255TIP3    H1 6706   5.171   3.771   3.918
 2255TIP3    H2 6707   5.169   3.922   3.898
 2256TIP3   OH2 6708   7.318   2.044   2.704
 2256TIP3    H1 6709   7.283   2.106   2.768
 2256TIP3    H2 6710   7.326   1.962   2.751
 2257TIP3   OH2 6711   5.730   1.515   4.791
 2257TIP3    H1 6712   5.773   1.499   4.875
 2257TIP3    H2 6713   5.794   1.567   4.741
 2258TIP3   OH2 6714   1.908   4.559   2.378
 2258TIP3    H1 6715   1.968   4.542   2.451
 2258TIP3    H2 6716   1.879   4.649   2.391
 2259TIP3   OH2 6717   7.438   0.969   1.171
 2259TIP3    H1 6718   7.395   1.029   1.233
 2259TIP3    H2 6719   7.513   0.936   1.220
 2260TIP3   OH2 6720   7.321   5.992   2.115
 2260TIP3    H1 6721   7.413   5.994   2.089
 2260TIP3    H2 6722   7.292   6.083   2.111
 2261TIP3   OH2 6723   7.673   3.428   3.766
 2261TIP3    H1 6724   7.742   3.448   3.830
 2261TIP3    H2 6725   7.668   3.332   3.766
 2262TIP3   OH2 6726   0.235   0.037   1.214
 2262TIP3    H1 6727   0.223   0.121   1.170
 2262TIP3    H2 6728   0.146   0.004   1.227
 2263TIP3   OH2 6729   4.245   2.327   2.420
 2263TIP3    H1 6730   4.206   2.333   2.508
 2263TIP3    H2 6731   4.322   2.273   2.432
 2264TIP3   OH2 6732   5.419   1.047   3.779
 2264TIP3    H1 6733   5.489   1.103   3.747
 2264TIP3    H2 6734   5.352   1.107   3.812
 2265TIP3   OH2 6735   1.787   6.590   2.476
 2265TIP3    H1 6736   1.757   6.529   2.409
 2265TIP3    H2 6737   1.814   6.668   2.426
 2266TIP3   OH2 6738   4.393   7.143   4.593
 2266TIP3    H1 6739   4.363   7.052   4.591
 2266TIP3    H2 6740   4.313   7.195   4.596
 2267TIP3   OH2 6741   3.864   3.784   4.791
 2267TIP3    H1 6742   3.906   3.766   4.875
 2267TIP3    H2 6743   3.809   3.708   4.774
 2268TIP3   OH2 6744   5.145   6.223   4.611
 2268TIP3    H1 6745   5.165   6.203   4.703
 2268TIP3    H2 6746   5.214   6.179   4.561
 2269TIP3   OH2 6747   4.635   1.380   1.121
 2269TIP3    H1 6748   4.682   1.403   1.041
 2269TIP3    H2 6749   4.701   1.335   1.174
 2270TIP3   OH2 6750   2.613   4.644   2.430
 2270TIP3    H1 6751   2.689   4.592   2.402
 2270TIP3    H2 6752   2.610   4.717   2.368
 2271TIP3   OH2 6753   5.418   4.643   6.280
 2271TIP3    H1 6754   5.382   4.655   6.368
 2271TIP3    H2 6755   5.368   4.702   6.225
 2272TIP3   OH2 6756   3.053   1.084   6.540
 2272TIP3    H1 6757   3.089   1.056   6.456
 2272TIP3    H2 6758   3.028   1.002   6.583
 2273TIP3   OH2 6759   6.008   3.299   4.177
 2273TIP3    H1 6760   5.913   3.284   4.181
 2273TIP3    H2 6761   6.031   3.284   4.086
 2274TIP3   OH2 6762   6.002   6.073   0.504
 2274TIP3    H1 6763   6.040   6.124   0.576
 2274TIP3    H2 6764   6.030   6.120   0.425
 2275TIP3   OH2 6765   4.067   0.176   6.726
 2275TIP3    H1 6766   4.123   0.238   6.772
 2275TIP3    H2 6767   4.027   0.124   6.795
 2276TIP3   OH2 6768   6.294   3.789   2.722
 2276TIP3    H1 6769   6.307   3.883   2.732
 2276TIP3    H2 6770   6.215   3.781   2.669
 2277TIP3   OH2 6771   6.021   6.293   5.348
 2277TIP3    H1 6772   6.055   6.265   5.263
 2277TIP3    H2 6773   6.099   6.305   5.402
 2278TIP3   OH2 6774   6.987   2.768   6.264
 2278TIP3    H1 6775   7.070   2.797   6.301
 2278TIP3    H2 6776   6.931   2.754   6.340
 2279TIP3   OH2 6777   3.226   6.076   0.263
 2279TIP3    H1 6778   3.306   6.122   0.237
 2279TIP3    H2 6779   3.216   6.096   0.357
 2280TIP3   OH2 6780   5.943   2.616   0.190
 2280TIP3    H1 6781   5.977   2.661   0.267
 2280TIP3    H2 6782   5.938   2.524   0.216
 2281TIP3   OH2 6783   0.289   7.062   5.222
 2281TIP3    H1 6784   0.345   7.088   5.295
 2281TIP3    H2 6785   0.208   7.113   5.234
 2282TIP3   OH2 6786   8.196   0.241   2.844
 2282TIP3    H1 6787   8.166   0.303   2.778
 2282TIP3    H2 6788   8.267   0.193   2.802
 2283TIP3   OH2 6789   2.520   6.097   0.574
 2283TIP3    H1 6790   2.604   6.077   0.533
 2283TIP3    H2 6791   2.486   6.011   0.600
 2284TIP3   OH2 6792   3.645   2.525   0.654
 2284TIP3    H1 6793   3.737   2.519   0.680
 2284TIP3    H2 6794   3.629   2.619   0.645
 2285TIP3   OH2 6795   7.923   3.000   5.178
 2285TIP3    H1 6796   7.995   2.947   5.142
 2285TIP3    H2 6797   7.960   3.087   5.187
 2286TIP3   OH2 6798   0.993   3.620   4.278
 2286TIP3    H1 6799   0.954   3.655   4.198
 2286TIP3    H2 6800   1.086   3.613   4.258
 2287TIP3   OH2 6801   4.174   6.537   4.826
 2287TIP3    H1 6802   4.173   6.627   4.795
 2287TIP3    H2 6803   4.239   6.493   4.771
 2288TIP3   OH2 6804   8.170   1.506   2.893
 2288TIP3    H1 6805   8.117   1.576   2.855
 2288TIP3    H2 6806   8.146   1.428   2.842
 2289TIP3   OH2 6807   6.424   3.823   6.075
 2289TIP3    H1 6808   6.344   3.785   6.039
 2289TIP3    H2 6809   6.406   3.916   6.083
 2290TIP3   OH2 6810   0.255   4.896   5.059
 2290TIP3    H1 6811   0.250   4.801   5.044
 2290TIP3    H2 6812   0.181   4.932   5.010
 2291TIP3   OH2 6813   4.744   4.795   2.718
 2291TIP3    H1 6814   4.690   4.797   2.640
 2291TIP3    H2 6815   4.803   4.720   2.705
 2292TIP3   OH2 6816   7.830   4.012   5.185
 2292TIP3    H1 6817   7.881   4.039   5.109
 2292TIP3    H2 6818   7.885   4.033   5.261
 2293TIP3   OH2 6819   5.407   1.874   5.394
 2293TIP3    H1 6820   5.502   1.875   5.380
 2293TIP3    H2 6821   5.383   1.965   5.407
 2294TIP3   OH2 6822   7.251   2.644   4.140
 2294TIP3    H1 6823   7.252   2.740   4.138
 2294TIP3    H2 6824   7.254   2.619   4.047
 2295TIP3   OH2 6825   1.549   6.979   4.351
 2295TIP3    H1 6826   1.505   6.893   4.351
 2295TIP3    H2 6827   1.615   6.972   4.283
 2296TIP3   OH2 6828   8.245   7.643   6.436
 2296TIP3    H1 6829   8.182   7.604   6.497
 2296TIP3    H2 6830   8.233   7.737   6.446
 2297TIP3   OH2 6831   4.021   1.573   4.327
 2297TIP3    H1 6832   4.109   1.608   4.339
 2297TIP3    H2 6833   3.971   1.608   4.401
 2298TIP3   OH2 6834   3.255   4.144   0.821
 2298TIP3    H1 6835   3.183   4.084   0.801
 2298TIP3    H2 6836   3.244   4.217   0.760
 2299TIP3   OH2 6837   6.851   1.820   5.716
 2299TIP3    H1 6838   6.891   1.906   5.710
 2299TIP3    H2 6839   6.911   1.769   5.771
 2300TIP3   OH2 6840   6.016   5.978   2.479
 2300TIP3    H1 6841   6.014   5.991   2.573
 2300TIP3    H2 6842   5.951   6.040   2.445
 2301TIP3   OH2 6843   0.579   1.609   6.593
 2301TIP3    H1 6844   0.552   1.527   6.634
 2301TIP3    H2 6845   0.577   1.590   6.499
 2302TIP3   OH2 6846   3.138   1.351   6.274
 2302TIP3    H1 6847   3.103   1.440   6.268
 2302TIP3    H2 6848   3.232   1.363   6.279
 2303TIP3   OH2 6849   5.459   6.488   6.638
 2303TIP3    H1 6850   5.422   6.569   6.674
 2303TIP3    H2 6851   5.396   6.459   6.572
 2304TIP3   OH2 6852   3.866   6.320   3.929
 2304TIP3    H1 6853   3.793   6.332   3.868
 2304TIP3    H2 6854   3.938   6.292   3.874
 2305TIP3   OH2 6855   4.456   7.622   6.412
 2305TIP3    H1 6856   4.505   7.566   6.472
 2305TIP3    H2 6857   4.523   7.677   6.371
 2306TIP3   OH2 6858   7.496   4.689   5.339
 2306TIP3    H1 6859   7.584   4.650   5.331
 2306TIP3    H2 6860   7.436   4.617   5.318
 2307TIP3   OH2 6861   0.372   4.507   1.039
 2307TIP3    H1 6862   0.312   4.472   0.974
 2307TIP3    H2 6863   0.429   4.434   1.062
 2308TIP3   OH2 6864   7.944   2.105   2.744
 2308TIP3    H1 6865   7.953   2.118   2.650
 2308TIP3    H2 6866   7.851   2.086   2.757
 2309TIP3   OH2 6867   3.631   6.292   3.169
 2309TIP3    H1 6868   3.548   6.303   3.123
 2309TIP3    H2 6869   3.612   6.315   3.260
 2310TIP3   OH2 6870   2.902   0.920   1.706
 2310TIP3    H1 6871   2.878   1.000   1.658
 2310TIP3    H2 6872   2.886   0.849   1.644
 2311TIP3   OH2 6873   1.635   1.804   0.949
 2311TIP3    H1 6874   1.599   1.737   1.008
 2311TIP3    H2 6875   1.607   1.887   0.986
 2312TIP3   OH2 6876   6.006   2.203   4.288
 2312TIP3    H1 6877   5.931   2.218   4.345
 2312TIP3    H2 6878   6.005   2.109   4.270
 2313TIP3   OH2 6879   6.513   5.218   2.610
 2313TIP3    H1 6880   6.582   5.280   2.585
 2313TIP3    H2 6881   6.496   5.237   2.702
 2314TIP3   OH2 6882   5.143   5.781   1.780
 2314TIP3    H1 6883   5.132   5.866   1.822
 2314TIP3    H2 6884   5.107   5.719   1.844
 2315TIP3   OH2 6885   0.071   6.105   3.911
 2315TIP3    H1 6886   0.127   6.133   3.839
 2315TIP3    H2 6887   0.122   6.037   3.955
 2316TIP3   OH2 6888   7.645   1.681   1.467
 2316TIP3    H1 6889   7.660   1.634   1.549
 2316TIP3    H2 6890   7.611   1.767   1.495
 2317TIP3   OH2 6891   3.566   6.727   4.720
 2317TIP3    H1 6892   3.516   6.665   4.668
 2317TIP3    H2 6893   3.570   6.806   4.666
 2318TIP3   OH2 6894   0.676   6.092   5.952
 2318TIP3    H1 6895   0.771   6.097   5.952
 2318TIP3    H2 6896   0.653   6.072   5.861
 2319TIP3   OH2 6897   6.098   2.273   0.604
 2319TIP3    H1 6898   6.022   2.221   0.633
 2319TIP3    H2 6899   6.149   2.287   0.684
 2320TIP3   OH2 6900   0.933   5.381   2.650
 2320TIP3    H1 6901   0.897   5.469   2.636
 2320TIP3    H2 6902   0.936   5.343   2.563
 2321TIP3   OH2 6903   5.385   7.410   2.980
 2321TIP3    H1 6904   5.385   7.460   3.062
 2321TIP3    H2 6905   5.349   7.324   3.004
 2322TIP3   OH2 6906   4.839   1.561   4.656
 2322TIP3    H1 6907   4.915   1.515   4.621
 2322TIP3    H2 6908   4.778   1.492   4.681
 2323TIP3   OH2 6909   6.979   6.946   2.865
 2323TIP3    H1 6910   6.996   6.858   2.833
 2323TIP3    H2 6911   7.046   6.961   2.932
 2324TIP3   OH2 6912   3.232   6.484   1.194
 2324TIP3    H1 6913   3.284   6.549   1.241
 2324TIP3    H2 6914   3.289   6.408   1.187
 2325TIP3   OH2 6915   2.118   1.381   2.466
 2325TIP3    H1 6916   2.131   1.476   2.460
 2325TIP3    H2 6917   2.108   1.353   2.374
 2326TIP3   OH2 6918   1.998   3.191   6.132
 2326TIP3    H1 6919   2.092   3.188   6.148
 2326TIP3    H2 6920   1.988   3.255   6.061
 2327TIP3   OH2 6921   6.184   2.903   1.934
 2327TIP3    H1 6922   6.252   2.859   1.883
 2327TIP3    H2 6923   6.141   2.962   1.872
 2328TIP3   OH2 6924   4.704   0.325   0.415
 2328TIP3    H1 6925   4.721   0.386   0.486
 2328TIP3    H2 6926   4.766   0.349   0.346
 2329TIP3   OH2 6927   2.058   2.268   0.081
 2329TIP3    H1 6928   2.067   2.359   0.107
 2329TIP3    H2 6929   2.090   2.266  -0.010
 2330TIP3   OH2 6930   7.281   1.308   0.892
 2330TIP3    H1 6931   7.316   1.242   0.953
 2330TIP3    H2 6932   7.340   1.305   0.817
 2331TIP3   OH2 6933   3.965   5.586   0.344
 2331TIP3    H1 6934   4.025   5.569   0.416
 2331TIP3    H2 6935   3.893   5.634   0.384
 2332TIP3   OH2 6936   3.228   6.377   6.723
 2332TIP3    H1 6937   3.154   6.409   6.774
 2332TIP3    H2 6938   3.195   6.370   6.634
 2333TIP3   OH2 6939   6.784   7.378   2.090
 2333TIP3    H1 6940   6.741   7.328   2.159
 2333TIP3    H2 6941   6.797   7.465   2.129
 2334TIP3   OH2 6942   4.190   0.322   3.213
 2334TIP3    H1 6943   4.235   0.288   3.136
 2334TIP3    H2 6944   4.114   0.264   3.223
 2335TIP3   OH2 6945   3.368   2.142   1.315
 2335TIP3    H1 6946   3.434   2.171   1.252
 2335TIP3    H2 6947   3.349   2.220   1.367
 2336TIP3   OH2 6948   3.056   0.771   6.194
 2336TIP3    H1 6949   3.147   0.742   6.186
 2336TIP3    H2 6950   3.031   0.746   6.283
 2337TIP3   OH2 6951   4.474   5.925   3.878
 2337TIP3    H1 6952   4.388   5.949   3.844
 2337TIP3    H2 6953   4.534   5.941   3.805
 2338TIP3   OH2 6954   6.923   5.857   5.125
 2338TIP3    H1 6955   7.018   5.857   5.137
 2338TIP3    H2 6956   6.910   5.843   5.031
 2339TIP3   OH2 6957   1.122   3.897   2.050
 2339TIP3    H1 6958   1.143   3.850   2.130
 2339TIP3    H2 6959   1.134   3.990   2.072
 2340TIP3   OH2 6960   1.056   2.248   6.315
 2340TIP3    H1 6961   1.045   2.212   6.226
 2340TIP3    H2 6962   1.119   2.319   6.305
 2341TIP3   OH2 6963   5.981   1.310   5.601
 2341TIP3    H1 6964   5.925   1.245   5.558
 2341TIP3    H2 6965   6.067   1.298   5.559
 2342TIP3   OH2 6966   1.719   4.431   4.596
 2342TIP3    H1 6967   1.687   4.467   4.679
 2342TIP3    H2 6968   1.803   4.475   4.581
 2343TIP3   OH2 6969   3.974   7.546   3.763
 2343TIP3    H1 6970   4.033   7.572   3.834
 2343TIP3    H2 6971   4.019   7.475   3.718
 2344TIP3   OH2 6972   4.142   5.634   5.612
 2344TIP3    H1 6973   4.219   5.597   5.654
 2344TIP3    H2 6974   4.166   5.644   5.520
 2345TIP3   OH2 6975   4.734   7.624   4.969
 2345TIP3    H1 6976   4.743   7.624   5.064
 2345TIP3    H2 6977   4.813   7.580   4.938
 2346TIP3   OH2 6978   8.025   4.473   0.384
 2346TIP3    H1 6979   7.937   4.480   0.422
 2346TIP3    H2 6980   8.061   4.393   0.422
 2347TIP3   OH2 6981   7.754   3.530   4.968
 2347TIP3    H1 6982   7.730   3.615   5.006
 2347TIP3    H2 6983   7.841   3.512   5.003
 2348TIP3   OH2 6984   4.788   3.921   5.737
 2348TIP3    H1 6985   4.749   3.868   5.807
 2348TIP3    H2 6986   4.749   4.008   5.748
 2349TIP3   OH2 6987   2.003   3.388   5.625
 2349TIP3    H1 6988   1.935   3.337   5.580
 2349TIP3    H2 6989   2.010   3.469   5.574
 2350TIP3   OH2 6990   7.389   2.269   3.735
 2350TIP3    H1 6991   7.402   2.210   3.809
 2350TIP3    H2 6992   7.399   2.357   3.773
 2351TIP3   OH2 6993   5.209   3.397   0.751
 2351TIP3    H1 6994   5.169   3.344   0.682
 2351TIP3    H2 6995   5.302   3.373   0.748
 2352TIP3   OH2 6996   6.606   5.025   4.458
 2352TIP3    H1 6997   6.565   4.944   4.427
 2352TIP3    H2 6998   6.549   5.095   4.425
 2353TIP3   OH2 6999   2.238   0.798   4.735
 2353TIP3    H1 7000   2.186   0.789   4.815
 2353TIP3    H2 7001   2.320   0.839   4.764
 2354TIP3   OH2 7002   6.403   4.992   5.929
 2354TIP3    H1 7003   6.364   5.034   5.852
 2354TIP3    H2 7004   6.334   4.991   5.994
 2355TIP3   OH2 7005   1.848   1.113   4.247
 2355TIP3    H1 7006   1.818   1.114   4.156
 2355TIP3    H2 7007   1.772   1.083   4.297
 2356TIP3   OH2 7008   2.562   0.754   2.332
 2356TIP3    H1 7009   2.501   0.819   2.368
 2356TIP3    H2 7010   2.611   0.722   2.407
 2357TIP3   OH2 7011   0.504   0.264   4.461
 2357TIP3    H1 7012   0.461   0.333   4.512
 2357TIP3    H2 7013   0.476   0.279   4.371
 2358TIP3   OH2 7014   4.670   6.409   3.752
 2358TIP3    H1 7015   4.622   6.371   3.825
 2358TIP3    H2 7016   4.662   6.504   3.764
 2359TIP3   OH2 7017   7.245   3.470   4.826
 2359TIP3    H1 7018   7.190   3.548   4.833
 2359TIP3    H2 7019   7.214   3.425   4.747
 2360TIP3   OH2 7020   2.221   1.166   4.467
 2360TIP3    H1 7021   2.166   1.112   4.411
 2360TIP3    H2 7022   2.283   1.105   4.507
 2361TIP3   OH2 7023   3.144   2.344   2.985
 2361TIP3    H1 7024   3.213   2.377   3.043
 2361TIP3    H2 7025   3.090   2.421   2.967
 2362TIP3   OH2 7026   1.381   5.812   2.997
 2362TIP3    H1 7027   1.454   5.834   3.054
 2362TIP3    H2 7028   1.400   5.858   2.915
 2363TIP3   OH2 7029   6.991   5.212   5.172
 2363TIP3    H1 7030   7.074   5.190   5.130
 2363TIP3    H2 7031   6.946   5.269   5.109
 2364TIP3   OH2 7032   6.015   2.331   0.973
 2364TIP3    H1 7033   6.092   2.286   0.940
 2364TIP3    H2 7034   5.942   2.295   0.922
 2365TIP3   OH2 7035   5.362   7.607   0.445
 2365TIP3    H1 7036   5.362   7.515   0.471
 2365TIP3    H2 7037   5.290   7.614   0.382
 2366TIP3   OH2 7038   3.862   2.485   4.502
 2366TIP3    H1 7039   3.786   2.443   4.543
 2366TIP3    H2 7040   3.865   2.572   4.541
 2367TIP3   OH2 7041   2.563   5.375   1.170
 2367TIP3    H1 7042   2.577   5.460   1.212
 2367TIP3    H2 7043   2.633   5.369   1.106
 2368TIP3   OH2 7044   5.369   6.910   2.784
 2368TIP3    H1 7045   5.308   6.866   2.843
 2368TIP3    H2 7046   5.363   6.861   2.702
 2369TIP3   OH2 7047   0.274   6.500   0.974
 2369TIP3    H1 7048   0.361   6.479   0.942
 2369TIP3    H2 7049   0.276   6.594   0.990
 2370TIP3   OH2 7050   7.260   4.989   2.329
 2370TIP3    H1 7051   7.222   4.915   2.282
 2370TIP3    H2 7052   7.185   5.043   2.354
 2371TIP3   OH2 7053   1.280   2.794   4.594
 2371TIP3    H1 7054   1.222   2.740   4.541
 2371TIP3    H2 7055   1.365   2.750   4.589
 2372TIP3   OH2 7056   4.836   5.852   1.249
 2372TIP3    H1 7057   4.847   5.757   1.238
 2372TIP3    H2 7058   4.922   5.889   1.228
 2373TIP3   OH2 7059   6.187   1.518   6.020
 2373TIP3    H1 7060   6.108   1.466   6.035
 2373TIP3    H2 7061   6.258   1.466   6.060
 2374TIP3   OH2 7062   4.370   6.492   0.349
 2374TIP3    H1 7063   4.422   6.411   0.345
 2374TIP3    H2 7064   4.371   6.516   0.442
 2375TIP3   OH2 7065   5.271   0.926   4.339
 2375TIP3    H1 7066   5.336   0.900   4.274
 2375TIP3    H2 7067   5.187   0.898   4.302
 2376TIP3   OH2 7068   5.512   2.479   5.747
 2376TIP3    H1 7069   5.547   2.391   5.733
 2376TIP3    H2 7070   5.467   2.500   5.666
 2377TIP3   OH2 7071   5.954   3.433   4.487
 2377TIP3    H1 7072   6.042   3.400   4.509
 2377TIP3    H2 7073   5.955   3.441   4.392
 2378TIP3   OH2 7074   4.070   6.917   1.729
 2378TIP3    H1 7075   3.996   6.899   1.672
 2378TIP3    H2 7076   4.043   6.993   1.781
 2379TIP3   OH2 7077   5.951   3.097   6.116
 2379TIP3    H1 7078   5.965   3.079   6.023
 2379TIP3    H2 7079   5.857   3.108   6.125
 2380TIP3   OH2 7080   7.102   7.214   1.693
 2380TIP3    H1 7081   7.099   7.195   1.787
 2380TIP3    H2 7082   7.033   7.278   1.680
 2381TIP3   OH2 7083   7.057   6.313   1.539
 2381TIP3    H1 7084   7.038   6.225   1.507
 2381TIP3    H2 7085   7.041   6.370   1.463
 2382TIP3   OH2 7086   5.708   2.726   1.648
 2382TIP3    H1 7087   5.679   2.731   1.739
 2382TIP3    H2 7088   5.730   2.816   1.624
 2383TIP3   OH2 7089   6.158   5.250   2.227
 2383TIP3    H1 7090   6.200   5.266   2.142
 2383TIP3    H2 7091   6.217   5.288   2.291
 2384TIP3   OH2 7092   7.975   3.300   1.816
 2384TIP3    H1 7093   7.885   3.332   1.821
 2384TIP3    H2 7094   7.970   3.221   1.763
 2385TIP3   OH2 7095   2.335   7.194   6.127
 2385TIP3    H1 7096   2.283   7.154   6.057
 2385TIP3    H2 7097   2.424   7.198   6.092
 2386TIP3   OH2 7098   0.854   6.886   5.112
 2386TIP3    H1 7099   0.770   6.932   5.115
 2386TIP3    H2 7100   0.864   6.861   5.021
 2387TIP3   OH2 7101   4.810   1.542   4.006
 2387TIP3    H1 7102   4.756   1.620   4.004
 2387TIP3    H2 7103   4.812   1.517   4.098
 2388TIP3   OH2 7104   3.233   3.683   1.754
 2388TIP3    H1 7105   3.247   3.695   1.848
 2388TIP3    H2 7106   3.269   3.596   1.736
 2389TIP3   OH2 7107   4.438   6.863   2.998
 2389TIP3    H1 7108   4.482   6.852   2.913
 2389TIP3    H2 7109   4.362   6.917   2.978
 2390TIP3   OH2 7110   3.110   2.945   5.985
 2390TIP3    H1 7111   3.079   3.025   5.942
 2390TIP3    H2 7112   3.040   2.923   6.046
 2391TIP3   OH2 7113   7.213   2.815   2.925
 2391TIP3    H1 7114   7.282   2.813   2.858
 2391TIP3    H2 7115   7.146   2.872   2.889
 2392TIP3   OH2 7116   6.112   1.007   5.286
 2392TIP3    H1 7117   6.134   0.946   5.356
 2392TIP3    H2 7118   6.018   1.022   5.295
 2393TIP3   OH2 7119   7.065   3.927   4.551
 2393TIP3    H1 7120   7.108   3.878   4.481
 2393TIP3    H2 7121   6.981   3.955   4.513
 2394TIP3   OH2 7122   6.496   7.250   3.541
 2394TIP3    H1 7123   6.540   7.326   3.580
 2394TIP3    H2 7124   6.427   7.288   3.487
 2395TIP3   OH2 7125   2.559   5.240   2.332
 2395TIP3    H1 7126   2.473   5.199   2.327
 2395TIP3    H2 7127   2.593   5.236   2.243
 2396TIP3   OH2 7128   2.666   1.011   4.865
 2396TIP3    H1 7129   2.603   0.955   4.909
 2396TIP3    H2 7130   2.619   1.048   4.791
 2397TIP3   OH2 7131   7.046   4.660   5.100
 2397TIP3    H1 7132   7.019   4.744   5.136
 2397TIP3    H2 7133   6.976   4.599   5.123
 2398TIP3   OH2 7134   4.122   1.355   5.126
 2398TIP3    H1 7135   4.151   1.288   5.064
 2398TIP3    H2 7136   4.174   1.432   5.105
 2399TIP3   OH2 7137   8.181   4.174   6.226
 2399TIP3    H1 7138   8.209   4.264   6.245
 2399TIP3    H2 7139   8.092   4.169   6.259
 2400TIP3   OH2 7140   4.720   5.448   3.976
 2400TIP3    H1 7141   4.801   5.399   3.962
 2400TIP3    H2 7142   4.720   5.469   4.069
 2401TIP3   OH2 7143   5.356   5.990   3.644
 2401TIP3    H1 7144   5.301   5.934   3.699
 2401TIP3    H2 7145   5.366   6.070   3.695
 2402TIP3   OH2 7146   2.050   3.076   2.426
 2402TIP3    H1 7147   2.020   3.071   2.335
 2402TIP3    H2 7148   2.141   3.049   2.423
 2403TIP3   OH2 7149   1.390   1.294   2.793
 2403TIP3    H1 7150   1.475   1.253   2.780
 2403TIP3    H2 7151   1.404   1.356   2.864
 2404TIP3   OH2 7152   5.122   0.651   3.899
 2404TIP3    H1 7153   5.135   0.740   3.865
 2404TIP3    H2 7154   5.188   0.641   3.967
 2405TIP3   OH2 7155   2.266   6.726   5.865
 2405TIP3    H1 7156   2.211   6.691   5.935
 2405TIP3    H2 7157   2.310   6.801   5.904
 2406TIP3   OH2 7158   0.396   1.577   2.183
 2406TIP3    H1 7159   0.403   1.528   2.101
 2406TIP3    H2 7160   0.404   1.511   2.252
 2407TIP3   OH2 7161   8.144   3.503   0.862
 2407TIP3    H1 7162   8.073   3.461   0.814
 2407TIP3    H2 7163   8.213   3.437   0.865
 2408TIP3   OH2 7164   1.279   5.397   2.212
 2408TIP3    H1 7165   1.260   5.338   2.284
 2408TIP3    H2 7166   1.277   5.485   2.250
 2409TIP3   OH2 7167   3.497   4.822   4.593
 2409TIP3    H1 7168   3.489   4.867   4.677
 2409TIP3    H2 7169   3.573   4.765   4.605
 2410TIP3   OH2 7170   2.903  -0.020   3.813
 2410TIP3    H1 7171   2.909  -0.110   3.845
 2410TIP3    H2 7172   2.954  -0.019   3.731
 2411TIP3   OH2 7173   7.339   6.395   1.489
 2411TIP3    H1 7174   7.254   6.379   1.530
 2411TIP3    H2 7175   7.392   6.435   1.558
 2412TIP3   OH2 7176   3.086   5.484   6.167
 2412TIP3    H1 7177   3.070   5.393   6.144
 2412TIP3    H2 7178   3.158   5.511   6.110
 2413TIP3   OH2 7179   6.562   5.895   4.089
 2413TIP3    H1 7180   6.495   5.955   4.122
 2413TIP3    H2 7181   6.572   5.919   3.997
 2414TIP3   OH2 7182   5.809   5.642   4.794
 2414TIP3    H1 7183   5.768   5.706   4.736
 2414TIP3    H2 7184   5.899   5.673   4.803
 2415TIP3   OH2 7185   5.518   1.225   4.511
 2415TIP3    H1 7186   5.554   1.268   4.589
 2415TIP3    H2 7187   5.592   1.221   4.450
 2416TIP3   OH2 7188   2.296   7.921   0.755
 2416TIP3    H1 7189   2.302   7.956   0.666
 2416TIP3    H2 7190   2.366   7.965   0.802
 2417TIP3   OH2 7191   2.731   3.033   0.786
 2417TIP3    H1 7192   2.686   2.994   0.710
 2417TIP3    H2 7193   2.824   3.029   0.763
 2418TIP3   OH2 7194   7.011   7.476   1.904
 2418TIP3    H1 7195   6.984   7.384   1.898
 2418TIP3    H2 7196   6.990   7.502   1.993
 2419TIP3   OH2 7197   0.963   2.585   5.411
 2419TIP3    H1 7198   0.969   2.612   5.319
 2419TIP3    H2 7199   0.923   2.661   5.455
 2420TIP3   OH2 7200   2.159   6.045   3.009
 2420TIP3    H1 7201   2.138   5.989   3.084
 2420TIP3    H2 7202   2.254   6.041   3.002
 2421TIP3   OH2 7203   3.674   5.291   6.478
 2421TIP3    H1 7204   3.718   5.285   6.563
 2421TIP3    H2 7205   3.723   5.359   6.431
 2422TIP3   OH2 7206   0.467   3.397   2.683
 2422TIP3    H1 7207   0.384   3.352   2.669
 2422TIP3    H2 7208   0.530   3.347   2.630
 2423TIP3   OH2 7209   0.563   1.114   3.543
 2423TIP3    H1 7210   0.474   1.103   3.511
 2423TIP3    H2 7211   0.614   1.137   3.465
 2424TIP3   OH2 7212   7.714   1.164   6.168
 2424TIP3    H1 7213   7.775   1.225   6.210
 2424TIP3    H2 7214   7.716   1.086   6.224
 2425TIP3   OH2 7215   4.942   7.404   1.103
 2425TIP3    H1 7216   4.967   7.402   1.011
 2425TIP3    H2 7217   4.945   7.313   1.131
 2426TIP3   OH2 7218   7.187   0.683   2.266
 2426TIP3    H1 7219   7.113   0.731   2.302
 2426TIP3    H2 7220   7.158   0.592   2.261
 2427TIP3   OH2 7221   1.663   0.838   4.604
 2427TIP3    H1 7222   1.706   0.761   4.567
 2427TIP3    H2 7223   1.732   0.881   4.655
 2428TIP3   OH2 7224   8.067   3.657   2.204
 2428TIP3    H1 7225   7.986   3.631   2.161
 2428TIP3    H2 7226   8.136   3.613   2.153
 2429TIP3   OH2 7227   1.107   1.371   3.793
 2429TIP3    H1 7228   1.014   1.386   3.776
 2429TIP3    H2 7229   1.109   1.318   3.873
 2430TIP3   OH2 7230   0.771   5.421   2.318
 2430TIP3    H1 7231   0.849   5.423   2.262
 2430TIP3    H2 7232   0.762   5.329   2.343
 2431TIP3   OH2 7233   4.133   5.595   6.164
 2431TIP3    H1 7234   4.110   5.515   6.115
 2431TIP3    H2 7235   4.138   5.567   6.255
 2432TIP3   OH2 7236   2.568   2.565   5.710
 2432TIP3    H1 7237   2.634   2.578   5.642
 2432TIP3    H2 7238   2.564   2.649   5.755
 2433TIP3   OH2 7239   0.832   0.974   6.259
 2433TIP3    H1 7240   0.756   1.016   6.300
 2433TIP3    H2 7241   0.886   0.945   6.332
 2434TIP3   OH2 7242   6.981   0.173   5.252
 2434TIP3    H1 7243   7.054   0.232   5.233
 2434TIP3    H2 7244   6.974   0.174   5.348
 2435TIP3   OH2 7245   5.450   6.771   3.914
 2435TIP3    H1 7246   5.506   6.809   3.982
 2435TIP3    H2 7247   5.365   6.811   3.927
 2436TIP3   OH2 7248   7.711   2.616   1.719
 2436TIP3    H1 7249   7.735   2.524   1.734
 2436TIP3    H2 7250   7.635   2.611   1.661
 2437TIP3   OH2 7251   7.615   2.744   5.575
 2437TIP3    H1 7252   7.657   2.819   5.533
 2437TIP3    H2 7253   7.591   2.687   5.502
 2438TIP3   OH2 7254   8.335   1.421   6.761
 2438TIP3    H1 7255   8.311   1.383   6.845
 2438TIP3    H2 7256   8.319   1.515   6.771
 2439TIP3   OH2 7257   6.250   7.038   1.345
 2439TIP3    H1 7258   6.277   7.128   1.328
 2439TIP3    H2 7259   6.255   6.995   1.259
 2440TIP3   OH2 7260   3.135   6.676   0.099
 2440TIP3    H1 7261   3.072   6.679   0.171
 2440TIP3    H2 7262   3.080   6.675   0.020
 2441TIP3   OH2 7263   1.425   5.925   1.106
 2441TIP3    H1 7264   1.340   5.946   1.146
 2441TIP3    H2 7265   1.454   5.847   1.154
 2442TIP3   OH2 7266   1.478   0.262   3.155
 2442TIP3    H1 7267   1.491   0.248   3.249
 2442TIP3    H2 7268   1.389   0.297   3.149
 2443TIP3   OH2 7269   2.677   1.447   0.736
 2443TIP3    H1 7270   2.689   1.416   0.646
 2443TIP3    H2 7271   2.668   1.368   0.789
 2444TIP3   OH2 7272   6.051   0.008   2.958
 2444TIP3    H1 7273   5.987   0.052   3.013
 2444TIP3    H2 7274   6.126  -0.008   3.017
 2445TIP3   OH2 7275   5.152   0.916   0.179
 2445TIP3    H1 7276   5.156   1.007   0.151
 2445TIP3    H2 7277   5.067   0.885   0.146
 2446TIP3   OH2 7278   4.213   4.260   2.686
 2446TIP3    H1 7279   4.253   4.344   2.709
 2446TIP3    H2 7280   4.212   4.210   2.767
 2447TIP3   OH2 7281   5.377   7.319   1.068
 2447TIP3    H1 7282   5.418   7.364   0.995
 2447TIP3    H2 7283   5.333   7.244   1.028
 2448TIP3   OH2 7284   3.107   5.137   1.772
 2448TIP3    H1 7285   3.181   5.125   1.832
 2448TIP3    H2 7286   3.065   5.217   1.803
 2449TIP3   OH2 7287   0.337   3.260   4.587
 2449TIP3    H1 7288   0.380   3.203   4.524
 2449TIP3    H2 7289   0.302   3.332   4.534
 2450TIP3   OH2 7290   6.199   0.500   0.819
 2450TIP3    H1 7291   6.149   0.422   0.842
 2450TIP3    H2 7292   6.133   0.568   0.805
 2451TIP3   OH2 7293   0.742   4.586   3.155
 2451TIP3    H1 7294   0.815   4.646   3.167
 2451TIP3    H2 7295   0.696   4.618   3.078
 2452TIP3   OH2 7296   1.382   1.060   6.464
 2452TIP3    H1 7297   1.338   0.984   6.500
 2452TIP3    H2 7298   1.466   1.063   6.511
 2453TIP3   OH2 7299   0.608   3.668   1.067
 2453TIP3    H1 7300   0.532   3.610   1.076
 2453TIP3    H2 7301   0.611   3.718   1.148
 2454TIP3   OH2 7302   8.122   0.771   4.936
 2454TIP3    H1 7303   8.067   0.845   4.963
 2454TIP3    H2 7304   8.077   0.734   4.860
 2455TIP3   OH2 7305   0.122   4.470   4.279
 2455TIP3    H1 7306   0.132   4.539   4.345
 2455TIP3    H2 7307   0.035   4.433   4.295
 2456TIP3   OH2 7308   4.698   1.271   2.398
 2456TIP3    H1 7309   4.671   1.363   2.404
 2456TIP3    H2 7310   4.728   1.250   2.486
 2457TIP3   OH2 7311   2.645   4.869   3.170
 2457TIP3    H1 7312   2.599   4.838   3.093
 2457TIP3    H2 7313   2.736   4.844   3.155
 2458TIP3   OH2 7314   7.725   7.201   5.946
 2458TIP3    H1 7315   7.656   7.252   5.988
 2458TIP3    H2 7316   7.802   7.214   6.002
 2459TIP3   OH2 7317   8.048   7.682   0.599
 2459TIP3    H1 7318   8.067   7.775   0.585
 2459TIP3    H2 7319   8.034   7.675   0.694
 2460TIP3   OH2 7320   1.021   2.061   5.617
 2460TIP3    H1 7321   1.033   2.150   5.650
 2460TIP3    H2 7322   0.969   2.017   5.684
 2461TIP3   OH2 7323   6.168   2.483   2.332
 2461TIP3    H1 7324   6.182   2.554   2.270
 2461TIP3    H2 7325   6.242   2.423   2.318
 2462TIP3   OH2 7326   6.525   4.133   3.403
 2462TIP3    H1 7327   6.588   4.061   3.409
 2462TIP3    H2 7328   6.443   4.097   3.435
 2463TIP3   OH2 7329   4.438   0.085   6.793
 2463TIP3    H1 7330   4.489   0.029   6.851
 2463TIP3    H2 7331   4.355   0.099   6.839
 2464TIP3   OH2 7332   7.612   6.819   3.942
 2464TIP3    H1 7333   7.646   6.732   3.918
 2464TIP3    H2 7334   7.523   6.802   3.973
 2465TIP3   OH2 7335   7.279   5.963   4.154
 2465TIP3    H1 7336   7.324   5.970   4.070
 2465TIP3    H2 7337   7.323   6.028   4.210
 2466TIP3   OH2 7338   6.970   0.608   5.482
 2466TIP3    H1 7339   6.940   0.638   5.397
 2466TIP3    H2 7340   6.890   0.581   5.528
 2467TIP3   OH2 7341   6.454   7.731   5.574
 2467TIP3    H1 7342   6.408   7.648   5.588
 2467TIP3    H2 7343   6.431   7.757   5.485
 2468TIP3   OH2 7344   2.583   5.504   6.461
 2468TIP3    H1 7345   2.548   5.589   6.488
 2468TIP3    H2 7346   2.678   5.514   6.468
 2469TIP3   OH2 7347   2.811   0.513   4.191
 2469TIP3    H1 7348   2.726   0.545   4.163
 2469TIP3    H2 7349   2.839   0.576   4.258
 2470TIP3   OH2 7350   1.495   2.465   1.561
 2470TIP3    H1 7351   1.477   2.548   1.605
 2470TIP3    H2 7352   1.564   2.487   1.498
 2471TIP3   OH2 7353   3.575   1.638   0.261
 2471TIP3    H1 7354   3.670   1.640   0.270
 2471TIP3    H2 7355   3.541   1.659   0.348
 2472TIP3   OH2 7356   5.058   1.038   3.465
 2472TIP3    H1 7357   5.108   0.961   3.440
 2472TIP3    H2 7358   4.978   1.003   3.505
 2473TIP3   OH2 7359   3.250   0.553   5.354
 2473TIP3    H1 7360   3.243   0.648   5.361
 2473TIP3    H2 7361   3.178   0.519   5.407
 2474TIP3   OH2 7362   0.610   4.081   6.314
 2474TIP3    H1 7363   0.596   4.038   6.399
 2474TIP3    H2 7364   0.526   4.123   6.295
 2475TIP3   OH2 7365   7.701   1.841   6.577
 2475TIP3    H1 7366   7.782   1.841   6.628
 2475TIP3    H2 7367   7.707   1.919   6.522
 2476TIP3   OH2 7368   5.799   3.295   3.120
 2476TIP3    H1 7369   5.794   3.276   3.214
 2476TIP3    H2 7370   5.841   3.218   3.082
 2477TIP3   OH2 7371   2.354   2.729   6.569
 2477TIP3    H1 7372   2.405   2.654   6.540
 2477TIP3    H2 7373   2.391   2.804   6.522
 2478TIP3   OH2 7374   7.359   3.628   5.847
 2478TIP3    H1 7375   7.361   3.719   5.816
 2478TIP3    H2 7376   7.282   3.590   5.805
 2479TIP3   OH2 7377   0.288   2.677   6.362
 2479TIP3    H1 7378   0.243   2.592   6.363
 2479TIP3    H2 7379   0.239   2.731   6.424
 2480TIP3   OH2 7380   6.718   2.851   5.599
 2480TIP3    H1 7381   6.686   2.890   5.681
 2480TIP3    H2 7382   6.785   2.912   5.569
 2481TIP3   OH2 7383   3.225   1.949   0.562
 2481TIP3    H1 7384   3.317   1.946   0.587
 2481TIP3    H2 7385   3.226   1.983   0.473
 2482TIP3   OH2 7386   2.265   4.941   3.690
 2482TIP3    H1 7387   2.196   4.958   3.626
 2482TIP3    H2 7388   2.344   4.978   3.651
 2483TIP3   OH2 7389   3.772   7.017   0.278
 2483TIP3    H1 7390   3.796   7.081   0.212
 2483TIP3    H2 7391   3.823   7.042   0.355
 2484TIP3   OH2 7392   0.726   4.650   2.006
 2484TIP3    H1 7393   0.673   4.722   1.971
 2484TIP3    H2 7394   0.790   4.633   1.937
 2485TIP3   OH2 7395   0.351   7.804   5.179
 2485TIP3    H1 7396   0.305   7.770   5.256
 2485TIP3    H2 7397   0.287   7.861   5.136
 2486TIP3   OH2 7398   6.794   1.007   6.247
 2486TIP3    H1 7399   6.831   0.973   6.328
 2486TIP3    H2 7400   6.722   1.064   6.275
 2487TIP3   OH2 7401   4.893   5.413   4.735
 2487TIP3    H1 7402   4.961   5.473   4.763
 2487TIP3    H2 7403   4.924   5.326   4.761
 2488TIP3   OH2 7404   4.006   1.749   5.069
 2488TIP3    H1 7405   3.987   1.841   5.089
 2488TIP3    H2 7406   3.925   1.703   5.091
 2489TIP3   OH2 7407   1.258   2.847   1.497
 2489TIP3    H1 7408   1.233   2.914   1.434
 2489TIP3    H2 7409   1.177   2.824   1.542
 2490TIP3   OH2 7410   1.562   3.517   1.052
 2490TIP3    H1 7411   1.642   3.568   1.060
 2490TIP3    H2 7412   1.560   3.491   0.959
 2491TIP3   OH2 7413   7.443   0.577   4.054
 2491TIP3    H1 7414   7.442   0.482   4.063
 2491TIP3    H2 7415   7.405   0.594   3.968
 2492TIP3   OH2 7416   0.358   2.939   3.554
 2492TIP3    H1 7417   0.409   3.018   3.536
 2492TIP3    H2 7418   0.317   2.918   3.470
 2493TIP3   OH2 7419   1.012   5.975   6.499
 2493TIP3    H1 7420   0.986   5.914   6.431
 2493TIP3    H2 7421   0.952   6.049   6.490
 2494TIP3   OH2 7422   3.400   6.277   1.186
 2494TIP3    H1 7423   3.365   6.197   1.226
 2494TIP3    H2 7424   3.463   6.245   1.121
 2495TIP3   OH2 7425   7.256   5.837   0.998
 2495TIP3    H1 7426   7.236   5.925   1.031
 2495TIP3    H2 7427   7.193   5.824   0.927
 2496TIP3   OH2 7428   2.279   2.626   0.405
 2496TIP3    H1 7429   2.249   2.669   0.485
 2496TIP3    H2 7430   2.198   2.600   0.360
 2497TIP3   OH2 7431   6.718   5.301   2.191
 2497TIP3    H1 7432   6.736   5.310   2.097
 2497TIP3    H2 7433   6.650   5.233   2.195
 2498TIP3   OH2 7434   8.384   4.345   0.702
 2498TIP3    H1 7435   8.386   4.329   0.608
 2498TIP3    H2 7436   8.291   4.360   0.722
 2499TIP3   OH2 7437   5.536   6.218   1.505
 2499TIP3    H1 7438   5.510   6.184   1.590
 2499TIP3    H2 7439   5.497   6.306   1.501
 2500TIP3   OH2 7440   7.849   1.629   3.406
 2500TIP3    H1 7441   7.938   1.599   3.427
 2500TIP3    H2 7442   7.797   1.548   3.404
 2501TIP3   OH2 7443   8.223   6.660   5.743
 2501TIP3    H1 7444   8.181   6.645   5.828
 2501TIP3    H2 7445   8.230   6.573   5.705
 2502TIP3   OH2 7446   0.437   7.550   5.561
 2502TIP3    H1 7447   0.348   7.534   5.593
 2502TIP3    H2 7448   0.470   7.620   5.617
 2503TIP3   OH2 7449   6.634   1.872   4.018
 2503TIP3    H1 7450   6.727   1.875   3.996
 2503TIP3    H2 7451   6.622   1.940   4.084
 2504TIP3   OH2 7452   1.967   2.914   4.990
 2504TIP3    H1 7453   1.933   2.908   5.079
 2504TIP3    H2 7454   2.037   2.849   4.986
 2505TIP3   OH2 7455   3.768   0.302   4.769
 2505TIP3    H1 7456   3.713   0.247   4.824
 2505TIP3    H2 7457   3.716   0.382   4.754
 2506TIP3   OH2 7458   7.375   6.707   4.020
 2506TIP3    H1 7459   7.352   6.617   4.041
 2506TIP3    H2 7460   7.302   6.759   4.053
 2507TIP3   OH2 7461   0.173   0.675   5.160
 2507TIP3    H1 7462   0.086   0.656   5.122
 2507TIP3    H2 7463   0.230   0.607   5.123
 2508TIP3   OH2 7464   5.051   4.143   5.893
 2508TIP3    H1 7465   4.969   4.181   5.864
 2508TIP3    H2 7466   5.045   4.051   5.868
 2509TIP3   OH2 7467   0.700   5.462   3.623
 2509TIP3    H1 7468   0.607   5.443   3.615
 2509TIP3    H2 7469   0.704   5.556   3.642
 2510TIP3   OH2 7470   1.511   2.099   0.560
 2510TIP3    H1 7471   1.445   2.042   0.521
 2510TIP3    H2 7472   1.550   2.046   0.630
 2511TIP3   OH2 7473   6.835   6.792   6.785
 2511TIP3    H1 7474   6.839   6.887   6.798
 2511TIP3    H2 7475   6.850   6.755   6.872
 2512TIP3   OH2 7476   7.421   0.389   3.216
 2512TIP3    H1 7477   7.438   0.381   3.310
 2512TIP3    H2 7478   7.435   0.482   3.197
 2513TIP3   OH2 7479   3.280   6.510   4.131
 2513TIP3    H1 7480   3.355   6.484   4.184
 2513TIP3    H2 7481   3.314   6.514   4.042
 2514TIP3   OH2 7482   5.501   1.880   5.735
 2514TIP3    H1 7483   5.538   1.928   5.661
 2514TIP3    H2 7484   5.567   1.814   5.756
 2515TIP3   OH2 7485   1.235   1.536   4.595
 2515TIP3    H1 7486   1.272   1.452   4.621
 2515TIP3    H2 7487   1.154   1.513   4.548
 2516TIP3   OH2 7488   6.815   7.150   6.018
 2516TIP3    H1 7489   6.814   7.231   6.070
 2516TIP3    H2 7490   6.882   7.165   5.951
 2517TIP3   OH2 7491   0.076   5.528   4.470
 2517TIP3    H1 7492   0.122   5.561   4.393
 2517TIP3    H2 7493   0.032   5.605   4.506
 2518TIP3   OH2 7494   2.527   7.141   2.439
 2518TIP3    H1 7495   2.461   7.169   2.502
 2518TIP3    H2 7496   2.527   7.210   2.372
 2519TIP3   OH2 7497   4.735   6.217   6.661
 2519TIP3    H1 7498   4.708   6.154   6.594
 2519TIP3    H2 7499   4.664   6.216   6.726
 2520TIP3   OH2 7500   8.312   0.566   5.281
 2520TIP3    H1 7501   8.263   0.639   5.318
 2520TIP3    H2 7502   8.373   0.540   5.350
 2521TIP3   OH2 7503   0.010   3.906   0.733
 2521TIP3    H1 7504  -0.033   3.938   0.653
 2521TIP3    H2 7505   0.103   3.902   0.710
 2522TIP3   OH2 7506   1.959   4.561   4.541
 2522TIP3    H1 7507   1.941   4.636   4.598
 2522TIP3    H2 7508   2.004   4.600   4.465
 2523TIP3   OH2 7509   3.229   5.414   4.718
 2523TIP3    H1 7510   3.186   5.346   4.666
 2523TIP3    H2 7511   3.209   5.495   4.672
 2524TIP3   OH2 7512   2.759   3.789   1.744
 2524TIP3    H1 7513   2.825   3.817   1.681
 2524TIP3    H2 7514   2.725   3.707   1.708
 2525TIP3   OH2 7515   0.107   0.108   1.472
 2525TIP3    H1 7516   0.038   0.075   1.529
 2525TIP3    H2 7517   0.117   0.041   1.405
 2526TIP3   OH2 7518   4.403   4.865   2.435
 2526TIP3    H1 7519   4.488   4.821   2.445
 2526TIP3    H2 7520   4.378   4.849   2.344
 2527TIP3   OH2 7521   8.126   0.030   1.284
 2527TIP3    H1 7522   8.085  -0.006   1.362
 2527TIP3    H2 7523   8.065   0.098   1.254
 2528TIP3   OH2 7524   0.487   7.940   1.174
 2528TIP3    H1 7525   0.477   7.847   1.152
 2528TIP3    H2 7526   0.460   7.947   1.265
 2529TIP3   OH2 7527   1.222   0.829   5.181
 2529TIP3    H1 7528   1.144   0.883   5.193
 2529TIP3    H2 7529   1.197   0.765   5.115
 2530TIP3   OH2 7530   2.827   5.217   4.149
 2530TIP3    H1 7531   2.877   5.144   4.187
 2530TIP3    H2 7532   2.748   5.175   4.114
 2531TIP3   OH2 7533   5.544   0.082   4.967
 2531TIP3    H1 7534   5.477   0.120   5.023
 2531TIP3    H2 7535   5.607   0.152   4.955
 2532TIP3   OH2 7536   7.014   2.625   0.887
 2532TIP3    H1 7537   7.037   2.632   0.980
 2532TIP3    H2 7538   6.941   2.686   0.876
 2533TIP3   OH2 7539   0.567   6.902   1.521
 2533TIP3    H1 7540   0.488   6.948   1.495
 2533TIP3    H2 7541   0.629   6.971   1.545
 2534TIP3   OH2 7542   5.527   7.004   4.161
 2534TIP3    H1 7543   5.617   7.026   4.184
 2534TIP3    H2 7544   5.514   7.044   4.075
 2535TIP3   OH2 7545   0.720   0.265   3.015
 2535TIP3    H1 7546   0.762   0.352   3.012
 2535TIP3    H2 7547   0.723   0.234   2.924
 2536TIP3   OH2 7548   6.065   5.954   0.910
 2536TIP3    H1 7549   6.127   5.997   0.968
 2536TIP3    H2 7550   5.980   5.988   0.935
 2537TIP3   OH2 7551   5.289   4.107   5.576
 2537TIP3    H1 7552   5.209   4.158   5.563
 2537TIP3    H2 7553   5.337   4.116   5.495
 2538TIP3   OH2 7554   7.720   6.284   2.026
 2538TIP3    H1 7555   7.807   6.292   2.065
 2538TIP3    H2 7556   7.679   6.369   2.042
 2539TIP3   OH2 7557   7.354   2.810   5.340
 2539TIP3    H1 7558   7.372   2.717   5.349
 2539TIP3    H2 7559   7.384   2.833   5.252
 2540TIP3   OH2 7560   1.127   1.855   0.844
 2540TIP3    H1 7561   1.052   1.898   0.804
 2540TIP3    H2 7562   1.131   1.769   0.802
 2541TIP3   OH2 7563   1.836   4.187   3.031
 2541TIP3    H1 7564   1.815   4.135   2.954
 2541TIP3    H2 7565   1.920   4.228   3.011
 2542TIP3   OH2 7566   6.840   7.397   3.789
 2542TIP3    H1 7567   6.885   7.328   3.838
 2542TIP3    H2 7568   6.785   7.440   3.854
 2543TIP3   OH2 7569   2.435   2.846   3.963
 2543TIP3    H1 7570   2.445   2.913   3.895
 2543TIP3    H2 7571   2.430   2.897   4.045
 2544TIP3   OH2 7572   3.332   1.623   5.031
 2544TIP3    H1 7573   3.337   1.528   5.026
 2544TIP3    H2 7574   3.411   1.654   4.987
 2545TIP3   OH2 7575   4.579   7.759   2.567
 2545TIP3    H1 7576   4.538   7.845   2.576
 2545TIP3    H2 7577   4.661   7.776   2.522
 2546TIP3   OH2 7578   5.038   3.592   2.949
 2546TIP3    H1 7579   5.005   3.668   2.902
 2546TIP3    H2 7580   4.960   3.547   2.980
 2547TIP3   OH2 7581   1.631   5.879   6.744
 2547TIP3    H1 7582   1.571   5.947   6.713
 2547TIP3    H2 7583   1.583   5.797   6.732
 2548TIP3   OH2 7584   1.288   2.180   5.368
 2548TIP3    H1 7585   1.306   2.091   5.338
 2548TIP3    H2 7586   1.245   2.222   5.294
 2549TIP3   OH2 7587   1.620   5.659   6.432
 2549TIP3    H1 7588   1.624   5.695   6.343
 2549TIP3    H2 7589   1.527   5.661   6.454
 2550TIP3   OH2 7590   3.332   1.363   2.410
 2550TIP3    H1 7591   3.313   1.437   2.352
 2550TIP3    H2 7592   3.383   1.303   2.355
 2551TIP3   OH2 7593   3.010   3.712   6.735
 2551TIP3    H1 7594   3.062   3.632   6.730
 2551TIP3    H2 7595   3.046   3.760   6.809
 2552TIP3   OH2 7596   7.590   2.155   6.861
 2552TIP3    H1 7597   7.570   2.138   6.769
 2552TIP3    H2 7598   7.572   2.072   6.905
 2553TIP3   OH2 7599   1.890   7.587   0.318
 2553TIP3    H1 7600   1.905   7.503   0.276
 2553TIP3    H2 7601   1.969   7.638   0.301
 2554TIP3   OH2 7602   7.573   2.786   4.267
 2554TIP3    H1 7603   7.635   2.856   4.246
 2554TIP3    H2 7604   7.488   2.828   4.263
 2555TIP3   OH2 7605   1.893   5.389   2.537
 2555TIP3    H1 7606   1.860   5.301   2.556
 2555TIP3    H2 7607   1.932   5.418   2.619
 2556TIP3   OH2 7608   3.940   0.029   1.545
 2556TIP3    H1 7609   3.932   0.028   1.640
 2556TIP3    H2 7610   3.854   0.058   1.514
 2557TIP3   OH2 7611   5.590   6.530   2.238
 2557TIP3    H1 7612   5.623   6.599   2.297
 2557TIP3    H2 7613   5.520   6.573   2.189
 2558TIP3   OH2 7614   4.323   0.822   1.451
 2558TIP3    H1 7615   4.289   0.750   1.398
 2558TIP3    H2 7616   4.404   0.789   1.488
 2559TIP3   OH2 7617   3.167   6.206   1.665
 2559TIP3    H1 7618   3.214   6.192   1.747
 2559TIP3    H2 7619   3.080   6.169   1.680
 2560TIP3   OH2 7620   2.864   2.231   1.990
 2560TIP3    H1 7621   2.923   2.162   1.960
 2560TIP3    H2 7622   2.915   2.311   1.981
 2561TIP3   OH2 7623   4.734   1.944   3.818
 2561TIP3    H1 7624   4.792   1.884   3.865
 2561TIP3    H2 7625   4.734   1.911   3.728
 2562TIP3   OH2 7626   8.143   2.993   1.888
 2562TIP3    H1 7627   8.110   2.904   1.896
 2562TIP3    H2 7628   8.142   3.012   1.794
 2563TIP3   OH2 7629   2.279   4.230   2.431
 2563TIP3    H1 7630   2.342   4.293   2.467
 2563TIP3    H2 7631   2.229   4.280   2.366
 2564TIP3   OH2 7632   5.301   5.126   2.465
 2564TIP3    H1 7633   5.245   5.194   2.428
 2564TIP3    H2 7634   5.390   5.157   2.449
 2565TIP3   OH2 7635   4.279   1.986   6.323
 2565TIP3    H1 7636   4.236   1.992   6.238
 2565TIP3    H2 7637   4.223   1.928   6.374
 2566TIP3   OH2 7638   3.517   5.460   2.810
 2566TIP3    H1 7639   3.608   5.478   2.834
 2566TIP3    H2 7640   3.466   5.519   2.865
 2567TIP3   OH2 7641   3.382   5.493   4.423
 2567TIP3    H1 7642   3.453   5.553   4.400
 2567TIP3    H2 7643   3.304   5.532   4.383
 2568TIP3   OH2 7644   1.621   3.726   0.662
 2568TIP3    H1 7645   1.653   3.815   0.672
 2568TIP3    H2 7646   1.527   3.736   0.646
 2569TIP3   OH2 7647   3.881   3.800   1.864
 2569TIP3    H1 7648   3.912   3.880   1.822
 2569TIP3    H2 7649   3.891   3.732   1.797
 2570TIP3   OH2 7650   4.555   0.261   2.864
 2570TIP3    H1 7651   4.626   0.214   2.908
 2570TIP3    H2 7652   4.550   0.344   2.910
 2571TIP3   OH2 7653   7.501   1.829   5.377
 2571TIP3    H1 7654   7.564   1.836   5.448
 2571TIP3    H2 7655   7.474   1.919   5.360
 2572TIP3   OH2 7656   6.780   5.938   2.622
 2572TIP3    H1 7657   6.815   5.928   2.533
 2572TIP3    H2 7658   6.848   5.904   2.679
 2573TIP3   OH2 7659   6.854   0.861   0.942
 2573TIP3    H1 7660   6.823   0.857   1.032
 2573TIP3    H2 7661   6.947   0.884   0.949
 2574TIP3   OH2 7662   1.092   6.261   2.773
 2574TIP3    H1 7663   1.091   6.230   2.683
 2574TIP3    H2 7664   1.000   6.262   2.799
 2575TIP3   OH2 7665   5.376   3.329   1.493
 2575TIP3    H1 7666   5.427   3.390   1.440
 2575TIP3    H2 7667   5.325   3.385   1.551
 2576TIP3   OH2 7668   5.337   3.341   4.673
 2576TIP3    H1 7669   5.400   3.412   4.658
 2576TIP3    H2 7670   5.308   3.316   4.586
 2577TIP3   OH2 7671   4.191   7.285   4.041
 2577TIP3    H1 7672   4.251   7.213   4.025
 2577TIP3    H2 7673   4.110   7.260   3.997
 2578TIP3   OH2 7674   7.488   2.642   2.422
 2578TIP3    H1 7675   7.582   2.626   2.424
 2578TIP3    H2 7676   7.479   2.738   2.426
 2579TIP3   OH2 7677   2.010   0.877   3.652
 2579TIP3    H1 7678   2.094   0.922   3.639
 2579TIP3    H2 7679   1.966   0.883   3.567
 2580TIP3   OH2 7680   1.973   0.763   5.370
 2580TIP3    H1 7681   1.947   0.672   5.383
 2580TIP3    H2 7682   1.920   0.793   5.296
 2581TIP3   OH2 7683   7.416   6.337   2.139
 2581TIP3    H1 7684   7.452   6.315   2.053
 2581TIP3    H2 7685   7.358   6.411   2.122
 2582TIP3   OH2 7686   6.032   5.018   2.102
 2582TIP3    H1 7687   6.079   5.072   2.165
 2582TIP3    H2 7688   5.950   4.996   2.145
 2583TIP3   OH2 7689   0.601   0.175   1.584
 2583TIP3    H1 7690   0.574   0.193   1.494
 2583TIP3    H2 7691   0.613   0.261   1.624
 2584TIP3   OH2 7692   4.946   0.115   1.559
 2584TIP3    H1 7693   4.946   0.128   1.654
 2584TIP3    H2 7694   4.942   0.203   1.523
 2585TIP3   OH2 7695   8.005   0.192   5.861
 2585TIP3    H1 7696   8.068   0.247   5.907
 2585TIP3    H2 7697   8.027   0.201   5.768
 2586TIP3   OH2 7698   4.825   4.072   2.663
 2586TIP3    H1 7699   4.733   4.076   2.638
 2586TIP3    H2 7700   4.867   4.141   2.612
 2587TIP3   OH2 7701   7.436   3.042   2.945
 2587TIP3    H1 7702   7.521   3.067   2.908
 2587TIP3    H2 7703   7.372   3.081   2.884
 2588TIP3   OH2 7704   1.672   5.885   0.965
 2588TIP3    H1 7705   1.608   5.954   0.952
 2588TIP3    H2 7706   1.729   5.891   0.889
 2589TIP3   OH2 7707   6.302   5.278   1.986
 2589TIP3    H1 7708   6.377   5.221   1.970
 2589TIP3    H2 7709   6.328   5.363   1.949
 2590TIP3   OH2 7710   6.349   5.943   6.158
 2590TIP3    H1 7711   6.337   6.012   6.224
 2590TIP3    H2 7712   6.309   5.979   6.079
 2591TIP3   OH2 7713   4.673   3.158   6.830
 2591TIP3    H1 7714   4.720   3.090   6.783
 2591TIP3    H2 7715   4.733   3.233   6.828
 2592TIP3   OH2 7716   2.487   5.979   1.267
 2592TIP3    H1 7717   2.456   6.069   1.273
 2592TIP3    H2 7718   2.565   5.984   1.211
 2593TIP3   OH2 7719   4.356   5.889   2.511
 2593TIP3    H1 7720   4.281   5.835   2.487
 2593TIP3    H2 7721   4.420   5.873   2.442
 2594TIP3   OH2 7722   4.022   2.173   1.318
 2594TIP3    H1 7723   3.961   2.214   1.257
 2594TIP3    H2 7724   4.013   2.224   1.399
 2595TIP3   OH2 7725   6.520   5.554   5.542
 2595TIP3    H1 7726   6.587   5.508   5.593
 2595TIP3    H2 7727   6.455   5.582   5.607
 2596TIP3   OH2 7728   1.320   0.255   0.628
 2596TIP3    H1 7729   1.246   0.316   0.632
 2596TIP3    H2 7730   1.280   0.169   0.642
 2597TIP3   OH2 7731   0.923   5.096   3.496
 2597TIP3    H1 7732   0.872   5.172   3.468
 2597TIP3    H2 7733   0.921   5.099   3.592
 2598TIP3   OH2 7734   4.640   2.178   5.041
 2598TIP3    H1 7735   4.606   2.097   5.079
 2598TIP3    H2 7736   4.565   2.217   4.996
 2599TIP3   OH2 7737   2.712   1.770   3.213
 2599TIP3    H1 7738   2.790   1.767   3.159
 2599TIP3    H2 7739   2.691   1.864   3.220
 2600TIP3   OH2 7740   4.487   3.389   0.083
 2600TIP3    H1 7741   4.403   3.358   0.117
 2600TIP3    H2 7742   4.464   3.447   0.011
 2601TIP3   OH2 7743   7.801   6.485   6.016
 2601TIP3    H1 7744   7.831   6.398   6.045
 2601TIP3    H2 7745   7.862   6.510   5.947
 2602TIP3   OH2 7746   6.735   3.784   5.791
 2602TIP3    H1 7747   6.702   3.851   5.852
 2602TIP3    H2 7748   6.656   3.745   5.754
 2603TIP3   OH2 7749   4.082   0.271   1.743
 2603TIP3    H1 7750   4.111   0.180   1.747
 2603TIP3    H2 7751   4.154   0.318   1.702
 2604TIP3   OH2 7752   0.136   7.499   5.103
 2604TIP3    H1 7753   0.152   7.570   5.165
 2604TIP3    H2 7754   0.224   7.471   5.076
 2605TIP3   OH2 7755   2.184   4.149   5.778
 2605TIP3    H1 7756   2.193   4.149   5.874
 2605TIP3    H2 7757   2.273   4.164   5.747
 2606TIP3   OH2 7758   1.341   7.589   3.432
 2606TIP3    H1 7759   1.436   7.583   3.436
 2606TIP3    H2 7760   1.312   7.583   3.523
 2607TIP3   OH2 7761   0.205   7.230   1.119
 2607TIP3    H1 7762   0.194   7.206   1.026
 2607TIP3    H2 7763   0.129   7.283   1.139
 2608TIP3   OH2 7764   0.091   4.726   0.792
 2608TIP3    H1 7765   0.075   4.735   0.886
 2608TIP3    H2 7766   0.007   4.746   0.751
 2609TIP3   OH2 7767   1.516   7.582   5.431
 2609TIP3    H1 7768   1.442   7.532   5.465
 2609TIP3    H2 7769   1.515   7.564   5.337
 2610TIP3   OH2 7770   0.703   2.357   0.176
 2610TIP3    H1 7771   0.654   2.432   0.141
 2610TIP3    H2 7772   0.645   2.319   0.242
 2611TIP3   OH2 7773   7.918   3.314   6.202
 2611TIP3    H1 7774   7.851   3.381   6.193
 2611TIP3    H2 7775   7.894   3.247   6.137
 2612TIP3   OH2 7776   5.749   0.399   3.656
 2612TIP3    H1 7777   5.681   0.398   3.589
 2612TIP3    H2 7778   5.737   0.482   3.702
 2613TIP3   OH2 7779   4.709   3.520   5.893
 2613TIP3    H1 7780   4.741   3.512   5.803
 2613TIP3    H2 7781   4.674   3.434   5.915
 2614TIP3   OH2 7782   1.859   6.553   2.737
 2614TIP3    H1 7783   1.838   6.556   2.644
 2614TIP3    H2 7784   1.886   6.642   2.760
 2615TIP3   OH2 7785   5.624   5.349   6.182
 2615TIP3    H1 7786   5.636   5.262   6.221
 2615TIP3    H2 7787   5.701   5.360   6.126
 2616TIP3   OH2 7788   3.626   7.985   3.310
 2616TIP3    H1 7789   3.709   8.026   3.290
 2616TIP3    H2 7790   3.648   7.895   3.335
 2617TIP3   OH2 7791   1.524   2.494   0.022
 2617TIP3    H1 7792   1.497   2.479  -0.069
 2617TIP3    H2 7793   1.447   2.470   0.074
 2618TIP3   OH2 7794   2.201   4.133   2.690
 2618TIP3    H1 7795   2.208   4.039   2.678
 2618TIP3    H2 7796   2.233   4.170   2.607
 2619TIP3   OH2 7797   6.619   1.304   4.933
 2619TIP3    H1 7798   6.601   1.211   4.918
 2619TIP3    H2 7799   6.574   1.324   5.015
 2620TIP3   OH2 7800   5.184   7.058   5.669
 2620TIP3    H1 7801   5.211   7.136   5.620
 2620TIP3    H2 7802   5.266   7.017   5.696
 2621TIP3   OH2 7803   6.789   5.930   4.224
 2621TIP3    H1 7804   6.715   5.893   4.176
 2621TIP3    H2 7805   6.864   5.877   4.197
 2622TIP3   OH2 7806   2.900   6.544   2.132
 2622TIP3    H1 7807   2.824   6.486   2.125
 2622TIP3    H2 7808   2.974   6.489   2.109
 2623TIP3   OH2 7809   2.071   1.632   4.226
 2623TIP3    H1 7810   2.025   1.644   4.143
 2623TIP3    H2 7811   2.018   1.568   4.274
 2624TIP3   OH2 7812   0.476   6.150   4.695
 2624TIP3    H1 7813   0.484   6.246   4.702
 2624TIP3    H2 7814   0.566   6.118   4.698
 2625TIP3   OH2 7815   7.907   0.674   4.343
 2625TIP3    H1 7816   7.972   0.654   4.276
 2625TIP3    H2 7817   7.846   0.734   4.300
 2626TIP3   OH2 7818   4.465   1.604   1.258
 2626TIP3    H1 7819   4.380   1.566   1.280
 2626TIP3    H2 7820   4.515   1.531   1.220
 2627TIP3   OH2 7821   2.852   1.872   3.830
 2627TIP3    H1 7822   2.915   1.919   3.776
 2627TIP3    H2 7823   2.803   1.817   3.769
 2628TIP3   OH2 7824   2.253   4.933   1.769
 2628TIP3    H1 7825   2.293   4.942   1.683
 2628TIP3    H2 7826   2.247   4.839   1.783
 2629TIP3   OH2 7827   2.282   2.152   3.167
 2629TIP3    H1 7828   2.238   2.215   3.225
 2629TIP3    H2 7829   2.327   2.207   3.102
 2630TIP3   OH2 7830   0.088   3.711   3.186
 2630TIP3    H1 7831   0.162   3.699   3.127
 2630TIP3    H2 7832   0.017   3.740   3.129
 2631TIP3   OH2 7833   6.699   5.886   6.587
 2631TIP3    H1 7834   6.643   5.895   6.510
 2631TIP3    H2 7835   6.785   5.861   6.552
 2632TIP3   OH2 7836   3.386   3.959   1.936
 2632TIP3    H1 7837   3.419   4.037   1.980
 2632TIP3    H2 7838   3.409   3.971   1.844
 2633TIP3   OH2 7839   7.882   6.532   1.045
 2633TIP3    H1 7840   7.908   6.617   1.009
 2633TIP3    H2 7841   7.786   6.535   1.045
 2634TIP3   OH2 7842   4.862   1.239   1.581
 2634TIP3    H1 7843   4.875   1.332   1.595
 2634TIP3    H2 7844   4.917   1.197   1.648
 2635TIP3   OH2 7845   6.887   1.809   6.368
 2635TIP3    H1 7846   6.843   1.823   6.284
 2635TIP3    H2 7847   6.938   1.889   6.382
 2636TIP3   OH2 7848   3.668   0.475   6.139
 2636TIP3    H1 7849   3.703   0.538   6.202
 2636TIP3    H2 7850   3.588   0.516   6.106
 2637TIP3   OH2 7851   7.522   3.401   0.512
 2637TIP3    H1 7852   7.550   3.411   0.603
 2637TIP3    H2 7853   7.508   3.491   0.482
 2638TIP3   OH2 7854   4.355   3.293   1.411
 2638TIP3    H1 7855   4.273   3.244   1.415
 2638TIP3    H2 7856   4.403   3.266   1.490
 2639TIP3   OH2 7857   2.443   5.685   3.907
 2639TIP3    H1 7858   2.426   5.663   3.998
 2639TIP3    H2 7859   2.451   5.780   3.906
 2640TIP3   OH2 7860   2.726   2.644   1.180
 2640TIP3    H1 7861   2.696   2.653   1.270
 2640TIP3    H2 7862   2.647   2.648   1.127
 2641TIP3   OH2 7863   8.049   0.325   4.378
 2641TIP3    H1 7864   7.995   0.377   4.318
 2641TIP3    H2 7865   8.000   0.244   4.390
 2642TIP3   OH2 7866   0.176   0.140   6.420
 2642TIP3    H1 7867   0.249   0.202   6.416
 2642TIP3    H2 7868   0.215   0.060   6.455
 2643TIP3   OH2 7869   7.445   1.009   1.864
 2643TIP3    H1 7870   7.366   1.051   1.898
 2643TIP3    H2 7871   7.515   1.037   1.924
 2644TIP3   OH2 7872   5.084   3.502   1.362
 2644TIP3    H1 7873   5.175   3.522   1.382
 2644TIP3    H2 7874   5.087   3.417   1.317
 2645TIP3   OH2 7875   6.500   7.843   4.926
 2645TIP3    H1 7876   6.434   7.866   4.992
 2645TIP3    H2 7877   6.486   7.750   4.909
 2646TIP3   OH2 7878   7.161   5.253   6.882
 2646TIP3    H1 7879   7.183   5.340   6.850
 2646TIP3    H2 7880   7.108   5.214   6.813
 2647TIP3   OH2 7881   1.122   3.778   5.635
 2647TIP3    H1 7882   1.126   3.772   5.731
 2647TIP3    H2 7883   1.088   3.692   5.608
 2648TIP3   OH2 7884   7.166   2.669   4.481
 2648TIP3    H1 7885   7.221   2.605   4.527
 2648TIP3    H2 7886   7.128   2.621   4.408
 2649TIP3   OH2 7887   2.114   0.362   6.801
 2649TIP3    H1 7888   2.170   0.319   6.736
 2649TIP3    H2 7889   2.029   0.368   6.758
 2650TIP3   OH2 7890   6.542   5.965   1.200
 2650TIP3    H1 7891   6.569   6.056   1.208
 2650TIP3    H2 7892   6.473   5.955   1.266
 2651TIP3   OH2 7893   1.208   7.460   1.353
 2651TIP3    H1 7894   1.149   7.519   1.306
 2651TIP3    H2 7895   1.180   7.372   1.327
 2652TIP3   OH2 7896   3.137   5.782   4.855
 2652TIP3    H1 7897   3.209   5.760   4.795
 2652TIP3    H2 7898   3.179   5.793   4.940
 2653TIP3   OH2 7899   0.229   7.691   3.341
 2653TIP3    H1 7900   0.157   7.696   3.278
 2653TIP3    H2 7901   0.284   7.766   3.322
 2654TIP3   OH2 7902   1.587   7.211   2.945
 2654TIP3    H1 7903   1.500   7.221   2.985
 2654TIP3    H2 7904   1.587   7.272   2.871
 2655TIP3   OH2 7905   1.021   4.622   2.447
 2655TIP3    H1 7906   0.976   4.603   2.529
 2655TIP3    H2 7907   0.954   4.664   2.393
 2656TIP3   OH2 7908   4.825   4.307   3.838
 2656TIP3    H1 7909   4.847   4.366   3.765
 2656TIP3    H2 7910   4.737   4.275   3.818
 2657TIP3   OH2 7911   0.751   7.140   1.843
 2657TIP3    H1 7912   0.754   7.124   1.749
 2657TIP3    H2 7913   0.815   7.209   1.858
 2658TIP3   OH2 7914   2.664   1.084   0.369
 2658TIP3    H1 7915   2.583   1.093   0.318
 2658TIP3    H2 7916   2.666   0.992   0.394
 2659TIP3   OH2 7917   2.462   7.567   1.925
 2659TIP3    H1 7918   2.400   7.549   1.854
 2659TIP3    H2 7919   2.408   7.571   2.004
 2660TIP3   OH2 7920   8.299   3.143   5.623
 2660TIP3    H1 7921   8.338   3.230   5.620
 2660TIP3    H2 7922   8.249   3.142   5.705
 2661TIP3   OH2 7923   5.535   5.102   3.621
 2661TIP3    H1 7924   5.490   5.140   3.546
 2661TIP3    H2 7925   5.625   5.134   3.615
 2662TIP3   OH2 7926   6.190   4.853   2.711
 2662TIP3    H1 7927   6.107   4.857   2.760
 2662TIP3    H2 7928   6.255   4.830   2.777
 2663TIP3   OH2 7929   4.864   4.534   3.380
 2663TIP3    H1 7930   4.947   4.486   3.370
 2663TIP3    H2 7931   4.888   4.625   3.366
 2664TIP3   OH2 7932   0.487   6.367   0.056
 2664TIP3    H1 7933   0.542   6.289   0.060
 2664TIP3    H2 7934   0.548   6.440   0.069
 2665TIP3   OH2 7935   6.078   7.093   3.247
 2665TIP3    H1 7936   5.992   7.059   3.273
 2665TIP3    H2 7937   6.083   7.180   3.286
 2666TIP3   OH2 7938  -0.027   5.884   2.496
 2666TIP3    H1 7939   0.007   5.795   2.486
 2666TIP3    H2 7940   0.015   5.934   2.427
 2667TIP3   OH2 7941   7.088   7.322   6.403
 2667TIP3    H1 7942   7.173   7.352   6.434
 2667TIP3    H2 7943   7.093   7.331   6.308
 2668TIP3   OH2 7944   6.065   4.369   1.283
 2668TIP3    H1 7945   5.996   4.413   1.332
 2668TIP3    H2 7946   6.133   4.350   1.348
 2669TIP3   OH2 7947   7.004   1.324   0.919
 2669TIP3    H1 7948   6.998   1.291   1.009
 2669TIP3    H2 7949   7.098   1.328   0.901
 2670TIP3   OH2 7950   0.145   6.049   2.729
 2670TIP3    H1 7951   0.205   6.041   2.803
 2670TIP3    H2 7952   0.161   6.137   2.694
 2671TIP3   OH2 7953   5.927   3.899   2.765
 2671TIP3    H1 7954   5.970   3.869   2.845
 2671TIP3    H2 7955   5.999   3.921   2.706
 2672TIP3   OH2 7956   6.140   2.565   4.610
 2672TIP3    H1 7957   6.210   2.516   4.567
 2672TIP3    H2 7958   6.186   2.629   4.664
 2673TIP3   OH2 7959   7.832   4.100   0.616
 2673TIP3    H1 7960   7.837   4.009   0.588
 2673TIP3    H2 7961   7.860   4.150   0.539
 2674TIP3   OH2 7962   0.572   0.536   5.580
 2674TIP3    H1 7963   0.655   0.545   5.628
 2674TIP3    H2 7964   0.597   0.543   5.488
 2675TIP3   OH2 7965   7.717   4.558   3.591
 2675TIP3    H1 7966   7.715   4.633   3.532
 2675TIP3    H2 7967   7.645   4.574   3.652
 2676TIP3   OH2 7968   3.935   1.987   0.263
 2676TIP3    H1 7969   3.959   1.922   0.197
 2676TIP3    H2 7970   3.851   2.022   0.234
 2677TIP3   OH2 7971   1.271   0.201   0.252
 2677TIP3    H1 7972   1.183   0.176   0.281
 2677TIP3    H2 7973   1.277   0.168   0.162
 2678TIP3   OH2 7974   3.782   2.653   4.718
 2678TIP3    H1 7975   3.771   2.746   4.701
 2678TIP3    H2 7976   3.692   2.619   4.723
 2679TIP3   OH2 7977   1.687   6.339   2.757
 2679TIP3    H1 7978   1.718   6.430   2.765
 2679TIP3    H2 7979   1.745   6.300   2.691
 2680TIP3   OH2 7980   1.203   3.980   3.482
 2680TIP3    H1 7981   1.109   3.996   3.490
 2680TIP3    H2 7982   1.244   4.063   3.505
 2681TIP3   OH2 7983   2.697   6.657   1.515
 2681TIP3    H1 7984   2.752   6.689   1.586
 2681TIP3    H2 7985   2.683   6.565   1.536
 2682TIP3   OH2 7986   2.845   0.034   1.393
 2682TIP3    H1 7987   2.867  -0.042   1.446
 2682TIP3    H2 7988   2.928   0.078   1.376
 2683TIP3   OH2 7989   3.847   4.721   4.187
 2683TIP3    H1 7990   3.850   4.773   4.268
 2683TIP3    H2 7991   3.892   4.776   4.123
 2684TIP3   OH2 7992   6.369   0.170   1.663
 2684TIP3    H1 7993   6.317   0.152   1.742
 2684TIP3    H2 7994   6.426   0.094   1.655
 2685TIP3   OH2 7995   6.389   6.212   2.522
 2685TIP3    H1 7996   6.453   6.143   2.541
 2685TIP3    H2 7997   6.312   6.165   2.490
 2686TIP3   OH2 7998   0.313   6.766   6.265
 2686TIP3    H1 7999   0.252   6.831   6.301
 2686TIP3    H2 8000   0.293   6.686   6.313
 2687TIP3   OH2 8001   6.942   5.169   4.241
 2687TIP3    H1 8002   6.956   5.075   4.249
 2687TIP3    H2 8003   6.924   5.199   4.330
 2688TIP3   OH2 8004   4.158   5.696   0.764
 2688TIP3    H1 8005   4.193   5.659   0.845
 2688TIP3    H2 8006   4.066   5.715   0.784
 2689TIP3   OH2 8007   7.536   5.224   5.420
 2689TIP3    H1 8008   7.491   5.139   5.425
 2689TIP3    H2 8009   7.482   5.283   5.472
 2690TIP3   OH2 8010   5.971   5.052   6.084
 2690TIP3    H1 8011   6.062   5.021   6.082
 2690TIP3    H2 8012   5.927   5.000   6.017
 2691TIP3   OH2 8013   3.008   6.103   6.052
 2691TIP3    H1 8014   3.061   6.106   5.973
 2691TIP3    H2 8015   2.974   6.014   6.056
 2692TIP3   OH2 8016   6.710   3.086   0.602
 2692TIP3    H1 8017   6.630   3.124   0.639
 2692TIP3    H2 8018   6.710   2.995   0.632
 2693TIP3   OH2 8019   1.072   7.663   6.845
 2693TIP3    H1 8020   1.008   7.601   6.811
 2693TIP3    H2 8021   1.075   7.733   6.780
 2694TIP3   OH2 8022   2.419   6.463   2.168
 2694TIP3    H1 8023   2.345   6.524   2.178
 2694TIP3    H2 8024   2.496   6.518   2.170
 2695TIP3   OH2 8025   4.789   1.450   3.371
 2695TIP3    H1 8026   4.851   1.429   3.301
 2695TIP3    H2 8027   4.797   1.377   3.433
 2696TIP3   OH2 8028   4.818   0.928   6.177
 2696TIP3    H1 8029   4.870   0.967   6.247
 2696TIP3    H2 8030   4.762   0.864   6.221
 2697TIP3   OH2 8031   3.906   5.714   0.849
 2697TIP3    H1 8032   3.910   5.706   0.944
 2697TIP3    H2 8033   3.854   5.794   0.834
 2698TIP3   OH2 8034   4.259   4.429   0.345
 2698TIP3    H1 8035   4.218   4.515   0.338
 2698TIP3    H2 8036   4.191   4.368   0.319
 2699TIP3   OH2 8037   4.298   2.537   2.835
 2699TIP3    H1 8038   4.310   2.535   2.930
 2699TIP3    H2 8039   4.281   2.629   2.815
 2700TIP3   OH2 8040   7.128   2.198   4.976
 2700TIP3    H1 8041   7.220   2.171   4.974
 2700TIP3    H2 8042   7.111   2.217   5.068
 2701TIP3   OH2 8043   0.816   7.085   3.470
 2701TIP3    H1 8044   0.727   7.065   3.499
 2701TIP3    H2 8045   0.813   7.176   3.442
 2702TIP3   OH2 8046   7.290   7.461   3.847
 2702TIP3    H1 8047   7.338   7.379   3.853
 2702TIP3    H2 8048   7.338   7.521   3.904
 2703TIP3   OH2 8049   0.615   7.822   6.449
 2703TIP3    H1 8050   0.627   7.802   6.542
 2703TIP3    H2 8051   0.688   7.881   6.428
 2704TIP3   OH2 8052   6.657   3.876   3.362
 2704TIP3    H1 8053   6.625   3.797   3.319
 2704TIP3    H2 8054   6.737   3.899   3.315
 2705TIP3   OH2 8055   7.593   7.890   3.655
 2705TIP3    H1 8056   7.686   7.872   3.669
 2705TIP3    H2 8057   7.550   7.805   3.670
 2706TIP3   OH2 8058   3.936   1.014   4.542
 2706TIP3    H1 8059   3.924   1.082   4.476
 2706TIP3    H2 8060   3.850   1.006   4.583
 2707TIP3   OH2 8061   0.156   3.455   6.467
 2707TIP3    H1 8062   0.104   3.375   6.456
 2707TIP3    H2 8063   0.146   3.501   6.384
 2708TIP3   OH2 8064   6.350   2.736   1.113
 2708TIP3    H1 8065   6.288   2.755   1.184
 2708TIP3    H2 8066   6.371   2.643   1.123
 2709TIP3   OH2 8067   6.351   2.814   1.602
 2709TIP3    H1 8068   6.347   2.803   1.697
 2709TIP3    H2 8069   6.433   2.860   1.586
 2710TIP3   OH2 8070   1.880   0.652   0.184
 2710TIP3    H1 8071   1.905   0.577   0.239
 2710TIP3    H2 8072   1.883   0.618   0.095
 2711TIP3   OH2 8073   4.271   5.718   0.091
 2711TIP3    H1 8074   4.359   5.692   0.064
 2711TIP3    H2 8075   4.258   5.673   0.175
 2712TIP3   OH2 8076   5.972   3.382   1.998
 2712TIP3    H1 8077   5.986   3.457   1.940
 2712TIP3    H2 8078   5.993   3.415   2.086
 2713TIP3   OH2 8079   8.293   7.075   4.366
 2713TIP3    H1 8080   8.336   7.160   4.379
 2713TIP3    H2 8081   8.321   7.047   4.279
 2714TIP3   OH2 8082   2.166   1.220   5.057
 2714TIP3    H1 8083   2.248   1.256   5.091
 2714TIP3    H2 8084   2.151   1.141   5.108
 2715TIP3   OH2 8085   3.242   4.174   4.861
 2715TIP3    H1 8086   3.328   4.137   4.884
 2715TIP3    H2 8087   3.204   4.110   4.801
 2716TIP3   OH2 8088   0.682   3.016   2.025
 2716TIP3    H1 8089   0.602   3.030   2.077
 2716TIP3    H2 8090   0.655   2.957   1.955
 2717TIP3   OH2 8091   1.935   3.871   0.108
 2717TIP3    H1 8092   1.960   3.955   0.146
 2717TIP3    H2 8093   1.861   3.842   0.161
 2718TIP3   OH2 8094   0.969   5.914   2.563
 2718TIP3    H1 8095   0.930   5.919   2.650
 2718TIP3    H2 8096   1.025   5.836   2.567
 2719TIP3   OH2 8097   5.198   0.166   0.254
 2719TIP3    H1 8098   5.182   0.261   0.251
 2719TIP3    H2 8099   5.294   0.158   0.252
 2720TIP3   OH2 8100   0.838   7.774   0.510
 2720TIP3    H1 8101   0.800   7.836   0.573
 2720TIP3    H2 8102   0.929   7.802   0.500
 2721TIP3   OH2 8103   2.215   7.269   0.808
 2721TIP3    H1 8104   2.165   7.208   0.753
 2721TIP3    H2 8105   2.157   7.345   0.818
 2722TIP3   OH2 8106   0.205   6.113   6.865
 2722TIP3    H1 8107   0.139   6.046   6.849
 2722TIP3    H2 8108   0.282   6.083   6.816
 2723TIP3   OH2 8109   5.906   5.384   6.782
 2723TIP3    H1 8110   5.900   5.480   6.780
 2723TIP3    H2 8111   5.905   5.363   6.876
 2724TIP3   OH2 8112   4.867   7.381   6.244
 2724TIP3    H1 8113   4.848   7.428   6.326
 2724TIP3    H2 8114   4.789   7.395   6.190
 2725TIP3   OH2 8115   2.430   1.928   2.138
 2725TIP3    H1 8116   2.448   1.943   2.230
 2725TIP3    H2 8117   2.335   1.934   2.131
 2726TIP3   OH2 8118   3.464   2.265   4.024
 2726TIP3    H1 8119   3.521   2.190   4.040
 2726TIP3    H2 8120   3.524   2.339   4.011
 2727TIP3   OH2 8121   1.809   3.581   4.101
 2727TIP3    H1 8122   1.807   3.641   4.176
 2727TIP3    H2 8123   1.847   3.501   4.136
 2728TIP3   OH2 8124   2.609   4.696   4.043
 2728TIP3    H1 8125   2.658   4.778   4.030
 2728TIP3    H2 8126   2.674   4.634   4.077
 2729TIP3   OH2 8127   5.995   3.310   1.268
 2729TIP3    H1 8128   6.031   3.239   1.214
 2729TIP3    H2 8129   5.986   3.271   1.355
 2730TIP3   OH2 8130   3.389   4.711   0.525
 2730TIP3    H1 8131   3.400   4.745   0.436
 2730TIP3    H2 8132   3.325   4.770   0.566
 2731TIP3   OH2 8133   1.322   2.990   0.317
 2731TIP3    H1 8134   1.241   3.032   0.289
 2731TIP3    H2 8135   1.303   2.958   0.405
 2732TIP3   OH2 8136   3.064   0.156   1.033
 2732TIP3    H1 8137   3.068   0.200   1.118
 2732TIP3    H2 8138   3.155   0.151   1.004
 2733TIP3   OH2 8139   3.718   7.581   4.561
 2733TIP3    H1 8140   3.642   7.539   4.603
 2733TIP3    H2 8141   3.682   7.661   4.523
 2734TIP3   OH2 8142   2.809   3.094   4.293
 2734TIP3    H1 8143   2.885   3.055   4.335
 2734TIP3    H2 8144   2.773   3.025   4.237
 2735TIP3   OH2 8145   6.688   3.183   4.017
 2735TIP3    H1 8146   6.637   3.107   4.044
 2735TIP3    H2 8147   6.677   3.246   4.088
 2736TIP3   OH2 8148   5.543   5.066   2.784
 2736TIP3    H1 8149   5.620   5.015   2.756
 2736TIP3    H2 8150   5.569   5.106   2.866
 2737TIP3   OH2 8151   1.007   5.513   1.432
 2737TIP3    H1 8152   0.978   5.479   1.347
 2737TIP3    H2 8153   1.084   5.566   1.412
 2738TIP3   OH2 8154   6.478   3.305   5.730
 2738TIP3    H1 8155   6.409   3.265   5.783
 2738TIP3    H2 8156   6.438   3.385   5.696
 2739TIP3   OH2 8157   3.946   3.459   2.371
 2739TIP3    H1 8158   3.909   3.406   2.300
 2739TIP3    H2 8159   3.884   3.531   2.380
 2740TIP3   OH2 8160   5.052   4.801   2.833
 2740TIP3    H1 8161   4.993   4.837   2.766
 2740TIP3    H2 8162   5.054   4.707   2.814
 2741TIP3   OH2 8163   5.354   3.841   6.078
 2741TIP3    H1 8164   5.262   3.859   6.097
 2741TIP3    H2 8165   5.370   3.884   5.994
 2742TIP3   OH2 8166   1.262   6.820   3.796
 2742TIP3    H1 8167   1.335   6.845   3.739
 2742TIP3    H2 8168   1.184   6.852   3.750
 2743TIP3   OH2 8169   6.885   7.392   1.636
 2743TIP3    H1 8170   6.855   7.483   1.640
 2743TIP3    H2 8171   6.825   7.344   1.693
 2744TIP3   OH2 8172   7.003   5.461   0.223
 2744TIP3    H1 8173   6.919   5.428   0.255
 2744TIP3    H2 8174   7.049   5.383   0.192
 2745TIP3   OH2 8175   0.836   4.685   6.074
 2745TIP3    H1 8176   0.893   4.742   6.125
 2745TIP3    H2 8177   0.763   4.665   6.133
 2746TIP3   OH2 8178   5.219   5.123   1.418
 2746TIP3    H1 8179   5.309   5.116   1.386
 2746TIP3    H2 8180   5.225   5.099   1.511
 2747TIP3   OH2 8181   3.815   7.453   5.651
 2747TIP3    H1 8182   3.814   7.376   5.707
 2747TIP3    H2 8183   3.889   7.439   5.592
 2748TIP3   OH2 8184   3.968   7.612   6.247
 2748TIP3    H1 8185   3.984   7.695   6.201
 2748TIP3    H2 8186   4.043   7.603   6.306
 2749TIP3   OH2 8187   5.723   0.534   1.542
 2749TIP3    H1 8188   5.653   0.501   1.486
 2749TIP3    H2 8189   5.799   0.539   1.484
 2750TIP3   OH2 8190   1.925   3.324   1.408
 2750TIP3    H1 8191   1.961   3.349   1.493
 2750TIP3    H2 8192   1.977   3.375   1.345
 2751TIP3   OH2 8193   4.138   1.325   3.337
 2751TIP3    H1 8194   4.202   1.277   3.285
 2751TIP3    H2 8195   4.053   1.303   3.298
 2752TIP3   OH2 8196   7.507   5.407   2.187
 2752TIP3    H1 8197   7.461   5.443   2.263
 2752TIP3    H2 8198   7.451   5.335   2.158
 2753TIP3   OH2 8199   4.844   1.501   5.194
 2753TIP3    H1 8200   4.919   1.443   5.207
 2753TIP3    H2 8201   4.850   1.529   5.103
 2754TIP3   OH2 8202   7.438   0.794   2.723
 2754TIP3    H1 8203   7.422   0.882   2.757
 2754TIP3    H2 8204   7.378   0.738   2.772
 2755TIP3   OH2 8205   6.217   2.639   3.295
 2755TIP3    H1 8206   6.264   2.577   3.350
 2755TIP3    H2 8207   6.187   2.586   3.220
 2756TIP3   OH2 8208   7.327   3.882   3.472
 2756TIP3    H1 8209   7.234   3.862   3.484
 2756TIP3    H2 8210   7.336   3.972   3.504
 2757TIP3   OH2 8211   7.636   6.188   0.384
 2757TIP3    H1 8212   7.649   6.241   0.306
 2757TIP3    H2 8213   7.689   6.109   0.368
 2758TIP3   OH2 8214   3.501   5.836   5.451
 2758TIP3    H1 8215   3.536   5.836   5.540
 2758TIP3    H2 8216   3.569   5.880   5.399
 2759TIP3   OH2 8217   1.397   4.966   5.842
 2759TIP3    H1 8218   1.482   5.007   5.825
 2759TIP3    H2 8219   1.362   5.014   5.917
 2760TIP3   OH2 8220   7.406   6.127   0.838
 2760TIP3    H1 8221   7.427   6.171   0.920
 2760TIP3    H2 8222   7.389   6.198   0.776
 2761TIP3   OH2 8223   8.128   3.088   3.318
 2761TIP3    H1 8224   8.069   3.031   3.269
 2761TIP3    H2 8225   8.166   3.146   3.252
 2762TIP3   OH2 8226   0.434   2.102   2.442
 2762TIP3    H1 8227   0.444   2.046   2.365
 2762TIP3    H2 8228   0.488   2.060   2.509
 2763TIP3   OH2 8229   7.715   3.543   3.520
 2763TIP3    H1 8230   7.677   3.470   3.471
 2763TIP3    H2 8231   7.687   3.528   3.611
 2764TIP3   OH2 8232   1.480   5.814   5.144
 2764TIP3    H1 8233   1.497   5.778   5.057
 2764TIP3    H2 8234   1.478   5.737   5.201
 2765TIP3   OH2 8235   4.995   2.263   3.816
 2765TIP3    H1 8236   5.023   2.336   3.762
 2765TIP3    H2 8237   4.901   2.256   3.800
 2766TIP3   OH2 8238  -0.009   5.010   2.228
 2766TIP3    H1 8239  -0.055   5.010   2.143
 2766TIP3    H2 8240   0.020   4.919   2.239
 2767TIP3   OH2 8241   8.333   6.617   6.611
 2767TIP3    H1 8242   8.428   6.612   6.627
 2767TIP3    H2 8243   8.298   6.539   6.652
 2768TIP3   OH2 8244   6.054   4.284   6.568
 2768TIP3    H1 8245   5.982   4.340   6.594
 2768TIP3    H2 8246   6.125   4.344   6.545
 2769TIP3   OH2 8247   8.211   6.739   0.071
 2769TIP3    H1 8248   8.145   6.710   0.008
 2769TIP3    H2 8249   8.232   6.660   0.121
 2770TIP3   OH2 8250   6.925   7.205   1.941
 2770TIP3    H1 8251   6.874   7.254   2.006
 2770TIP3    H2 8252   6.859   7.172   1.880
 2771TIP3   OH2 8253   1.809   2.376   2.635
 2771TIP3    H1 8254   1.848   2.382   2.548
 2771TIP3    H2 8255   1.745   2.305   2.628
 2772TIP3   OH2 8256   6.580   1.907   4.881
 2772TIP3    H1 8257   6.613   1.880   4.967
 2772TIP3    H2 8258   6.570   1.826   4.832
 2773TIP3   OH2 8259   5.027   7.635   6.590
 2773TIP3    H1 8260   5.031   7.680   6.505
 2773TIP3    H2 8261   4.953   7.676   6.636
 2774TIP3   OH2 8262   2.514   7.629   6.726
 2774TIP3    H1 8263   2.456   7.682   6.780
 2774TIP3    H2 8264   2.460   7.602   6.652
 2775TIP3   OH2 8265   2.499   1.170   2.016
 2775TIP3    H1 8266   2.570   1.234   2.027
 2775TIP3    H2 8267   2.541   1.086   2.032
 2776TIP3   OH2 8268   4.487   5.298   1.345
 2776TIP3    H1 8269   4.416   5.242   1.316
 2776TIP3    H2 8270   4.537   5.318   1.266
 2777TIP3   OH2 8271   3.927   5.834   5.901
 2777TIP3    H1 8272   3.938   5.897   5.830
 2777TIP3    H2 8273   3.928   5.749   5.859
 2778TIP3   OH2 8274   7.146   7.796   2.702
 2778TIP3    H1 8275   7.180   7.877   2.665
 2778TIP3    H2 8276   7.051   7.809   2.706
 2779TIP3   OH2 8277   7.835   5.627   1.509
 2779TIP3    H1 8278   7.849   5.686   1.435
 2779TIP3    H2 8279   7.750   5.585   1.491
 2780TIP3   OH2 8280   4.738   7.088   2.460
 2780TIP3    H1 8281   4.758   7.002   2.422
 2780TIP3    H2 8282   4.820   7.117   2.500
 2781TIP3   OH2 8283   4.621   1.572   0.493
 2781TIP3    H1 8284   4.622   1.500   0.431
 2781TIP3    H2 8285   4.606   1.531   0.578
 2782TIP3   OH2 8286   1.213   1.470   0.870
 2782TIP3    H1 8287   1.270   1.396   0.890
 2782TIP3    H2 8288   1.129   1.447   0.910
 2783TIP3   OH2 8289   3.484   0.123   4.803
 2783TIP3    H1 8290   3.448   0.119   4.891
 2783TIP3    H2 8291   3.537   0.044   4.794
 2784TIP3   OH2 8292   5.263   2.740   0.865
 2784TIP3    H1 8293   5.181   2.729   0.913
 2784TIP3    H2 8294   5.302   2.653   0.863
 2785TIP3   OH2 8295   1.463   5.468   4.973
 2785TIP3    H1 8296   1.463   5.426   4.887
 2785TIP3    H2 8297   1.545   5.517   4.976
 2786TIP3   OH2 8298   2.496   1.272   2.262
 2786TIP3    H1 8299   2.472   1.242   2.174
 2786TIP3    H2 8300   2.496   1.368   2.255
 2787TIP3   OH2 8301  -0.040   6.433   3.095
 2787TIP3    H1 8302  -0.012   6.525   3.095
 2787TIP3    H2 8303  -0.057   6.413   3.003
 2788TIP3   OH2 8304   7.387   7.928   0.470
 2788TIP3    H1 8305   7.476   7.959   0.453
 2788TIP3    H2 8306   7.340   8.007   0.497
 2789TIP3   OH2 8307   7.055   1.027   6.534
 2789TIP3    H1 8308   7.122   1.010   6.601
 2789TIP3    H2 8309   7.082   0.972   6.460
 2790TIP3   OH2 8310   4.834   2.296   3.074
 2790TIP3    H1 8311   4.857   2.256   3.158
 2790TIP3    H2 8312   4.884   2.378   3.072
 2791TIP3   OH2 8313   3.117   3.267   4.674
 2791TIP3    H1 8314   3.191   3.240   4.730
 2791TIP3    H2 8315   3.045   3.280   4.735
 2792TIP3   OH2 8316   7.119   2.104   3.827
 2792TIP3    H1 8317   7.083   2.042   3.764
 2792TIP3    H2 8318   7.193   2.058   3.867
 2793TIP3   OH2 8319   4.385   5.492   6.318
 2793TIP3    H1 8320   4.302   5.489   6.365
 2793TIP3    H2 8321   4.418   5.402   6.322
 2794TIP3   OH2 8322   0.640   1.983   3.774
 2794TIP3    H1 8323   0.635   1.953   3.683
 2794TIP3    H2 8324   0.711   2.048   3.773
 2795TIP3   OH2 8325   2.448   1.383   6.234
 2795TIP3    H1 8326   2.353   1.389   6.248
 2795TIP3    H2 8327   2.486   1.404   6.319
 2796TIP3   OH2 8328   6.318   6.722   5.912
 2796TIP3    H1 8329   6.277   6.660   5.973
 2796TIP3    H2 8330   6.246   6.753   5.858
 2797TIP3   OH2 8331   8.391   5.301   3.271
 2797TIP3    H1 8332   8.408   5.216   3.230
 2797TIP3    H2 8333   8.478   5.338   3.286
 2798TIP3   OH2 8334   3.849   5.877   4.555
 2798TIP3    H1 8335   3.869   5.899   4.464
 2798TIP3    H2 8336   3.890   5.947   4.606
 2799TIP3   OH2 8337   3.582   5.830   3.156
 2799TIP3    H1 8338   3.600   5.749   3.108
 2799TIP3    H2 8339   3.569   5.802   3.246
 2800TIP3   OH2 8340   3.918   1.245   2.180
 2800TIP3    H1 8341   3.872   1.227   2.098
 2800TIP3    H2 8342   3.856   1.296   2.232
 2801TIP3   OH2 8343   5.883   3.461   6.052
 2801TIP3    H1 8344   5.883   3.447   5.957
 2801TIP3    H2 8345   5.868   3.555   6.063
 2802TIP3   OH2 8346   7.019   5.601   6.802
 2802TIP3    H1 8347   7.054   5.579   6.716
 2802TIP3    H2 8348   6.937   5.552   6.809
 2803TIP3   OH2 8349   3.275   4.664   1.516
 2803TIP3    H1 8350   3.244   4.754   1.502
 2803TIP3    H2 8351   3.276   4.654   1.611
 2804TIP3   OH2 8352   7.670   5.576   2.997
 2804TIP3    H1 8353   7.721   5.498   2.974
 2804TIP3    H2 8354   7.714   5.611   3.075
 2805TIP3   OH2 8355   5.320   2.785   3.744
 2805TIP3    H1 8356   5.339   2.699   3.782
 2805TIP3    H2 8357   5.324   2.771   3.650
 2806TIP3   OH2 8358   0.580   5.249   4.877
 2806TIP3    H1 8359   0.502   5.285   4.836
 2806TIP3    H2 8360   0.554   5.161   4.906
 2807TIP3   OH2 8361   3.375   3.151   5.909
 2807TIP3    H1 8362   3.324   3.135   5.829
 2807TIP3    H2 8363   3.394   3.064   5.943
 2808TIP3   OH2 8364   0.964   3.626   4.735
 2808TIP3    H1 8365   0.905   3.611   4.809
 2808TIP3    H2 8366   1.012   3.544   4.726
 2809TIP3   OH2 8367   7.309   5.613   1.739
 2809TIP3    H1 8368   7.273   5.594   1.653
 2809TIP3    H2 8369   7.336   5.528   1.774
 2810TIP3   OH2 8370   7.287   3.286   1.080
 2810TIP3    H1 8371   7.200   3.249   1.071
 2810TIP3    H2 8372   7.273   3.373   1.118
 2811TIP3   OH2 8373   3.714   5.051   5.563
 2811TIP3    H1 8374   3.752   5.026   5.647
 2811TIP3    H2 8375   3.677   4.970   5.529
 2812TIP3   OH2 8376   1.225   7.361   5.793
 2812TIP3    H1 8377   1.224   7.368   5.698
 2812TIP3    H2 8378   1.136   7.332   5.816
 2813TIP3   OH2 8379   2.011   6.866   4.673
 2813TIP3    H1 8380   1.976   6.954   4.689
 2813TIP3    H2 8381   1.938   6.807   4.691
 2814TIP3   OH2 8382   7.035   1.411   2.207
 2814TIP3    H1 8383   7.016   1.325   2.245
 2814TIP3    H2 8384   7.009   1.403   2.116
 2815TIP3   OH2 8385   5.440   1.357   2.296
 2815TIP3    H1 8386   5.417   1.443   2.330
 2815TIP3    H2 8387   5.397   1.353   2.211
 2816TIP3   OH2 8388   5.245   4.384   5.799
 2816TIP3    H1 8389   5.175   4.324   5.820
 2816TIP3    H2 8390   5.312   4.368   5.866
 2817TIP3   OH2 8391   7.863   0.916   4.202
 2817TIP3    H1 8392   7.945   0.883   4.166
 2817TIP3    H2 8393   7.815   0.950   4.127
 2818TIP3   OH2 8394   8.024   3.807   6.415
 2818TIP3    H1 8395   7.962   3.877   6.435
 2818TIP3    H2 8396   8.029   3.756   6.496
 2819TIP3   OH2 8397   1.215   2.488   3.863
 2819TIP3    H1 8398   1.270   2.473   3.786
 2819TIP3    H2 8399   1.137   2.530   3.830
 2820TIP3   OH2 8400   7.364   4.519   4.199
 2820TIP3    H1 8401   7.301   4.561   4.258
 2820TIP3    H2 8402   7.443   4.508   4.252
 2821TIP3   OH2 8403   5.694   2.527   2.079
 2821TIP3    H1 8404   5.762   2.592   2.091
 2821TIP3    H2 8405   5.741   2.446   2.057
 2822TIP3   OH2 8406   5.129   6.090   6.754
 2822TIP3    H1 8407   5.069   6.063   6.824
 2822TIP3    H2 8408   5.119   6.185   6.749
 2823TIP3   OH2 8409   3.573   6.042   3.818
 2823TIP3    H1 8410   3.488   6.002   3.796
 2823TIP3    H2 8411   3.621   5.972   3.862
 2824TIP3   OH2 8412   0.326   4.336   1.395
 2824TIP3    H1 8413   0.402   4.393   1.381
 2824TIP3    H2 8414   0.332   4.271   1.325
 2825TIP3   OH2 8415   5.290   2.463   6.848
 2825TIP3    H1 8416   5.194   2.454   6.848
 2825TIP3    H2 8417   5.310   2.504   6.764
 2826TIP3   OH2 8418   1.602   6.190   6.181
 2826TIP3    H1 8419   1.558   6.202   6.097
 2826TIP3    H2 8420   1.665   6.263   6.185
 2827TIP3   OH2 8421   3.601   1.276   2.997
 2827TIP3    H1 8422   3.577   1.307   3.085
 2827TIP3    H2 8423   3.550   1.330   2.938
 2828TIP3   OH2 8424   5.283   2.872   2.200
 2828TIP3    H1 8425   5.245   2.784   2.197
 2828TIP3    H2 8426   5.280   2.897   2.292
 2829TIP3   OH2 8427   1.107   1.549   0.449
 2829TIP3    H1 8428   1.123   1.567   0.542
 2829TIP3    H2 8429   1.050   1.472   0.449
 2830TIP3   OH2 8430   3.047   4.708   5.506
 2830TIP3    H1 8431   3.031   4.750   5.590
 2830TIP3    H2 8432   3.008   4.767   5.441
 2831TIP3   OH2 8433   6.251   7.417   4.405
 2831TIP3    H1 8434   6.295   7.464   4.475
 2831TIP3    H2 8435   6.284   7.327   4.411
 2832TIP3   OH2 8436   3.772   0.187   1.235
 2832TIP3    H1 8437   3.790   0.178   1.329
 2832TIP3    H2 8438   3.855   0.216   1.198
 2833TIP3   OH2 8439   7.468   6.498   2.415
 2833TIP3    H1 8440   7.472   6.476   2.508
 2833TIP3    H2 8441   7.549   6.461   2.378
 2834TIP3   OH2 8442   3.352   4.181   2.450
 2834TIP3    H1 8443   3.438   4.223   2.451
 2834TIP3    H2 8444   3.290   4.254   2.451
 2835TIP3   OH2 8445   1.444   1.621   6.182
 2835TIP3    H1 8446   1.534   1.601   6.208
 2835TIP3    H2 8447   1.450   1.709   6.144
 2836TIP3   OH2 8448   7.690   3.681   0.013
 2836TIP3    H1 8449   7.746   3.606   0.034
 2836TIP3    H2 8450   7.602   3.653   0.036
 2837TIP3   OH2 8451   5.809   4.115   2.953
 2837TIP3    H1 8452   5.870   4.185   2.930
 2837TIP3    H2 8453   5.841   4.039   2.904
 2838TIP3   OH2 8454   2.188   0.629   0.410
 2838TIP3    H1 8455   2.136   0.709   0.398
 2838TIP3    H2 8456   2.275   0.661   0.433
 2839TIP3   OH2 8457   8.102   4.445   4.011
 2839TIP3    H1 8458   8.060   4.361   3.996
 2839TIP3    H2 8459   8.194   4.431   3.988
 2840TIP3   OH2 8460   1.571   5.837   1.913
 2840TIP3    H1 8461   1.534   5.920   1.882
 2840TIP3    H2 8462   1.664   5.843   1.891
 2841TIP3   OH2 8463   1.183   2.091   1.020
 2841TIP3    H1 8464   1.097   2.096   1.063
 2841TIP3    H2 8465   1.197   1.998   1.002
 2842TIP3   OH2 8466   5.692   7.295   3.037
 2842TIP3    H1 8467   5.776   7.263   3.003
 2842TIP3    H2 8468   5.704   7.389   3.047
 2843TIP3   OH2 8469   2.647   3.516   1.342
 2843TIP3    H1 8470   2.734   3.536   1.376
 2843TIP3    H2 8471   2.619   3.597   1.300
 2844TIP3   OH2 8472   6.175   1.155   2.735
 2844TIP3    H1 8473   6.127   1.175   2.655
 2844TIP3    H2 8474   6.118   1.183   2.806
 2845TIP3   OH2 8475   5.832   7.106   5.241
 2845TIP3    H1 8476   5.834   7.011   5.252
 2845TIP3    H2 8477   5.902   7.124   5.179
 2846TIP3   OH2 8478   4.778   5.164   2.500
 2846TIP3    H1 8479   4.685   5.149   2.480
 2846TIP3    H2 8480   4.825   5.128   2.425
 2847TIP3   OH2 8481   6.549   5.007   2.890
 2847TIP3    H1 8482   6.616   4.938   2.898
 2847TIP3    H2 8483   6.599   5.089   2.897
 2848TIP3   OH2 8484   3.263   4.445   6.644
 2848TIP3    H1 8485   3.174   4.479   6.648
 2848TIP3    H2 8486   3.279   4.433   6.550
 2849TIP3   OH2 8487   3.708   2.666   2.386
 2849TIP3    H1 8488   3.791   2.629   2.419
 2849TIP3    H2 8489   3.734   2.742   2.335
 2850TIP3   OH2 8490   7.319   6.727   2.764
 2850TIP3    H1 8491   7.374   6.754   2.690
 2850TIP3    H2 8492   7.235   6.771   2.750
 2851TIP3   OH2 8493   8.284   7.509   0.728
 2851TIP3    H1 8494   8.212   7.451   0.752
 2851TIP3    H2 8495   8.259   7.594   0.763
 2852TIP3   OH2 8496   7.287   1.601   2.431
 2852TIP3    H1 8497   7.221   1.608   2.361
 2852TIP3    H2 8498   7.349   1.672   2.412
 2853TIP3   OH2 8499   4.707   1.596   5.805
 2853TIP3    H1 8500   4.675   1.579   5.893
 2853TIP3    H2 8501   4.647   1.547   5.748
 2854TIP3   OH2 8502   7.400   6.097   0.462
 2854TIP3    H1 8503   7.477   6.148   0.436
 2854TIP3    H2 8504   7.352   6.155   0.521
 2855TIP3   OH2 8505   0.701   6.582   5.002
 2855TIP3    H1 8506   0.691   6.582   5.097
 2855TIP3    H2 8507   0.776   6.525   4.986
 2856TIP3   OH2 8508   3.773   4.003   0.496
 2856TIP3    H1 8509   3.834   3.973   0.428
 2856TIP3    H2 8510   3.819   3.987   0.578
 2857TIP3   OH2 8511   5.528   3.034   1.870
 2857TIP3    H1 8512   5.442   3.033   1.911
 2857TIP3    H2 8513   5.562   3.122   1.888
 2858TIP3   OH2 8514   8.143   3.450   2.984
 2858TIP3    H1 8515   8.069   3.484   2.934
 2858TIP3    H2 8516   8.166   3.521   3.044
 2859TIP3   OH2 8517   7.851   4.816   1.155
 2859TIP3    H1 8518   7.936   4.813   1.199
 2859TIP3    H2 8519   7.872   4.841   1.064
 2860TIP3   OH2 8520   1.831   0.625   3.243
 2860TIP3    H1 8521   1.787   0.551   3.202
 2860TIP3    H2 8522   1.863   0.678   3.169
 2861TIP3   OH2 8523   5.770   3.658   1.487
 2861TIP3    H1 8524   5.723   3.612   1.556
 2861TIP3    H2 8525   5.840   3.705   1.532
 2862TIP3   OH2 8526   7.343   4.552   3.054
 2862TIP3    H1 8527   7.292   4.589   2.982
 2862TIP3    H2 8528   7.309   4.462   3.062
 2863TIP3   OH2 8529   6.256   5.450   3.295
 2863TIP3    H1 8530   6.245   5.526   3.239
 2863TIP3    H2 8531   6.289   5.486   3.378
 2864TIP3   OH2 8532   3.448   6.770   3.032
 2864TIP3    H1 8533   3.420   6.750   3.122
 2864TIP3    H2 8534   3.392   6.715   2.977
 2865TIP3   OH2 8535   3.928   1.926   5.979
 2865TIP3    H1 8536   3.905   1.872   6.054
 2865TIP3    H2 8537   3.864   1.997   5.980
 2866TIP3   OH2 8538   7.470   3.765   3.121
 2866TIP3    H1 8539   7.477   3.857   3.147
 2866TIP3    H2 8540   7.448   3.769   3.028
 2867TIP3   OH2 8541   0.265   6.957   3.051
 2867TIP3    H1 8542   0.323   7.014   3.101
 2867TIP3    H2 8543   0.238   6.890   3.114
 2868TIP3   OH2 8544   7.862   7.134   4.812
 2868TIP3    H1 8545   7.886   7.042   4.811
 2868TIP3    H2 8546   7.877   7.163   4.722
 2869TIP3   OH2 8547   1.223   7.631   2.316
 2869TIP3    H1 8548   1.269   7.715   2.322
 2869TIP3    H2 8549   1.150   7.648   2.257
 2870TIP3   OH2 8550   6.038   5.751   5.320
 2870TIP3    H1 8551   5.975   5.713   5.381
 2870TIP3    H2 8552   5.985   5.805   5.262
 2871TIP3   OH2 8553   6.597   4.433   2.856
 2871TIP3    H1 8554   6.518   4.404   2.901
 2871TIP3    H2 8555   6.568   4.459   2.769
 2872TIP3   OH2 8556   3.071   4.960   0.228
 2872TIP3    H1 8557   3.137   4.966   0.297
 2872TIP3    H2 8558   3.069   4.867   0.204
 2873TIP3   OH2 8559   6.786   5.274   3.580
 2873TIP3    H1 8560   6.750   5.214   3.645
 2873TIP3    H2 8561   6.872   5.238   3.558
 2874TIP3   OH2 8562   5.804   3.510   2.412
 2874TIP3    H1 8563   5.804   3.529   2.505
 2874TIP3    H2 8564   5.719   3.541   2.380
 2875TIP3   OH2 8565   3.691   2.869   2.140
 2875TIP3    H1 8566   3.624   2.916   2.090
 2875TIP3    H2 8567   3.767   2.928   2.138
 2876TIP3   OH2 8568   3.122   2.111   3.395
 2876TIP3    H1 8569   3.191   2.050   3.425
 2876TIP3    H2 8570   3.066   2.058   3.338
 2877TIP3   OH2 8571   7.324   5.344   1.820
 2877TIP3    H1 8572   7.295   5.288   1.748
 2877TIP3    H2 8573   7.398   5.296   1.860
 2878TIP3   OH2 8574   1.508   4.291   5.933
 2878TIP3    H1 8575   1.577   4.229   5.955
 2878TIP3    H2 8576   1.537   4.330   5.851
 2879TIP3   OH2 8577   0.457   7.656   1.159
 2879TIP3    H1 8578   0.525   7.589   1.169
 2879TIP3    H2 8579   0.413   7.659   1.244
 2880TIP3   OH2 8580   6.232   0.666   4.067
 2880TIP3    H1 8581   6.213   0.754   4.098
 2880TIP3    H2 8582   6.328   0.660   4.071
 2881TIP3   OH2 8583   5.489   1.254   3.168
 2881TIP3    H1 8584   5.515   1.172   3.126
 2881TIP3    H2 8585   5.420   1.289   3.112
 2882TIP3   OH2 8586   3.603   1.572   3.749
 2882TIP3    H1 8587   3.667   1.615   3.692
 2882TIP3    H2 8588   3.518   1.599   3.714
 2883TIP3   OH2 8589   4.561   4.276   3.722
 2883TIP3    H1 8590   4.484   4.257   3.775
 2883TIP3    H2 8591   4.555   4.215   3.648
 2884TIP3   OH2 8592   6.789   5.212   4.992
 2884TIP3    H1 8593   6.781   5.120   5.020
 2884TIP3    H2 8594   6.739   5.216   4.910
 2885TIP3   OH2 8595   7.555   3.550   2.707
 2885TIP3    H1 8596   7.562   3.477   2.769
 2885TIP3    H2 8597   7.637   3.547   2.658
 2886TIP3   OH2 8598   5.111   3.599   5.285
 2886TIP3    H1 8599   5.168   3.526   5.260
 2886TIP3    H2 8600   5.052   3.563   5.350
 2887TIP3   OH2 8601   3.397   3.472   3.909
 2887TIP3    H1 8602   3.412   3.566   3.917
 2887TIP3    H2 8603   3.474   3.439   3.864
 2888TIP3   OH2 8604   5.505   1.398   4.730
 2888TIP3    H1 8605   5.451   1.472   4.700
 2888TIP3    H2 8606   5.586   1.439   4.759
 2889TIP3   OH2 8607   7.544   4.852   2.244
 2889TIP3    H1 8608   7.543   4.913   2.317
 2889TIP3    H2 8609   7.527   4.767   2.283
 2890TIP3   OH2 8610   2.107   3.056   3.989
 2890TIP3    H1 8611   2.122   3.109   4.067
 2890TIP3    H2 8612   2.119   3.116   3.916
 2891TIP3   OH2 8613   6.027   5.551   3.989
 2891TIP3    H1 8614   6.116   5.531   4.017
 2891TIP3    H2 8615   5.980   5.468   3.999
 2892TIP3   OH2 8616   0.261   6.158   5.835
 2892TIP3    H1 8617   0.322   6.214   5.883
 2892TIP3    H2 8618   0.175   6.193   5.854
 2893TIP3   OH2 8619   1.567   7.397   2.752
 2893TIP3    H1 8620   1.638   7.448   2.791
 2893TIP3    H2 8621   1.597   7.378   2.663
 2894TIP3   OH2 8622   3.839   6.888   1.578
 2894TIP3    H1 8623   3.872   6.881   1.488
 2894TIP3    H2 8624   3.796   6.805   1.594
 2895TIP3   OH2 8625   6.545   3.320   4.514
 2895TIP3    H1 8626   6.496   3.402   4.526
 2895TIP3    H2 8627   6.573   3.296   4.602
 2896TIP3   OH2 8628   0.927   0.114   3.377
 2896TIP3    H1 8629   0.961   0.094   3.465
 2896TIP3    H2 8630   1.003   0.148   3.330
 2897TIP3   OH2 8631   3.318   0.338   1.168
 2897TIP3    H1 8632   3.288   0.248   1.160
 2897TIP3    H2 8633   3.282   0.368   1.252
 2898TIP3   OH2 8634   0.172   4.838   1.332
 2898TIP3    H1 8635   0.113   4.811   1.402
 2898TIP3    H2 8636   0.225   4.907   1.370
 2899TIP3   OH2 8637   3.913   1.115   3.611
 2899TIP3    H1 8638   4.000   1.122   3.572
 2899TIP3    H2 8639   3.890   1.205   3.635
 2900TIP3   OH2 8640   1.078   5.214   1.388
 2900TIP3    H1 8641   1.131   5.230   1.466
 2900TIP3    H2 8642   0.989   5.199   1.422
 2901TIP3   OH2 8643   0.368   6.622   0.345
 2901TIP3    H1 8644   0.441   6.560   0.353
 2901TIP3    H2 8645   0.410   6.708   0.343
 2902TIP3   OH2 8646   6.222   6.379   5.529
 2902TIP3    H1 8647   6.310   6.417   5.530
 2902TIP3    H2 8648   6.163   6.453   5.545
 2903TIP3   OH2 8649   7.981   1.916   6.587
 2903TIP3    H1 8650   7.934   1.926   6.504
 2903TIP3    H2 8651   7.949   1.989   6.641
 2904TIP3   OH2 8652   4.806   0.195   2.666
 2904TIP3    H1 8653   4.785   0.286   2.687
 2904TIP3    H2 8654   4.795   0.190   2.571
 2905TIP3   OH2 8655   5.623   7.734   1.884
 2905TIP3    H1 8656   5.706   7.777   1.904
 2905TIP3    H2 8657   5.558   7.805   1.886
 2906TIP3   OH2 8658   4.885   1.741   6.828
 2906TIP3    H1 8659   4.790   1.752   6.830
 2906TIP3    H2 8660   4.919   1.825   6.860
 2907TIP3   OH2 8661   2.151   1.207   2.854
 2907TIP3    H1 8662   2.102   1.125   2.852
 2907TIP3    H2 8663   2.085   1.275   2.838
 2908TIP3   OH2 8664   6.740   2.187   1.743
 2908TIP3    H1 8665   6.646   2.178   1.731
 2908TIP3    H2 8666   6.778   2.123   1.683
 2909TIP3   OH2 8667   7.539   6.888   4.918
 2909TIP3    H1 8668   7.588   6.805   4.915
 2909TIP3    H2 8669   7.558   6.924   5.005
 2910TIP3   OH2 8670   1.409   2.118   2.055
 2910TIP3    H1 8671   1.486   2.115   2.113
 2910TIP3    H2 8672   1.437   2.070   1.977
 2911TIP3   OH2 8673   2.448   2.646  -0.043
 2911TIP3    H1 8674   2.468   2.627   0.049
 2911TIP3    H2 8675   2.431   2.740  -0.045
 2912TIP3   OH2 8676   2.037   3.844   2.107
 2912TIP3    H1 8677   2.109   3.804   2.156
 2912TIP3    H2 8678   1.964   3.785   2.118
 2913TIP3   OH2 8679   4.568   0.654   6.262
 2913TIP3    H1 8680   4.559   0.668   6.167
 2913TIP3    H2 8681   4.480   0.665   6.297
 2914TIP3   OH2 8682   0.441   0.136   3.473
 2914TIP3    H1 8683   0.430   0.053   3.427
 2914TIP3    H2 8684   0.529   0.131   3.511
 2915TIP3   OH2 8685   2.584   1.419   6.535
 2915TIP3    H1 8686   2.613   1.334   6.502
 2915TIP3    H2 8687   2.508   1.399   6.589
 2916TIP3   OH2 8688   0.241   6.893   4.447
 2916TIP3    H1 8689   0.193   6.971   4.420
 2916TIP3    H2 8690   0.270   6.853   4.365
 2917TIP3   OH2 8691   7.820   4.599   5.407
 2917TIP3    H1 8692   7.819   4.615   5.501
 2917TIP3    H2 8693   7.853   4.681   5.369
 2918TIP3   OH2 8694   4.871   3.338   6.801
 2918TIP3    H1 8695   4.830   3.423   6.782
 2918TIP3    H2 8696   4.953   3.340   6.752
 2919TIP3   OH2 8697   4.785   5.608   0.722
 2919TIP3    H1 8698   4.834   5.676   0.675
 2919TIP3    H2 8699   4.693   5.630   0.708
 2920TIP3   OH2 8700   0.694   0.129   5.516
 2920TIP3    H1 8701   0.624   0.184   5.551
 2920TIP3    H2 8702   0.755   0.191   5.476
 2921TIP3   OH2 8703   2.079   7.121   1.796
 2921TIP3    H1 8704   2.158   7.154   1.840
 2921TIP3    H2 8705   2.011   7.184   1.818
 2922TIP3   OH2 8706   4.406   4.200   0.878
 2922TIP3    H1 8707   4.467   4.257   0.831
 2922TIP3    H2 8708   4.441   4.196   0.967
 2923TIP3   OH2 8709   8.231   0.660   3.174
 2923TIP3    H1 8710   8.278   0.580   3.150
 2923TIP3    H2 8711   8.152   0.629   3.218
 2924TIP3   OH2 8712   5.607   3.967   3.407
 2924TIP3    H1 8713   5.683   3.991   3.461
 2924TIP3    H2 8714   5.630   3.997   3.319
 2925TIP3   OH2 8715   7.485   5.550   6.193
 2925TIP3    H1 8716   7.535   5.531   6.272
 2925TIP3    H2 8717   7.474   5.466   6.149
 2926TIP3   OH2 8718   1.656  -0.068   1.243
 2926TIP3    H1 8719   1.644  -0.047   1.150
 2926TIP3    H2 8720   1.611   0.003   1.290
 2927TIP3   OH2 8721   6.065   3.770   3.636
 2927TIP3    H1 8722   5.994   3.772   3.701
 2927TIP3    H2 8723   6.036   3.704   3.572
 2928TIP3   OH2 8724   3.608   0.234   3.019
 2928TIP3    H1 8725   3.525   0.277   3.040
 2928TIP3    H2 8726   3.605   0.151   3.066
 2929TIP3   OH2 8727   1.459   3.778   5.680
 2929TIP3    H1 8728   1.475   3.745   5.768
 2929TIP3    H2 8729   1.544   3.813   5.653
 2930TIP3   OH2 8730   4.714   3.736   2.934
 2930TIP3    H1 8731   4.719   3.677   2.858
 2930TIP3    H2 8732   4.716   3.678   3.010
 2931TIP3   OH2 8733   4.466   1.810   4.356
 2931TIP3    H1 8734   4.423   1.829   4.439
 2931TIP3    H2 8735   4.556   1.788   4.380
 2932TIP3   OH2 8736   4.541   3.532   0.502
 2932TIP3    H1 8737   4.457   3.552   0.461
 2932TIP3    H2 8738   4.596   3.498   0.431
 2933TIP3   OH2 8739   1.907   1.545   6.267
 2933TIP3    H1 8740   1.965   1.613   6.300
 2933TIP3    H2 8741   1.830   1.592   6.236
 2934TIP3   OH2 8742   2.399   6.909   4.533
 2934TIP3    H1 8743   2.441   6.994   4.540
 2934TIP3    H2 8744   2.358   6.910   4.446
 2935TIP3   OH2 8745   5.122   6.488   0.239
 2935TIP3    H1 8746   5.041   6.521   0.203
 2935TIP3    H2 8747   5.122   6.394   0.218
 2936TIP3   OH2 8748   7.774   6.588   0.488
 2936TIP3    H1 8749   7.831   6.645   0.541
 2936TIP3    H2 8750   7.727   6.649   0.431
 2937TIP3   OH2 8751   3.283   7.690   3.394
 2937TIP3    H1 8752   3.265   7.732   3.478
 2937TIP3    H2 8753   3.375   7.666   3.398
 2938TIP3   OH2 8754   7.160   3.666   6.136
 2938TIP3    H1 8755   7.190   3.657   6.226
 2938TIP3    H2 8756   7.240   3.667   6.084
 2939TIP3   OH2 8757   3.840   7.331   2.923
 2939TIP3    H1 8758   3.877   7.311   2.838
 2939TIP3    H2 8759   3.754   7.370   2.904
 2940TIP3   OH2 8760   2.075   7.695   2.880
 2940TIP3    H1 8761   2.166   7.714   2.856
 2940TIP3    H2 8762   2.063   7.603   2.855
 2941TIP3   OH2 8763   6.593   1.918   0.097
 2941TIP3    H1 8764   6.540   1.840   0.111
 2941TIP3    H2 8765   6.547   1.967   0.029
 2942TIP3   OH2 8766   1.357   1.617   2.029
 2942TIP3    H1 8767   1.417   1.557   1.985
 2942TIP3    H2 8768   1.412   1.693   2.052
 2943TIP3   OH2 8769   8.167   4.827   1.163
 2943TIP3    H1 8770   8.152   4.732   1.163
 2943TIP3    H2 8771   8.229   4.841   1.091
 2944TIP3   OH2 8772   7.034   5.494   5.381
 2944TIP3    H1 8773   7.011   5.493   5.474
 2944TIP3    H2 8774   6.952   5.516   5.337
 2945TIP3   OH2 8775   2.693   5.093   3.723
 2945TIP3    H1 8776   2.703   5.185   3.698
 2945TIP3    H2 8777   2.712   5.093   3.817
 2946TIP3   OH2 8778   2.698   6.009   3.496
 2946TIP3    H1 8779   2.769   6.044   3.549
 2946TIP3    H2 8780   2.741   5.954   3.430
 2947TIP3   OH2 8781   0.430   1.435   0.453
 2947TIP3    H1 8782   0.362   1.386   0.498
 2947TIP3    H2 8783   0.391   1.521   0.437
 2948TIP3   OH2 8784   6.536   7.187   3.192
 2948TIP3    H1 8785   6.585   7.150   3.265
 2948TIP3    H2 8786   6.559   7.280   3.192
 2949TIP3   OH2 8787   4.293   1.771   2.816
 2949TIP3    H1 8788   4.251   1.849   2.854
 2949TIP3    H2 8789   4.252   1.762   2.730
 2950TIP3   OH2 8790   5.434   6.716   6.180
 2950TIP3    H1 8791   5.506   6.653   6.174
 2950TIP3    H2 8792   5.430   6.740   6.272
 2951TIP3   OH2 8793   5.917   5.829   0.405
 2951TIP3    H1 8794   5.935   5.923   0.409
 2951TIP3    H2 8795   5.915   5.802   0.497
 2952TIP3   OH2 8796   0.666   4.864   5.164
 2952TIP3    H1 8797   0.722   4.807   5.216
 2952TIP3    H2 8798   0.602   4.898   5.226
 2953TIP3   OH2 8799   6.475  -0.013   4.874
 2953TIP3    H1 8800   6.450   0.065   4.924
 2953TIP3    H2 8801   6.457   0.010   4.783
 2954TIP3   OH2 8802   8.162   1.531   3.552
 2954TIP3    H1 8803   8.087   1.495   3.600
 2954TIP3    H2 8804   8.192   1.604   3.606
 2955TIP3   OH2 8805   1.559   6.079   0.831
 2955TIP3    H1 8806   1.589   6.132   0.757
 2955TIP3    H2 8807   1.466   6.064   0.815
 2956TIP3   OH2 8808   7.056   7.901   1.501
 2956TIP3    H1 8809   7.101   7.976   1.462
 2956TIP3    H2 8810   6.972   7.897   1.454
 2957TIP3   OH2 8811   7.832   5.361   2.990
 2957TIP3    H1 8812   7.862   5.275   2.961
 2957TIP3    H2 8813   7.905   5.420   2.968
 2958TIP3   OH2 8814   5.780   0.289   5.046
 2958TIP3    H1 8815   5.861   0.326   5.080
 2958TIP3    H2 8816   5.761   0.215   5.103
 2959TIP3   OH2 8817   3.766   6.477   1.834
 2959TIP3    H1 8818   3.860   6.462   1.843
 2959TIP3    H2 8819   3.759   6.571   1.816
 2960TIP3   OH2 8820   3.417   0.374   3.138
 2960TIP3    H1 8821   3.401   0.374   3.232
 2960TIP3    H2 8822   3.329   0.374   3.099
 2961TIP3   OH2 8823   2.275   5.593   5.574
 2961TIP3    H1 8824   2.275   5.669   5.632
 2961TIP3    H2 8825   2.183   5.575   5.556
 2962TIP3   OH2 8826   5.432   1.916   4.975
 2962TIP3    H1 8827   5.498   1.855   5.007
 2962TIP3    H2 8828   5.348   1.878   5.002
 2963TIP3   OH2 8829   6.957   7.605   4.299
 2963TIP3    H1 8830   7.021   7.673   4.317
 2963TIP3    H2 8831   6.968   7.543   4.372
 2964TIP3   OH2 8832   6.614   4.857   0.447
 2964TIP3    H1 8833   6.556   4.793   0.488
 2964TIP3    H2 8834   6.647   4.814   0.369
 2965TIP3   OH2 8835   7.285   1.319   5.656
 2965TIP3    H1 8836   7.218   1.284   5.715
 2965TIP3    H2 8837   7.356   1.255   5.659
 2966TIP3   OH2 8838   2.758   0.578   5.485
 2966TIP3    H1 8839   2.674   0.619   5.463
 2966TIP3    H2 8840   2.772   0.601   5.576
 2967TIP3   OH2 8841   3.826   3.781   2.922
 2967TIP3    H1 8842   3.832   3.735   3.006
 2967TIP3    H2 8843   3.750   3.741   2.879
 2968TIP3   OH2 8844   2.033   5.139   3.242
 2968TIP3    H1 8845   2.111   5.127   3.295
 2968TIP3    H2 8846   2.045   5.224   3.199
 2969TIP3   OH2 8847   5.165   0.320   1.709
 2969TIP3    H1 8848   5.210   0.278   1.635
 2969TIP3    H2 8849   5.138   0.247   1.765
 2970TIP3   OH2 8850   5.786   6.920   4.270
 2970TIP3    H1 8851   5.758   6.832   4.244
 2970TIP3    H2 8852   5.726   6.944   4.341
 2971TIP3   OH2 8853   6.794   1.039   4.269
 2971TIP3    H1 8854   6.796   1.133   4.251
 2971TIP3    H2 8855   6.701   1.015   4.265
 2972TIP3   OH2 8856   4.863   0.997   4.039
 2972TIP3    H1 8857   4.877   0.951   3.957
 2972TIP3    H2 8858   4.860   1.089   4.015
 2973TIP3   OH2 8859   5.620   2.035   4.547
 2973TIP3    H1 8860   5.655   2.112   4.503
 2973TIP3    H2 8861   5.589   2.069   4.632
 2974TIP3   OH2 8862   8.062   2.858   2.516
 2974TIP3    H1 8863   8.113   2.779   2.537
 2974TIP3    H2 8864   8.117   2.906   2.454
 2975TIP3   OH2 8865   0.565   7.763   2.683
 2975TIP3    H1 8866   0.566   7.847   2.638
 2975TIP3    H2 8867   0.655   7.730   2.674
 2976TIP3   OH2 8868   5.382   5.513   3.249
 2976TIP3    H1 8869   5.324   5.544   3.318
 2976TIP3    H2 8870   5.330   5.448   3.201
 2977TIP3   OH2 8871   6.058   1.818   6.059
 2977TIP3    H1 8872   6.096   1.805   5.972
 2977TIP3    H2 8873   6.110   1.761   6.117
 2978TIP3   OH2 8874   4.443   4.811   3.472
 2978TIP3    H1 8875   4.479   4.769   3.550
 2978TIP3    H2 8876   4.446   4.742   3.405
 2979TIP3   OH2 8877   0.914   4.062   6.314
 2979TIP3    H1 8878   0.938   4.022   6.231
 2979TIP3    H2 8879   0.819   4.072   6.310
 2980TIP3   OH2 8880   3.891   4.856   1.099
 2980TIP3    H1 8881   3.968   4.883   1.148
 2980TIP3    H2 8882   3.881   4.923   1.031
 2981TIP3   OH2 8883   2.056   3.495   4.539
 2981TIP3    H1 8884   2.088   3.407   4.559
 2981TIP3    H2 8885   2.094   3.515   4.453
 2982TIP3   OH2 8886   7.522   1.676   4.279
 2982TIP3    H1 8887   7.470   1.662   4.358
 2982TIP3    H2 8888   7.583   1.746   4.302
 2983TIP3   OH2 8889   7.228   0.579   6.526
 2983TIP3    H1 8890   7.246   0.520   6.454
 2983TIP3    H2 8891   7.161   0.638   6.493
 2984TIP3   OH2 8892   7.008   6.973   2.130
 2984TIP3    H1 8893   7.093   6.935   2.153
 2984TIP3    H2 8894   6.995   6.950   2.037
 2985TIP3   OH2 8895   7.949   6.813   1.803
 2985TIP3    H1 8896   7.867   6.804   1.755
 2985TIP3    H2 8897   7.927   6.787   1.893
 2986TIP3   OH2 8898   6.310   1.718   2.489
 2986TIP3    H1 8899   6.330   1.812   2.482
 2986TIP3    H2 8900   6.384   1.682   2.538
 2987TIP3   OH2 8901   4.185   6.404   3.932
 2987TIP3    H1 8902   4.136   6.469   3.881
 2987TIP3    H2 8903   4.164   6.424   4.023
 2988TIP3   OH2 8904   3.191   3.160   2.035
 2988TIP3    H1 8905   3.129   3.231   2.053
 2988TIP3    H2 8906   3.261   3.202   1.984
 2989TIP3   OH2 8907   0.045   7.849   1.078
 2989TIP3    H1 8908   0.097   7.922   1.044
 2989TIP3    H2 8909   0.005   7.883   1.158
 2990TIP3   OH2 8910   6.965   3.419   1.121
 2990TIP3    H1 8911   6.878   3.458   1.114
 2990TIP3    H2 8912   6.952   3.327   1.098
 2991TIP3   OH2 8913   4.982   5.754   5.100
 2991TIP3    H1 8914   4.959   5.836   5.144
 2991TIP3    H2 8915   4.898   5.712   5.081
 2992TIP3   OH2 8916   0.734   3.756   3.199
 2992TIP3    H1 8917   0.806   3.697   3.178
 2992TIP3    H2 8918   0.655   3.711   3.168
 2993TIP3   OH2 8919   3.194   3.131   5.713
 2993TIP3    H1 8920   3.249   3.182   5.654
 2993TIP3    H2 8921   3.134   3.084   5.656
 2994TIP3   OH2 8922   2.467   3.527   6.110
 2994TIP3    H1 8923   2.489   3.604   6.163
 2994TIP3    H2 8924   2.374   3.512   6.127
 2995TIP3   OH2 8925   4.988   2.545   6.308
 2995TIP3    H1 8926   5.033   2.489   6.371
 2995TIP3    H2 8927   4.897   2.549   6.339
 2996TIP3   OH2 8928   2.851   4.280   0.027
 2996TIP3    H1 8929   2.788   4.208   0.023
 2996TIP3    H2 8930   2.824   4.331   0.103
 2997TIP3   OH2 8931   1.830   6.676   4.702
 2997TIP3    H1 8932   1.868   6.607   4.649
 2997TIP3    H2 8933   1.738   6.679   4.676
 2998TIP3   OH2 8934   7.899   6.269   3.347
 2998TIP3    H1 8935   7.953   6.241   3.420
 2998TIP3    H2 8936   7.953   6.332   3.300
 2999TIP3   OH2 8937   5.756   0.565   0.679
 2999TIP3    H1 8938   5.698   0.547   0.753
 2999TIP3    H2 8939   5.823   0.497   0.684
 3000TIP3   OH2 8940   4.132   4.891   3.428
 3000TIP3    H1 8941   4.095   4.925   3.346
 3000TIP3    H2 8942   4.224   4.873   3.407
 3001TIP3   OH2 8943   5.388   7.525   6.049
 3001TIP3    H1 8944   5.401   7.498   5.959
 3001TIP3    H2 8945   5.355   7.447   6.094
 3002TIP3   OH2 8946   0.216   4.879   6.313
 3002TIP3    H1 8947   0.266   4.922   6.383
 3002TIP3    H2 8948   0.126   4.880   6.344
 3003TIP3   OH2 8949   2.384   7.503   6.545
 3003TIP3    H1 8950   2.306   7.553   6.522
 3003TIP3    H2 8951   2.369   7.416   6.509
 3004TIP3   OH2 8952   2.701   6.796   5.005
 3004TIP3    H1 8953   2.637   6.742   4.959
 3004TIP3    H2 8954   2.753   6.836   4.936
 3005TIP3   OH2 8955   3.511   1.040   5.036
 3005TIP3    H1 8956   3.475   1.041   5.125
 3005TIP3    H2 8957   3.603   1.061   5.048
 3006TIP3   OH2 8958   1.110   7.716   1.318
 3006TIP3    H1 8959   1.183   7.776   1.306
 3006TIP3    H2 8960   1.034   7.772   1.334
 3007TIP3   OH2 8961   0.813   7.241   5.276
 3007TIP3    H1 8962   0.744   7.208   5.219
 3007TIP3    H2 8963   0.845   7.320   5.234
 3008TIP3   OH2 8964   7.137   5.218   0.274
 3008TIP3    H1 8965   7.165   5.202   0.364
 3008TIP3    H2 8966   7.043   5.197   0.274
 3009TIP3   OH2 8967   7.794   7.105   0.265
 3009TIP3    H1 8968   7.784   7.185   0.317
 3009TIP3    H2 8969   7.736   7.042   0.308
 3010TIP3   OH2 8970   7.618   2.153   5.718
 3010TIP3    H1 8971   7.568   2.186   5.793
 3010TIP3    H2 8972   7.570   2.187   5.642
 3011TIP3   OH2 8973   0.394   3.090   0.064
 3011TIP3    H1 8974   0.423   3.178   0.039
 3011TIP3    H2 8975   0.396   3.091   0.160
 3012TIP3   OH2 8976   1.435   7.636   4.734
 3012TIP3    H1 8977   1.464   7.545   4.738
 3012TIP3    H2 8978   1.447   7.661   4.643
 3013TIP3   OH2 8979   6.350   2.606   6.552
 3013TIP3    H1 8980   6.255   2.614   6.555
 3013TIP3    H2 8981   6.373   2.559   6.632
 3014TIP3   OH2 8982   3.049   1.503   1.416
 3014TIP3    H1 8983   3.107   1.488   1.342
 3014TIP3    H2 8984   3.053   1.422   1.467
 3015TIP3   OH2 8985   3.451   2.227   6.469
 3015TIP3    H1 8986   3.528   2.266   6.509
 3015TIP3    H2 8987   3.435   2.279   6.391
 3016TIP3   OH2 8988   6.574   4.747   1.451
 3016TIP3    H1 8989   6.558   4.758   1.545
 3016TIP3    H2 8990   6.510   4.804   1.408
 3017TIP3   OH2 8991   0.086   7.345   0.380
 3017TIP3    H1 8992   0.025   7.397   0.327
 3017TIP3    H2 8993   0.128   7.286   0.318
 3018TIP3   OH2 8994   6.352   1.600   5.720
 3018TIP3    H1 8995   6.388   1.675   5.768
 3018TIP3    H2 8996   6.300   1.552   5.784
 3019TIP3   OH2 8997   3.782   0.443   3.416
 3019TIP3    H1 8998   3.702   0.408   3.457
 3019TIP3    H2 8999   3.853   0.401   3.464
 3020TIP3   OH2 9000   4.993   3.864   3.439
 3020TIP3    H1 9001   5.027   3.906   3.359
 3020TIP3    H2 9002   5.063   3.875   3.503
 3021TIP3   OH2 9003   0.781   3.937   2.358
 3021TIP3    H1 9004   0.779   3.918   2.264
 3021TIP3    H2 9005   0.866   3.976   2.373
 3022TIP3   OH2 9006   3.946   4.287   1.424
 3022TIP3    H1 9007   3.875   4.274   1.487
 3022TIP3    H2 9008   3.935   4.215   1.361
 3023TIP3   OH2 9009   3.834   1.950   5.471
 3023TIP3    H1 9010   3.880   1.998   5.402
 3023TIP3    H2 9011   3.896   1.882   5.498
 3024TIP3   OH2 9012   4.336   1.499   3.029
 3024TIP3    H1 9013   4.264   1.546   3.071
 3024TIP3    H2 9014   4.388   1.568   2.988
 3025TIP3   OH2 9015   7.337   3.793   4.629
 3025TIP3    H1 9016   7.370   3.838   4.551
 3025TIP3    H2 9017   7.409   3.735   4.655
 3026TIP3   OH2 9018   4.768   6.791   1.827
 3026TIP3    H1 9019   4.861   6.794   1.803
 3026TIP3    H2 9020   4.757   6.861   1.892
 3027TIP3   OH2 9021   3.341   1.200   0.474
 3027TIP3    H1 9022   3.399   1.172   0.545
 3027TIP3    H2 9023   3.400   1.232   0.406
 3028TIP3   OH2 9024   0.993   3.392   0.585
 3028TIP3    H1 9025   0.931   3.465   0.592
 3028TIP3    H2 9026   1.026   3.398   0.495
 3029TIP3   OH2 9027   6.645   6.470   5.051
 3029TIP3    H1 9028   6.570   6.486   5.108
 3029TIP3    H2 9029   6.644   6.376   5.036
 3030TIP3   OH2 9030   1.662   6.119   5.740
 3030TIP3    H1 9031   1.656   6.198   5.793
 3030TIP3    H2 9032   1.670   6.150   5.650
 3031TIP3   OH2 9033   1.315   6.406   2.929
 3031TIP3    H1 9034   1.231   6.424   2.887
 3031TIP3    H2 9035   1.379   6.455   2.877
 3032TIP3   OH2 9036   6.283   7.114   2.233
 3032TIP3    H1 9037   6.313   7.023   2.225
 3032TIP3    H2 9038   6.293   7.135   2.325
 3033TIP3   OH2 9039   5.199   4.518   2.122
 3033TIP3    H1 9040   5.160   4.596   2.083
 3033TIP3    H2 9041   5.251   4.479   2.051
 3034TIP3   OH2 9042   5.859   7.732   5.398
 3034TIP3    H1 9043   5.765   7.734   5.381
 3034TIP3    H2 9044   5.867   7.746   5.493
 3035TIP3   OH2 9045   1.453   6.191   1.096
 3035TIP3    H1 9046   1.423   6.101   1.111
 3035TIP3    H2 9047   1.486   6.191   1.007
 3036TIP3   OH2 9048   3.726   5.219   5.229
 3036TIP3    H1 9049   3.748   5.277   5.156
 3036TIP3    H2 9050   3.721   5.278   5.305
 3037TIP3   OH2 9051   2.370   1.991   1.186
 3037TIP3    H1 9052   2.402   1.999   1.276
 3037TIP3    H2 9053   2.443   1.954   1.138
 3038TIP3   OH2 9054   2.204   7.059   3.551
 3038TIP3    H1 9055   2.277   7.102   3.596
 3038TIP3    H2 9056   2.126   7.087   3.599
 3039TIP3   OH2 9057   4.981   3.093   5.003
 3039TIP3    H1 9058   5.052   3.041   4.968
 3039TIP3    H2 9059   4.901   3.050   4.972
 3040TIP3   OH2 9060   1.172   3.503   6.798
 3040TIP3    H1 9061   1.225   3.426   6.823
 3040TIP3    H2 9062   1.234   3.561   6.754
 3041TIP3   OH2 9063   5.457   7.722   1.008
 3041TIP3    H1 9064   5.366   7.733   0.980
 3041TIP3    H2 9065   5.507   7.717   0.926
 3042TIP3   OH2 9066   4.215   6.233   5.901
 3042TIP3    H1 9067   4.209   6.248   5.995
 3042TIP3    H2 9068   4.148   6.166   5.882
 3043TIP3   OH2 9069   6.966   7.813   2.438
 3043TIP3    H1 9070   6.926   7.899   2.424
 3043TIP3    H2 9071   6.897   7.762   2.480
 3044TIP3   OH2 9072   7.261   4.275   2.192
 3044TIP3    H1 9073   7.214   4.287   2.275
 3044TIP3    H2 9074   7.265   4.363   2.154
 3045TIP3   OH2 9075   3.153   7.578   1.905
 3045TIP3    H1 9076   3.100   7.523   1.962
 3045TIP3    H2 9077   3.175   7.654   1.958
 3046TIP3   OH2 9078   2.665   4.164   1.124
 3046TIP3    H1 9079   2.755   4.134   1.136
 3046TIP3    H2 9080   2.617   4.086   1.096
 3047TIP3   OH2 9081   7.659   0.857   3.102
 3047TIP3    H1 9082   7.702   0.878   3.019
 3047TIP3    H2 9083   7.703   0.778   3.132
 3048TIP3   OH2 9084   5.432   6.863   2.041
 3048TIP3    H1 9085   5.509   6.918   2.053
 3048TIP3    H2 9086   5.444   6.825   1.954
 3049TIP3   OH2 9087   7.059   3.357   0.333
 3049TIP3    H1 9088   7.000   3.318   0.399
 3049TIP3    H2 9089   7.147   3.341   0.368
 3050TIP3   OH2 9090   3.892   3.264   5.853
 3050TIP3    H1 9091   3.878   3.295   5.942
 3050TIP3    H2 9092   3.987   3.252   5.846
 3051TIP3   OH2 9093   8.014   6.947   0.899
 3051TIP3    H1 9094   7.969   7.031   0.889
 3051TIP3    H2 9095   7.971   6.904   0.973
 3052TIP3   OH2 9096   3.250   2.683   3.179
 3052TIP3    H1 9097   3.200   2.692   3.098
 3052TIP3    H2 9098   3.198   2.728   3.245
 3053TIP3   OH2 9099   2.158   2.576   6.689
 3053TIP3    H1 9100   2.091   2.643   6.680
 3053TIP3    H2 9101   2.240   2.620   6.666
 3054TIP3   OH2 9102   0.615   7.725   3.136
 3054TIP3    H1 9103   0.681   7.766   3.080
 3054TIP3    H2 9104   0.544   7.702   3.077
 3055TIP3   OH2 9105   0.817   6.494   4.549
 3055TIP3    H1 9106   0.880   6.479   4.619
 3055TIP3    H2 9107   0.808   6.409   4.506
 3056TIP3   OH2 9108   3.756   2.942   4.642
 3056TIP3    H1 9109   3.674   2.980   4.674
 3056TIP3    H2 9110   3.825   2.994   4.683
 3057TIP3   OH2 9111   4.021   3.571   1.004
 3057TIP3    H1 9112   4.096   3.617   0.966
 3057TIP3    H2 9113   4.058   3.521   1.077
 3058TIP3   OH2 9114   1.867   0.305   6.483
 3058TIP3    H1 9115   1.914   0.324   6.402
 3058TIP3    H2 9116   1.909   0.360   6.549
 3059TIP3   OH2 9117   1.519   2.952   1.254
 3059TIP3    H1 9118   1.509   3.029   1.309
 3059TIP3    H2 9119   1.452   2.962   1.186
 3060TIP3   OH2 9120   6.989   1.062   0.023
 3060TIP3    H1 9121   7.045   1.101   0.089
 3060TIP3    H2 9122   6.962   0.978   0.060
 3061TIP3   OH2 9123   6.443   1.036   4.339
 3061TIP3    H1 9124   6.450   1.058   4.432
 3061TIP3    H2 9125   6.474   0.946   4.334
 3062TIP3   OH2 9126   1.841   6.586   3.078
 3062TIP3    H1 9127   1.821   6.539   2.997
 3062TIP3    H2 9128   1.784   6.546   3.143
 3063TIP3   OH2 9129   4.242   7.849   0.691
 3063TIP3    H1 9130   4.313   7.880   0.747
 3063TIP3    H2 9131   4.262   7.885   0.605
 3064TIP3   OH2 9132   3.302   3.245   4.851
 3064TIP3    H1 9133   3.249   3.231   4.930
 3064TIP3    H2 9134   3.336   3.334   4.860
 3065TIP3   OH2 9135   4.862   7.599   1.755
 3065TIP3    H1 9136   4.864   7.691   1.731
 3065TIP3    H2 9137   4.848   7.553   1.672
 3066TIP3   OH2 9138   2.913   6.696   5.629
 3066TIP3    H1 9139   2.966   6.747   5.568
 3066TIP3    H2 9140   2.912   6.608   5.592
 3067TIP3   OH2 9141   4.722   3.169   0.120
 3067TIP3    H1 9142   4.648   3.161   0.180
 3067TIP3    H2 9143   4.747   3.079   0.101
 3068TIP3   OH2 9144   7.952   1.348   1.720
 3068TIP3    H1 9145   7.888   1.277   1.723
 3068TIP3    H2 9146   7.948   1.380   1.630
 3069TIP3   OH2 9147   2.813   5.066   5.772
 3069TIP3    H1 9148   2.792   5.006   5.701
 3069TIP3    H2 9149   2.790   5.153   5.738
 3070TIP3   OH2 9150   0.759   6.110   0.723
 3070TIP3    H1 9151   0.680   6.066   0.753
 3070TIP3    H2 9152   0.766   6.188   0.778
 3071TIP3   OH2 9153   2.077   1.965   4.228
 3071TIP3    H1 9154   2.046   1.878   4.253
 3071TIP3    H2 9155   2.173   1.958   4.230
 3072TIP3   OH2 9156   5.762   0.309   0.471
 3072TIP3    H1 9157   5.786   0.249   0.401
 3072TIP3    H2 9158   5.677   0.344   0.444
 3073TIP3   OH2 9159   5.861   7.414   6.157
 3073TIP3    H1 9160   5.849   7.320   6.141
 3073TIP3    H2 9161   5.772   7.449   6.157
 3074TIP3   OH2 9162   4.800   4.120   2.249
 3074TIP3    H1 9163   4.783   4.033   2.284
 3074TIP3    H2 9164   4.805   4.176   2.326
 3075TIP3   OH2 9165   4.111   1.425   6.200
 3075TIP3    H1 9166   4.151   1.497   6.248
 3075TIP3    H2 9167   4.033   1.402   6.251
 3076TIP3   OH2 9168   1.802   1.040   1.030
 3076TIP3    H1 9169   1.763   1.022   0.944
 3076TIP3    H2 9170   1.743   0.998   1.092
 3077TIP3   OH2 9171   5.108   7.289   2.393
 3077TIP3    H1 9172   5.178   7.335   2.439
 3077TIP3    H2 9173   5.152   7.243   2.322
 3078TIP3   OH2 9174   6.992   3.105   4.596
 3078TIP3    H1 9175   7.043   3.035   4.637
 3078TIP3    H2 9176   6.917   3.117   4.653
 3079TIP3   OH2 9177   7.886   3.824   6.161
 3079TIP3    H1 9178   7.946   3.763   6.203
 3079TIP3    H2 9179   7.814   3.835   6.224
 3080TIP3   OH2 9180   4.673   3.735   2.009
 3080TIP3    H1 9181   4.606   3.790   1.969
 3080TIP3    H2 9182   4.669   3.653   1.961
 3081TIP3   OH2 9183   1.563   6.886   2.950
 3081TIP3    H1 9184   1.570   6.980   2.937
 3081TIP3    H2 9185   1.654   6.857   2.961
 3082TIP3   OH2 9186   1.529   2.163   4.814
 3082TIP3    H1 9187   1.612   2.135   4.852
 3082TIP3    H2 9188   1.535   2.137   4.722
 3083TIP3   OH2 9189   4.550   5.772   2.348
 3083TIP3    H1 9190   4.634   5.788   2.392
 3083TIP3    H2 9191   4.564   5.803   2.258
 3084TIP3   OH2 9192   5.008   2.936   3.635
 3084TIP3    H1 9193   4.929   2.931   3.688
 3084TIP3    H2 9194   5.031   2.844   3.619
 3085TIP3   OH2 9195   2.839   4.332   6.366
 3085TIP3    H1 9196   2.855   4.288   6.449
 3085TIP3    H2 9197   2.924   4.334   6.323
 3086TIP3   OH2 9198   3.747   1.003   3.434
 3086TIP3    H1 9199   3.810   1.029   3.501
 3086TIP3    H2 9200   3.782   0.921   3.398
 3087TIP3   OH2 9201   6.377   2.465   0.160
 3087TIP3    H1 9202   6.413   2.554   0.169
 3087TIP3    H2 9203   6.337   2.446   0.245
 3088TIP3   OH2 9204   4.353   4.024   0.554
 3088TIP3    H1 9205   4.439   4.040   0.593
 3088TIP3    H2 9206   4.307   3.972   0.620
 3089TIP3   OH2 9207   3.148   6.721   3.668
 3089TIP3    H1 9208   3.210   6.660   3.628
 3089TIP3    H2 9209   3.086   6.741   3.598
 3090TIP3   OH2 9210   6.133   7.387   0.295
 3090TIP3    H1 9211   6.177   7.351   0.372
 3090TIP3    H2 9212   6.186   7.358   0.221
 3091TIP3   OH2 9213   5.795   0.924   6.430
 3091TIP3    H1 9214   5.736   0.978   6.378
 3091TIP3    H2 9215   5.851   0.988   6.475
 3092TIP3   OH2 9216   0.381   7.077   2.085
 3092TIP3    H1 9217   0.308   7.059   2.144
 3092TIP3    H2 9218   0.435   7.140   2.132
 3093TIP3   OH2 9219   2.965   1.232   2.345
 3093TIP3    H1 9220   2.897   1.213   2.410
 3093TIP3    H2 9221   3.033   1.167   2.362
 3094TIP3   OH2 9222   5.258   6.555   5.172
 3094TIP3    H1 9223   5.294   6.468   5.192
 3094TIP3    H2 9224   5.314   6.616   5.220
 3095TIP3   OH2 9225   7.554   6.822   3.428
 3095TIP3    H1 9226   7.593   6.739   3.455
 3095TIP3    H2 9227   7.517   6.858   3.509
 3096TIP3   OH2 9228   0.983   2.467   5.953
 3096TIP3    H1 9229   0.950   2.550   5.988
 3096TIP3    H2 9230   1.077   2.472   5.966
 3097TIP3   OH2 9231   3.838   6.486   4.559
 3097TIP3    H1 9232   3.836   6.539   4.639
 3097TIP3    H2 9233   3.767   6.423   4.571
 3098TIP3   OH2 9234   3.003   4.462   6.873
 3098TIP3    H1 9235   2.988   4.481   6.781
 3098TIP3    H2 9236   2.997   4.367   6.880
 3099TIP3   OH2 9237   4.487   4.568   6.333
 3099TIP3    H1 9238   4.565   4.532   6.374
 3099TIP3    H2 9239   4.500   4.662   6.336
 3100TIP3   OH2 9240   3.427   4.573   5.164
 3100TIP3    H1 9241   3.379   4.652   5.140
 3100TIP3    H2 9242   3.491   4.561   5.095
 3101TIP3   OH2 9243   0.206   6.886   1.920
 3101TIP3    H1 9244   0.126   6.921   1.958
 3101TIP3    H2 9245   0.275   6.945   1.951
 3102TIP3   OH2 9246   4.072   2.031   4.946
 3102TIP3    H1 9247   4.002   2.092   4.969
 3102TIP3    H2 9248   4.130   2.031   5.023
 3103TIP3   OH2 9249   3.943   1.506   0.539
 3103TIP3    H1 9250   4.033   1.500   0.571
 3103TIP3    H2 9251   3.890   1.518   0.618
 3104TIP3   OH2 9252   5.564   2.389   2.350
 3104TIP3    H1 9253   5.649   2.392   2.306
 3104TIP3    H2 9254   5.517   2.466   2.316
 3105TIP3   OH2 9255   0.383   6.067   4.953
 3105TIP3    H1 9256   0.428   6.077   4.869
 3105TIP3    H2 9257   0.335   6.149   4.965
 3106TIP3   OH2 9258   1.224   1.958   4.905
 3106TIP3    H1 9259   1.135   1.927   4.887
 3106TIP3    H2 9260   1.277   1.879   4.910
 3107TIP3   OH2 9261   7.737   5.679   3.944
 3107TIP3    H1 9262   7.711   5.612   4.008
 3107TIP3    H2 9263   7.654   5.719   3.917
 3108TIP3   OH2 9264   0.771   5.991   0.454
 3108TIP3    H1 9265   0.731   6.051   0.517
 3108TIP3    H2 9266   0.795   5.914   0.506
 3109TIP3   OH2 9267   3.700   0.544   1.175
 3109TIP3    H1 9268   3.754   0.505   1.106
 3109TIP3    H2 9269   3.722   0.494   1.253
 3110TIP3   OH2 9270   4.018   0.393   5.558
 3110TIP3    H1 9271   4.065   0.476   5.560
 3110TIP3    H2 9272   4.040   0.355   5.473
 3111TIP3   OH2 9273   2.262   2.466   2.268
 3111TIP3    H1 9274   2.327   2.511   2.322
 3111TIP3    H2 9275   2.186   2.524   2.266
 3112TIP3   OH2 9276   8.197   4.092   5.979
 3112TIP3    H1 9277   8.205   4.111   6.072
 3112TIP3    H2 9278   8.137   4.159   5.946
 3113TIP3   OH2 9279   0.981   1.857   4.147
 3113TIP3    H1 9280   1.032   1.835   4.069
 3113TIP3    H2 9281   0.897   1.888   4.113
 3114TIP3   OH2 9282   5.686   1.979   3.206
 3114TIP3    H1 9283   5.640   1.964   3.123
 3114TIP3    H2 9284   5.669   1.901   3.257
 3115TIP3   OH2 9285   7.320   5.961   2.705
 3115TIP3    H1 9286   7.389   6.027   2.695
 3115TIP3    H2 9287   7.267   5.969   2.626
 3116TIP3   OH2 9288   5.752   3.349   6.463
 3116TIP3    H1 9289   5.833   3.353   6.413
 3116TIP3    H2 9290   5.726   3.440   6.474
 3117TIP3   OH2 9291   0.800   7.285   0.668
 3117TIP3    H1 9292   0.885   7.327   0.657
 3117TIP3    H2 9293   0.739   7.358   0.682
 3118TIP3   OH2 9294   2.450   0.446   0.456
 3118TIP3    H1 9295   2.525   0.471   0.510
 3118TIP3    H2 9296   2.479   0.368   0.409
 3119TIP3   OH2 9297   4.707   3.003   2.002
 3119TIP3    H1 9298   4.724   3.005   1.908
 3119TIP3    H2 9299   4.631   2.945   2.011
 3120TIP3   OH2 9300   5.814   0.581   4.031
 3120TIP3    H1 9301   5.826   0.676   4.024
 3120TIP3    H2 9302   5.903   0.545   4.029
 3121TIP3   OH2 9303   6.322   0.996   3.489
 3121TIP3    H1 9304   6.281   1.081   3.501
 3121TIP3    H2 9305   6.252   0.933   3.506
 3122TIP3   OH2 9306   5.314   4.100   0.540
 3122TIP3    H1 9307   5.259   4.160   0.592
 3122TIP3    H2 9308   5.296   4.014   0.577
 3123TIP3   OH2 9309   0.467   0.535   1.314
 3123TIP3    H1 9310   0.426   0.615   1.347
 3123TIP3    H2 9311   0.411   0.464   1.345
 3124TIP3   OH2 9312   5.743   1.997   5.128
 3124TIP3    H1 9313   5.794   1.934   5.078
 3124TIP3    H2 9314   5.710   2.058   5.062
 3125TIP3   OH2 9315   2.688   1.892   4.595
 3125TIP3    H1 9316   2.613   1.929   4.549
 3125TIP3    H2 9317   2.743   1.856   4.526
 3126TIP3   OH2 9318   1.030   7.416   3.445
 3126TIP3    H1 9319   1.042   7.509   3.426
 3126TIP3    H2 9320   0.937   7.400   3.428
 3127TIP3   OH2 9321   0.361   6.621   5.317
 3127TIP3    H1 9322   0.451   6.637   5.290
 3127TIP3    H2 9323   0.308   6.677   5.259
 3128TIP3   OH2 9324   0.021   1.808   3.228
 3128TIP3    H1 9325  -0.035   1.870   3.182
 3128TIP3    H2 9326  -0.039   1.747   3.270
 3129TIP3   OH2 9327   3.378   4.247   4.201
 3129TIP3    H1 9328   3.343   4.159   4.189
 3129TIP3    H2 9329   3.439   4.259   4.127
 3130TIP3   OH2 9330   2.954   3.603   5.052
 3130TIP3    H1 9331   2.895   3.629   4.982
 3130TIP3    H2 9332   2.991   3.685   5.085
 3131TIP3   OH2 9333   3.884   4.818   2.995
 3131TIP3    H1 9334   3.873   4.738   2.943
 3131TIP3    H2 9335   3.845   4.796   3.080
 3132TIP3   OH2 9336   0.504   4.776   5.402
 3132TIP3    H1 9337   0.528   4.724   5.478
 3132TIP3    H2 9338   0.496   4.712   5.331
 3133TIP3   OH2 9339   6.697   1.133   0.239
 3133TIP3    H1 9340   6.606   1.132   0.210
 3133TIP3    H2 9341   6.705   1.055   0.295
 3134TIP3   OH2 9342   0.869   4.909   2.008
 3134TIP3    H1 9343   0.791   4.962   2.023
 3134TIP3    H2 9344   0.890   4.922   1.915
 3135TIP3   OH2 9345   3.698   3.279   4.230
 3135TIP3    H1 9346   3.774   3.221   4.231
 3135TIP3    H2 9347   3.704   3.325   4.146
 3136TIP3   OH2 9348   2.542   3.271   1.267
 3136TIP3    H1 9349   2.513   3.298   1.180
 3136TIP3    H2 9350   2.578   3.350   1.306
 3137TIP3   OH2 9351   6.860   1.458   6.034
 3137TIP3    H1 9352   6.838   1.367   6.012
 3137TIP3    H2 9353   6.786   1.509   6.001
 3138TIP3   OH2 9354   1.230   6.562   3.133
 3138TIP3    H1 9355   1.257   6.648   3.101
 3138TIP3    H2 9356   1.291   6.501   3.090
 3139TIP3   OH2 9357   8.046   1.313   0.825
 3139TIP3    H1 9358   7.989   1.279   0.755
 3139TIP3    H2 9359   7.993   1.306   0.904
 3140TIP3   OH2 9360   6.343   1.489   1.983
 3140TIP3    H1 9361   6.392   1.532   1.914
 3140TIP3    H2 9362   6.407   1.472   2.052
 3141TIP3   OH2 9363   0.286   0.704   1.446
 3141TIP3    H1 9364   0.221   0.774   1.443
 3141TIP3    H2 9365   0.338   0.723   1.524
 3142TIP3   OH2 9366   3.002   0.916   2.882
 3142TIP3    H1 9367   3.065   0.914   2.954
 3142TIP3    H2 9368   2.968   1.005   2.882
 3143TIP3   OH2 9369   5.483   1.142   5.017
 3143TIP3    H1 9370   5.551   1.076   5.029
 3143TIP3    H2 9371   5.454   1.129   4.926
 3144TIP3   OH2 9372   2.729   4.622   4.849
 3144TIP3    H1 9373   2.687   4.610   4.764
 3144TIP3    H2 9374   2.781   4.702   4.839
 3145TIP3   OH2 9375   6.209   3.290   5.333
 3145TIP3    H1 9376   6.195   3.384   5.346
 3145TIP3    H2 9377   6.235   3.257   5.419
 3146TIP3   OH2 9378   1.048   1.014   0.526
 3146TIP3    H1 9379   1.055   0.977   0.614
 3146TIP3    H2 9380   1.134   1.052   0.509
 3147TIP3   OH2 9381   2.034   7.444   1.164
 3147TIP3    H1 9382   2.100   7.482   1.222
 3147TIP3    H2 9383   2.061   7.353   1.153
 3148TIP3   OH2 9384   0.192   7.403   1.417
 3148TIP3    H1 9385   0.098   7.414   1.434
 3148TIP3    H2 9386   0.216   7.481   1.368
 3149TIP3   OH2 9387   8.357   6.708   6.366
 3149TIP3    H1 9388   8.341   6.670   6.452
 3149TIP3    H2 9389   8.411   6.644   6.320
 3150TIP3   OH2 9390   0.930   0.807   3.219
 3150TIP3    H1 9391   0.984   0.815   3.297
 3150TIP3    H2 9392   0.858   0.750   3.244
 3151TIP3   OH2 9393   7.334   2.952   0.618
 3151TIP3    H1 9394   7.412   2.947   0.563
 3151TIP3    H2 9395   7.366   2.977   0.704
 3152TIP3   OH2 9396   7.728   7.406   4.627
 3152TIP3    H1 9397   7.679   7.432   4.704
 3152TIP3    H2 9398   7.819   7.429   4.647
 3153TIP3   OH2 9399   0.865   6.009   5.354
 3153TIP3    H1 9400   0.892   5.961   5.276
 3153TIP3    H2 9401   0.773   5.986   5.366
 3154TIP3   OH2 9402   6.649   3.235   5.535
 3154TIP3    H1 9403   6.595   3.289   5.592
 3154TIP3    H2 9404   6.603   3.235   5.451
 3155TIP3   OH2 9405   7.588   2.500   5.862
 3155TIP3    H1 9406   7.658   2.506   5.797
 3155TIP3    H2 9407   7.583   2.407   5.883
 3156TIP3   OH2 9408   2.230   4.370   4.229
 3156TIP3    H1 9409   2.320   4.370   4.262
 3156TIP3    H2 9410   2.179   4.333   4.301
 3157TIP3   OH2 9411   3.689   1.219   5.316
 3157TIP3    H1 9412   3.784   1.235   5.314
 3157TIP3    H2 9413   3.681   1.123   5.313
 3158TIP3   OH2 9414   3.305   5.026   1.084
 3158TIP3    H1 9415   3.303   5.119   1.103
 3158TIP3    H2 9416   3.235   5.013   1.019
 3159TIP3   OH2 9417   5.529   6.891   0.290
 3159TIP3    H1 9418   5.439   6.864   0.307
 3159TIP3    H2 9419   5.545   6.961   0.353
 3160TIP3   OH2 9420   7.937   3.831   6.730
 3160TIP3    H1 9421   7.867   3.867   6.786
 3160TIP3    H2 9422   7.998   3.790   6.792
 3161TIP3   OH2 9423   7.359   6.078   6.048
 3161TIP3    H1 9424   7.289   6.131   6.087
 3161TIP3    H2 9425   7.410   6.047   6.123
 3162TIP3   OH2 9426   2.515   2.624   0.238
 3162TIP3    H1 9427   2.590   2.643   0.296
 3162TIP3    H2 9428   2.440   2.663   0.282
 3163TIP3   OH2 9429   3.965   7.027   3.538
 3163TIP3    H1 9430   3.937   6.952   3.485
 3163TIP3    H2 9431   3.924   7.102   3.496
 3164TIP3   OH2 9432   1.464   0.233   4.713
 3164TIP3    H1 9433   1.393   0.244   4.777
 3164TIP3    H2 9434   1.421   0.245   4.628
 3165TIP3   OH2 9435   4.561   3.998   4.156
 3165TIP3    H1 9436   4.618   4.074   4.148
 3165TIP3    H2 9437   4.551   3.985   4.250
 3166TIP3   OH2 9438   2.412   2.036   5.990
 3166TIP3    H1 9439   2.452   1.952   6.014
 3166TIP3    H2 9440   2.416   2.089   6.070
 3167TIP3   OH2 9441   0.746   1.049   2.905
 3167TIP3    H1 9442   0.805   0.977   2.927
 3167TIP3    H2 9443   0.799   1.109   2.854
 3168TIP3   OH2 9444   6.507   2.018   6.458
 3168TIP3    H1 9445   6.411   2.019   6.459
 3168TIP3    H2 9446   6.530   1.929   6.486
 3169TIP3   OH2 9447   8.356   0.673   3.476
 3169TIP3    H1 9448   8.421   0.717   3.420
 3169TIP3    H2 9449   8.350   0.584   3.440
 3170TIP3   OH2 9450   3.759   2.896   2.639
 3170TIP3    H1 9451   3.821   2.912   2.710
 3170TIP3    H2 9452   3.811   2.906   2.560
 3171TIP3   OH2 9453   7.527   5.332   0.629
 3171TIP3    H1 9454   7.557   5.418   0.599
 3171TIP3    H2 9455   7.446   5.349   0.677
 3172TIP3   OH2 9456   0.706   4.184   4.278
 3172TIP3    H1 9457   0.635   4.119   4.275
 3172TIP3    H2 9458   0.664   4.266   4.256
 3173TIP3   OH2 9459   0.551   7.302   4.329
 3173TIP3    H1 9460   0.519   7.283   4.241
 3173TIP3    H2 9461   0.486   7.362   4.365
 3174TIP3   OH2 9462   5.987   4.759   3.900
 3174TIP3    H1 9463   6.017   4.773   3.810
 3174TIP3    H2 9464   5.892   4.757   3.894
 3175TIP3   OH2 9465   6.958   3.422   3.078
 3175TIP3    H1 9466   6.896   3.457   3.015
 3175TIP3    H2 9467   6.903   3.385   3.148
 3176TIP3   OH2 9468   8.073   4.133   2.009
 3176TIP3    H1 9469   8.118   4.143   2.093
 3176TIP3    H2 9470   8.144   4.138   1.944
 3177TIP3   OH2 9471   7.858   4.073   6.041
 3177TIP3    H1 9472   7.859   3.981   6.069
 3177TIP3    H2 9473   7.879   4.122   6.121
 3178TIP3   OH2 9474   5.159   2.044   2.847
 3178TIP3    H1 9475   5.096   2.089   2.791
 3178TIP3    H2 9476   5.244   2.071   2.813
 3179TIP3   OH2 9477   2.499   4.793   3.753
 3179TIP3    H1 9478   2.502   4.793   3.849
 3179TIP3    H2 9479   2.421   4.845   3.732
 3180TIP3   OH2 9480   2.083   2.115   4.941
 3180TIP3    H1 9481   2.161   2.138   4.992
 3180TIP3    H2 9482   2.104   2.031   4.900
 3181TIP3   OH2 9483   0.565   0.455   6.621
 3181TIP3    H1 9484   0.542   0.522   6.686
 3181TIP3    H2 9485   0.657   0.437   6.637
 3182TIP3   OH2 9486   5.786   5.528   0.951
 3182TIP3    H1 9487   5.846   5.456   0.931
 3182TIP3    H2 9488   5.726   5.531   0.877
 3183TIP3   OH2 9489   6.963   7.076   4.926
 3183TIP3    H1 9490   6.958   7.019   5.003
 3183TIP3    H2 9491   6.948   7.164   4.961
 3184TIP3   OH2 9492   7.601   5.615   0.680
 3184TIP3    H1 9493   7.619   5.660   0.598
 3184TIP3    H2 9494   7.506   5.622   0.691
 3185TIP3   OH2 9495   0.094   1.543   6.535
 3185TIP3    H1 9496   0.091   1.637   6.518
 3185TIP3    H2 9497   0.102   1.536   6.630
 3186TIP3   OH2 9498   1.705   1.018   4.017
 3186TIP3    H1 9499   1.730   0.930   4.044
 3186TIP3    H2 9500   1.732   1.024   3.925
 3187TIP3   OH2 9501   8.067   1.562   5.212
 3187TIP3    H1 9502   7.983   1.569   5.164
 3187TIP3    H2 9503   8.076   1.469   5.232
 3188TIP3   OH2 9504   0.751   1.607   2.091
 3188TIP3    H1 9505   0.826   1.647   2.134
 3188TIP3    H2 9506   0.688   1.679   2.082
 3189TIP3   OH2 9507   1.970   1.896   1.177
 3189TIP3    H1 9508   2.000   1.944   1.254
 3189TIP3    H2 9509   2.043   1.902   1.116
 3190TIP3   OH2 9510   1.264   0.181   4.026
 3190TIP3    H1 9511   1.296   0.269   4.048
 3190TIP3    H2 9512   1.335   0.142   3.975
 3191TIP3   OH2 9513   4.322   7.393   0.365
 3191TIP3    H1 9514   4.355   7.363   0.280
 3191TIP3    H2 9515   4.349   7.325   0.427
 3192TIP3   OH2 9516   2.830   7.266   0.558
 3192TIP3    H1 9517   2.902   7.249   0.618
 3192TIP3    H2 9518   2.758   7.295   0.615
 3193TIP3   OH2 9519   0.125   2.918   1.670
 3193TIP3    H1 9520   0.109   3.000   1.716
 3193TIP3    H2 9521   0.185   2.941   1.600
 3194TIP3   OH2 9522   7.124   4.471   5.570
 3194TIP3    H1 9523   7.041   4.439   5.535
 3194TIP3    H2 9524   7.152   4.538   5.508
 3195TIP3   OH2 9525   3.914   3.759   0.362
 3195TIP3    H1 9526   3.938   3.685   0.417
 3195TIP3    H2 9527   3.873   3.720   0.285
 3196TIP3   OH2 9528   6.704   7.180   5.131
 3196TIP3    H1 9529   6.675   7.240   5.199
 3196TIP3    H2 9530   6.630   7.119   5.119
 3197TIP3   OH2 9531   7.263   3.879   0.972
 3197TIP3    H1 9532   7.172   3.884   0.998
 3197TIP3    H2 9533   7.311   3.919   1.045
 3198TIP3   OH2 9534   7.803   1.648   4.787
 3198TIP3    H1 9535   7.871   1.683   4.844
 3198TIP3    H2 9536   7.851   1.601   4.719
 3199TIP3   OH2 9537   3.159   6.589   0.837
 3199TIP3    H1 9538   3.110   6.534   0.775
 3199TIP3    H2 9539   3.105   6.589   0.916
 3200TIP3   OH2 9540   3.529   3.049   3.507
 3200TIP3    H1 9541   3.481   3.113   3.560
 3200TIP3    H2 9542   3.465   3.019   3.442
 3201TIP3   OH2 9543   1.683   3.973   5.915
 3201TIP3    H1 9544   1.723   3.920   5.845
 3201TIP3    H2 9545   1.758   4.014   5.959
 3202TIP3   OH2 9546   7.703   3.893   1.336
 3202TIP3    H1 9547   7.786   3.920   1.297
 3202TIP3    H2 9548   7.703   3.798   1.329
 3203TIP3   OH2 9549   3.549   5.985   0.558
 3203TIP3    H1 9550   3.630   6.016   0.517
 3203TIP3    H2 9551   3.481   6.006   0.495
 3204TIP3   OH2 9552   2.428   3.826   1.671
 3204TIP3    H1 9553   2.501   3.768   1.650
 3204TIP3    H2 9554   2.393   3.852   1.585
 3205TIP3   OH2 9555   4.239   2.178   0.671
 3205TIP3    H1 9556   4.183   2.105   0.697
 3205TIP3    H2 9557   4.179   2.248   0.648
 3206TIP3   OH2 9558   0.126   6.512   6.301
 3206TIP3    H1 9559   0.057   6.446   6.310
 3206TIP3    H2 9560   0.207   6.465   6.324
 3207TIP3   OH2 9561   7.217   3.492   3.004
 3207TIP3    H1 9562   7.131   3.471   3.041
 3207TIP3    H2 9563   7.279   3.463   3.072
 3208TIP3   OH2 9564   3.862   1.222   3.269
 3208TIP3    H1 9565   3.801   1.148   3.278
 3208TIP3    H2 9566   3.876   1.230   3.175
 3209TIP3   OH2 9567   5.191   5.642   2.505
 3209TIP3    H1 9568   5.255   5.687   2.450
 3209TIP3    H2 9569   5.190   5.693   2.587
 3210TIP3   OH2 9570   2.393   2.144   1.632
 3210TIP3    H1 9571   2.394   2.056   1.597
 3210TIP3    H2 9572   2.483   2.158   1.663
 3211TIP3   OH2 9573   3.062   0.451   5.578
 3211TIP3    H1 9574   3.028   0.386   5.516
 3211TIP3    H2 9575   2.984   0.498   5.608
 3212TIP3   OH2 9576   0.086   2.496   5.329
 3212TIP3    H1 9577   0.108   2.560   5.261
 3212TIP3    H2 9578   0.051   2.549   5.401
 3213TIP3   OH2 9579   0.004   4.529   1.219
 3213TIP3    H1 9580  -0.067   4.488   1.170
 3213TIP3    H2 9581   0.051   4.456   1.259
 3214TIP3   OH2 9582   3.380   5.206   5.588
 3214TIP3    H1 9583   3.431   5.250   5.520
 3214TIP3    H2 9584   3.337   5.277   5.636
 3215TIP3   OH2 9585   6.457   1.327   5.578
 3215TIP3    H1 9586   6.421   1.403   5.623
 3215TIP3    H2 9587   6.411   1.324   5.495
 3216TIP3   OH2 9588   1.857   5.172   2.207
 3216TIP3    H1 9589   1.878   5.265   2.200
 3216TIP3    H2 9590   1.938   5.131   2.237
 3217TIP3   OH2 9591   7.609   6.044   2.108
 3217TIP3    H1 9592   7.627   6.126   2.060
 3217TIP3    H2 9593   7.608   5.977   2.040
 3218TIP3   OH2 9594   7.680   7.721   2.018
 3218TIP3    H1 9595   7.642   7.805   2.044
 3218TIP3    H2 9596   7.766   7.743   1.984
 3219TIP3   OH2 9597   0.040   6.359   0.292
 3219TIP3    H1 9598   0.103   6.331   0.225
 3219TIP3    H2 9599   0.087   6.347   0.374
 3220TIP3   OH2 9600   2.300   6.655   1.321
 3220TIP3    H1 9601   2.336   6.567   1.334
 3220TIP3    H2 9602   2.206   6.645   1.336
 3221TIP3   OH2 9603   5.425   7.809   6.063
 3221TIP3    H1 9604   5.419   7.715   6.075
 3221TIP3    H2 9605   5.366   7.828   5.990
 3222TIP3   OH2 9606   6.500   5.672   0.674
 3222TIP3    H1 9607   6.451   5.631   0.745
 3222TIP3    H2 9608   6.435   5.725   0.627
 3223TIP3   OH2 9609   2.412   3.420   4.554
 3223TIP3    H1 9610   2.391   3.335   4.594
 3223TIP3    H2 9611   2.409   3.404   4.460
 3224TIP3   OH2 9612   6.324   0.286   2.594
 3224TIP3    H1 9613   6.304   0.296   2.501
 3224TIP3    H2 9614   6.281   0.204   2.619
 3225TIP3   OH2 9615   5.907   0.277   1.278
 3225TIP3    H1 9616   6.000   0.254   1.288
 3225TIP3    H2 9617   5.902   0.316   1.191
 3226TIP3   OH2 9618   4.206   5.984   6.118
 3226TIP3    H1 9619   4.247   5.918   6.063
 3226TIP3    H2 9620   4.123   5.944   6.145
 3227TIP3   OH2 9621   8.305   6.713   3.030
 3227TIP3    H1 9622   8.222   6.735   3.074
 3227TIP3    H2 9623   8.278   6.668   2.950
 3228TIP3   OH2 9624   4.150   3.406   1.197
 3228TIP3    H1 9625   4.236   3.420   1.237
 3228TIP3    H2 9626   4.166   3.347   1.124
 3229TIP3   OH2 9627   7.090   2.614   1.314
 3229TIP3    H1 9628   7.053   2.526   1.312
 3229TIP3    H2 9629   7.185   2.601   1.322
 3230TIP3   OH2 9630   5.844   6.234   1.729
 3230TIP3    H1 9631   5.759   6.197   1.754
 3230TIP3    H2 9632   5.895   6.159   1.700
 3231TIP3   OH2 9633   3.603   6.027   5.011
 3231TIP3    H1 9634   3.543   6.091   5.050
 3231TIP3    H2 9635   3.590   6.037   4.916
 3232TIP3   OH2 9636   3.765   3.472   5.643
 3232TIP3    H1 9637   3.832   3.533   5.613
 3232TIP3    H2 9638   3.804   3.430   5.721
 3233TIP3   OH2 9639   5.185   2.232   4.835
 3233TIP3    H1 9640   5.126   2.201   4.903
 3233TIP3    H2 9641   5.128   2.268   4.768
 3234TIP3   OH2 9642   2.529   4.127   5.940
 3234TIP3    H1 9643   2.553   4.102   5.850
 3234TIP3    H2 9644   2.590   4.078   5.995
 3235TIP3   OH2 9645   3.762   0.432   3.106
 3235TIP3    H1 9646   3.841   0.423   3.054
 3235TIP3    H2 9647   3.710   0.354   3.085
 3236TIP3   OH2 9648   4.192   1.725   4.855
 3236TIP3    H1 9649   4.120   1.733   4.917
 3236TIP3    H2 9650   4.238   1.808   4.860
 3237TIP3   OH2 9651   4.156   4.952   2.142
 3237TIP3    H1 9652   4.144   4.967   2.235
 3237TIP3    H2 9653   4.232   4.894   2.137
 3238TIP3   OH2 9654   0.760   6.428   3.333
 3238TIP3    H1 9655   0.690   6.396   3.277
 3238TIP3    H2 9656   0.801   6.499   3.283
 3239TIP3   OH2 9657   1.263   0.690   3.768
 3239TIP3    H1 9658   1.300   0.674   3.681
 3239TIP3    H2 9659   1.171   0.710   3.752
 3240TIP3   OH2 9660   1.102   6.419   1.910
 3240TIP3    H1 9661   1.136   6.497   1.867
 3240TIP3    H2 9662   1.140   6.346   1.860
 3241TIP3   OH2 9663   3.334   0.937   3.920
 3241TIP3    H1 9664   3.358   0.889   3.999
 3241TIP3    H2 9665   3.280   1.009   3.950
 3242TIP3   OH2 9666   3.465   0.203   6.845
 3242TIP3    H1 9667   3.378   0.242   6.837
 3242TIP3    H2 9668   3.492   0.223   6.935
 3243TIP3   OH2 9669   5.658   4.758   3.102
 3243TIP3    H1 9670   5.637   4.774   3.010
 3243TIP3    H2 9671   5.611   4.678   3.124
 3244TIP3   OH2 9672   2.103   5.323   2.002
 3244TIP3    H1 9673   2.125   5.233   1.975
 3244TIP3    H2 9674   2.008   5.327   1.992
 3245TIP3   OH2 9675   3.878   4.086   0.050
 3245TIP3    H1 9676   3.794   4.132   0.054
 3245TIP3    H2 9677   3.917   4.114  -0.033
 3246TIP3   OH2 9678   1.725   7.522   5.695
 3246TIP3    H1 9679   1.635   7.499   5.715
 3246TIP3    H2 9680   1.778   7.460   5.746
 3247TIP3   OH2 9681   3.094   3.586   4.127
 3247TIP3    H1 9682   3.033   3.537   4.182
 3247TIP3    H2 9683   3.165   3.524   4.107
 3248TIP3   OH2 9684   2.861   6.303   5.318
 3248TIP3    H1 9685   2.784   6.304   5.261
 3248TIP3    H2 9686   2.886   6.211   5.323
 3249TIP3   OH2 9687   0.213   4.238   3.426
 3249TIP3    H1 9688   0.122   4.222   3.450
 3249TIP3    H2 9689   0.209   4.281   3.341
 3250TIP3   OH2 9690   6.247   6.344   6.092
 3250TIP3    H1 9691   6.232   6.279   6.023
 3250TIP3    H2 9692   6.288   6.294   6.163
 3251TIP3   OH2 9693   4.914   2.731   4.685
 3251TIP3    H1 9694   4.989   2.677   4.663
 3251TIP3    H2 9695   4.869   2.745   4.602
 3252TIP3   OH2 9696   4.100   5.505   1.780
 3252TIP3    H1 9697   4.125   5.596   1.797
 3252TIP3    H2 9698   4.010   5.498   1.813
 3253TIP3   OH2 9699   8.236   3.176   3.882
 3253TIP3    H1 9700   8.289   3.237   3.830
 3253TIP3    H2 9701   8.291   3.158   3.959
 3254TIP3   OH2 9702   5.037   1.897   1.594
 3254TIP3    H1 9703   5.061   1.856   1.511
 3254TIP3    H2 9704   5.115   1.944   1.621
 3255TIP3   OH2 9705   5.644   1.938   2.569
 3255TIP3    H1 9706   5.575   1.912   2.508
 3255TIP3    H2 9707   5.648   2.034   2.561
 3256TIP3   OH2 9708   8.378   2.362   4.059
 3256TIP3    H1 9709   8.286   2.338   4.056
 3256TIP3    H2 9710   8.393   2.414   3.980
 3257TIP3   OH2 9711   1.469   0.939   5.135
 3257TIP3    H1 9712   1.473   0.939   5.040
 3257TIP3    H2 9713   1.376   0.946   5.155
 3258TIP3   OH2 9714   6.653   5.793   5.217
 3258TIP3    H1 9715   6.738   5.829   5.192
 3258TIP3    H2 9716   6.671   5.700   5.234
 3259TIP3   OH2 9717   1.257   7.396   0.840
 3259TIP3    H1 9718   1.256   7.451   0.919
 3259TIP3    H2 9719   1.251   7.458   0.767
 3260TIP3   OH2 9720   2.355   0.205   5.770
 3260TIP3    H1 9721   2.418   0.213   5.698
 3260TIP3    H2 9722   2.361   0.289   5.816
 3261TIP3   OH2 9723   7.873   4.063   0.073
 3261TIP3    H1 9724   7.869   4.133   0.008
 3261TIP3    H2 9725   7.928   3.996   0.033
 3262TIP3   OH2 9726   6.811   5.287   0.639
 3262TIP3    H1 9727   6.731   5.249   0.604
 3262TIP3    H2 9728   6.849   5.336   0.567
 3263TIP3   OH2 9729   6.386   0.958   1.224
 3263TIP3    H1 9730   6.370   0.947   1.130
 3263TIP3    H2 9731   6.453   0.893   1.245
 3264TIP3   OH2 9732   3.130   1.287   3.205
 3264TIP3    H1 9733   3.129   1.383   3.197
 3264TIP3    H2 9734   3.144   1.256   3.116
 3265TIP3   OH2 9735   8.209   3.582   4.945
 3265TIP3    H1 9736   8.265   3.505   4.934
 3265TIP3    H2 9737   8.267   3.656   4.930
 3266TIP3   OH2 9738   6.888   0.248   4.198
 3266TIP3    H1 9739   6.916   0.291   4.117
 3266TIP3    H2 9740   6.930   0.162   4.196
 3267TIP3   OH2 9741   0.606   2.863   1.810
 3267TIP3    H1 9742   0.608   2.767   1.815
 3267TIP3    H2 9743   0.679   2.886   1.752
 3268TIP3   OH2 9744   4.467   6.652   5.672
 3268TIP3    H1 9745   4.412   6.679   5.745
 3268TIP3    H2 9746   4.497   6.564   5.696
 3269TIP3   OH2 9747   0.872   1.991   4.573
 3269TIP3    H1 9748   0.801   1.934   4.603
 3269TIP3    H2 9749   0.829   2.075   4.555
 3270TIP3   OH2 9750   1.459   2.691   1.686
 3270TIP3    H1 9751   1.413   2.770   1.716
 3270TIP3    H2 9752   1.506   2.720   1.608
 3271TIP3   OH2 9753   3.577   7.309   5.768
 3271TIP3    H1 9754   3.568   7.374   5.838
 3271TIP3    H2 9755   3.537   7.352   5.692
 3272TIP3   OH2 9756   4.418   4.522   1.039
 3272TIP3    H1 9757   4.325   4.500   1.042
 3272TIP3    H2 9758   4.432   4.557   0.951
 3273TIP3   OH2 9759   6.575   1.235   4.521
 3273TIP3    H1 9760   6.569   1.301   4.453
 3273TIP3    H2 9761   6.664   1.243   4.555
 3274TIP3   OH2 9762   7.080   5.545   3.980
 3274TIP3    H1 9763   6.991   5.565   3.950
 3274TIP3    H2 9764   7.083   5.449   3.983
 3275TIP3   OH2 9765   0.657   1.409   0.899
 3275TIP3    H1 9766   0.651   1.424   0.993
 3275TIP3    H2 9767   0.668   1.314   0.891
 3276TIP3   OH2 9768   4.611   3.934   3.201
 3276TIP3    H1 9769   4.685   3.978   3.159
 3276TIP3    H2 9770   4.651   3.861   3.248
 3277TIP3   OH2 9771   8.053   4.232   2.714
 3277TIP3    H1 9772   8.120   4.239   2.645
 3277TIP3    H2 9773   7.970   4.242   2.667
 3278TIP3   OH2 9774   8.418   7.359   4.313
 3278TIP3    H1 9775   8.356   7.389   4.246
 3278TIP3    H2 9776   8.381   7.392   4.395
 3279TIP3   OH2 9777   1.331   7.103   3.490
 3279TIP3    H1 9778   1.343   7.123   3.397
 3279TIP3    H2 9779   1.335   7.008   3.495
 3280TIP3   OH2 9780   3.975   6.401   5.402
 3280TIP3    H1 9781   3.924   6.472   5.363
 3280TIP3    H2 9782   4.028   6.444   5.470
 3281TIP3   OH2 9783   0.869   7.520   1.540
 3281TIP3    H1 9784   0.960   7.526   1.569
 3281TIP3    H2 9785   0.870   7.552   1.450
 3282TIP3   OH2 9786   1.960   1.879   1.792
 3282TIP3    H1 9787   2.045   1.878   1.748
 3282TIP3    H2 9788   1.919   1.796   1.768
 3283TIP3   OH2 9789   2.152   6.570   4.488
 3283TIP3    H1 9790   2.228   6.608   4.533
 3283TIP3    H2 9791   2.172   6.581   4.395
 3284TIP3   OH2 9792   0.585   4.596   4.048
 3284TIP3    H1 9793   0.595   4.683   4.010
 3284TIP3    H2 9794   0.630   4.601   4.133
 3285TIP3   OH2 9795   3.583   6.188   1.606
 3285TIP3    H1 9796   3.614   6.258   1.664
 3285TIP3    H2 9797   3.515   6.229   1.553
 3286TIP3   OH2 9798   2.871   1.218   1.121
 3286TIP3    H1 9799   2.801   1.215   1.056
 3286TIP3    H2 9800   2.911   1.130   1.118
 3287TIP3   OH2 9801   5.660   7.425   4.831
 3287TIP3    H1 9802   5.675   7.510   4.873
 3287TIP3    H2 9803   5.732   7.416   4.769
 3288TIP3   OH2 9804   1.722   1.438   3.939
 3288TIP3    H1 9805   1.650   1.430   4.002
 3288TIP3    H2 9806   1.765   1.352   3.941
 3289TIP3   OH2 9807   4.566   5.068   4.706
 3289TIP3    H1 9808   4.619   5.118   4.643
 3289TIP3    H2 9809   4.625   5.049   4.778
 3290TIP3   OH2 9810   6.244   1.728   3.120
 3290TIP3    H1 9811   6.299   1.803   3.141
 3290TIP3    H2 9812   6.242   1.725   3.024
 3291TIP3   OH2 9813   6.111   5.014   0.971
 3291TIP3    H1 9814   6.027   4.975   0.997
 3291TIP3    H2 9815   6.167   4.939   0.951
 3292TIP3   OH2 9816   2.215   0.189   1.978
 3292TIP3    H1 9817   2.258   0.109   1.947
 3292TIP3    H2 9818   2.267   0.216   2.054
 3293TIP3   OH2 9819   5.935   7.042   5.997
 3293TIP3    H1 9820   5.986   7.089   6.062
 3293TIP3    H2 9821   5.850   7.085   5.996
 3294TIP3   OH2 9822   1.723   2.741   0.056
 3294TIP3    H1 9823   1.656   2.809   0.066
 3294TIP3    H2 9824   1.674   2.662   0.034
 3295TIP3   OH2 9825   3.109   7.116   4.479
 3295TIP3    H1 9826   3.159   7.135   4.559
 3295TIP3    H2 9827   3.113   7.021   4.469
 3296TIP3   OH2 9828   5.019   4.654   2.495
 3296TIP3    H1 9829   5.085   4.715   2.527
 3296TIP3    H2 9830   4.985   4.611   2.574
 3297TIP3   OH2 9831   3.239   6.985   0.785
 3297TIP3    H1 9832   3.241   6.952   0.695
 3297TIP3    H2 9833   3.289   6.921   0.835
 3298TIP3   OH2 9834   4.181   3.885   3.658
 3298TIP3    H1 9835   4.238   3.808   3.660
 3298TIP3    H2 9836   4.104   3.860   3.710
 3299TIP3   OH2 9837   0.471   7.644   2.925
 3299TIP3    H1 9838   0.483   7.549   2.915
 3299TIP3    H2 9839   0.510   7.681   2.846
 3300TIP3   OH2 9840   7.784   0.111   4.150
 3300TIP3    H1 9841   7.818   0.192   4.188
 3300TIP3    H2 9842   7.756   0.059   4.226
 3301TIP3   OH2 9843   7.402   7.598   6.488
 3301TIP3    H1 9844   7.396   7.586   6.394
 3301TIP3    H2 9845   7.458   7.676   6.498
 3302TIP3   OH2 9846   3.034   7.860   4.410
 3302TIP3    H1 9847   2.985   7.930   4.369
 3302TIP3    H2 9848   2.968   7.800   4.444
 3303TIP3   OH2 9849   1.357   5.351   5.901
 3303TIP3    H1 9850   1.325   5.343   5.991
 3303TIP3    H2 9851   1.286   5.397   5.855
 3304TIP3   OH2 9852   0.015   0.994   4.069
 3304TIP3    H1 9853   0.036   1.018   3.979
 3304TIP3    H2 9854  -0.051   0.925   4.061
 3305TIP3   OH2 9855   8.242   3.253   2.417
 3305TIP3    H1 9856   8.165   3.291   2.377
 3305TIP3    H2 9857   8.315   3.303   2.380
 3306TIP3   OH2 9858   1.838   4.658   3.679
 3306TIP3    H1 9859   1.810   4.750   3.680
 3306TIP3    H2 9860   1.934   4.663   3.683
 3307TIP3   OH2 9861   6.724   4.508   3.955
 3307TIP3    H1 9862   6.706   4.519   4.049
 3307TIP3    H2 9863   6.637   4.502   3.915
 3308TIP3   OH2 9864   5.103   6.424   3.110
 3308TIP3    H1 9865   5.123   6.515   3.132
 3308TIP3    H2 9866   5.119   6.375   3.191
 3309TIP3   OH2 9867   2.084   5.625   1.839
 3309TIP3    H1 9868   2.108   5.708   1.798
 3309TIP3    H2 9869   2.118   5.559   1.778
 3310TIP3   OH2 9870   1.715   6.605   6.060
 3310TIP3    H1 9871   1.779   6.596   5.989
 3310TIP3    H2 9872   1.739   6.536   6.122
 3311TIP3   OH2 9873   1.492   1.120   5.623
 3311TIP3    H1 9874   1.439   1.042   5.608
 3311TIP3    H2 9875   1.452   1.162   5.699
 3312TIP3   OH2 9876   6.311   3.022   5.791
 3312TIP3    H1 9877   6.240   3.063   5.840
 3312TIP3    H2 9878   6.374   2.995   5.858
 3313TIP3   OH2 9879   7.091   2.117   2.076
 3313TIP3    H1 9880   7.139   2.081   2.002
 3313TIP3    H2 9881   7.156   2.125   2.145
 3314TIP3   OH2 9882   1.689   4.854   5.999
 3314TIP3    H1 9883   1.612   4.827   6.049
 3314TIP3    H2 9884   1.745   4.777   5.997
 3315TIP3   OH2 9885   2.608   6.536   2.374
 3315TIP3    H1 9886   2.624   6.579   2.459
 3315TIP3    H2 9887   2.598   6.608   2.312
 3316TIP3   OH2 9888   4.999   3.123   0.260
 3316TIP3    H1 9889   5.066   3.107   0.193
 3316TIP3    H2 9890   4.921   3.149   0.211
 3317TIP3   OH2 9891   2.122   5.715   3.890
 3317TIP3    H1 9892   2.170   5.699   3.810
 3317TIP3    H2 9893   2.037   5.750   3.861
 3318TIP3   OH2 9894   4.230   2.040   2.844
 3318TIP3    H1 9895   4.234   2.121   2.794
 3318TIP3    H2 9896   4.320   2.023   2.870
 3319TIP3   OH2 9897   3.150   4.136   2.123
 3319TIP3    H1 9898   3.197   4.072   2.175
 3319TIP3    H2 9899   3.191   4.132   2.037
 3320TIP3   OH2 9900   1.727   1.976   1.260
 3320TIP3    H1 9901   1.798   1.912   1.249
 3320TIP3    H2 9902   1.666   1.957   1.189
 3321TIP3   OH2 9903   1.531   2.375   6.101
 3321TIP3    H1 9904   1.585   2.350   6.176
 3321TIP3    H2 9905   1.571   2.456   6.069
 3322TIP3   OH2 9906   2.905   2.549   1.535
 3322TIP3    H1 9907   2.941   2.525   1.449
 3322TIP3    H2 9908   2.812   2.564   1.519
 3323TIP3   OH2 9909   3.482   2.682   0.213
 3323TIP3    H1 9910   3.486   2.748   0.144
 3323TIP3    H2 9911   3.546   2.711   0.278
 3324TIP3   OH2 9912   7.809   3.561   4.237
 3324TIP3    H1 9913   7.842   3.500   4.303
 3324TIP3    H2 9914   7.732   3.600   4.277
 3325TIP3   OH2 9915   7.263   1.340   2.497
 3325TIP3    H1 9916   7.282   1.432   2.481
 3325TIP3    H2 9917   7.177   1.340   2.540
 3326TIP3   OH2 9918   1.625   4.694   3.335
 3326TIP3    H1 9919   1.662   4.783   3.333
 3326TIP3    H2 9920   1.575   4.691   3.417
 3327TIP3   OH2 9921   6.677   4.147   4.604
 3327TIP3    H1 9922   6.602   4.207   4.598
 3327TIP3    H2 9923   6.750   4.203   4.629
 3328TIP3   OH2 9924   1.066   2.884   5.635
 3328TIP3    H1 9925   0.994   2.899   5.574
 3328TIP3    H2 9926   1.069   2.964   5.688
 3329TIP3   OH2 9927   6.590   6.787   5.129
 3329TIP3    H1 9928   6.541   6.867   5.149
 3329TIP3    H2 9929   6.546   6.718   5.178
 3330TIP3   OH2 9930   7.977   0.620   6.380
 3330TIP3    H1 9931   7.938   0.595   6.295
 3330TIP3    H2 9932   7.985   0.715   6.375
 3331TIP3   OH2 9933   4.424   3.095   6.008
 3331TIP3    H1 9934   4.369   3.071   6.083
 3331TIP3    H2 9935   4.402   3.031   5.941
 3332TIP3   OH2 9936   1.523   0.547   6.407
 3332TIP3    H1 9937   1.560   0.634   6.417
 3332TIP3    H2 9938   1.497   0.541   6.315
 3333TIP3   OH2 9939   5.946   7.603   6.447
 3333TIP3    H1 9940   5.891   7.525   6.449
 3333TIP3    H2 9941   6.008   7.590   6.519
 3334TIP3   OH2 9942   7.970   6.275   1.489
 3334TIP3    H1 9943   8.058   6.312   1.496
 3334TIP3    H2 9944   7.977   6.190   1.533
 3335TIP3   OH2 9945   1.238   4.443   2.469
 3335TIP3    H1 9946   1.165   4.499   2.446
 3335TIP3    H2 9947   1.209   4.397   2.548
 3336TIP3   OH2 9948   2.178   4.768   2.593
 3336TIP3    H1 9949   2.214   4.853   2.570
 3336TIP3    H2 9950   2.097   4.762   2.543
 3337TIP3   OH2 9951   4.464   5.380   3.549
 3337TIP3    H1 9952   4.430   5.291   3.560
 3337TIP3    H2 9953   4.420   5.432   3.616
 3338TIP3   OH2 9954   1.857   3.399   3.240
 3338TIP3    H1 9955   1.843   3.319   3.290
 3338TIP3    H2 9956   1.779   3.452   3.256
 3339TIP3   OH2 9957   5.517   5.989   2.535
 3339TIP3    H1 9958   5.524   5.931   2.610
 3339TIP3    H2 9959   5.483   5.933   2.465
 3340TIP3   OH2 9960   6.142   7.862   3.759
 3340TIP3    H1 9961   6.059   7.865   3.806
 3340TIP3    H2 9962   6.124   7.809   3.681
 3341TIP3   OH2 9963   8.060   0.203   0.227
 3341TIP3    H1 9964   7.978   0.157   0.246
 3341TIP3    H2 9965   8.066   0.203   0.132
 3342TIP3   OH2 9966   6.629   6.108   4.633
 3342TIP3    H1 9967   6.573   6.149   4.567
 3342TIP3    H2 9968   6.696   6.063   4.583
 3343TIP3   OH2 9969   4.160   7.328   6.215
 3343TIP3    H1 9970   4.182   7.401   6.273
 3343TIP3    H2 9971   4.067   7.312   6.232
 3344TIP3   OH2 9972   0.455   5.143   5.745
 3344TIP3    H1 9973   0.452   5.238   5.734
 3344TIP3    H2 9974   0.521   5.114   5.682
 3345TIP3   OH2 9975   0.077   1.404   6.294
 3345TIP3    H1 9976   0.139   1.404   6.221
 3345TIP3    H2 9977   0.092   1.488   6.338
 3346TIP3   OH2 9978   1.536   7.612   3.037
 3346TIP3    H1 9979   1.539   7.707   3.052
 3346TIP3    H2 9980   1.599   7.597   2.967
 3347TIP3   OH2 9981   8.080   5.298   6.281
 3347TIP3    H1 9982   8.004   5.240   6.287
 3347TIP3    H2 9983   8.048   5.383   6.313
 3348TIP3   OH2 9984   8.139   0.087   5.121
 3348TIP3    H1 9985   8.134   0.120   5.032
 3348TIP3    H2 9986   8.208   0.020   5.117
 3349TIP3   OH2 9987   1.072   3.721   0.881
 3349TIP3    H1 9988   1.068   3.776   0.803
 3349TIP3    H2 9989   0.988   3.734   0.924
 3350TIP3   OH2 9990   1.132   6.819   2.135
 3350TIP3    H1 9991   1.158   6.828   2.043
 3350TIP3    H2 9992   1.051   6.870   2.142
 3351TIP3   OH2 9993   2.176   3.653   4.092
 3351TIP3    H1 9994   2.230   3.730   4.075
 3351TIP3    H2 9995   2.137   3.632   4.007
 3352TIP3   OH2 9996   1.746   2.136  -0.001
 3352TIP3    H1 9997   1.784   2.072   0.058
 3352TIP3    H2 9998   1.746   2.218   0.049
 3353TIP3   OH2 9999   5.397   6.551   5.563
 3353TIP3    H110000   5.309   6.515   5.555
 3353TIP3    H210001   5.393   6.607   5.641
 3354TIP3   OH210002   6.295   0.364   6.373
 3354TIP3    H110003   6.278   0.403   6.287
 3354TIP3    H210004   6.214   0.379   6.422
 3355TIP3   OH210005   3.112   5.181   4.575
 3355TIP3    H110006   3.039   5.242   4.576
 3355TIP3    H210007   3.090   5.115   4.641
 3356TIP3   OH210008   4.906   0.502   2.484
 3356TIP3    H110009   4.827   0.474   2.531
 3356TIP3    H210010   4.892   0.473   2.394
 3357TIP3   OH210011   4.952   7.096   1.211
 3357TIP3    H110012   4.946   7.127   1.301
 3357TIP3    H210013   4.973   7.003   1.218
 3358TIP3   OH210014   2.406   2.210   6.687
 3358TIP3    H110015   2.321   2.179   6.657
 3358TIP3    H210016   2.434   2.145   6.751
 3359TIP3   OH210017   5.968   0.655   4.829
 3359TIP3    H110018   5.926   0.570   4.817
 3359TIP3    H210019   5.895   0.717   4.830
 3360TIP3   OH210020   3.965   2.462   3.273
 3360TIP3    H110021   3.991   2.532   3.212
 3360TIP3    H210022   3.982   2.498   3.360
 3361TIP3   OH210023   5.893   5.042   1.477
 3361TIP3    H110024   5.860   5.123   1.439
 3361TIP3    H210025   5.840   4.973   1.438
 3362TIP3   OH210026   1.274   6.149   5.890
 3362TIP3    H110027   1.199   6.131   5.833
 3362TIP3    H210028   1.238   6.149   5.978
 3363TIP3   OH210029   3.305   0.617   1.212
 3363TIP3    H110030   3.306   0.530   1.171
 3363TIP3    H210031   3.248   0.669   1.156
 3364TIP3   OH210032   0.482   6.717   6.501
 3364TIP3    H110033   0.441   6.765   6.429
 3364TIP3    H210034   0.523   6.641   6.459
 3365TIP3   OH210035   7.011   0.941   3.201
 3365TIP3    H110036   6.980   1.027   3.228
 3365TIP3    H210037   6.997   0.885   3.277
 3366TIP3   OH210038   4.065   1.711   2.669
 3366TIP3    H110039   3.985   1.754   2.638
 3366TIP3    H210040   4.036   1.661   2.746
 3367TIP3   OH210041   1.169   1.968   3.033
 3367TIP3    H110042   1.129   1.951   2.948
 3367TIP3    H210043   1.125   2.046   3.065
 3368TIP3   OH210044   0.531   3.319  -0.013
 3368TIP3    H110045   0.548   3.315  -0.107
 3368TIP3    H210046   0.598   3.378   0.022
 3369TIP3   OH210047   2.968   1.761   3.071
 3369TIP3    H110048   3.060   1.781   3.057
 3369TIP3    H210049   2.962   1.665   3.064
 3370TIP3   OH210050   5.377   0.587   1.040
 3370TIP3    H110051   5.384   0.544   0.954
 3370TIP3    H210052   5.287   0.572   1.067
 3371TIP3   OH210053   1.479   1.714  -0.018
 3371TIP3    H110054   1.499   1.625  -0.046
 3371TIP3    H210055   1.550   1.737   0.041
 3372TIP3   OH210056   3.470   0.504   0.951
 3372TIP3    H110057   3.510   0.569   1.009
 3372TIP3    H210058   3.424   0.444   1.010
 3373TIP3   OH210059   5.223   1.725   5.516
 3373TIP3    H110060   5.201   1.636   5.488
 3373TIP3    H210061   5.303   1.746   5.469
 3374TIP3   OH210062   2.704   3.029   6.675
 3374TIP3    H110063   2.630   2.991   6.723
 3374TIP3    H210064   2.697   2.992   6.587
 3375TIP3   OH210065   5.490   7.856   4.278
 3375TIP3    H110066   5.543   7.781   4.307
 3375TIP3    H210067   5.497   7.853   4.182
 3376TIP3   OH210068   4.479   0.275   5.184
 3376TIP3    H110069   4.549   0.339   5.176
 3376TIP3    H210070   4.421   0.292   5.109
 3377TIP3   OH210071   1.110   4.542   6.344
 3377TIP3    H110072   1.062   4.483   6.286
 3377TIP3    H210073   1.183   4.490   6.376
 3378TIP3   OH210074   7.522   6.926   3.171
 3378TIP3    H110075   7.504   7.012   3.209
 3378TIP3    H210076   7.515   6.865   3.244
 3379TIP3   OH210077   5.406   7.116   3.925
 3379TIP3    H110078   5.326   7.064   3.932
 3379TIP3    H210079   5.382   7.203   3.956
 3380TIP3   OH210080   5.789   5.346   2.032
 3380TIP3    H110081   5.759   5.260   2.060
 3380TIP3    H210082   5.848   5.329   1.959
 3381TIP3   OH210083   1.726   2.106   4.090
 3381TIP3    H110084   1.680   2.063   4.162
 3381TIP3    H210085   1.774   2.178   4.132
 3382TIP3   OH210086   6.405   1.003   4.628
 3382TIP3    H110087   6.487   1.044   4.654
 3382TIP3    H210088   6.398   0.925   4.684
 3383TIP3   OH210089   7.223   5.551   6.237
 3383TIP3    H110090   7.317   5.553   6.255
 3383TIP3    H210091   7.193   5.470   6.279
 3384TIP3   OH210092   6.366   0.928   0.942
 3384TIP3    H110093   6.404   0.841   0.930
 3384TIP3    H210094   6.436   0.988   0.915
 3385TIP3   OH210095   5.610   7.681   3.558
 3385TIP3    H110096   5.526   7.719   3.530
 3385TIP3    H210097   5.630   7.725   3.640
 3386TIP3   OH210098   2.276   0.152   0.244
 3386TIP3    H110099   2.366   0.149   0.213
 3386TIP3    H210100   2.253   0.245   0.242
 3387TIP3   OH210101   7.282   5.949   4.871
 3387TIP3    H110102   7.279   6.043   4.892
 3387TIP3    H210103   7.255   5.906   4.952
 3388TIP3   OH210104   5.966   3.937   0.730
 3388TIP3    H110105   5.958   3.895   0.644
 3388TIP3    H210106   5.881   3.924   0.771
 3389TIP3   OH210107   1.686   2.858   1.437
 3389TIP3    H110108   1.633   2.883   1.360
 3389TIP3    H210109   1.750   2.928   1.445
 3390TIP3   OH210110   7.688   0.357   6.344
 3390TIP3    H110111   7.780   0.360   6.319
 3390TIP3    H210112   7.641   0.351   6.261
 3391TIP3   OH210113   1.029   3.970   6.795
 3391TIP3    H110114   1.042   3.896   6.854
 3391TIP3    H210115   0.937   3.994   6.808
 3392TIP3   OH210116   2.991   3.639   1.127
 3392TIP3    H110117   3.004   3.693   1.205
 3392TIP3    H210118   2.996   3.700   1.054
 3393TIP3   OH210119   6.527   0.115   1.356
 3393TIP3    H110120   6.586   0.112   1.431
 3393TIP3    H210121   6.497   0.024   1.346
 3394TIP3   OH210122   1.922   1.762   3.596
 3394TIP3    H110123   1.926   1.736   3.688
 3394TIP3    H210124   1.885   1.850   3.597
 3395TIP3   OH210125   1.143   4.925   2.765
 3395TIP3    H110126   1.209   4.980   2.722
 3395TIP3    H210127   1.062   4.942   2.716
 3396TIP3   OH210128   8.366   3.984   2.473
 3396TIP3    H110129   8.415   3.940   2.543
 3396TIP3    H210130   8.288   3.930   2.461
 3397TIP3   OH210131   2.283   3.663   3.750
 3397TIP3    H110132   2.276   3.754   3.722
 3397TIP3    H210133   2.205   3.648   3.803
 3398TIP3   OH210134   1.149   4.240   0.291
 3398TIP3    H110135   1.069   4.279   0.255
 3398TIP3    H210136   1.117   4.169   0.347
 3399TIP3   OH210137   3.366   6.391   3.062
 3399TIP3    H110138   3.382   6.380   2.968
 3399TIP3    H210139   3.278   6.356   3.076
 3400TIP3   OH210140   3.297   7.034   1.875
 3400TIP3    H110141   3.222   7.064   1.823
 3400TIP3    H210142   3.336   7.115   1.908
 3401TIP3   OH210143   1.282   1.124   6.199
 3401TIP3    H110144   1.303   1.209   6.240
 3401TIP3    H210145   1.342   1.062   6.240
 3402TIP3   OH210146   2.647   2.942   0.541
 3402TIP3    H110147   2.672   3.007   0.475
 3402TIP3    H210148   2.563   2.908   0.509
 3403TIP3   OH210149   2.690   7.035   3.176
 3403TIP3    H110150   2.597   7.051   3.158
 3403TIP3    H210151   2.734   7.057   3.094
 3404TIP3   OH210152   3.695   2.048   6.298
 3404TIP3    H110153   3.634   2.102   6.247
 3404TIP3    H210154   3.763   2.110   6.325
 3405TIP3   OH210155   3.819   0.746   3.592
 3405TIP3    H110156   3.730   0.776   3.575
 3405TIP3    H210157   3.808   0.661   3.634
 3406TIP3   OH210158   3.460   6.953   6.900
 3406TIP3    H110159   3.522   7.008   6.947
 3406TIP3    H210160   3.380   7.006   6.894
 3407TIP3   OH210161   0.757   2.639   3.621
 3407TIP3    H110162   0.697   2.713   3.636
 3407TIP3    H210163   0.801   2.660   3.539
 3408TIP3   OH210164   5.836   2.407   2.302
 3408TIP3    H110165   5.908   2.364   2.257
 3408TIP3    H210166   5.858   2.500   2.300
 3409TIP3   OH210167   5.564   4.535   5.250
 3409TIP3    H110168   5.549   4.497   5.337
 3409TIP3    H210169   5.530   4.624   5.257
 3410TIP3   OH210170   5.923   5.354   3.172
 3410TIP3    H110171   5.982   5.280   3.181
 3410TIP3    H210172   5.862   5.328   3.103
 3411TIP3   OH210173   7.428   2.779   1.662
 3411TIP3    H110174   7.478   2.832   1.600
 3411TIP3    H210175   7.406   2.839   1.734
 3412TIP3   OH210176   0.805   2.972   4.642
 3412TIP3    H110177   0.827   2.889   4.599
 3412TIP3    H210178   0.773   2.946   4.728
 3413TIP3   OH210179   8.052   2.438   4.697
 3413TIP3    H110180   8.075   2.511   4.639
 3413TIP3    H210181   7.958   2.425   4.683
 3414TIP3   OH210182   5.154   1.022   1.754
 3414TIP3    H110183   5.173   1.049   1.664
 3414TIP3    H210184   5.081   1.078   1.781
 3415TIP3   OH210185   5.863   5.891   6.102
 3415TIP3    H110186   5.935   5.893   6.039
 3415TIP3    H210187   5.900   5.926   6.183
 3416TIP3   OH210188   0.134   0.954   1.415
 3416TIP3    H110189   0.082   0.952   1.495
 3416TIP3    H210190   0.070   0.946   1.345
 3417TIP3   OH210191   7.399   5.431   0.061
 3417TIP3    H110192   7.414   5.503   0.123
 3417TIP3    H210193   7.469   5.369   0.079
 3418TIP3   OH210194   0.376   5.502   0.725
 3418TIP3    H110195   0.407   5.581   0.681
 3418TIP3    H210196   0.316   5.534   0.792
 3419TIP3   OH210197   1.687   0.101   3.338
 3419TIP3    H110198   1.731   0.017   3.338
 3419TIP3    H210199   1.716   0.143   3.419
 3420TIP3   OH210200   0.645   5.149   2.739
 3420TIP3    H110201   0.626   5.055   2.744
 3420TIP3    H210202   0.740   5.153   2.728
 3421TIP3   OH210203   3.608   6.001   4.737
 3421TIP3    H110204   3.603   5.908   4.761
 3421TIP3    H210205   3.701   6.017   4.723
 3422TIP3   OH210206   1.750   7.075   0.137
 3422TIP3    H110207   1.770   7.086   0.044
 3422TIP3    H210208   1.779   6.986   0.158
 3423TIP3   OH210209   0.764   4.812   4.910
 3423TIP3    H110210   0.739   4.823   5.002
 3423TIP3    H210211   0.682   4.789   4.866
 3424TIP3   OH210212   3.269   0.981   0.354
 3424TIP3    H110213   3.279   1.068   0.391
 3424TIP3    H210214   3.178   0.978   0.323
 3425TIP3   OH210215   5.821   3.733   3.748
 3425TIP3    H110216   5.751   3.708   3.688
 3425TIP3    H210217   5.793   3.817   3.784
 3426TIP3   OH210218   0.395   2.327   3.635
 3426TIP3    H110219   0.350   2.373   3.565
 3426TIP3    H210220   0.481   2.369   3.640
 3427TIP3   OH210221   7.530   2.900   2.499
 3427TIP3    H110222   7.519   2.995   2.503
 3427TIP3    H210223   7.624   2.888   2.484
 3428TIP3   OH210224   2.890   3.543   0.767
 3428TIP3    H110225   2.825   3.474   0.782
 3428TIP3    H210226   2.974   3.496   0.762
 3429TIP3   OH210227   0.169   7.315   0.634
 3429TIP3    H110228   0.255   7.358   0.638
 3429TIP3    H210229   0.130   7.348   0.553
 3430TIP3   OH210230   5.703   1.287   0.292
 3430TIP3    H110231   5.692   1.318   0.382
 3430TIP3    H210232   5.613   1.268   0.263
 3431TIP3   OH210233   3.621   2.258   5.328
 3431TIP3    H110234   3.641   2.327   5.265
 3431TIP3    H210235   3.598   2.182   5.275
 3432TIP3   OH210236   6.589   1.378   0.962
 3432TIP3    H110237   6.604   1.293   0.920
 3432TIP3    H210238   6.511   1.364   1.016
 3433TIP3   OH210239   6.284   4.315   4.936
 3433TIP3    H110240   6.337   4.390   4.962
 3433TIP3    H210241   6.272   4.264   5.016
 3434TIP3   OH210242   0.426   4.225   1.663
 3434TIP3    H110243   0.484   4.172   1.609
 3434TIP3    H210244   0.405   4.301   1.608
 3435TIP3   OH210245   5.716   0.002   1.012
 3435TIP3    H110246   5.675  -0.055   0.946
 3435TIP3    H210247   5.791   0.040   0.967
 3436TIP3   OH210248   3.394   2.730   1.369
 3436TIP3    H110249   3.397   2.706   1.462
 3436TIP3    H210250   3.452   2.667   1.327
 3437TIP3   OH210251   4.126   0.078   5.857
 3437TIP3    H110252   4.069   0.004   5.877
 3437TIP3    H210253   4.169   0.099   5.940
 3438TIP3   OH210254   4.920   3.771   0.170
 3438TIP3    H110255   4.943   3.864   0.166
 3438TIP3    H210256   5.000   3.725   0.147
 3439TIP3   OH210257   1.643   3.193   4.027
 3439TIP3    H110258   1.695   3.115   4.047
 3439TIP3    H210259   1.580   3.198   4.099
 3440TIP3   OH210260   2.732   6.632   6.023
 3440TIP3    H110261   2.806   6.575   6.001
 3440TIP3    H210262   2.696   6.658   5.938
 3441TIP3   OH210263   6.110   2.730   6.501
 3441TIP3    H110264   6.025   2.687   6.511
 3441TIP3    H210265   6.105   2.807   6.558
 3442TIP3   OH210266   8.215   7.212   0.497
 3442TIP3    H110267   8.164   7.293   0.486
 3442TIP3    H210268   8.303   7.235   0.467
 3443TIP3   OH210269   7.933   1.528   4.558
 3443TIP3    H110270   7.860   1.553   4.502
 3443TIP3    H210271   8.009   1.572   4.519
 3444TIP3   OH210272   7.127   1.460   4.132
 3444TIP3    H110273   7.215   1.421   4.137
 3444TIP3    H210274   7.135   1.526   4.063
 3445TIP3   OH210275   2.028   5.268   0.049
 3445TIP3    H110276   1.999   5.304  -0.034
 3445TIP3    H210277   1.948   5.258   0.101
 3446TIP3   OH210278   6.550   5.056   1.646
 3446TIP3    H110279   6.484   5.046   1.578
 3446TIP3    H210280   6.598   4.973   1.644
 3447TIP3   OH210281   5.370   4.273   4.019
 3447TIP3    H110282   5.304   4.273   3.950
 3447TIP3    H210283   5.324   4.242   4.097
 3448TIP3   OH210284   3.143   7.130   3.858
 3448TIP3    H110285   3.083   7.203   3.842
 3448TIP3    H210286   3.230   7.170   3.859
 3449TIP3   OH210287   3.354   2.994   3.296
 3449TIP3    H110288   3.372   3.074   3.247
 3449TIP3    H210289   3.262   2.976   3.280
 3450TIP3   OH210290   0.474   0.136   5.771
 3450TIP3    H110291   0.457   0.055   5.723
 3450TIP3    H210292   0.397   0.191   5.754
 3451TIP3   OH210293   2.983   2.125   0.198
 3451TIP3    H110294   2.957   2.033   0.191
 3451TIP3    H210295   2.900   2.172   0.209
 3452TIP3   OH210296   4.675   0.299   4.439
 3452TIP3    H110297   4.725   0.377   4.464
 3452TIP3    H210298   4.596   0.303   4.493
 3453TIP3   OH210299   2.713   5.326   2.531
 3453TIP3    H110300   2.766   5.254   2.565
 3453TIP3    H210301   2.675   5.293   2.450
 3454TIP3   OH210302   5.337   7.862   3.647
 3454TIP3    H110303   5.262   7.888   3.593
 3454TIP3    H210304   5.299   7.809   3.716
 3455TIP3   OH210305   8.067   2.722   1.811
 3455TIP3    H110306   8.158   2.701   1.831
 3455TIP3    H210307   8.019   2.641   1.827
 3456TIP3   OH210308   0.773   6.334   3.723
 3456TIP3    H110309   0.749   6.263   3.782
 3456TIP3    H210310   0.840   6.383   3.770
 3457TIP3   OH210311   1.677   6.979   0.925
 3457TIP3    H110312   1.635   6.962   1.009
 3457TIP3    H210313   1.638   6.916   0.865
 3458TIP3   OH210314   4.055   1.156   0.084
 3458TIP3    H110315   4.113   1.161   0.008
 3458TIP3    H210316   4.076   1.234   0.135
 3459TIP3   OH210317   6.434   4.086   4.355
 3459TIP3    H110318   6.448   3.992   4.370
 3459TIP3    H210319   6.346   4.102   4.388
 3460TIP3   OH210320   0.841   0.450   1.837
 3460TIP3    H110321   0.911   0.494   1.885
 3460TIP3    H210322   0.768   0.512   1.838
 3461TIP3   OH210323   5.650   3.614   0.599
 3461TIP3    H110324   5.677   3.523   0.612
 3461TIP3    H210325   5.732   3.662   0.587
 3462TIP3   OH210326   0.897   0.157   1.567
 3462TIP3    H110327   0.926   0.138   1.478
 3462TIP3    H210328   0.803   0.173   1.559
 3463TIP3   OH210329   3.520   5.290   1.545
 3463TIP3    H110330   3.525   5.325   1.634
 3463TIP3    H210331   3.438   5.242   1.543
 3464TIP3   OH210332   2.425   1.043   4.681
 3464TIP3    H110333   2.461   1.129   4.704
 3464TIP3    H210334   2.333   1.047   4.708
 3465TIP3   OH210335   2.025   5.665   5.424
 3465TIP3    H110336   1.967   5.625   5.489
 3465TIP3    H210337   2.041   5.596   5.359
 3466TIP3   OH210338   2.278   4.908   6.621
 3466TIP3    H110339   2.302   4.840   6.558
 3466TIP3    H210340   2.344   4.977   6.608
 3467TIP3   OH210341   1.629   6.936   6.852
 3467TIP3    H110342   1.670   6.951   6.766
 3467TIP3    H210343   1.581   7.017   6.870
 3468TIP3   OH210344   6.257   2.017   3.215
 3468TIP3    H110345   6.162   2.017   3.227
 3468TIP3    H210346   6.285   2.104   3.243
 3469TIP3   OH210347   7.927   7.732   2.664
 3469TIP3    H110348   7.841   7.753   2.700
 3469TIP3    H210349   7.922   7.763   2.573
 3470TIP3   OH210350   0.353   6.610   0.676
 3470TIP3    H110351   0.449   6.616   0.670
 3470TIP3    H210352   0.325   6.585   0.588
 3471TIP3   OH210353   5.280   7.439   0.092
 3471TIP3    H110354   5.212   7.506   0.084
 3471TIP3    H210355   5.356   7.476   0.047
 3472TIP3   OH210356   5.041   6.819   5.592
 3472TIP3    H110357   5.055   6.762   5.516
 3472TIP3    H210358   5.104   6.890   5.581
 3473TIP3   OH210359   6.893   7.094   0.943
 3473TIP3    H110360   6.846   7.160   0.994
 3473TIP3    H210361   6.985   7.111   0.961
 3474TIP3   OH210362   6.573   3.401   4.161
 3474TIP3    H110363   6.620   3.478   4.130
 3474TIP3    H210364   6.566   3.413   4.256
 3475TIP3   OH210365   3.249   1.972   0.833
 3475TIP3    H110366   3.237   1.982   0.738
 3475TIP3    H210367   3.324   2.028   0.854
 3476TIP3   OH210368   3.594   3.537   0.151
 3476TIP3    H110369   3.539   3.549   0.229
 3476TIP3    H210370   3.668   3.596   0.165
 3477TIP3   OH210371   5.778   4.801   4.502
 3477TIP3    H110372   5.871   4.798   4.483
 3477TIP3    H210373   5.763   4.891   4.532
 3478TIP3   OH210374   7.533   2.973   1.507
 3478TIP3    H110375   7.628   2.984   1.494
 3478TIP3    H210376   7.496   3.059   1.485
 3479TIP3   OH210377   8.392   6.484   1.071
 3479TIP3    H110378   8.353   6.408   1.029
 3479TIP3    H210379   8.472   6.501   1.022
 3480TIP3   OH210380   0.081   4.736   1.081
 3480TIP3    H110381   0.053   4.670   1.144
 3480TIP3    H210382   0.101   4.813   1.135
 3481TIP3   OH210383   0.197   1.974  -0.006
 3481TIP3    H110384   0.155   1.972   0.079
 3481TIP3    H210385   0.129   2.004  -0.067
 3482TIP3   OH210386   0.603   7.514   1.646
 3482TIP3    H110387   0.565   7.427   1.660
 3482TIP3    H210388   0.696   7.498   1.631
 3483TIP3   OH210389   4.873   7.178   5.494
 3483TIP3    H110390   4.890   7.231   5.572
 3483TIP3    H210391   4.781   7.152   5.502
 3484TIP3   OH210392   3.116   6.756   1.308
 3484TIP3    H110393   3.176   6.769   1.382
 3484TIP3    H210394   3.161   6.692   1.253
 3485TIP3   OH210395   4.370   6.009   1.562
 3485TIP3    H110396   4.311   5.951   1.514
 3485TIP3    H210397   4.384   6.083   1.503
 3486TIP3   OH210398   6.442   5.303   2.868
 3486TIP3    H110399   6.359   5.350   2.860
 3486TIP3    H210400   6.451   5.285   2.961
 3487TIP3   OH210401   5.410   3.063   1.482
 3487TIP3    H110402   5.385   2.988   1.428
 3487TIP3    H210403   5.381   3.140   1.432
 3488TIP3   OH210404   0.232   3.149   0.558
 3488TIP3    H110405   0.289   3.202   0.613
 3488TIP3    H210406   0.194   3.211   0.496
 3489TIP3   OH210407   6.414   4.768   2.816
 3489TIP3    H110408   6.479   4.837   2.828
 3489TIP3    H210409   6.465   4.687   2.816
 3490TIP3   OH210410   3.614   6.323   3.806
 3490TIP3    H110411   3.583   6.236   3.830
 3490TIP3    H210412   3.612   6.324   3.710
 3491TIP3   OH210413   8.310   5.858   6.676
 3491TIP3    H110414   8.368   5.832   6.748
 3491TIP3    H210415   8.231   5.889   6.720
 3492TIP3   OH210416   7.015   2.267   5.610
 3492TIP3    H110417   7.079   2.327   5.648
 3492TIP3    H210418   6.970   2.318   5.544
 3493TIP3   OH210419   1.254   1.352   2.568
 3493TIP3    H110420   1.202   1.284   2.526
 3493TIP3    H210421   1.275   1.317   2.654
 3494TIP3   OH210422   6.414   1.006   3.819
 3494TIP3    H110423   6.328   1.012   3.862
 3494TIP3    H210424   6.406   0.931   3.760
 3495TIP3   OH210425   1.635   4.447   4.215
 3495TIP3    H110426   1.667   4.534   4.189
 3495TIP3    H210427   1.667   4.389   4.146
 3496TIP3   OH210428   4.594   1.524   2.511
 3496TIP3    H110429   4.677   1.559   2.477
 3496TIP3    H210430   4.610   1.511   2.604
 3497TIP3   OH210431   2.670   0.186   6.322
 3497TIP3    H110432   2.721   0.267   6.311
 3497TIP3    H210433   2.596   0.196   6.263
 3498TIP3   OH210434   2.452   0.244   5.213
 3498TIP3    H110435   2.416   0.175   5.269
 3498TIP3    H210436   2.444   0.324   5.265
 3499TIP3   OH210437   2.916   1.871   0.131
 3499TIP3    H110438   2.887   1.793   0.177
 3499TIP3    H210439   2.960   1.838   0.052
 3500TIP3   OH210440   5.026   7.202   2.982
 3500TIP3    H110441   4.961   7.131   2.984
 3500TIP3    H210442   4.992   7.264   2.917
 3501TIP3   OH210443   1.764   0.886   5.778
 3501TIP3    H110444   1.677   0.849   5.792
 3501TIP3    H210445   1.772   0.894   5.683
 3502TIP3   OH210446   6.598   4.319   4.346
 3502TIP3    H110447   6.546   4.241   4.330
 3502TIP3    H210448   6.597   4.331   4.440
 3503TIP3   OH210449   4.909   6.585   4.328
 3503TIP3    H110450   4.981   6.524   4.344
 3503TIP3    H210451   4.831   6.529   4.324
 3504TIP3   OH210452   2.198   2.299   2.630
 3504TIP3    H110453   2.141   2.338   2.696
 3504TIP3    H210454   2.260   2.246   2.680
 3505TIP3   OH210455   0.338   6.455   3.797
 3505TIP3    H110456   0.345   6.410   3.881
 3505TIP3    H210457   0.400   6.528   3.803
 3506TIP3   OH210458   3.164   3.699   4.453
 3506TIP3    H110459   3.160   3.792   4.432
 3506TIP3    H210460   3.257   3.678   4.452
 3507TIP3   OH210461   2.868   0.573   0.475
 3507TIP3    H110462   2.866   0.515   0.400
 3507TIP3    H210463   2.956   0.562   0.511
 3508TIP3   OH210464   4.775   0.990   4.785
 3508TIP3    H110465   4.838   0.924   4.756
 3508TIP3    H210466   4.806   1.072   4.747
 3509TIP3   OH210467   5.759   4.535   2.561
 3509TIP3    H110468   5.721   4.568   2.642
 3509TIP3    H210469   5.713   4.453   2.543
 3510TIP3   OH210470   8.186   1.148   6.283
 3510TIP3    H110471   8.211   1.187   6.200
 3510TIP3    H210472   8.222   1.207   6.349
 3511TIP3   OH210473   4.924   5.988   5.240
 3511TIP3    H110474   4.997   6.042   5.270
 3511TIP3    H210475   4.846   6.028   5.278
 3512TIP3   OH210476   4.870   7.713   1.078
 3512TIP3    H110477   4.920   7.650   1.131
 3512TIP3    H210478   4.784   7.716   1.119
 3513TIP3   OH210479   5.724   0.710   6.240
 3513TIP3    H110480   5.750   0.763   6.315
 3513TIP3    H210481   5.638   0.744   6.214
 3514TIP3   OH210482   6.792   4.319   5.071
 3514TIP3    H110483   6.808   4.241   5.124
 3514TIP3    H210484   6.729   4.291   5.005
 3515TIP3   OH210485   1.956   2.644   4.848
 3515TIP3    H110486   1.921   2.577   4.789
 3515TIP3    H210487   1.968   2.721   4.792
 3516TIP3   OH210488   3.869   1.126   4.883
 3516TIP3    H110489   3.900   1.131   4.792
 3516TIP3    H210490   3.907   1.045   4.916
 3517TIP3   OH210491   0.282   5.853   1.600
 3517TIP3    H110492   0.240   5.914   1.661
 3517TIP3    H210493   0.219   5.842   1.529
 3518TIP3   OH210494   1.636   3.847   6.391
 3518TIP3    H110495   1.554   3.863   6.438
 3518TIP3    H210496   1.660   3.933   6.355
 3519TIP3   OH210497   7.492   6.149   3.679
 3519TIP3    H110498   7.529   6.225   3.633
 3519TIP3    H210499   7.438   6.106   3.614
 3520TIP3   OH210500   5.704   7.469   2.533
 3520TIP3    H110501   5.658   7.435   2.456
 3520TIP3    H210502   5.796   7.451   2.515
 3521TIP3   OH210503   5.790   0.981   0.012
 3521TIP3    H110504   5.700   1.006   0.033
 3521TIP3    H210505   5.821   1.048  -0.048
 3522TIP3   OH210506   7.277   7.014   1.021
 3522TIP3    H110507   7.361   6.980   1.053
 3522TIP3    H210508   7.216   7.000   1.094
 3523TIP3   OH210509   5.578   4.625   0.557
 3523TIP3    H110510   5.523   4.653   0.630
 3523TIP3    H210511   5.578   4.700   0.497
 3524TIP3   OH210512   3.890   2.612   0.452
 3524TIP3    H110513   3.859   2.522   0.446
 3524TIP3    H210514   3.963   2.617   0.391
 3525TIP3   OH210515   6.494   0.070   1.000
 3525TIP3    H110516   6.552   0.057   1.075
 3525TIP3    H210517   6.528   0.148   0.956
 3526TIP3   OH210518   0.780   0.816   1.844
 3526TIP3    H110519   0.840   0.755   1.800
 3526TIP3    H210520   0.773   0.890   1.784
 3527TIP3   OH210521   2.269   5.253   1.725
 3527TIP3    H110522   2.185   5.294   1.703
 3527TIP3    H210523   2.253   5.159   1.718
 3528TIP3   OH210524   1.275   6.128   4.786
 3528TIP3    H110525   1.254   6.066   4.855
 3528TIP3    H210526   1.314   6.075   4.717
 3529TIP3   OH210527   3.915   0.562   5.839
 3529TIP3    H110528   3.936   0.469   5.850
 3529TIP3    H210529   3.961   0.588   5.759
 3530TIP3   OH210530   4.555   3.051   0.667
 3530TIP3    H110531   4.633   3.005   0.637
 3530TIP3    H210532   4.541   3.118   0.601
 3531TIP3   OH210533   4.825   6.552   3.320
 3531TIP3    H110534   4.782   6.631   3.286
 3531TIP3    H210535   4.811   6.486   3.252
 3532TIP3   OH210536   1.039   0.582   4.775
 3532TIP3    H110537   0.966   0.530   4.743
 3532TIP3    H210538   1.116   0.547   4.729
 3533TIP3   OH210539   4.916   1.355   0.392
 3533TIP3    H110540   5.003   1.326   0.367
 3533TIP3    H210541   4.858   1.324   0.323
 3534TIP3   OH210542   3.934   1.698   5.441
 3534TIP3    H110543   3.941   1.672   5.533
 3534TIP3    H210544   4.009   1.658   5.398
 3535TIP3   OH210545   0.274   2.720   4.065
 3535TIP3    H110546   0.331   2.712   3.989
 3535TIP3    H210547   0.188   2.740   4.028
 3536TIP3   OH210548   0.855   7.898   6.361
 3536TIP3    H110549   0.842   7.809   6.329
 3536TIP3    H210550   0.910   7.939   6.294
 3537TIP3   OH210551   5.439   1.856   2.379
 3537TIP3    H110552   5.367   1.914   2.353
 3537TIP3    H210553   5.459   1.807   2.299
 3538TIP3   OH210554   1.817   3.196   5.463
 3538TIP3    H110555   1.823   3.227   5.373
 3538TIP3    H210556   1.724   3.176   5.476
 3539TIP3   OH210557   2.652   5.958   3.088
 3539TIP3    H110558   2.703   6.029   3.050
 3539TIP3    H210559   2.711   5.882   3.086
 3540TIP3   OH210560   6.363   5.126   1.228
 3540TIP3    H110561   6.391   5.045   1.272
 3540TIP3    H210562   6.268   5.128   1.241
 3541TIP3   OH210563   7.986   2.532   6.873
 3541TIP3    H110564   7.945   2.591   6.937
 3541TIP3    H210565   8.038   2.590   6.817
 3542TIP3   OH210566   3.711   7.618   4.917
 3542TIP3    H110567   3.631   7.572   4.889
 3542TIP3    H210568   3.696   7.709   4.892
 3543TIP3   OH210569   5.443   5.413   0.061
 3543TIP3    H110570   5.452   5.509   0.068
 3543TIP3    H210571   5.405   5.387   0.145
 3544TIP3   OH210572   0.297   6.185   4.425
 3544TIP3    H110573   0.208   6.201   4.454
 3544TIP3    H210574   0.351   6.193   4.504
 3545TIP3   OH210575   0.162   6.560   4.791
 3545TIP3    H110576   0.239   6.615   4.806
 3545TIP3    H210577   0.107   6.611   4.731
 3546TIP3   OH210578   5.230   7.108   6.766
 3546TIP3    H110579   5.150   7.104   6.713
 3546TIP3    H210580   5.228   7.195   6.804
 3547TIP3   OH210581   4.896   1.593   4.929
 3547TIP3    H110582   4.899   1.585   4.833
 3547TIP3    H210583   4.874   1.685   4.945
 3548TIP3   OH210584   0.112   5.331   0.017
 3548TIP3    H110585   0.038   5.322   0.077
 3548TIP3    H210586   0.089   5.404  -0.040
 3549TIP3   OH210587   2.408   1.560   1.054
 3549TIP3    H110588   2.449   1.487   1.102
 3549TIP3    H210589   2.455   1.638   1.083
 3550TIP3   OH210590   4.953   1.126   2.836
 3550TIP3    H110591   4.879   1.097   2.889
 3550TIP3    H210592   5.030   1.090   2.881
 3551TIP3   OH210593   1.583   6.779   0.781
 3551TIP3    H110594   1.619   6.693   0.802
 3551TIP3    H210595   1.497   6.761   0.743
 3552TIP3   OH210596   3.026   6.738   0.558
 3552TIP3    H110597   3.115   6.769   0.572
 3552TIP3    H210598   2.972   6.790   0.618
 3553TIP3   OH210599   5.681   3.969   6.578
 3553TIP3    H110600   5.602   3.996   6.532
 3553TIP3    H210601   5.734   3.926   6.511
 3554TIP3   OH210602   6.301   1.478   4.009
 3554TIP3    H110603   6.309   1.412   4.078
 3554TIP3    H210604   6.256   1.432   3.938
 3555TIP3   OH210605   0.522   6.455   4.801
 3555TIP3    H110606   0.462   6.418   4.866
 3555TIP3    H210607   0.569   6.524   4.847
 3556TIP3   OH210608   2.688   6.988   5.496
 3556TIP3    H110609   2.635   6.963   5.421
 3556TIP3    H210610   2.704   7.082   5.485
 3557TIP3   OH210611   4.161   4.935   6.368
 3557TIP3    H110612   4.126   4.894   6.290
 3557TIP3    H210613   4.126   4.884   6.441
 3558TIP3   OH210614   0.842   6.857   3.974
 3558TIP3    H110615   0.838   6.770   3.933
 3558TIP3    H210616   0.823   6.842   4.066
 3559TIP3   OH210617   4.636   1.713   6.389
 3559TIP3    H110618   4.703   1.778   6.412
 3559TIP3    H210619   4.648   1.643   6.452
 3560TIP3   OH210620   2.631   2.743   4.895
 3560TIP3    H110621   2.693   2.802   4.936
 3560TIP3    H210622   2.642   2.660   4.942
 3561TIP3   OH210623   5.701   7.855   3.778
 3561TIP3    H110624   5.796   7.849   3.776
 3561TIP3    H210625   5.682   7.949   3.776
 3562TIP3   OH210626   7.239   0.642   1.727
 3562TIP3    H110627   7.255   0.595   1.809
 3562TIP3    H210628   7.311   0.705   1.721
 3563TIP3   OH210629   6.651   3.340   1.276
 3563TIP3    H110630   6.635   3.274   1.209
 3563TIP3    H210631   6.570   3.343   1.326
 3564TIP3   OH210632   0.918   6.735   5.317
 3564TIP3    H110633   1.011   6.756   5.324
 3564TIP3    H210634   0.881   6.806   5.265
 3565TIP3   OH210635   1.399   2.789   4.306
 3565TIP3    H110636   1.439   2.839   4.378
 3565TIP3    H210637   1.405   2.698   4.335
 3566TIP3   OH210638   4.495   2.473   1.016
 3566TIP3    H110639   4.457   2.387   0.995
 3566TIP3    H210640   4.436   2.509   1.082
 3567TIP3   OH210641   2.583   5.225   6.085
 3567TIP3    H110642   2.542   5.217   5.999
 3567TIP3    H210643   2.662   5.278   6.069
 3568TIP3   OH210644   4.177   5.225   2.191
 3568TIP3    H110645   4.260   5.252   2.229
 3568TIP3    H210646   4.191   5.135   2.162
 3569TIP3   OH210647   5.785   6.720   3.890
 3569TIP3    H110648   5.727   6.699   3.963
 3569TIP3    H210649   5.816   6.809   3.908
 3570TIP3   OH210650   6.880   5.715   3.700
 3570TIP3    H110651   6.806   5.741   3.756
 3570TIP3    H210652   6.840   5.662   3.631
 3571TIP3   OH210653   0.764   6.651   2.091
 3571TIP3    H110654   0.812   6.681   2.014
 3571TIP3    H210655   0.740   6.731   2.138
 3572TIP3   OH210656   2.180   5.531   6.210
 3572TIP3    H110657   2.232   5.451   6.215
 3572TIP3    H210658   2.131   5.524   6.128
 3573TIP3   OH210659   6.392   2.254   4.121
 3573TIP3    H110660   6.378   2.239   4.027
 3573TIP3    H210661   6.372   2.170   4.162
 3574TIP3   OH210662   3.571   7.846   0.121
 3574TIP3    H110663   3.584   7.938   0.099
 3574TIP3    H210664   3.582   7.799   0.039
 3575TIP3   OH210665   7.370   7.026   6.522
 3575TIP3    H110666   7.369   7.116   6.489
 3575TIP3    H210667   7.440   7.026   6.588
 3576TIP3   OH210668   5.796   6.680   3.122
 3576TIP3    H110669   5.834   6.737   3.056
 3576TIP3    H210670   5.814   6.591   3.092
 3577TIP3   OH210671   7.668   1.500   5.586
 3577TIP3    H110672   7.625   1.562   5.645
 3577TIP3    H210673   7.696   1.428   5.642
 3578TIP3   OH210674   2.655   1.722   2.633
 3578TIP3    H110675   2.709   1.747   2.708
 3578TIP3    H210676   2.690   1.638   2.605
 3579TIP3   OH210677   0.816   1.530   1.159
 3579TIP3    H110678   0.884   1.586   1.196
 3579TIP3    H210679   0.743   1.589   1.141
 3580TIP3   OH210680   7.999   3.735   4.831
 3580TIP3    H110681   8.072   3.688   4.870
 3580TIP3    H210682   7.971   3.680   4.758
 3581TIP3   OH210683   5.407   0.488   1.744
 3581TIP3    H110684   5.319   0.472   1.711
 3581TIP3    H210685   5.448   0.401   1.746
 3582TIP3   OH210686   4.173   6.576   1.007
 3582TIP3    H110687   4.111   6.547   0.939
 3582TIP3    H210688   4.219   6.496   1.032
 3583TIP3   OH210689   1.300   2.948   5.236
 3583TIP3    H110690   1.330   2.943   5.327
 3583TIP3    H210691   1.296   3.042   5.217
 3584TIP3   OH210692   8.263   4.515   2.877
 3584TIP3    H110693   8.304   4.500   2.963
 3584TIP3    H210694   8.169   4.507   2.894
 3585TIP3   OH210695   5.293   3.834   0.250
 3585TIP3    H110696   5.288   3.762   0.187
 3585TIP3    H210697   5.263   3.795   0.332
 3586TIP3   OH210698   2.289   6.717   4.656
 3586TIP3    H110699   2.204   6.758   4.671
 3586TIP3    H210700   2.344   6.786   4.620
 3587TIP3   OH210701   3.636   6.038   5.318
 3587TIP3    H110702   3.628   6.023   5.224
 3587TIP3    H210703   3.728   6.019   5.338
 3588TIP3   OH210704   6.169   6.222   1.488
 3588TIP3    H110705   6.253   6.218   1.442
 3588TIP3    H210706   6.106   6.183   1.427
 3589TIP3   OH210707   8.171   0.912   3.251
 3589TIP3    H110708   8.213   0.828   3.233
 3589TIP3    H210709   8.098   0.890   3.310
 3590TIP3   OH210710   6.149   5.615   6.586
 3590TIP3    H110711   6.235   5.578   6.565
 3590TIP3    H210712   6.135   5.682   6.519
 3591TIP3   OH210713   4.583   4.800   1.747
 3591TIP3    H110714   4.548   4.741   1.814
 3591TIP3    H210715   4.560   4.758   1.664
 3592TIP3   OH210716   1.517   0.178   5.064
 3592TIP3    H110717   1.451   0.222   5.011
 3592TIP3    H210718   1.469   0.142   5.138
 3593TIP3   OH210719   7.738   0.795   5.094
 3593TIP3    H110720   7.802   0.780   5.163
 3593TIP3    H210721   7.782   0.853   5.032
 3594TIP3   OH210722   4.080   3.072   1.743
 3594TIP3    H110723   4.132   3.043   1.818
 3594TIP3    H210724   4.131   3.143   1.704
 3595TIP3   OH210725   7.955   3.236   2.800
 3595TIP3    H110726   8.027   3.281   2.755
 3595TIP3    H210727   7.904   3.307   2.839
 3596TIP3   OH210728   8.162   3.699   3.104
 3596TIP3    H110729   8.211   3.767   3.150
 3596TIP3    H210730   8.074   3.702   3.143
 3597TIP3   OH210731   4.022   6.966   0.001
 3597TIP3    H110732   3.994   6.884  -0.039
 3597TIP3    H210733   4.082   6.940   0.071
 3598TIP3   OH210734   2.913   2.908   5.674
 3598TIP3    H110735   2.956   2.962   5.608
 3598TIP3    H210736   2.855   2.969   5.720
 3599TIP3   OH210737   7.806   7.012   5.305
 3599TIP3    H110738   7.724   7.005   5.256
 3599TIP3    H210739   7.808   7.103   5.336
 3600TIP3   OH210740   2.867   5.086   3.347
 3600TIP3    H110741   2.930   5.065   3.416
 3600TIP3    H210742   2.876   5.015   3.284
 3601TIP3   OH210743   7.339   5.595   0.665
 3601TIP3    H110744   7.278   5.579   0.592
 3601TIP3    H210745   7.321   5.684   0.692
 3602TIP3   OH210746   8.246   6.056   5.195
 3602TIP3    H110747   8.228   5.964   5.213
 3602TIP3    H210748   8.250   6.063   5.100
 3603TIP3   OH210749   3.109   5.110   5.544
 3603TIP3    H110750   3.194   5.153   5.541
 3603TIP3    H210751   3.048   5.175   5.509
 3604TIP3   OH210752   6.013   6.660   2.183
 3604TIP3    H110753   6.072   6.587   2.201
 3604TIP3    H210754   5.982   6.645   2.094
 3605TIP3   OH210755   6.644   4.510   6.507
 3605TIP3    H110756   6.599   4.517   6.423
 3605TIP3    H210757   6.729   4.471   6.485
 3606TIP3   OH210758   7.983   2.474   5.918
 3606TIP3    H110759   7.969   2.470   6.012
 3606TIP3    H210760   7.936   2.398   5.883
 3607TIP3   OH210761   0.885   2.955   6.199
 3607TIP3    H110762   0.814   2.989   6.144
 3607TIP3    H210763   0.842   2.931   6.281
 3608TIP3   OH210764   2.924   7.546   4.216
 3608TIP3    H110765   3.007   7.536   4.168
 3608TIP3    H210766   2.944   7.516   4.305
 3609TIP3   OH210767   0.352   0.095   2.310
 3609TIP3    H110768   0.348   0.130   2.399
 3609TIP3    H210769   0.402   0.013   2.319
 3610TIP3   OH210770   5.977   1.183   3.631
 3610TIP3    H110771   5.941   1.238   3.700
 3610TIP3    H210772   6.064   1.218   3.615
 3611TIP3   OH210773   2.445   7.960   5.598
 3611TIP3    H110774   2.427   7.901   5.671
 3611TIP3    H210775   2.380   7.937   5.532
 3612TIP3   OH210776   4.426   4.814   4.464
 3612TIP3    H110777   4.451   4.771   4.546
 3612TIP3    H210778   4.391   4.744   4.410
 3613TIP3   OH210779   3.369   5.216   0.132
 3613TIP3    H110780   3.301   5.267   0.177
 3613TIP3    H210781   3.451   5.250   0.167
 3614TIP3   OH210782   1.725   3.394   4.431
 3614TIP3    H110783   1.766   3.362   4.351
 3614TIP3    H210784   1.799   3.423   4.486
 3615TIP3   OH210785   4.354   0.993   5.085
 3615TIP3    H110786   4.380   1.085   5.088
 3615TIP3    H210787   4.431   0.947   5.053
 3616TIP3   OH210788   0.658   0.620   0.290
 3616TIP3    H110789   0.578   0.597   0.243
 3616TIP3    H210790   0.630   0.682   0.357
 3617TIP3   OH210791   7.013   1.206   4.761
 3617TIP3    H110792   6.929   1.252   4.761
 3617TIP3    H210793   7.018   1.165   4.674
 3618TIP3   OH210794   6.445   6.367   2.292
 3618TIP3    H110795   6.426   6.329   2.378
 3618TIP3    H210796   6.470   6.292   2.238
 3619TIP3   OH210797   5.889   3.244   6.673
 3619TIP3    H110798   5.970   3.264   6.625
 3619TIP3    H210799   5.820   3.251   6.607
 3620TIP3   OH210800   4.124   7.331   1.666
 3620TIP3    H110801   4.100   7.297   1.753
 3620TIP3    H210802   4.217   7.312   1.658
 3621TIP3   OH210803   2.979   6.034   4.436
 3621TIP3    H110804   3.048   6.074   4.489
 3621TIP3    H210805   2.898   6.056   4.481
 3622TIP3   OH210806   2.293   6.037   6.515
 3622TIP3    H110807   2.259   6.093   6.585
 3622TIP3    H210808   2.247   5.953   6.527
 3623TIP3   OH210809   2.448   7.573   5.236
 3623TIP3    H110810   2.518   7.545   5.178
 3623TIP3    H210811   2.369   7.533   5.200
 3624TIP3   OH210812   3.583   0.725   5.442
 3624TIP3    H110813   3.554   0.792   5.504
 3624TIP3    H210814   3.650   0.675   5.489
 3625TIP3   OH210815   6.172   3.126   2.634
 3625TIP3    H110816   6.194   3.051   2.579
 3625TIP3    H210817   6.237   3.124   2.705
 3626TIP3   OH210818   2.425   7.432   5.477
 3626TIP3    H110819   2.490   7.467   5.537
 3626TIP3    H210820   2.440   7.479   5.394
 3627TIP3   OH210821   4.431   6.286   1.916
 3627TIP3    H110822   4.416   6.380   1.904
 3627TIP3    H210823   4.395   6.246   1.837
 3628TIP3   OH210824   4.434   0.930   3.457
 3628TIP3    H110825   4.491   0.886   3.395
 3628TIP3    H210826   4.493   0.965   3.524
 3629TIP3   OH210827   7.279   1.752   1.599
 3629TIP3    H110828   7.313   1.840   1.617
 3629TIP3    H210829   7.270   1.713   1.686
 3630TIP3   OH210830   0.275   2.348   2.294
 3630TIP3    H110831   0.330   2.369   2.370
 3630TIP3    H210832   0.291   2.255   2.278
 3631TIP3   OH210833   2.741   4.708   1.734
 3631TIP3    H110834   2.686   4.783   1.713
 3631TIP3    H210835   2.830   4.745   1.738
 3632TIP3   OH210836   8.003   3.965   3.129
 3632TIP3    H110837   8.047   3.958   3.214
 3632TIP3    H210838   7.930   3.904   3.135
 3633TIP3   OH210839   8.129   4.145   1.047
 3633TIP3    H110840   8.066   4.166   0.979
 3633TIP3    H210841   8.208   4.118   1.000
 3634TIP3   OH210842   7.327   2.251   4.083
 3634TIP3    H110843   7.420   2.233   4.069
 3634TIP3    H210844   7.297   2.290   4.001
 3635TIP3   OH210845   8.208   6.046   4.557
 3635TIP3    H110846   8.150   6.118   4.583
 3635TIP3    H210847   8.190   6.034   4.464
 3636TIP3   OH210848   6.402   7.721   4.509
 3636TIP3    H110849   6.398   7.625   4.517
 3636TIP3    H210850   6.311   7.746   4.492
 3637TIP3   OH210851   4.690   0.520   0.023
 3637TIP3    H110852   4.733   0.465   0.088
 3637TIP3    H210853   4.651   0.458  -0.039
 3638TIP3   OH210854   1.770   2.032   5.743
 3638TIP3    H110855   1.808   1.944   5.749
 3638TIP3    H210856   1.800   2.065   5.658
 3639TIP3   OH210857   4.936   6.174   2.108
 3639TIP3    H110858   4.938   6.258   2.063
 3639TIP3    H210859   4.849   6.170   2.148
 3640TIP3   OH210860   2.629   3.981   3.207
 3640TIP3    H110861   2.589   3.941   3.130
 3640TIP3    H210862   2.715   3.939   3.213
 3641TIP3   OH210863   5.981   6.452   3.570
 3641TIP3    H110864   5.901   6.496   3.599
 3641TIP3    H210865   6.050   6.518   3.581
 3642TIP3   OH210866   6.471   3.974   0.774
 3642TIP3    H110867   6.530   4.039   0.736
 3642TIP3    H210868   6.480   3.897   0.716
 3643TIP3   OH210869   5.466   6.159   5.939
 3643TIP3    H110870   5.401   6.193   6.001
 3643TIP3    H210871   5.503   6.238   5.898
 3644TIP3   OH210872   6.469   2.061   1.971
 3644TIP3    H110873   6.528   2.119   2.019
 3644TIP3    H210874   6.493   1.973   1.999
 3645TIP3   OH210875   6.799   7.149   2.783
 3645TIP3    H110876   6.770   7.201   2.858
 3645TIP3    H210877   6.868   7.093   2.819
 3646TIP3   OH210878   2.184   5.056   1.996
 3646TIP3    H110879   2.201   5.033   1.905
 3646TIP3    H210880   2.134   4.981   2.030
 3647TIP3   OH210881   7.450   1.380   3.117
 3647TIP3    H110882   7.454   1.437   3.039
 3647TIP3    H210883   7.489   1.297   3.088
 3648TIP3   OH210884   0.674   2.925   3.696
 3648TIP3    H110885   0.688   2.974   3.777
 3648TIP3    H210886   0.708   2.982   3.627
 3649TIP3   OH210887   1.791   5.090   5.492
 3649TIP3    H110888   1.771   5.049   5.576
 3649TIP3    H210889   1.768   5.024   5.427
 3650TIP3   OH210890   0.519   4.686   2.981
 3650TIP3    H110891   0.458   4.615   2.960
 3650TIP3    H210892   0.557   4.711   2.897
 3651TIP3   OH210893   2.303   1.643   5.747
 3651TIP3    H110894   2.214   1.625   5.779
 3651TIP3    H210895   2.331   1.561   5.707
 3652TIP3   OH210896   2.155   3.307   0.598
 3652TIP3    H110897   2.062   3.327   0.602
 3652TIP3    H210898   2.169   3.242   0.667
 3653TIP3   OH210899   4.623   6.245   5.174
 3653TIP3    H110900   4.664   6.332   5.169
 3653TIP3    H210901   4.670   6.201   5.244
 3654TIP3   OH210902   8.311   5.250   2.365
 3654TIP3    H110903   8.349   5.169   2.331
 3654TIP3    H210904   8.223   5.252   2.329
 3655TIP3   OH210905   1.187   5.700   3.151
 3655TIP3    H110906   1.209   5.611   3.177
 3655TIP3    H210907   1.264   5.732   3.105
 3656TIP3   OH210908   4.826   7.751   6.728
 3656TIP3    H110909   4.830   7.836   6.685
 3656TIP3    H210910   4.809   7.771   6.820
 3657TIP3   OH210911   0.552   1.951   3.504
 3657TIP3    H110912   0.564   2.033   3.457
 3657TIP3    H210913   0.467   1.918   3.473
 3658TIP3   OH210914   1.514   5.123   3.635
 3658TIP3    H110915   1.539   5.184   3.705
 3658TIP3    H210916   1.419   5.132   3.629
 3659TIP3   OH210917   6.474   2.428   6.713
 3659TIP3    H110918   6.524   2.491   6.765
 3659TIP3    H210919   6.492   2.344   6.755
 3660TIP3   OH210920   1.452   2.039   3.374
 3660TIP3    H110921   1.420   1.991   3.297
 3660TIP3    H210922   1.512   2.104   3.338
 3661TIP3   OH210923   5.815   1.094   1.567
 3661TIP3    H110924   5.815   0.999   1.575
 3661TIP3    H210925   5.804   1.126   1.657
 3662TIP3   OH210926   1.215   5.924   5.303
 3662TIP3    H110927   1.218   5.857   5.235
 3662TIP3    H210928   1.306   5.950   5.315
 3663TIP3   OH210929   1.725   7.711   6.734
 3663TIP3    H110930   1.742   7.762   6.655
 3663TIP3    H210931   1.630   7.697   6.734
 3664TIP3   OH210932   3.780   4.975   6.438
 3664TIP3    H110933   3.754   4.903   6.380
 3664TIP3    H210934   3.865   4.948   6.472
 3665TIP3   OH210935   2.697   7.555   0.510
 3665TIP3    H110936   2.768   7.526   0.567
 3665TIP3    H210937   2.634   7.597   0.569
 3666TIP3   OH210938   4.251   3.641   5.755
 3666TIP3    H110939   4.338   3.680   5.752
 3666TIP3    H210940   4.212   3.677   5.836
 3667TIP3   OH210941   5.497   2.050   1.222
 3667TIP3    H110942   5.527   2.119   1.281
 3667TIP3    H210943   5.405   2.070   1.206
 3668TIP3   OH210944  -0.008   7.323   5.694
 3668TIP3    H110945  -0.022   7.406   5.739
 3668TIP3    H210946   0.083   7.327   5.664
 3669TIP3   OH210947   7.343   5.558   4.338
 3669TIP3    H110948   7.317   5.647   4.362
 3669TIP3    H210949   7.437   5.554   4.355
 3670TIP3   OH210950   8.025   7.580   0.855
 3670TIP3    H110951   8.066   7.496   0.872
 3670TIP3    H210952   7.991   7.608   0.941
 3671TIP3   OH210953   0.738   7.578   1.967
 3671TIP3    H110954   0.802   7.598   1.898
 3671TIP3    H210955   0.690   7.502   1.934
 3672TIP3   OH210956   4.314   5.759   0.377
 3672TIP3    H110957   4.395   5.809   0.381
 3672TIP3    H210958   4.308   5.715   0.462
 3673TIP3   OH210959   4.150   4.045   4.238
 3673TIP3    H110960   4.060   4.048   4.271
 3673TIP3    H210961   4.191   3.973   4.285
 3674TIP3   OH210962   8.025   1.296   4.180
 3674TIP3    H110963   7.957   1.303   4.113
 3674TIP3    H210964   7.977   1.280   4.261
 3675TIP3   OH210965   2.478   3.865   0.193
 3675TIP3    H110966   2.462   3.840   0.102
 3675TIP3    H210967   2.394   3.897   0.225
 3676TIP3   OH210968   1.080   0.504   5.422
 3676TIP3    H110969   1.170   0.538   5.414
 3676TIP3    H210970   1.026   0.572   5.382
 3677TIP3   OH210971   2.983   4.541   3.469
 3677TIP3    H110972   3.078   4.542   3.463
 3677TIP3    H210973   2.962   4.456   3.509
 3678TIP3   OH210974   4.526   0.287   2.595
 3678TIP3    H110975   4.554   0.311   2.684
 3678TIP3    H210976   4.600   0.239   2.559
 3679TIP3   OH210977   4.713   0.305   3.269
 3679TIP3    H110978   4.788   0.311   3.328
 3679TIP3    H210979   4.718   0.217   3.232
 3680TIP3   OH210980   6.897   6.815   1.874
 3680TIP3    H110981   6.856   6.790   1.791
 3680TIP3    H210982   6.862   6.902   1.893
 3681TIP3   OH210983   7.477   4.941   5.874
 3681TIP3    H110984   7.403   4.992   5.843
 3681TIP3    H210985   7.439   4.876   5.933
 3682TIP3   OH210986   5.964   3.771   6.758
 3682TIP3    H110987   5.975   3.857   6.718
 3682TIP3    H210988   5.962   3.710   6.684
 3683TIP3   OH210989   5.470   4.675   6.635
 3683TIP3    H110990   5.387   4.697   6.594
 3683TIP3    H210991   5.487   4.585   6.609
 3684TIP3   OH210992   0.892   7.002   1.385
 3684TIP3    H110993   0.841   6.929   1.420
 3684TIP3    H210994   0.957   6.960   1.327
 3685TIP3   OH210995   4.208   5.258   6.727
 3685TIP3    H110996   4.146   5.311   6.677
 3685TIP3    H210997   4.261   5.322   6.775
 3686TIP3   OH210998   7.084   4.570   1.902
 3686TIP3    H110999   7.033   4.520   1.838
 3686TIP3    H211000   7.120   4.643   1.851
 3687TIP3   OH211001   7.000   2.365   6.268
 3687TIP3    H111002   6.986   2.297   6.334
 3687TIP3    H211003   7.046   2.435   6.315
 3688TIP3   OH211004   1.334   2.370   5.070
 3688TIP3    H111005   1.299   2.339   4.986
 3688TIP3    H211006   1.381   2.450   5.048
 3689TIP3   OH211007   8.018   5.312   1.555
 3689TIP3    H111008   8.014   5.343   1.464
 3689TIP3    H211009   8.000   5.218   1.550
 3690TIP3   OH211010   5.542   7.845   5.703
 3690TIP3    H111011   5.586   7.923   5.737
 3690TIP3    H211012   5.452   7.854   5.733
 3691TIP3   OH211013   2.564  -0.037   3.483
 3691TIP3    H111014   2.520   0.042   3.515
 3691TIP3    H211015   2.599  -0.011   3.397
 3692TIP3   OH211016   1.527   3.184   6.773
 3692TIP3    H111017   1.597   3.223   6.721
 3692TIP3    H211018   1.573   3.134   6.841
 3693TIP3   OH211019   2.727   0.352   5.218
 3693TIP3    H111020   2.650   0.306   5.186
 3693TIP3    H211021   2.728   0.434   5.169
 3694TIP3   OH211022   7.854   1.259   2.070
 3694TIP3    H111023   7.942   1.236   2.040
 3694TIP3    H211024   7.838   1.346   2.035
 3695TIP3   OH211025   6.932   6.708   2.518
 3695TIP3    H111026   6.956   6.663   2.599
 3695TIP3    H211027   6.911   6.797   2.546
 3696TIP3   OH211028   3.213   2.257   4.961
 3696TIP3    H111029   3.154   2.187   4.933
 3696TIP3    H211030   3.219   2.247   5.056
 3697TIP3   OH211031   7.176   4.655   0.756
 3697TIP3    H111032   7.200   4.698   0.839
 3697TIP3    H211033   7.130   4.575   0.783
 3698TIP3   OH211034   5.921   6.729   1.598
 3698TIP3    H111035   5.848   6.787   1.578
 3698TIP3    H211036   5.885   6.641   1.586
 3699TIP3   OH211037   1.186   0.284   1.458
 3699TIP3    H111038   1.270   0.268   1.502
 3699TIP3    H211039   1.168   0.203   1.410
 3700TIP3   OH211040   6.275   2.705   4.838
 3700TIP3    H111041   6.238   2.744   4.917
 3700TIP3    H211042   6.307   2.619   4.866
 3701TIP3   OH211043   2.245   1.024   1.829
 3701TIP3    H111044   2.330   1.020   1.873
 3701TIP3    H211045   2.185   1.052   1.898
 3702TIP3   OH211046   2.829   0.081   0.571
 3702TIP3    H111047   2.810   0.011   0.633
 3702TIP3    H211048   2.891   0.137   0.618
 3703TIP3   OH211049   8.092   5.765   4.329
 3703TIP3    H111050   8.063   5.696   4.389
 3703TIP3    H211051   8.059   5.846   4.369
 3704TIP3   OH211052   4.232   4.162   2.266
 3704TIP3    H111053   4.319   4.156   2.306
 3704TIP3    H211054   4.171   4.140   2.337
 3705TIP3   OH211055   2.686   1.702   1.349
 3705TIP3    H111056   2.777   1.729   1.363
 3705TIP3    H211057   2.690   1.607   1.338
 3706TIP3   OH211058   4.196   3.034   5.412
 3706TIP3    H111059   4.161   2.988   5.488
 3706TIP3    H211060   4.119   3.050   5.356
 3707TIP3   OH211061   1.822   4.395   3.566
 3707TIP3    H111062   1.904   4.348   3.581
 3707TIP3    H211063   1.843   4.487   3.585
 3708TIP3   OH211064   3.649   5.946   2.090
 3708TIP3    H111065   3.687   5.966   2.176
 3708TIP3    H211066   3.569   5.897   2.111
 3709TIP3   OH211067   6.171   2.259   1.939
 3709TIP3    H111068   6.248   2.314   1.925
 3709TIP3    H211069   6.205   2.176   1.969
 3710TIP3   OH211070   8.339   5.431   3.930
 3710TIP3    H111071   8.401   5.462   3.995
 3710TIP3    H211072   8.378   5.455   3.846
 3711TIP3   OH211073   8.348   4.051   5.429
 3711TIP3    H111074   8.439   4.061   5.458
 3711TIP3    H211075   8.297   4.046   5.509
 3712TIP3   OH211076   5.288   6.950   2.264
 3712TIP3    H111077   5.249   7.030   2.230
 3712TIP3    H211078   5.304   6.897   2.186
 3713TIP3   OH211079   1.523   6.265   6.423
 3713TIP3    H111080   1.541   6.199   6.356
 3713TIP3    H211081   1.515   6.347   6.375
 3714TIP3   OH211082   7.099   2.487   3.361
 3714TIP3    H111083   7.171   2.450   3.311
 3714TIP3    H211084   7.118   2.580   3.367
 3715TIP3   OH211085   7.752   1.667   6.237
 3715TIP3    H111086   7.675   1.661   6.294
 3715TIP3    H211087   7.738   1.746   6.186
 3716TIP3   OH211088   1.402   0.929   0.103
 3716TIP3    H111089   1.410   0.871   0.178
 3716TIP3    H211090   1.469   0.996   0.117
 3717TIP3   OH211091   5.269   7.148   1.284
 3717TIP3    H111092   5.300   7.213   1.221
 3717TIP3    H211093   5.185   7.118   1.248
 3718TIP3   OH211094   6.602   4.044   4.961
 3718TIP3    H111095   6.559   4.129   4.966
 3718TIP3    H211096   6.580   4.011   4.874
 3719TIP3   OH211097   7.211   0.569   3.121
 3719TIP3    H111098   7.241   0.478   3.118
 3719TIP3    H211099   7.120   0.565   3.092
 3720TIP3   OH211100   4.620   5.307   0.143
 3720TIP3    H111101   4.666   5.246   0.201
 3720TIP3    H211102   4.650   5.393   0.170
 3721TIP3   OH211103   4.297   7.862   5.752
 3721TIP3    H111104   4.223   7.848   5.694
 3721TIP3    H211105   4.357   7.790   5.733
 3722TIP3   OH211106   6.697   6.853   5.407
 3722TIP3    H111107   6.620   6.822   5.359
 3722TIP3    H211108   6.672   6.940   5.438
 3723TIP3   OH211109   2.035   7.469   0.723
 3723TIP3    H111110   2.069   7.517   0.798
 3723TIP3    H211111   1.999   7.538   0.666
 3724TIP3   OH211112   5.225   3.772   3.627
 3724TIP3    H111113   5.262   3.775   3.716
 3724TIP3    H211114   5.173   3.691   3.626
 3725TIP3   OH211115   5.554   1.947   6.015
 3725TIP3    H111116   5.528   1.964   5.924
 3725TIP3    H211117   5.554   2.033   6.056
 3726TIP3   OH211118   0.791   3.242   0.374
 3726TIP3    H111119   0.879   3.224   0.407
 3726TIP3    H211120   0.751   3.155   0.363
 3727TIP3   OH211121   4.510   6.030   4.134
 3727TIP3    H111122   4.420   6.036   4.166
 3727TIP3    H211123   4.502   6.003   4.043
 3728TIP3   OH211124   5.211   3.314   6.180
 3728TIP3    H111125   5.170   3.362   6.252
 3728TIP3    H211126   5.275   3.257   6.222
 3729TIP3   OH211127   5.058   4.620   4.022
 3729TIP3    H111128   4.977   4.630   4.072
 3729TIP3    H211129   5.067   4.701   3.973
 3730TIP3   OH211130   3.007   1.651   1.083
 3730TIP3    H111131   2.916   1.638   1.056
 3730TIP3    H211132   3.025   1.742   1.063
 3731TIP3   OH211133   5.387   0.126   6.162
 3731TIP3    H111134   5.399   0.040   6.123
 3731TIP3    H211135   5.299   0.124   6.199
 3732TIP3   OH211136   7.667   6.199   4.264
 3732TIP3    H111137   7.721   6.133   4.307
 3732TIP3    H211138   7.656   6.268   4.330
 3733TIP3   OH211139   6.802   7.032   1.363
 3733TIP3    H111140   6.741   7.100   1.389
 3733TIP3    H211141   6.889   7.068   1.383
 3734TIP3   OH211142   4.290   6.677   2.345
 3734TIP3    H111143   4.330   6.634   2.269
 3734TIP3    H211144   4.278   6.768   2.317
 3735TIP3   OH211145   0.955   1.826   6.015
 3735TIP3    H111146   0.887   1.872   5.967
 3735TIP3    H211147   0.978   1.751   5.960
 3736TIP3   OH211148   0.836   1.516   4.872
 3736TIP3    H111149   0.804   1.604   4.854
 3736TIP3    H211150   0.757   1.461   4.869
 3737TIP3   OH211151   0.578   6.064   5.160
 3737TIP3    H111152   0.669   6.085   5.140
 3737TIP3    H211153   0.536   6.052   5.075
 3738TIP3   OH211154   2.918   1.671   2.020
 3738TIP3    H111155   2.826   1.686   1.998
 3738TIP3    H211156   2.924   1.578   2.040
 3739TIP3   OH211157   1.456   0.184   6.345
 3739TIP3    H111158   1.479   0.238   6.420
 3739TIP3    H211159   1.524   0.116   6.342
 3740TIP3   OH211160   5.740   5.386   3.491
 3740TIP3    H111161   5.676   5.355   3.427
 3740TIP3    H211162   5.766   5.307   3.538
 3741TIP3   OH211163   3.270   6.661   3.238
 3741TIP3    H111164   3.237   6.745   3.207
 3741TIP3    H211165   3.193   6.604   3.239
 3742TIP3   OH211166   2.229   7.802   4.715
 3742TIP3    H111167   2.320   7.775   4.704
 3742TIP3    H211168   2.199   7.757   4.794
 3743TIP3   OH211169   6.025   7.017   4.816
 3743TIP3    H111170   6.103   6.967   4.790
 3743TIP3    H211171   5.983   7.040   4.733
 3744TIP3   OH211172   1.632   0.451   4.182
 3744TIP3    H111173   1.709   0.456   4.126
 3744TIP3    H211174   1.650   0.513   4.253
 3745TIP3   OH211175   1.201   5.740   4.575
 3745TIP3    H111176   1.232   5.721   4.487
 3745TIP3    H211177   1.242   5.824   4.598
 3746TIP3   OH211178   6.587   6.073   3.285
 3746TIP3    H111179   6.618   5.995   3.332
 3746TIP3    H211180   6.647   6.082   3.211
 3747TIP3   OH211181   1.216   7.720   4.884
 3747TIP3    H111182   1.305   7.703   4.854
 3747TIP3    H211183   1.224   7.793   4.945
 3748TIP3   OH211184   7.078   5.233   2.969
 3748TIP3    H111185   7.169   5.256   2.950
 3748TIP3    H211186   7.060   5.159   2.911
 3749TIP3   OH211187   0.982   3.720   6.652
 3749TIP3    H111188   1.000   3.747   6.742
 3749TIP3    H211189   1.007   3.795   6.598
 3750TIP3   OH211190   8.235   3.701   6.282
 3750TIP3    H111191   8.167   3.739   6.338
 3750TIP3    H211192   8.189   3.634   6.230
 3751TIP3   OH211193   3.995   5.434   6.633
 3751TIP3    H111194   3.919   5.379   6.652
 3751TIP3    H211195   3.981   5.513   6.685
 3752TIP3   OH211196   0.752   5.294   4.289
 3752TIP3    H111197   0.783   5.205   4.271
 3752TIP3    H211198   0.714   5.324   4.206
 3753TIP3   OH211199   8.229   0.789   5.406
 3753TIP3    H111200   8.156   0.850   5.413
 3753TIP3    H211201   8.257   0.774   5.496
 3754TIP3   OH211202   5.293   6.221   2.509
 3754TIP3    H111203   5.283   6.215   2.414
 3754TIP3    H211204   5.357   6.154   2.531
 3755TIP3   OH211205   4.032   7.381   2.413
 3755TIP3    H111206   4.043   7.463   2.367
 3755TIP3    H211207   4.122   7.352   2.431
 3756TIP3   OH211208   2.023   2.961   1.646
 3756TIP3    H111209   2.007   3.054   1.661
 3756TIP3    H211210   2.003   2.919   1.729
 3757TIP3   OH211211   1.011   4.942   0.550
 3757TIP3    H111212   1.008   5.037   0.558
 3757TIP3    H211213   0.951   4.910   0.617
 3758TIP3   OH211214   7.155   7.588   1.688
 3758TIP3    H111215   7.107   7.580   1.605
 3758TIP3    H211216   7.097   7.548   1.753
 3759TIP3   OH211217   3.696   6.736   1.896
 3759TIP3    H111218   3.630   6.693   1.951
 3759TIP3    H211219   3.646   6.798   1.843
 3760TIP3   OH211220   4.505   6.253   2.503
 3760TIP3    H111221   4.412   6.232   2.495
 3760TIP3    H211222   4.510   6.347   2.482
 3761TIP3   OH211223   4.360   4.999   0.665
 3761TIP3    H111224   4.452   4.978   0.646
 3761TIP3    H211225   4.311   4.944   0.603
 3762TIP3   OH211226   6.904   0.078   6.410
 3762TIP3    H111227   6.969   0.119   6.353
 3762TIP3    H211228   6.955   0.021   6.468
 3763TIP3   OH211229   0.634   6.481   6.520
 3763TIP3    H111230   0.621   6.447   6.608
 3763TIP3    H211231   0.726   6.507   6.517
 3764TIP3   OH211232   6.844   3.775   2.364
 3764TIP3    H111233   6.762   3.803   2.404
 3764TIP3    H211234   6.903   3.760   2.439
 3765TIP3   OH211235   4.121   3.577   1.733
 3765TIP3    H111236   4.203   3.626   1.733
 3765TIP3    H211237   4.060   3.631   1.684
 3766TIP3   OH211238   1.408   2.757   6.142
 3766TIP3    H111239   1.314   2.769   6.128
 3766TIP3    H211240   1.415   2.729   6.234
 3767TIP3   OH211241   3.112   7.108   2.480
 3767TIP3    H111242   3.121   7.033   2.538
 3767TIP3    H211243   3.199   7.121   2.443
 3768TIP3   OH211244   5.878   0.660   2.923
 3768TIP3    H111245   5.896   0.593   2.990
 3768TIP3    H211246   5.861   0.610   2.843
 3769TIP3   OH211247   1.296   4.935   0.723
 3769TIP3    H111248   1.247   5.012   0.751
 3769TIP3    H211249   1.386   4.967   0.714
 3770TIP3   OH211250   4.531   0.671   5.988
 3770TIP3    H111251   4.500   0.594   5.940
 3770TIP3    H211252   4.602   0.706   5.934
 3771TIP3   OH211253   2.048   7.407  -0.026
 3771TIP3    H111254   2.008   7.493  -0.036
 3771TIP3    H211255   2.002   7.368   0.048
 3772TIP3   OH211256   1.361   6.845   3.547
 3772TIP3    H111257   1.281   6.820   3.501
 3772TIP3    H211258   1.427   6.784   3.515
 3773TIP3   OH211259   4.719   3.535   1.218
 3773TIP3    H111260   4.756   3.472   1.280
 3773TIP3    H211261   4.639   3.493   1.186
 3774TIP3   OH211262   3.947   1.535   5.741
 3774TIP3    H111263   4.029   1.554   5.785
 3774TIP3    H211264   3.910   1.462   5.790
 3775TIP3   OH211265   5.126   0.595   4.459
 3775TIP3    H111266   5.196   0.612   4.397
 3775TIP3    H211267   5.158   0.628   4.543
 3776TIP3   OH211268   2.735   0.958   3.658
 3776TIP3    H111269   2.770   0.878   3.696
 3776TIP3    H211270   2.658   0.978   3.711
 3777TIP3   OH211271   5.817   3.008   1.227
 3777TIP3    H111272   5.789   2.930   1.275
 3777TIP3    H211273   5.754   3.075   1.251
 3778TIP3   OH211274   8.003   7.355   4.080
 3778TIP3    H111275   7.938   7.286   4.096
 3778TIP3    H211276   7.989   7.417   4.151
 3779TIP3   OH211277   5.332   1.752   1.227
 3779TIP3    H111278   5.406   1.807   1.251
 3779TIP3    H211279   5.320   1.765   1.133
 3780TIP3   OH211280   2.068   4.506   4.946
 3780TIP3    H111281   1.984   4.460   4.957
 3780TIP3    H211282   2.089   4.493   4.854
 3781TIP3   OH211283   5.291   3.090   5.298
 3781TIP3    H111284   5.372   3.049   5.328
 3781TIP3    H211285   5.247   3.118   5.379
 3782TIP3   OH211286   2.866   5.438   6.538
 3782TIP3    H111287   2.954   5.403   6.526
 3782TIP3    H211288   2.862   5.462   6.631
 3783TIP3   OH211289   6.634   7.202   4.053
 3783TIP3    H111290   6.627   7.153   3.971
 3783TIP3    H211291   6.547   7.193   4.094
 3784TIP3   OH211292   3.291   2.585   5.315
 3784TIP3    H111293   3.217   2.624   5.361
 3784TIP3    H211294   3.354   2.657   5.306
 3785TIP3   OH211295   8.279   7.638   1.039
 3785TIP3    H111296   8.195   7.683   1.031
 3785TIP3    H211297   8.344   7.709   1.034
 3786TIP3   OH211298   3.131   4.921   6.224
 3786TIP3    H111299   3.039   4.898   6.236
 3786TIP3    H211300   3.160   4.948   6.311
 3787TIP3   OH211301   0.330   3.873   4.085
 3787TIP3    H111302   0.274   3.932   4.033
 3787TIP3    H211303   0.355   3.804   4.024
 3788TIP3   OH211304   6.269   0.215   1.921
 3788TIP3    H111305   6.182   0.243   1.893
 3788TIP3    H211306   6.276   0.246   2.011
 3789TIP3   OH211307   5.848   0.848   5.920
 3789TIP3    H111308   5.904   0.896   5.859
 3789TIP3    H211309   5.870   0.884   6.006
 3790TIP3   OH211310   3.126   7.959   1.732
 3790TIP3    H111311   3.153   7.880   1.779
 3790TIP3    H211312   3.123   7.933   1.640
 3791TIP3   OH211313   0.211   5.960   6.055
 3791TIP3    H111314   0.219   6.014   5.977
 3791TIP3    H211315   0.258   6.008   6.123
 3792TIP3   OH211316   7.170   7.687   1.002
 3792TIP3    H111317   7.151   7.764   0.948
 3792TIP3    H211318   7.262   7.698   1.027
 3793TIP3   OH211319   7.517   4.596   2.768
 3793TIP3    H111320   7.500   4.594   2.674
 3793TIP3    H211321   7.607   4.566   2.778
 3794TIP3   OH211322   0.225   4.132   0.575
 3794TIP3    H111323   0.178   4.212   0.550
 3794TIP3    H211324   0.198   4.067   0.509
 3795TIP3   OH211325   3.519   0.462   3.784
 3795TIP3    H111326   3.552   0.432   3.700
 3795TIP3    H211327   3.587   0.520   3.818
 3796TIP3   OH211328   4.831   2.968   5.703
 3796TIP3    H111329   4.751   3.001   5.744
 3796TIP3    H211330   4.897   2.972   5.773
 3797TIP3   OH211331   6.113   7.401   4.984
 3797TIP3    H111332   6.176   7.341   4.944
 3797TIP3    H211333   6.046   7.344   5.022
 3798TIP3   OH211334   4.914   6.314   1.176
 3798TIP3    H111335   4.825   6.330   1.207
 3798TIP3    H211336   4.969   6.373   1.229
 3799TIP3   OH211337   5.334   6.710   4.830
 3799TIP3    H111338   5.395   6.641   4.856
 3799TIP3    H211339   5.389   6.787   4.820
 3800TIP3   OH211340   5.106   2.791   4.463
 3800TIP3    H111341   5.103   2.718   4.401
 3800TIP3    H211342   5.033   2.847   4.438
 3801TIP3   OH211343   4.598   2.640   3.448
 3801TIP3    H111344   4.692   2.639   3.428
 3801TIP3    H211345   4.587   2.575   3.517
 3802TIP3   OH211346   3.631   7.772   1.353
 3802TIP3    H111347   3.605   7.752   1.443
 3802TIP3    H211348   3.714   7.726   1.342
 3803TIP3   OH211349   0.601   6.456   1.223
 3803TIP3    H111350   0.685   6.486   1.190
 3803TIP3    H211351   0.578   6.519   1.291
 3804TIP3   OH211352   5.982   6.464   0.177
 3804TIP3    H111353   5.888   6.481   0.175
 3804TIP3    H211354   6.016   6.529   0.239
 3805TIP3   OH211355   1.640   4.117   4.309
 3805TIP3    H111356   1.629   4.114   4.214
 3805TIP3    H211357   1.712   4.179   4.323
 3806TIP3   OH211358   6.594   3.207   3.744
 3806TIP3    H111359   6.617   3.226   3.835
 3806TIP3    H211360   6.666   3.152   3.712
 3807TIP3   OH211361   1.353   1.818   4.516
 3807TIP3    H111362   1.289   1.879   4.480
 3807TIP3    H211363   1.301   1.740   4.539
 3808TIP3   OH211364   3.864   3.417   6.800
 3808TIP3    H111365   3.860   3.374   6.714
 3808TIP3    H211366   3.927   3.488   6.788
 3809TIP3   OH211367   6.978   3.241   3.620
 3809TIP3    H111368   6.937   3.316   3.662
 3809TIP3    H211369   7.041   3.208   3.684
 3810TIP3   OH211370   1.697   3.653   6.809
 3810TIP3    H111371   1.693   3.741   6.848
 3810TIP3    H211372   1.623   3.606   6.848
 3811TIP3   OH211373   7.588   5.038   4.289
 3811TIP3    H111374   7.625   5.084   4.215
 3811TIP3    H211375   7.553   4.957   4.252
 3812TIP3   OH211376   5.641   5.089   1.984
 3812TIP3    H111377   5.661   5.096   1.891
 3812TIP3    H211378   5.713   5.036   2.020
 3813TIP3   OH211379   2.771   3.616   2.763
 3813TIP3    H111380   2.789   3.524   2.743
 3813TIP3    H211381   2.679   3.618   2.786
 3814TIP3   OH211382   4.074   2.854   6.362
 3814TIP3    H111383   4.148   2.854   6.423
 3814TIP3    H211384   4.012   2.790   6.399
 3815TIP3   OH211385   3.273   6.202   3.495
 3815TIP3    H111386   3.357   6.248   3.497
 3815TIP3    H211387   3.293   6.118   3.453
 3816TIP3   OH211388   7.629   1.383   2.574
 3816TIP3    H111389   7.616   1.474   2.547
 3816TIP3    H211390   7.552   1.363   2.627
 3817TIP3   OH211391   1.228   5.269   1.803
 3817TIP3    H111392   1.183   5.242   1.883
 3817TIP3    H211393   1.157   5.295   1.743
 3818TIP3   OH211394   7.462   2.648   6.793
 3818TIP3    H111395   7.489   2.556   6.800
 3818TIP3    H211396   7.532   2.697   6.837
 3819TIP3   OH211397   0.963   7.585   6.306
 3819TIP3    H111398   0.972   7.504   6.356
 3819TIP3    H211399   1.004   7.566   6.222
 3820TIP3   OH211400   8.219   2.089   6.661
 3820TIP3    H111401   8.144   2.039   6.628
 3820TIP3    H211402   8.192   2.180   6.653
 3821TIP3   OH211403   0.354   0.069   3.936
 3821TIP3    H111404   0.340   0.153   3.892
 3821TIP3    H211405   0.438   0.079   3.980
 3822TIP3   OH211406   4.105   6.093   0.521
 3822TIP3    H111407   4.186   6.115   0.568
 3822TIP3    H211408   4.135   6.049   0.441
 3823TIP3   OH211409   2.962   1.139   6.252
 3823TIP3    H111410   2.952   1.137   6.347
 3823TIP3    H211411   3.038   1.196   6.237
 3824TIP3   OH211412   5.239   6.157   6.115
 3824TIP3    H111413   5.261   6.086   6.177
 3824TIP3    H211414   5.157   6.130   6.076
 3825TIP3   OH211415   7.871   4.099   1.600
 3825TIP3    H111416   7.962   4.071   1.610
 3825TIP3    H211417   7.877   4.176   1.543
 3826TIP3   OH211418   4.490   4.142   5.870
 3826TIP3    H111419   4.422   4.210   5.863
 3826TIP3    H211420   4.444   4.067   5.909
 3827TIP3   OH211421   4.300   6.877   3.930
 3827TIP3    H111422   4.283   6.892   3.837
 3827TIP3    H211423   4.235   6.812   3.956
 3828TIP3   OH211424   1.159   4.615   1.430
 3828TIP3    H111425   1.101   4.540   1.443
 3828TIP3    H211426   1.239   4.578   1.394
 3829TIP3   OH211427   1.066   4.602   3.395
 3829TIP3    H111428   1.052   4.544   3.321
 3829TIP3    H211429   1.152   4.578   3.429
 3830TIP3   OH211430   0.273   0.149   6.745
 3830TIP3    H111431   0.297   0.096   6.669
 3830TIP3    H211432   0.310   0.103   6.820
 3831TIP3   OH211433   1.997   1.419   2.792
 3831TIP3    H111434   2.067   1.466   2.747
 3831TIP3    H211435   1.959   1.483   2.851
 3832TIP3   OH211436   3.860   2.184   5.038
 3832TIP3    H111437   3.776   2.214   5.072
 3832TIP3    H211438   3.910   2.264   5.023
 3833TIP3   OH211439   7.638   0.208   0.186
 3833TIP3    H111440   7.711   0.235   0.130
 3833TIP3    H211441   7.677   0.149   0.250
 3834TIP3   OH211442   4.337   7.795   3.067
 3834TIP3    H111443   4.409   7.783   3.128
 3834TIP3    H211444   4.361   7.872   3.015
 3835TIP3   OH211445   2.511   6.158   6.844
 3835TIP3    H111446   2.571   6.163   6.769
 3835TIP3    H211447   2.448   6.090   6.820
 3836TIP3   OH211448   2.232   0.142   4.714
 3836TIP3    H111449   2.168   0.107   4.651
 3836TIP3    H211450   2.273   0.065   4.752
 3837TIP3   OH211451   6.479   2.490   3.890
 3837TIP3    H111452   6.436   2.407   3.912
 3837TIP3    H211453   6.568   2.480   3.924
 3838TIP3   OH211454   3.556   0.045   5.488
 3838TIP3    H111455   3.545  -0.008   5.409
 3838TIP3    H211456   3.469   0.048   5.528
 3839TIP3   OH211457   6.755   5.106   6.612
 3839TIP3    H111458   6.700   5.043   6.659
 3839TIP3    H211459   6.700   5.184   6.605
 3840TIP3   OH211460   5.450   0.748   4.510
 3840TIP3    H111461   5.444   0.788   4.423
 3840TIP3    H211462   5.543   0.751   4.532
 3841TIP3   OH211463   4.891   0.172   0.811
 3841TIP3    H111464   4.811   0.144   0.767
 3841TIP3    H211465   4.957   0.108   0.785
 3842TIP3   OH211466   4.540   1.745   3.176
 3842TIP3    H111467   4.562   1.716   3.087
 3842TIP3    H211468   4.454   1.786   3.167
 3843TIP3   OH211469   3.376   2.654   5.581
 3843TIP3    H111470   3.328   2.620   5.657
 3843TIP3    H211471   3.377   2.581   5.520
 3844TIP3   OH211472   8.317   3.063   5.071
 3844TIP3    H111473   8.273   2.983   5.100
 3844TIP3    H211474   8.263   3.134   5.105
 3845TIP3   OH211475   4.211   6.297   1.024
 3845TIP3    H111476   4.253   6.223   1.069
 3845TIP3    H211477   4.128   6.262   0.992
 3846TIP3   OH211478   5.428   5.992   6.841
 3846TIP3    H111479   5.416   6.035   6.925
 3846TIP3    H211480   5.339   5.971   6.812
 3847TIP3   OH211481   1.767   1.476   1.191
 3847TIP3    H111482   1.783   1.477   1.097
 3847TIP3    H211483   1.851   1.496   1.230
 3848TIP3   OH211484   2.637   0.137   1.235
 3848TIP3    H111485   2.647   0.232   1.235
 3848TIP3    H211486   2.720   0.104   1.270
 3849TIP3   OH211487   7.992   6.753   3.614
 3849TIP3    H111488   8.024   6.706   3.537
 3849TIP3    H211489   8.065   6.750   3.676
 3850TIP3   OH211490   4.257   4.484   6.225
 3850TIP3    H111491   4.195   4.433   6.277
 3850TIP3    H211492   4.315   4.525   6.290
 3851TIP3   OH211493   1.138   5.972   1.164
 3851TIP3    H111494   1.083   6.012   1.096
 3851TIP3    H211495   1.121   6.024   1.243
 3852TIP3   OH211496   2.270   3.899   2.901
 3852TIP3    H111497   2.285   3.919   2.993
 3852TIP3    H211498   2.175   3.893   2.892
 3853TIP3   OH211499   3.839   4.878   4.418
 3853TIP3    H111500   3.934   4.884   4.423
 3853TIP3    H211501   3.808   4.968   4.432
 3854TIP3   OH211502   3.465   2.375   2.731
 3854TIP3    H111503   3.538   2.378   2.668
 3854TIP3    H211504   3.404   2.441   2.700
 3855TIP3   OH211505   3.682   4.357   6.263
 3855TIP3    H111506   3.689   4.451   6.246
 3855TIP3    H211507   3.722   4.346   6.349
 3856TIP3   OH211508   6.242   6.617   4.502
 3856TIP3    H111509   6.219   6.570   4.421
 3856TIP3    H211510   6.279   6.549   4.558
 3857TIP3   OH211511   6.240   0.284   4.206
 3857TIP3    H111512   6.252   0.192   4.183
 3857TIP3    H211513   6.329   0.317   4.218
 3858TIP3   OH211514   3.026   5.441   3.278
 3858TIP3    H111515   3.114   5.411   3.297
 3858TIP3    H211516   3.020   5.441   3.183
 3859TIP3   OH211517   3.388   2.370   2.265
 3859TIP3    H111518   3.355   2.368   2.355
 3859TIP3    H211519   3.313   2.346   2.211
 3860TIP3   OH211520   1.990   5.867   2.828
 3860TIP3    H111521   2.040   5.907   2.899
 3860TIP3    H211522   2.038   5.788   2.806
 3861TIP3   OH211523   7.465   3.020   2.126
 3861TIP3    H111524   7.395   3.015   2.191
 3861TIP3    H211525   7.541   3.050   2.175
 3862TIP3   OH211526   5.710   0.676   0.105
 3862TIP3    H111527   5.617   0.660   0.092
 3862TIP3    H211528   5.716   0.770   0.119
 3863TIP3   OH211529   3.136   4.241   0.207
 3863TIP3    H111530   3.081   4.300   0.258
 3863TIP3    H211531   3.101   4.154   0.225
 3864TIP3   OH211532   5.383   2.860   4.437
 3864TIP3    H111533   5.291   2.836   4.448
 3864TIP3    H211534   5.393   2.942   4.485
 3865TIP3   OH211535   1.634   6.140   3.729
 3865TIP3    H111536   1.577   6.108   3.800
 3865TIP3    H211537   1.644   6.065   3.671
 3866TIP3   OH211538   2.160   3.124   2.763
 3866TIP3    H111539   2.117   3.200   2.724
 3866TIP3    H211540   2.152   3.055   2.697
 3867TIP3   OH211541   2.982   2.290   1.647
 3867TIP3    H111542   2.943   2.377   1.653
 3867TIP3    H211543   2.982   2.269   1.554
 3868TIP3   OH211544   1.026   3.416   5.045
 3868TIP3    H111545   1.088   3.440   4.975
 3868TIP3    H211546   1.065   3.339   5.086
 3869TIP3   OH211547   5.366   6.270   3.343
 3869TIP3    H111548   5.455   6.249   3.316
 3869TIP3    H211549   5.375   6.345   3.400
 3870TIP3   OH211550   3.718   7.878   2.132
 3870TIP3    H111551   3.787   7.938   2.105
 3870TIP3    H211552   3.698   7.903   2.222
 3871TIP3   OH211553   4.292   0.256   6.437
 3871TIP3    H111554   4.303   0.318   6.509
 3871TIP3    H211555   4.382   0.232   6.413
 3872TIP3   OH211556   7.291   6.805   1.435
 3872TIP3    H111557   7.358   6.840   1.376
 3872TIP3    H211558   7.319   6.833   1.522
 3873TIP3   OH211559   4.725   0.054   3.195
 3873TIP3    H111560   4.705  -0.038   3.213
 3873TIP3    H211561   4.768   0.053   3.110
 3874TIP3   OH211562   2.612   1.672   5.653
 3874TIP3    H111563   2.702   1.701   5.667
 3874TIP3    H211564   2.563   1.711   5.725
 3875TIP3   OH211565   2.675   1.075   2.410
 3875TIP3    H111566   2.641   1.140   2.349
 3875TIP3    H211567   2.728   1.016   2.355
 3876TIP3   OH211568   6.768   0.859   4.831
 3876TIP3    H111569   6.807   0.875   4.745
 3876TIP3    H211570   6.689   0.913   4.833
 3877TIP3   OH211571   1.066   2.430   0.810
 3877TIP3    H111572   0.999   2.393   0.867
 3877TIP3    H211573   1.146   2.381   0.832
 3878TIP3   OH211574   6.964   4.594   4.004
 3878TIP3    H111575   6.871   4.578   3.986
 3878TIP3    H211576   6.977   4.686   3.980
 3879TIP3   OH211577   0.085   5.128   1.171
 3879TIP3    H111578   0.036   5.141   1.252
 3879TIP3    H211579   0.020   5.101   1.106
 3880TIP3   OH211580   3.005   1.341   3.970
 3880TIP3    H111581   3.006   1.370   3.879
 3880TIP3    H211582   3.011   1.421   4.022
 3881TIP3   OH211583   3.655   6.029   1.399
 3881TIP3    H111584   3.681   6.103   1.454
 3881TIP3    H211585   3.663   6.062   1.309
 3882TIP3   OH211586   7.383   1.116   4.081
 3882TIP3    H111587   7.452   1.159   4.130
 3882TIP3    H211588   7.310   1.110   4.143
 3883TIP3   OH211589   4.344   5.827   5.183
 3883TIP3    H111590   4.358   5.734   5.167
 3883TIP3    H211591   4.260   5.832   5.229
 3884TIP3   OH211592   5.601   2.272   3.436
 3884TIP3    H111593   5.676   2.221   3.464
 3884TIP3    H211594   5.638   2.345   3.386
 3885TIP3   OH211595   3.710   4.533   0.127
 3885TIP3    H111596   3.784   4.489   0.169
 3885TIP3    H211597   3.742   4.553   0.039
 3886TIP3   OH211598   3.151   1.620   6.326
 3886TIP3    H111599   3.097   1.569   6.386
 3886TIP3    H211600   3.199   1.681   6.382
 3887TIP3   OH211601   4.765   6.138   2.453
 3887TIP3    H111602   4.831   6.206   2.447
 3887TIP3    H211603   4.682   6.184   2.447
 3888TIP3   OH211604   6.042   1.644   2.376
 3888TIP3    H111605   6.136   1.634   2.362
 3888TIP3    H211606   6.004   1.564   2.340
 3889TIP3   OH211607   0.610   5.985   6.347
 3889TIP3    H111608   0.633   5.986   6.439
 3889TIP3    H211609   0.638   5.899   6.315
 3890TIP3   OH211610   5.185   3.931   1.236
 3890TIP3    H111611   5.217   3.889   1.157
 3890TIP3    H211612   5.137   4.008   1.205
 3891TIP3   OH211613   1.544   2.050   6.560
 3891TIP3    H111614   1.495   2.029   6.481
 3891TIP3    H211615   1.502   2.130   6.594
 3892TIP3   OH211616   1.148   2.752   3.517
 3892TIP3    H111617   1.227   2.744   3.570
 3892TIP3    H211618   1.148   2.843   3.487
 3893TIP3   OH211619   7.933   2.635   1.495
 3893TIP3    H111620   7.914   2.722   1.532
 3893TIP3    H211621   7.996   2.653   1.426
 3894TIP3   OH211622   7.801   4.937   4.701
 3894TIP3    H111623   7.802   5.033   4.702
 3894TIP3    H211624   7.709   4.914   4.713
 3895TIP3   OH211625   5.382   2.115   3.407
 3895TIP3    H111626   5.414   2.030   3.378
 3895TIP3    H211627   5.456   2.175   3.391
 3896TIP3   OH211628   2.039   6.406   5.416
 3896TIP3    H111629   2.087   6.330   5.447
 3896TIP3    H211630   2.104   6.460   5.371
 3897TIP3   OH211631   1.580   0.016   4.857
 3897TIP3    H111632   1.567   0.084   4.790
 3897TIP3    H211633   1.572   0.063   4.940
 3898TIP3   OH211634   6.344   3.102   3.658
 3898TIP3    H111635   6.385   3.176   3.702
 3898TIP3    H211636   6.362   3.027   3.716
 3899TIP3   OH211637   0.325   1.984   4.479
 3899TIP3    H111638   0.338   2.059   4.536
 3899TIP3    H211639   0.370   1.912   4.523
 3900TIP3   OH211640   6.273   6.155   6.714
 3900TIP3    H111641   6.256   6.078   6.661
 3900TIP3    H211642   6.356   6.136   6.758
 3901TIP3   OH211643   5.697   7.893   0.892
 3901TIP3    H111644   5.734   7.953   0.957
 3901TIP3    H211645   5.763   7.888   0.824
 3902TIP3   OH211646   7.913   3.238   2.258
 3902TIP3    H111647   7.966   3.235   2.179
 3902TIP3    H211648   7.934   3.322   2.298
 3903TIP3   OH211649   7.651   0.450   2.685
 3903TIP3    H111650   7.641   0.360   2.655
 3903TIP3    H211651   7.654   0.502   2.605
 3904TIP3   OH211652   4.976   2.535   2.691
 3904TIP3    H111653   4.890   2.521   2.652
 3904TIP3    H211654   5.038   2.519   2.619
 3905TIP3   OH211655   0.805   0.832   4.457
 3905TIP3    H111656   0.763   0.841   4.543
 3905TIP3    H211657   0.864   0.907   4.452
 3906TIP3   OH211658   2.756   6.001   4.097
 3906TIP3    H111659   2.734   6.049   4.177
 3906TIP3    H211660   2.768   6.069   4.031
 3907TIP3   OH211661   5.128   6.318   0.828
 3907TIP3    H111662   5.150   6.297   0.919
 3907TIP3    H211663   5.197   6.379   0.800
 3908TIP3   OH211664   7.847   5.226   4.735
 3908TIP3    H111665   7.921   5.282   4.760
 3908TIP3    H211666   7.849   5.225   4.640
 3909TIP3   OH211667   4.135   5.952   0.300
 3909TIP3    H111668   4.116   5.924   0.210
 3909TIP3    H211669   4.188   5.881   0.336
 3910TIP3   OH211670   7.508   4.445   0.193
 3910TIP3    H111671   7.419   4.478   0.209
 3910TIP3    H211672   7.560   4.524   0.178
 3911TIP3   OH211673   0.921   2.656   0.736
 3911TIP3    H111674   0.970   2.579   0.766
 3911TIP3    H211675   0.982   2.701   0.677
 3912TIP3   OH211676   1.254   7.635   4.171
 3912TIP3    H111677   1.254   7.603   4.261
 3912TIP3    H211678   1.347   7.635   4.146
 3913TIP3   OH211679   5.078   2.652   4.946
 3913TIP3    H111680   5.087   2.745   4.924
 3913TIP3    H211681   5.146   2.609   4.894
 3914TIP3   OH211682   7.862   5.766   1.253
 3914TIP3    H111683   7.842   5.732   1.166
 3914TIP3    H211684   7.837   5.858   1.250
 3915TIP3   OH211685   0.979   1.756   0.312
 3915TIP3    H111686   1.017   1.679   0.353
 3915TIP3    H211687   1.053   1.815   0.298
 3916TIP3   OH211688   0.045   7.411   3.861
 3916TIP3    H111689   0.102   7.403   3.784
 3916TIP3    H211690  -0.044   7.410   3.825
 3917TIP3   OH211691   0.114   3.565   5.113
 3917TIP3    H111692   0.047   3.598   5.172
 3917TIP3    H211693   0.098   3.610   5.031
 3918TIP3   OH211694   0.866   3.296   2.986
 3918TIP3    H111695   0.891   3.244   2.910
 3918TIP3    H211696   0.772   3.280   2.996
 3919TIP3   OH211697   2.861   7.323   1.922
 3919TIP3    H111698   2.825   7.397   1.970
 3919TIP3    H211699   2.786   7.267   1.903
 3920TIP3   OH211700   2.089   6.395   6.328
 3920TIP3    H111701   2.172   6.419   6.370
 3920TIP3    H211702   2.079   6.458   6.257
 3921TIP3   OH211703   2.467   2.468   3.779
 3921TIP3    H111704   2.517   2.549   3.780
 3921TIP3    H211705   2.417   2.472   3.697
 3922TIP3   OH211706   1.589   7.813   3.356
 3922TIP3    H111707   1.646   7.745   3.392
 3922TIP3    H211708   1.535   7.840   3.431
 3923TIP3   OH211709   4.021   1.437   1.687
 3923TIP3    H111710   3.950   1.383   1.650
 3923TIP3    H211711   4.067   1.472   1.610
 3924TIP3   OH211712   7.910   7.764   3.438
 3924TIP3    H111713   7.981   7.824   3.461
 3924TIP3    H211714   7.935   7.727   3.354
 3925TIP3   OH211715   0.842   6.627   3.811
 3925TIP3    H111716   0.905   6.594   3.875
 3925TIP3    H211717   0.885   6.613   3.726
 3926TIP3   OH211718   2.978   7.555   5.784
 3926TIP3    H111719   3.011   7.606   5.858
 3926TIP3    H211720   2.938   7.478   5.824
 3927TIP3   OH211721   8.118   3.119   4.774
 3927TIP3    H111722   8.059   3.173   4.827
 3927TIP3    H211723   8.206   3.149   4.799
 3928TIP3   OH211724   7.473   1.979   3.631
 3928TIP3    H111725   7.469   2.057   3.576
 3928TIP3    H211726   7.542   1.925   3.592
 3929TIP3   OH211727   3.160   7.390   6.272
 3929TIP3    H111728   3.163   7.452   6.199
 3929TIP3    H211729   3.107   7.317   6.240
 3930TIP3   OH211730   3.482   7.288   1.649
 3930TIP3    H111731   3.429   7.337   1.712
 3930TIP3    H211732   3.564   7.337   1.643
 3931TIP3   OH211733   6.305   7.196   0.446
 3931TIP3    H111734   6.299   7.188   0.541
 3931TIP3    H211735   6.363   7.125   0.419
 3932TIP3   OH211736   0.570   3.477   4.563
 3932TIP3    H111737   0.579   3.387   4.530
 3932TIP3    H211738   0.638   3.527   4.517
 3933TIP3   OH211739   5.368   3.597   1.345
 3933TIP3    H111740   5.460   3.622   1.349
 3933TIP3    H211741   5.326   3.666   1.293
 3934TIP3   OH211742   2.204   3.550   6.196
 3934TIP3    H111743   2.145   3.478   6.220
 3934TIP3    H211744   2.199   3.611   6.269
 3935TIP3   OH211745   0.866   4.588   0.244
 3935TIP3    H111746   0.948   4.637   0.238
 3935TIP3    H211747   0.867   4.530   0.168
 3936TIP3   OH211748   8.119   1.228   1.333
 3936TIP3    H111749   8.081   1.156   1.282
 3936TIP3    H211750   8.046   1.262   1.385
 3937TIP3   OH211751   8.305   3.678   5.581
 3937TIP3    H111752   8.350   3.717   5.656
 3937TIP3    H211753   8.254   3.750   5.543
 3938TIP3   OH211754   6.755   1.826   6.093
 3938TIP3    H111755   6.693   1.898   6.101
 3938TIP3    H211756   6.708   1.759   6.043
 3939TIP3   OH211757   7.911   0.076   4.419
 3939TIP3    H111758   7.821   0.043   4.413
 3939TIP3    H211759   7.952   0.021   4.486
 3940TIP3   OH211760   5.757   4.451   5.674
 3940TIP3    H111761   5.800   4.395   5.738
 3940TIP3    H211762   5.674   4.408   5.655
 3941TIP3   OH211763   1.656   3.366   6.199
 3941TIP3    H111764   1.585   3.341   6.258
 3941TIP3    H211765   1.618   3.354   6.111
 3942TIP3   OH211766   7.654   6.733   6.037
 3942TIP3    H111767   7.713   6.797   6.078
 3942TIP3    H211768   7.703   6.651   6.039
 3943TIP3   OH211769   7.095   5.216   2.398
 3943TIP3    H111770   7.102   5.308   2.423
 3943TIP3    H211771   7.046   5.174   2.469
 3944TIP3   OH211772   2.219   3.995   0.064
 3944TIP3    H111773   2.221   3.937   0.140
 3944TIP3    H211774   2.222   4.083   0.101
 3945TIP3   OH211775   0.882   0.978   2.233
 3945TIP3    H111776   0.797   0.949   2.198
 3945TIP3    H211777   0.863   1.010   2.321
 3946TIP3   OH211778   3.504   4.691   2.630
 3946TIP3    H111779   3.441   4.647   2.573
 3946TIP3    H211780   3.451   4.751   2.682
 3947TIP3   OH211781   6.812   1.567   5.218
 3947TIP3    H111782   6.853   1.604   5.296
 3947TIP3    H211783   6.831   1.473   5.223
 3948TIP3   OH211784   2.748   3.801   0.861
 3948TIP3    H111785   2.709   3.776   0.777
 3948TIP3    H211786   2.803   3.728   0.886
 3949TIP3   OH211787   5.358   6.411   4.927
 3949TIP3    H111788   5.263   6.405   4.927
 3949TIP3    H211789   5.378   6.484   4.986
 3950TIP3   OH211790   1.334   7.112   2.041
 3950TIP3    H111791   1.302   7.034   1.997
 3950TIP3    H211792   1.429   7.102   2.042
 3951TIP3   OH211793   7.006   4.169   5.906
 3951TIP3    H111794   6.973   4.158   5.816
 3951TIP3    H211795   7.016   4.080   5.939
 3952TIP3   OH211796   1.481   6.483   1.104
 3952TIP3    H111797   1.553   6.506   1.046
 3952TIP3    H211798   1.489   6.388   1.117
 3953TIP3   OH211799   6.870   3.266   3.329
 3953TIP3    H111800   6.783   3.270   3.370
 3953TIP3    H211801   6.924   3.222   3.394
 3954TIP3   OH211802   1.530   5.497   2.999
 3954TIP3    H111803   1.574   5.557   3.060
 3954TIP3    H211804   1.442   5.532   2.990
 3955TIP3   OH211805   6.671   3.003   3.428
 3955TIP3    H111806   6.658   2.983   3.335
 3955TIP3    H211807   6.670   2.917   3.470
 3956TIP3   OH211808   5.622   5.692   1.484
 3956TIP3    H111809   5.591   5.727   1.568
 3956TIP3    H211810   5.542   5.684   1.431
 3957TIP3   OH211811   5.728   1.248   2.569
 3957TIP3    H111812   5.718   1.296   2.651
 3957TIP3    H211813   5.716   1.313   2.500
 3958TIP3   OH211814   2.923   1.395   2.136
 3958TIP3    H111815   2.953   1.330   2.073
 3958TIP3    H211816   2.929   1.351   2.221
 3959TIP3   OH211817   5.096   0.047   3.756
 3959TIP3    H111818   5.023  -0.014   3.753
 3959TIP3    H211819   5.172  -0.003   3.727
 3960TIP3   OH211820   2.201   2.477   6.149
 3960TIP3    H111821   2.161   2.392   6.134
 3960TIP3    H211822   2.178   2.529   6.072
 3961TIP3   OH211823   2.788   6.884   5.869
 3961TIP3    H111824   2.784   6.883   5.965
 3961TIP3    H211825   2.854   6.950   5.848
 3962TIP3   OH211826   3.741   3.654   2.628
 3962TIP3    H111827   3.653   3.662   2.665
 3962TIP3    H211828   3.781   3.583   2.677
 3963TIP3   OH211829   5.745   7.482   0.998
 3963TIP3    H111830   5.755   7.512   0.907
 3963TIP3    H211831   5.829   7.502   1.039
 3964TIP3   OH211832   3.823   0.864   2.973
 3964TIP3    H111833   3.728   0.866   2.977
 3964TIP3    H211834   3.843   0.829   2.886
 3965TIP3   OH211835   6.469   3.670   1.017
 3965TIP3    H111836   6.503   3.760   1.006
 3965TIP3    H211837   6.411   3.657   0.942
 3966TIP3   OH211838   2.700   4.635   6.570
 3966TIP3    H111839   2.656   4.677   6.496
 3966TIP3    H211840   2.670   4.683   6.647
 3967TIP3   OH211841   2.167   7.468   5.135
 3967TIP3    H111842   2.093   7.409   5.124
 3967TIP3    H211843   2.149   7.541   5.076
 3968TIP3   OH211844   3.983   0.739   6.029
 3968TIP3    H111845   3.915   0.800   6.059
 3968TIP3    H211846   3.938   0.684   5.965
 3969TIP3   OH211847   3.037   6.421   4.221
 3969TIP3    H111848   3.070   6.402   4.309
 3969TIP3    H211849   3.115   6.431   4.167
 3970TIP3   OH211850   8.287   2.119   4.284
 3970TIP3    H111851   8.345   2.161   4.220
 3970TIP3    H211852   8.340   2.050   4.323
 3971TIP3   OH211853   7.745   4.474   0.417
 3971TIP3    H111854   7.688   4.527   0.473
 3971TIP3    H211855   7.711   4.385   0.426
 3972TIP3   OH211856   4.757   7.712   3.692
 3972TIP3    H111857   4.759   7.655   3.769
 3972TIP3    H211858   4.846   7.749   3.687
 3973TIP3   OH211859   4.904   3.061   5.292
 3973TIP3    H111860   4.947   3.076   5.208
 3973TIP3    H211861   4.939   3.129   5.350
 3974TIP3   OH211862   1.674   1.044   6.199
 3974TIP3    H111863   1.618   1.119   6.178
 3974TIP3    H211864   1.724   1.027   6.120
 3975TIP3   OH211865   0.946   4.798   3.159
 3975TIP3    H111866   1.039   4.783   3.140
 3975TIP3    H211867   0.926   4.882   3.116
 3976TIP3   OH211868   1.696   2.903   6.323
 3976TIP3    H111869   1.718   2.996   6.325
 3976TIP3    H211870   1.609   2.897   6.362
 3977TIP3   OH211871   2.835   2.644   4.524
 3977TIP3    H111872   2.800   2.664   4.437
 3977TIP3    H211873   2.892   2.569   4.510
 3978TIP3   OH211874   8.163   5.129   1.389
 3978TIP3    H111875   8.138   5.041   1.418
 3978TIP3    H211876   8.122   5.139   1.303
 3979TIP3   OH211877   1.316   3.263   1.352
 3979TIP3    H111878   1.238   3.317   1.337
 3979TIP3    H211879   1.374   3.283   1.278
 3980TIP3   OH211880   5.272   4.768   1.602
 3980TIP3    H111881   5.352   4.728   1.566
 3980TIP3    H211882   5.302   4.849   1.643
 3981TIP3   OH211883   0.250   3.894   3.789
 3981TIP3    H111884   0.303   3.817   3.810
 3981TIP3    H211885   0.162   3.871   3.816
 3982TIP3   OH211886   0.629   4.011   5.039
 3982TIP3    H111887   0.694   4.030   4.971
 3982TIP3    H211888   0.544   4.022   4.994
 3983TIP3   OH211889   0.690   3.432   2.085
 3983TIP3    H111890   0.672   3.511   2.136
 3983TIP3    H211891   0.608   3.384   2.086
 3984TIP3   OH211892   6.777   3.369   0.872
 3984TIP3    H111893   6.701   3.319   0.902
 3984TIP3    H211894   6.794   3.432   0.943
 3985TIP3   OH211895   2.024   3.496   1.986
 3985TIP3    H111896   2.116   3.521   2.000
 3985TIP3    H211897   1.986   3.571   1.941
 3986TIP3   OH211898   6.958   2.344   1.264
 3986TIP3    H111899   6.945   2.267   1.319
 3986TIP3    H211900   7.003   2.310   1.186
 3987TIP3   OH211901   1.328   4.198   3.569
 3987TIP3    H111902   1.366   4.241   3.646
 3987TIP3    H211903   1.378   4.233   3.496
 3988TIP3   OH211904   1.240   2.297   1.689
 3988TIP3    H111905   1.239   2.384   1.727
 3988TIP3    H211906   1.328   2.287   1.652
 3989TIP3   OH211907   6.202   1.314   4.755
 3989TIP3    H111908   6.208   1.218   4.763
 3989TIP3    H211909   6.194   1.345   4.845
 3990TIP3   OH211910   1.603   2.441   5.195
 3990TIP3    H111911   1.540   2.513   5.200
 3990TIP3    H211912   1.555   2.364   5.224
 3991TIP3   OH211913   5.891   6.516   2.455
 3991TIP3    H111914   5.926   6.528   2.367
 3991TIP3    H211915   5.865   6.604   2.483
 3992TIP3   OH211916   4.869   2.608   1.386
 3992TIP3    H111917   4.775   2.594   1.398
 3992TIP3    H211918   4.906   2.600   1.474
 3993TIP3   OH211919   8.328   3.322   1.049
 3993TIP3    H111920   8.266   3.271   1.102
 3993TIP3    H211921   8.319   3.411   1.082
 3994TIP3   OH211922   7.540   5.337   4.514
 3994TIP3    H111923   7.485   5.260   4.497
 3994TIP3    H211924   7.529   5.391   4.436
 3995TIP3   OH211925   1.335   3.291   1.615
 3995TIP3    H111926   1.337   3.281   1.519
 3995TIP3    H211927   1.247   3.265   1.640
 3996TIP3   OH211928   1.854   3.037   4.761
 3996TIP3    H111929   1.890   2.993   4.839
 3996TIP3    H211930   1.871   2.976   4.690
 3997TIP3   OH211931   1.949   4.474   0.297
 3997TIP3    H111932   1.917   4.550   0.346
 3997TIP3    H211933   2.002   4.512   0.227
 3998TIP3   OH211934   2.339   6.263   5.299
 3998TIP3    H111935   2.353   6.357   5.285
 3998TIP3    H211936   2.306   6.256   5.388
 3999TIP3   OH211937   6.023   1.939   4.154
 3999TIP3    H111938   6.011   1.931   4.059
 3999TIP3    H211939   6.019   1.849   4.187
 4000TIP3   OH211940   2.086   5.974   2.399
 4000TIP3    H111941   2.103   6.066   2.418
 4000TIP3    H211942   2.157   5.948   2.340
 4001TIP3   OH211943   6.555   4.544   1.882
 4001TIP3    H111944   6.463   4.543   1.908
 4001TIP3    H211945   6.603   4.536   1.965
 4002TIP3   OH211946   6.433   4.428   5.592
 4002TIP3    H111947   6.402   4.518   5.596
 4002TIP3    H211948   6.432   4.406   5.498
 4003TIP3   OH211949   3.931   1.640   2.095
 4003TIP3    H111950   3.935   1.631   2.000
 4003TIP3    H211951   3.850   1.687   2.112
 4004TIP3   OH211952   5.242   4.998   6.214
 4004TIP3    H111953   5.255   5.060   6.142
 4004TIP3    H211954   5.271   4.914   6.179
 4005TIP3   OH211955   6.692   1.845   1.810
 4005TIP3    H111956   6.623   1.784   1.785
 4005TIP3    H211957   6.752   1.793   1.864
 4006TIP3   OH211958   0.255   1.471   6.079
 4006TIP3    H111959   0.240   1.564   6.098
 4006TIP3    H211960   0.232   1.461   5.986
 4007TIP3   OH211961   7.706   1.351   5.805
 4007TIP3    H111962   7.673   1.265   5.833
 4007TIP3    H211963   7.679   1.411   5.875
 4008TIP3   OH211964   1.838   4.845   3.281
 4008TIP3    H111965   1.824   4.924   3.335
 4008TIP3    H211966   1.894   4.874   3.210
 4009TIP3   OH211967   1.404   0.570   6.136
 4009TIP3    H111968   1.368   0.548   6.050
 4009TIP3    H211969   1.483   0.621   6.118
 4010TIP3   OH211970   7.016   2.780   2.540
 4010TIP3    H111971   7.095   2.830   2.562
 4010TIP3    H211972   6.957   2.844   2.501
 4011TIP3   OH211973   0.992   7.615   0.166
 4011TIP3    H111974   0.957   7.587   0.082
 4011TIP3    H211975   0.951   7.700   0.182
 4012TIP3   OH211976   0.206   6.631   5.790
 4012TIP3    H111977   0.175   6.624   5.880
 4012TIP3    H211978   0.253   6.549   5.774
 4013TIP3   OH211979   6.339   0.892   2.781
 4013TIP3    H111980   6.287   0.972   2.771
 4013TIP3    H211981   6.274   0.823   2.791
 4014TIP3   OH211982   3.802   0.406   2.488
 4014TIP3    H111983   3.813   0.479   2.427
 4014TIP3    H211984   3.714   0.419   2.524
 4015TIP3   OH211985   4.485   3.432   3.588
 4015TIP3    H111986   4.456   3.428   3.679
 4015TIP3    H211987   4.471   3.524   3.563
 4016TIP3   OH211988   3.495   5.564   0.848
 4016TIP3    H111989   3.509   5.637   0.788
 4016TIP3    H211990   3.504   5.486   0.793
 4017TIP3   OH211991   8.302   4.930   6.328
 4017TIP3    H111992   8.257   4.941   6.245
 4017TIP3    H211993   8.234   4.908   6.391
 4018TIP3   OH211994   5.532   2.109   4.789
 4018TIP3    H111995   5.510   2.038   4.849
 4018TIP3    H211996   5.608   2.151   4.828
 4019TIP3   OH211997   3.332   2.651   2.132
 4019TIP3    H111998   3.270   2.720   2.110
 4019TIP3    H211999   3.345   2.659   2.227
 4020TIP3   OH212000   0.645   3.028   5.729
 4020TIP3    H112001   0.621   3.015   5.638
 4020TIP3    H212002   0.614   3.116   5.750
 4021TIP3   OH212003   0.312   2.166   4.976
 4021TIP3    H112004   0.324   2.203   5.063
 4021TIP3    H212005   0.218   2.150   4.970
 4022TIP3   OH212006   1.476   6.877   5.016
 4022TIP3    H112007   1.490   6.836   5.102
 4022TIP3    H212008   1.475   6.971   5.035
 4023TIP3   OH212009   4.234   1.659   3.698
 4023TIP3    H112010   4.231   1.606   3.778
 4023TIP3    H212011   4.223   1.597   3.627
 4024TIP3   OH212012   5.699   2.519   2.672
 4024TIP3    H112013   5.724   2.502   2.763
 4024TIP3    H212014   5.765   2.475   2.620
 4025TIP3   OH212015   8.398   3.112   2.753
 4025TIP3    H112016   8.470   3.157   2.709
 4025TIP3    H212017   8.327   3.176   2.754
 4026TIP3   OH212018   4.868   2.123   3.303
 4026TIP3    H112019   4.938   2.067   3.337
 4026TIP3    H212020   4.796   2.063   3.284
 4027TIP3   OH212021   3.092   6.891   3.216
 4027TIP3    H112022   3.092   6.973   3.168
 4027TIP3    H212023   3.049   6.911   3.299
 4028TIP3   OH212024   5.989   6.531   6.754
 4028TIP3    H112025   6.007   6.456   6.812
 4028TIP3    H212026   6.069   6.540   6.702
 4029TIP3   OH212027   4.820   5.809   4.769
 4029TIP3    H112028   4.890   5.777   4.713
 4029TIP3    H212029   4.852   5.893   4.802
 4030TIP3   OH212030   0.184   1.441   3.675
 4030TIP3    H112031   0.231   1.424   3.594
 4030TIP3    H212032   0.244   1.495   3.727
 4031TIP3   OH212033   1.668   0.234   2.002
 4031TIP3    H112034   1.693   0.271   1.917
 4031TIP3    H212035   1.629   0.307   2.049
 4032TIP3   OH212036   5.548   5.969   5.762
 4032TIP3    H112037   5.490   6.014   5.823
 4032TIP3    H212038   5.635   5.998   5.787
 4033TIP3   OH212039   6.056   7.057   5.615
 4033TIP3    H112040   6.086   7.113   5.543
 4033TIP3    H212041   6.016   6.982   5.571
 4034TIP3   OH212042   3.947   6.898   4.661
 4034TIP3    H112043   3.912   6.971   4.712
 4034TIP3    H212044   3.919   6.820   4.708
 4035TIP3   OH212045   1.648   5.078   4.569
 4035TIP3    H112046   1.612   5.038   4.490
 4035TIP3    H212047   1.595   5.040   4.640
 4036TIP3   OH212048   6.338   3.977   5.527
 4036TIP3    H112049   6.272   4.039   5.558
 4036TIP3    H212050   6.415   3.994   5.581
 4037TIP3   OH212051   6.012   2.162   2.284
 4037TIP3    H112052   6.104   2.138   2.277
 4037TIP3    H212053   5.991   2.149   2.376
 4038TIP3   OH212054   2.655   1.385   2.020
 4038TIP3    H112055   2.614   1.471   2.027
 4038TIP3    H212056   2.749   1.404   2.017
 4039TIP3   OH212057   7.164   6.831   2.328
 4039TIP3    H112058   7.102   6.806   2.397
 4039TIP3    H212059   7.245   6.852   2.374
 4040TIP3   OH212060   2.782   7.627   6.659
 4040TIP3    H112061   2.698   7.635   6.704
 4040TIP3    H212062   2.842   7.593   6.725
 4041TIP3   OH212063   1.157   0.497   1.640
 4041TIP3    H112064   1.238   0.477   1.687
 4041TIP3    H212065   1.144   0.422   1.582
 4042TIP3   OH212066   5.344   6.590   2.035
 4042TIP3    H112067   5.372   6.681   2.044
 4042TIP3    H212068   5.250   6.596   2.016
 4043TIP3   OH212069   4.666   3.434   0.293
 4043TIP3    H112070   4.607   3.436   0.218
 4043TIP3    H212071   4.700   3.345   0.296
 4044TIP3   OH212072   3.067   1.705   4.365
 4044TIP3    H112073   3.148   1.748   4.394
 4044TIP3    H212074   3.039   1.652   4.440
 4045TIP3   OH212075   2.299   5.617   0.603
 4045TIP3    H112076   2.241   5.618   0.527
 4045TIP3    H212077   2.349   5.536   0.594
 4046TIP3   OH212078   1.225   6.735   4.911
 4046TIP3    H112079   1.245   6.653   4.866
 4046TIP3    H212080   1.306   6.759   4.955
 4047TIP3   OH212081   2.020   2.983   5.895
 4047TIP3    H112082   1.939   2.972   5.846
 4047TIP3    H212083   1.996   3.036   5.970
 4048TIP3   OH212084   0.808   4.561   3.812
 4048TIP3    H112085   0.758   4.636   3.845
 4048TIP3    H212086   0.894   4.570   3.854
 4049TIP3   OH212087   1.457   0.809   3.925
 4049TIP3    H112088   1.388   0.753   3.890
 4049TIP3    H212089   1.435   0.897   3.893
 4050TIP3   OH212090   1.847   4.850   5.718
 4050TIP3    H112091   1.790   4.826   5.791
 4050TIP3    H212092   1.936   4.837   5.751
 4051TIP3   OH212093   3.510   3.568   1.673
 4051TIP3    H112094   3.605   3.579   1.668
 4051TIP3    H212095   3.480   3.579   1.583
 4052TIP3   OH212096   4.095   3.907   5.852
 4052TIP3    H112097   4.127   3.921   5.763
 4052TIP3    H212098   4.006   3.941   5.852
 4053TIP3   OH212099   7.724   6.721   4.253
 4053TIP3    H112100   7.784   6.654   4.220
 4053TIP3    H212101   7.722   6.787   4.185
 4054TIP3   OH212102   5.425   4.975   1.211
 4054TIP3    H112103   5.412   4.905   1.147
 4054TIP3    H212104   5.496   4.943   1.267
 4055TIP3   OH212105   0.053   7.695   1.920
 4055TIP3    H112106   0.115   7.746   1.973
 4055TIP3    H212107   0.109   7.632   1.874
 4056TIP3   OH212108   7.915   3.353   6.816
 4056TIP3    H112109   7.821   3.359   6.831
 4056TIP3    H212110   7.954   3.409   6.883
 4057TIP3   OH212111   0.180   4.515   1.579
 4057TIP3    H112112   0.120   4.576   1.536
 4057TIP3    H212113   0.222   4.468   1.508
 4058TIP3   OH212114   7.647   3.684   4.608
 4058TIP3    H112115   7.736   3.651   4.618
 4058TIP3    H212116   7.657   3.768   4.563
 4059TIP3   OH212117   3.054   5.908   4.157
 4059TIP3    H112118   3.048   5.950   4.243
 4059TIP3    H212119   3.003   5.828   4.165
 4060TIP3   OH212120   7.706   7.581   6.101
 4060TIP3    H112121   7.735   7.671   6.093
 4060TIP3    H212122   7.780   7.529   6.070
 4061TIP3   OH212123   8.145   4.081  -0.012
 4061TIP3    H112124   8.228   4.033  -0.010
 4061TIP3    H212125   8.134   4.112   0.078
 4062TIP3   OH212126   0.885   3.686   6.211
 4062TIP3    H112127   0.935   3.614   6.172
 4062TIP3    H212128   0.901   3.761   6.154
 4063TIP3   OH212129   7.620   2.235   2.143
 4063TIP3    H112130   7.573   2.312   2.176
 4063TIP3    H212131   7.678   2.210   2.214
 4064TIP3   OH212132   4.464   4.372   4.136
 4064TIP3    H112133   4.538   4.327   4.095
 4064TIP3    H212134   4.492   4.463   4.144
 4065TIP3   OH212135   2.929   7.344   2.786
 4065TIP3    H112136   2.955   7.432   2.813
 4065TIP3    H212137   2.862   7.358   2.720
 4066TIP3   OH212138   0.498   1.454   2.548
 4066TIP3    H112139   0.488   1.401   2.469
 4066TIP3    H212140   0.418   1.505   2.554
 4067TIP3   OH212141   6.924   4.557   4.317
 4067TIP3    H112142   6.882   4.475   4.344
 4067TIP3    H212143   6.913   4.561   4.222
 4068TIP3   OH212144   7.344   5.597   1.019
 4068TIP3    H112145   7.320   5.690   1.026
 4068TIP3    H212146   7.388   5.577   1.101
 4069TIP3   OH212147   6.445   2.737   0.171
 4069TIP3    H112148   6.456   2.832   0.174
 4069TIP3    H212149   6.531   2.703   0.196
 4070TIP3   OH212150   8.044   6.849   6.336
 4070TIP3    H112151   8.044   6.761   6.299
 4070TIP3    H212152   8.136   6.870   6.350
 4071TIP3   OH212153   6.754   2.243   4.146
 4071TIP3    H112154   6.790   2.188   4.077
 4071TIP3    H212155   6.696   2.185   4.195
 4072TIP3   OH212156   5.663   0.063   5.227
 4072TIP3    H112157   5.597   0.062   5.296
 4072TIP3    H212158   5.720  -0.012   5.248
 4073TIP3   OH212159   3.555   0.651   3.513
 4073TIP3    H112160   3.496   0.726   3.511
 4073TIP3    H212161   3.503   0.578   3.478
 4074TIP3   OH212162   7.307   2.689   0.811
 4074TIP3    H112163   7.314   2.650   0.898
 4074TIP3    H212164   7.370   2.762   0.813
 4075TIP3   OH212165   4.113   7.261   0.024
 4075TIP3    H112166   4.176   7.215  -0.031
 4075TIP3    H212167   4.116   7.216   0.108
 4076TIP3   OH212168   5.947   2.645   0.951
 4076TIP3    H112169   5.870   2.668   1.003
 4076TIP3    H212170   6.000   2.590   1.009
 4077TIP3   OH212171   1.073   4.035   2.636
 4077TIP3    H112172   0.989   4.023   2.681
 4077TIP3    H212173   1.049   4.044   2.544
 4078TIP3   OH212174   7.620   2.530   4.172
 4078TIP3    H112175   7.541   2.516   4.223
 4078TIP3    H212176   7.642   2.622   4.184
 4079TIP3   OH212177   6.061   1.754   3.456
 4079TIP3    H112178   6.017   1.710   3.382
 4079TIP3    H212179   6.016   1.838   3.464
 4080TIP3   OH212180   7.089   0.869   5.505
 4080TIP3    H112181   7.122   0.849   5.417
 4080TIP3    H212182   7.060   0.785   5.540
 4081TIP3   OH212183   4.523   1.282   6.163
 4081TIP3    H112184   4.539   1.289   6.258
 4081TIP3    H212185   4.604   1.243   6.129
 4082TIP3   OH212186   4.183   1.536   1.482
 4082TIP3    H112187   4.233   1.596   1.536
 4082TIP3    H212188   4.162   1.587   1.403
 4083TIP3   OH212189   6.888   7.267   4.012
 4083TIP3    H112190   6.807   7.229   4.047
 4083TIP3    H212191   6.910   7.337   4.073
 4084TIP3   OH212192   0.810   5.777   1.945
 4084TIP3    H112193   0.771   5.797   1.860
 4084TIP3    H212194   0.735   5.752   2.001
 4085TIP3   OH212195   2.066   0.426   5.966
 4085TIP3    H112196   2.075   0.362   6.036
 4085TIP3    H212197   2.058   0.510   6.011
 4086TIP3   OH212198   4.453   5.065   2.139
 4086TIP3    H112199   4.437   5.152   2.102
 4086TIP3    H212200   4.521   5.027   2.082
 4087TIP3   OH212201   7.671   2.167   6.147
 4087TIP3    H112202   7.682   2.205   6.234
 4087TIP3    H212203   7.759   2.162   6.111
 4088TIP3   OH212204   2.048   4.974   1.044
 4088TIP3    H112205   2.018   5.063   1.023
 4088TIP3    H212206   2.071   4.936   0.959
 4089TIP3   OH212207   2.532   2.905   4.524
 4089TIP3    H112208   2.623   2.882   4.504
 4089TIP3    H212209   2.486   2.821   4.525
 4090TIP3   OH212210   4.737   0.921   0.654
 4090TIP3    H112211   4.803   0.955   0.716
 4090TIP3    H212212   4.789   0.892   0.579
 4091TIP3   OH212213   2.113   5.682   6.835
 4091TIP3    H112214   2.126   5.685   6.930
 4091TIP3    H212215   2.175   5.615   6.805
 4092TIP3   OH212216   2.765   1.660   0.933
 4092TIP3    H112217   2.827   1.723   0.896
 4092TIP3    H212218   2.746   1.600   0.860
 4093TIP3   OH212219   3.370   6.721   0.947
 4093TIP3    H112220   3.329   6.799   0.984
 4093TIP3    H212221   3.297   6.670   0.913
 4094TIP3   OH212222   3.391   3.480   4.929
 4094TIP3    H112223   3.384   3.494   5.023
 4094TIP3    H212224   3.338   3.549   4.889
 4095TIP3   OH212225   3.245   4.730   4.677
 4095TIP3    H112226   3.327   4.755   4.636
 4095TIP3    H212227   3.237   4.636   4.661
 4096TIP3   OH212228   7.147   4.253   0.555
 4096TIP3    H112229   7.239   4.226   0.549
 4096TIP3    H212230   7.148   4.346   0.532
 4097TIP3   OH212231   3.728   5.674   6.807
 4097TIP3    H112232   3.669   5.611   6.848
 4097TIP3    H212233   3.816   5.642   6.828
 4098TIP3   OH212234   6.030   7.127   6.267
 4098TIP3    H112235   6.052   7.163   6.353
 4098TIP3    H212236   6.111   7.131   6.217
 4099TIP3   OH212237   4.594   5.589   5.645
 4099TIP3    H112238   4.513   5.540   5.658
 4099TIP3    H212239   4.588   5.623   5.555
 4100TIP3   OH212240   2.794   1.908   4.847
 4100TIP3    H112241   2.731   1.889   4.916
 4100TIP3    H212242   2.741   1.935   4.772
 4101TIP3   OH212243   4.112   1.837   0.716
 4101TIP3    H112244   4.199   1.807   0.740
 4101TIP3    H212245   4.073   1.868   0.798
 4102TIP3   OH212246   1.577   6.505   3.656
 4102TIP3    H112247   1.491   6.470   3.679
 4102TIP3    H212248   1.620   6.522   3.740
 4103TIP3   OH212249   2.334   6.307   4.581
 4103TIP3    H112250   2.304   6.258   4.505
 4103TIP3    H212251   2.317   6.249   4.655
 4104TIP3   OH212252   2.455   7.837   6.499
 4104TIP3    H112253   2.368   7.875   6.501
 4104TIP3    H212254   2.487   7.846   6.589
 4105TIP3   OH212255   4.160   2.222   5.379
 4105TIP3    H112256   4.234   2.281   5.388
 4105TIP3    H212257   4.138   2.198   5.469
 4106TIP3   OH212258   5.935   4.761   0.485
 4106TIP3    H112259   6.009   4.794   0.433
 4106TIP3    H212260   5.959   4.671   0.506
 4107TIP3   OH212261   8.082   0.765   3.534
 4107TIP3    H112262   8.167   0.732   3.507
 4107TIP3    H212263   8.064   0.720   3.617
 4108TIP3   OH212264   7.359   2.885   5.070
 4108TIP3    H112265   7.367   2.799   5.028
 4108TIP3    H212266   7.406   2.944   5.012
 4109TIP3   OH212267   1.274   4.029   1.848
 4109TIP3    H112268   1.347   3.968   1.860
 4109TIP3    H212269   1.198   3.983   1.884
 4110TIP3   OH212270   4.436   3.837   1.911
 4110TIP3    H112271   4.364   3.854   1.971
 4110TIP3    H212272   4.394   3.818   1.827
 4111TIP3   OH212273   5.017   4.865   4.713
 4111TIP3    H112274   5.072   4.937   4.680
 4111TIP3    H212275   5.079   4.797   4.739
 4112TIP3   OH212276   6.586   2.034   4.250
 4112TIP3    H112277   6.618   2.001   4.334
 4112TIP3    H212278   6.491   2.036   4.259
 4113TIP3   OH212279   6.511   6.398   6.040
 4113TIP3    H112280   6.593   6.430   6.001
 4113TIP3    H212281   6.537   6.320   6.089
 4114TIP3   OH212282   1.635   3.467   5.328
 4114TIP3    H112283   1.585   3.459   5.409
 4114TIP3    H212284   1.573   3.505   5.265
 4115TIP3   OH212285   6.692   7.726   1.420
 4115TIP3    H112286   6.757   7.742   1.352
 4115TIP3    H212287   6.743   7.717   1.500
 4116TIP3   OH212288   5.431   3.586   2.880
 4116TIP3    H112289   5.452   3.493   2.872
 4116TIP3    H212290   5.403   3.597   2.971
 4117TIP3   OH212291   7.293   0.075   5.420
 4117TIP3    H112292   7.307  -0.004   5.472
 4117TIP3    H212293   7.206   0.106   5.446
 4118TIP3   OH212294   0.700   6.014   4.874
 4118TIP3    H112295   0.731   6.088   4.927
 4118TIP3    H212296   0.779   5.968   4.848
 4119TIP3   OH212297   1.983   1.594   1.243
 4119TIP3    H112298   2.068   1.557   1.269
 4119TIP3    H212299   1.997   1.688   1.239
 4120TIP3   OH212300   0.748   2.042   4.896
 4120TIP3    H112301   0.825   2.098   4.897
 4120TIP3    H212302   0.680   2.096   4.856
 4121TIP3   OH212303   1.969   7.676   6.253
 4121TIP3    H112304   1.892   7.723   6.286
 4121TIP3    H212305   2.027   7.744   6.220
 4122TIP3   OH212306   4.535   0.829   3.128
 4122TIP3    H112307   4.507   0.920   3.144
 4122TIP3    H212308   4.549   0.792   3.215
 4123TIP3   OH212309   3.504   0.476   5.006
 4123TIP3    H112310   3.489   0.534   5.081
 4123TIP3    H212311   3.538   0.395   5.044
 4124TIP3   OH212312   2.085   1.354   1.686
 4124TIP3    H112313   2.172   1.328   1.656
 4124TIP3    H212314   2.025   1.302   1.632
 4125TIP3   OH212315   0.072   2.292   6.562
 4125TIP3    H112316   0.158   2.285   6.603
 4125TIP3    H212317   0.088   2.339   6.480
 4126TIP3   OH212318   2.080   0.070   1.553
 4126TIP3    H112319   2.092   0.126   1.476
 4126TIP3    H212320   2.128  -0.010   1.532
 4127TIP3   OH212321   0.713   1.531   5.606
 4127TIP3    H112322   0.662   1.576   5.539
 4127TIP3    H212323   0.794   1.582   5.613
 4128TIP3   OH212324   4.314   5.423   5.428
 4128TIP3    H112325   4.382   5.355   5.421
 4128TIP3    H212326   4.237   5.377   5.458
 4129TIP3   OH212327   4.124   7.401   2.043
 4129TIP3    H112328   4.041   7.437   2.075
 4129TIP3    H212329   4.189   7.467   2.067
 4130TIP3   OH212330   0.310   7.158   4.583
 4130TIP3    H112331   0.326   7.249   4.609
 4130TIP3    H212332   0.396   7.122   4.564
 4131TIP3   OH212333   8.296   5.281   0.180
 4131TIP3    H112334   8.225   5.345   0.183
 4131TIP3    H212335   8.307   5.254   0.271
 4132TIP3   OH212336   8.024   5.432   4.837
 4132TIP3    H112337   7.972   5.426   4.917
 4132TIP3    H212338   8.100   5.484   4.863
 4133TIP3   OH212339   0.558   3.038   4.042
 4133TIP3    H112340   0.653   3.043   4.033
 4133TIP3    H212341   0.544   2.995   4.126
 4134TIP3   OH212342   1.815   5.910   1.465
 4134TIP3    H112343   1.861   5.826   1.458
 4134TIP3    H212344   1.723   5.886   1.477
 4135TIP3   OH212345   7.207   6.739   6.293
 4135TIP3    H112346   7.288   6.787   6.275
 4135TIP3    H212347   7.141   6.808   6.304
 4136TIP3   OH212348   3.038   4.015   4.765
 4136TIP3    H112349   2.969   4.024   4.830
 4136TIP3    H212350   3.026   3.928   4.728
 4137TIP3   OH212351   3.560   4.553   3.402
 4137TIP3    H112352   3.528   4.465   3.418
 4137TIP3    H212353   3.641   4.559   3.454
 4138TIP3   OH212354   2.240   4.989   1.226
 4138TIP3    H112355   2.165   4.987   1.166
 4138TIP3    H212356   2.212   5.046   1.298
 4139TIP3   OH212357   4.965   4.427   5.343
 4139TIP3    H112358   4.870   4.417   5.356
 4139TIP3    H212359   4.973   4.487   5.270
 4140TIP3   OH212360   3.454   7.790   6.493
 4140TIP3    H112361   3.473   7.702   6.526
 4140TIP3    H212362   3.361   7.802   6.511
 4141TIP3   OH212363   7.317   6.434   1.037
 4141TIP3    H112364   7.230   6.425   0.997
 4141TIP3    H212365   7.303   6.492   1.112
 4142TIP3   OH212366   5.104   1.248   5.888
 4142TIP3    H112367   5.062   1.331   5.906
 4142TIP3    H212368   5.186   1.271   5.844
 4143TIP3   OH212369   7.279   1.945   6.151
 4143TIP3    H112370   7.223   1.964   6.227
 4143TIP3    H212371   7.233   1.984   6.077
 4144TIP3   OH212372   3.245   5.342   1.102
 4144TIP3    H112373   3.156   5.371   1.117
 4144TIP3    H212374   3.293   5.367   1.181
 4145TIP3   OH212375   6.118   6.705   3.626
 4145TIP3    H112376   6.034   6.748   3.637
 4145TIP3    H212377   6.167   6.762   3.566
 4146TIP3   OH212378   8.278   1.255   4.103
 4146TIP3    H112379   8.189   1.255   4.138
 4146TIP3    H212380   8.305   1.163   4.102
 4147TIP3   OH212381   0.961   2.234   4.803
 4147TIP3    H112382   0.975   2.313   4.854
 4147TIP3    H212383   1.048   2.192   4.800
 4148TIP3   OH212384   6.419   6.448   4.144
 4148TIP3    H112385   6.453   6.478   4.060
 4148TIP3    H212386   6.433   6.353   4.143
 4149TIP3   OH212387   2.918   4.299   1.825
 4149TIP3    H112388   2.934   4.371   1.764
 4149TIP3    H212389   2.910   4.342   1.910
 4150TIP3   OH212390   5.073   6.006   1.212
 4150TIP3    H112391   5.158   5.983   1.174
 4150TIP3    H212392   5.013   6.008   1.138
 4151TIP3   OH212393   3.703   0.367   5.337
 4151TIP3    H112394   3.738   0.452   5.362
 4151TIP3    H212395   3.739   0.306   5.402
 4152TIP3   OH212396   1.467   1.832   3.538
 4152TIP3    H112397   1.470   1.911   3.484
 4152TIP3    H212398   1.542   1.780   3.510
 4153TIP3   OH212399   5.082   5.435   6.727
 4153TIP3    H112400   5.006   5.492   6.739
 4153TIP3    H212401   5.158   5.492   6.743
 4154TIP3   OH212402   1.849   5.348   5.389
 4154TIP3    H112403   1.834   5.275   5.449
 4154TIP3    H212404   1.931   5.326   5.344
 4155TIP3   OH212405   0.738   3.415   4.789
 4155TIP3    H112406   0.779   3.329   4.792
 4155TIP3    H212407   0.670   3.408   4.722
 4156TIP3   OH212408   6.697   2.402   2.387
 4156TIP3    H112409   6.603   2.392   2.371
 4156TIP3    H212410   6.736   2.326   2.344
 4157TIP3   OH212411   1.334   4.508   4.966
 4157TIP3    H112412   1.353   4.596   4.933
 4157TIP3    H212413   1.359   4.450   4.894
 4158TIP3   OH212414   5.754   0.730   4.551
 4158TIP3    H112415   5.732   0.641   4.525
 4158TIP3    H212416   5.750   0.729   4.647
 4159TIP3   OH212417   5.288   0.112   2.793
 4159TIP3    H112418   5.234   0.190   2.808
 4159TIP3    H212419   5.334   0.098   2.876
 4160TIP3   OH212420   7.511   6.256   1.059
 4160TIP3    H112421   7.458   6.334   1.074
 4160TIP3    H212422   7.492   6.200   1.135
 4161TIP3   OH212423   0.544   0.793   0.497
 4161TIP3    H112424   0.509   0.724   0.553
 4161TIP3    H212425   0.531   0.873   0.547
 4162TIP3   OH212426   0.550   0.582   0.795
 4162TIP3    H112427   0.626   0.580   0.736
 4162TIP3    H212428   0.481   0.538   0.745
 4163TIP3   OH212429   5.436   0.142   3.499
 4163TIP3    H112430   5.360   0.099   3.460
 4163TIP3    H212431   5.464   0.083   3.570
 4164TIP3   OH212432   0.379   0.505   2.281
 4164TIP3    H112433   0.415   0.479   2.196
 4164TIP3    H212434   0.291   0.535   2.261
 4165TIP3   OH212435   8.192   5.432   1.181
 4165TIP3    H112436   8.228   5.493   1.117
 4165TIP3    H212437   8.109   5.471   1.208
 4166TIP3   OH212438   1.311   5.795   6.004
 4166TIP3    H112439   1.335   5.833   5.920
 4166TIP3    H212440   1.232   5.745   5.987
 4167TIP3   OH212441   3.821   2.298   6.343
 4167TIP3    H112442   3.884   2.370   6.338
 4167TIP3    H212443   3.768   2.318   6.420
 4168TIP3   OH212444   6.418   0.483   6.071
 4168TIP3    H112445   6.333   0.439   6.072
 4168TIP3    H212446   6.406   0.557   6.011
 4169TIP3   OH212447   4.460   7.232   6.733
 4169TIP3    H112448   4.513   7.174   6.678
 4169TIP3    H212449   4.373   7.193   6.732
 4170TIP3   OH212450   4.785   4.781   4.825
 4170TIP3    H112451   4.858   4.805   4.768
 4170TIP3    H212452   4.764   4.861   4.873
 4171TIP3   OH212453   0.841   5.036   4.207
 4171TIP3    H112454   0.774   4.973   4.180
 4171TIP3    H212455   0.878   4.998   4.287
 4172TIP3   OH212456   2.772   5.600   5.461
 4172TIP3    H112457   2.752   5.693   5.466
 4172TIP3    H212458   2.745   5.574   5.373
 4173TIP3   OH212459   7.731   2.860   4.567
 4173TIP3    H112460   7.783   2.854   4.648
 4173TIP3    H212461   7.641   2.844   4.595
 4174TIP3   OH212462   2.759   4.688   3.412
 4174TIP3    H112463   2.790   4.727   3.330
 4174TIP3    H212464   2.822   4.618   3.429
 4175TIP3   OH212465   3.109   0.800   5.106
 4175TIP3    H112466   3.075   0.885   5.132
 4175TIP3    H212467   3.066   0.738   5.165
 4176TIP3   OH212468   4.250   1.389   0.581
 4176TIP3    H112469   4.272   1.306   0.624
 4176TIP3    H212470   4.259   1.455   0.651
 4177TIP3   OH212471   7.524   7.088   0.793
 4177TIP3    H112472   7.603   7.068   0.743
 4177TIP3    H212473   7.554   7.097   0.883
 4178TIP3   OH212474   2.739   1.903   1.806
 4178TIP3    H112475   2.810   1.878   1.747
 4178TIP3    H212476   2.710   1.988   1.774
 4179TIP3   OH212477   1.229   6.603   1.767
 4179TIP3    H112478   1.319   6.634   1.781
 4179TIP3    H212479   1.239   6.518   1.724
 4180TIP3   OH212480   5.529   6.994   2.375
 4180TIP3    H112481   5.448   6.952   2.345
 4180TIP3    H212482   5.524   7.083   2.339
 4181TIP3   OH212483   5.613   7.335   1.823
 4181TIP3    H112484   5.647   7.392   1.754
 4181TIP3    H212485   5.636   7.247   1.794
 4182TIP3   OH212486   4.384   2.093   0.393
 4182TIP3    H112487   4.303   2.047   0.414
 4182TIP3    H212488   4.369   2.183   0.421
 4183TIP3   OH212489   1.587   6.698   4.594
 4183TIP3    H112490   1.525   6.759   4.634
 4183TIP3    H212491   1.533   6.634   4.549
 4184TIP3   OH212492   0.328   3.778   4.758
 4184TIP3    H112493   0.395   3.714   4.781
 4184TIP3    H212494   0.326   3.778   4.662
 4185TIP3   OH212495   2.520   0.327   6.588
 4185TIP3    H112496   2.512   0.407   6.641
 4185TIP3    H212497   2.613   0.306   6.591
 4186TIP3   OH212498   6.537   7.581   2.178
 4186TIP3    H112499   6.553   7.508   2.237
 4186TIP3    H212500   6.619   7.631   2.178
 4187TIP3   OH212501   2.582   7.381   4.348
 4187TIP3    H112502   2.551   7.390   4.437
 4187TIP3    H212503   2.678   7.377   4.356
 4188TIP3   OH212504   2.560   1.743   1.946
 4188TIP3    H112505   2.512   1.807   1.999
 4188TIP3    H212506   2.620   1.796   1.893
 4189TIP3   OH212507   5.327   7.496   0.741
 4189TIP3    H112508   5.375   7.569   0.701
 4189TIP3    H212509   5.244   7.493   0.693
 4190TIP3   OH212510   5.653   3.038   3.791
 4190TIP3    H112511   5.731   3.000   3.831
 4190TIP3    H212512   5.595   3.057   3.864
 4191TIP3   OH212513   1.723   7.502   0.703
 4191TIP3    H112514   1.747   7.442   0.774
 4191TIP3    H212515   1.700   7.445   0.630
 4192TIP3   OH212516   1.102   3.075   2.219
 4192TIP3    H112517   1.033   3.010   2.231
 4192TIP3    H212518   1.139   3.057   2.133
 4193TIP3   OH212519   0.944   0.016   5.292
 4193TIP3    H112520   0.862  -0.009   5.249
 4193TIP3    H212521   0.918   0.085   5.353
 4194TIP3   OH212522   5.621   5.446   4.809
 4194TIP3    H112523   5.666   5.412   4.732
 4194TIP3    H212524   5.659   5.533   4.823
 4195TIP3   OH212525   1.214   0.180   5.377
 4195TIP3    H112526   1.287   0.164   5.437
 4195TIP3    H212527   1.140   0.131   5.415
 4196TIP3   OH212528   1.787   4.348   1.313
 4196TIP3    H112529   1.861   4.369   1.370
 4196TIP3    H212530   1.826   4.297   1.241
 4197TIP3   OH212531   2.170   5.343   0.697
 4197TIP3    H112532   2.197   5.317   0.608
 4197TIP3    H212533   2.176   5.262   0.747
 4198TIP3   OH212534   7.640   7.551   5.400
 4198TIP3    H112535   7.576   7.613   5.364
 4198TIP3    H212536   7.653   7.487   5.331
 4199TIP3   OH212537   4.560   5.286   5.467
 4199TIP3    H112538   4.615   5.240   5.530
 4199TIP3    H212539   4.622   5.323   5.404
 4200TIP3   OH212540   4.795   6.547   1.645
 4200TIP3    H112541   4.743   6.613   1.691
 4200TIP3    H212542   4.885   6.565   1.671
 4201TIP3   OH212543   0.101   1.615   1.313
 4201TIP3    H112544   0.085   1.570   1.230
 4201TIP3    H212545   0.086   1.708   1.293
 4202TIP3   OH212546   7.863   6.033   2.266
 4202TIP3    H112547   7.918   5.960   2.238
 4202TIP3    H212548   7.782   6.022   2.216
 4203TIP3   OH212549   2.298   2.267   2.032
 4203TIP3    H112550   2.383   2.223   2.040
 4203TIP3    H212551   2.296   2.329   2.105
 4204TIP3   OH212552   3.863   3.218   1.062
 4204TIP3    H112553   3.785   3.180   1.022
 4204TIP3    H212554   3.899   3.148   1.117
 4205TIP3   OH212555   6.004   1.156   1.145
 4205TIP3    H112556   5.911   1.155   1.124
 4205TIP3    H212557   6.033   1.065   1.131
 4206TIP3   OH212558   2.124   5.177   4.744
 4206TIP3    H112559   2.056   5.155   4.682
 4206TIP3    H212560   2.093   5.140   4.827
 4207TIP3   OH212561   5.974   4.739   2.409
 4207TIP3    H112562   6.059   4.718   2.370
 4207TIP3    H212563   5.911   4.717   2.341
 4208TIP3   OH212564   0.420   5.128   3.271
 4208TIP3    H112565   0.490   5.067   3.246
 4208TIP3    H212566   0.464   5.211   3.284
 4209TIP3   OH212567   7.587   4.229   2.744
 4209TIP3    H112568   7.510   4.273   2.711
 4209TIP3    H212569   7.567   4.210   2.836
 4210TIP3   OH212570   7.785   6.136   6.124
 4210TIP3    H112571   7.824   6.059   6.081
 4210TIP3    H212572   7.710   6.158   6.069
 4211TIP3   OH212573   4.110   5.213   5.374
 4211TIP3    H112574   4.127   5.177   5.287
 4211TIP3    H212575   4.149   5.150   5.435
 4212TIP3   OH212576   5.974   2.190   1.273
 4212TIP3    H112577   5.935   2.199   1.360
 4212TIP3    H212578   6.065   2.218   1.284
 4213TIP3   OH212579   0.111   0.345   5.715
 4213TIP3    H112580   0.122   0.264   5.665
 4213TIP3    H212581   0.200   0.373   5.734
 4214TIP3   OH212582   1.412   3.640   6.328
 4214TIP3    H112583   1.435   3.721   6.374
 4214TIP3    H212584   1.345   3.599   6.383
 4215TIP3   OH212585   5.481   1.321   0.101
 4215TIP3    H112586   5.530   1.372   0.036
 4215TIP3    H212587   5.495   1.230   0.075
 4216TIP3   OH212588   1.550   2.345   0.958
 4216TIP3    H112589   1.523   2.340   0.866
 4216TIP3    H212590   1.635   2.390   0.955
 4217TIP3   OH212591   3.940   7.882   6.115
 4217TIP3    H112592   3.884   7.925   6.179
 4217TIP3    H212593   4.007   7.947   6.094
 4218TIP3   OH212594   6.454   3.380   1.631
 4218TIP3    H112595   6.463   3.321   1.705
 4218TIP3    H212596   6.438   3.323   1.555
 4219TIP3   OH212597   5.597   3.471   4.239
 4219TIP3    H112598   5.647   3.390   4.232
 4219TIP3    H212599   5.639   3.530   4.177
 4220TIP3   OH212600   0.721   1.614   5.881
 4220TIP3    H112601   0.687   1.543   5.827
 4220TIP3    H212602   0.815   1.599   5.883
 4221TIP3   OH212603   3.941   7.743   4.665
 4221TIP3    H112604   3.880   7.676   4.633
 4221TIP3    H212605   3.912   7.824   4.623
 4222TIP3   OH212606   3.301   5.761   1.148
 4222TIP3    H112607   3.238   5.714   1.094
 4222TIP3    H212608   3.385   5.720   1.129
 4223TIP3   OH212609   0.555   0.475   2.819
 4223TIP3    H112610   0.534   0.484   2.726
 4223TIP3    H212611   0.543   0.382   2.838
 4224TIP3   OH212612   2.879   1.499   3.021
 4224TIP3    H112613   2.899   1.435   3.089
 4224TIP3    H212614   2.789   1.479   2.995
 4225TIP3   OH212615   3.203   5.275   3.768
 4225TIP3    H112616   3.127   5.242   3.722
 4225TIP3    H212617   3.276   5.220   3.738
 4226TIP3   OH212618   6.991   5.004   3.534
 4226TIP3    H112619   7.031   5.050   3.608
 4226TIP3    H212620   7.012   4.911   3.550
 4227TIP3   OH212621   6.151   0.442   6.139
 4227TIP3    H112622   6.089   0.499   6.185
 4227TIP3    H212623   6.095   0.385   6.085
 4228TIP3   OH212624   5.364   4.341   6.564
 4228TIP3    H112625   5.298   4.281   6.531
 4228TIP3    H212626   5.326   4.376   6.645
 4229TIP3   OH212627   7.108   4.384   2.774
 4229TIP3    H112628   7.114   4.360   2.682
 4229TIP3    H212629   7.112   4.480   2.774
 4230TIP3   OH212630   8.303   2.067   2.658
 4230TIP3    H112631   8.329   2.035   2.744
 4230TIP3    H212632   8.384   2.096   2.617
 4231TIP3   OH212633   3.600   4.010   4.106
 4231TIP3    H112634   3.582   3.984   4.196
 4231TIP3    H212635   3.636   3.932   4.065
 4232TIP3   OH212636   5.900   7.062   6.835
 4232TIP3    H112637   5.837   6.993   6.856
 4232TIP3    H212638   5.850   7.124   6.782
 4233TIP3   OH212639   3.909   4.032   4.640
 4233TIP3    H112640   3.896   3.939   4.659
 4233TIP3    H212641   3.871   4.078   4.716
 4234TIP3   OH212642   0.881   2.773   2.983
 4234TIP3    H112643   0.911   2.842   3.042
 4234TIP3    H212644   0.959   2.722   2.963
 4235TIP3   OH212645   3.826   4.602   2.504
 4235TIP3    H112646   3.842   4.510   2.526
 4235TIP3    H212647   3.891   4.622   2.437
 4236TIP3   OH212648   2.378   7.098   1.354
 4236TIP3    H112649   2.442   7.051   1.408
 4236TIP3    H212650   2.343   7.031   1.295
 4237TIP3   OH212651   5.803   1.156   4.809
 4237TIP3    H112652   5.828   1.078   4.759
 4237TIP3    H212653   5.795   1.225   4.742
 4238TIP3   OH212654   5.702   1.815   1.653
 4238TIP3    H112655   5.698   1.843   1.562
 4238TIP3    H212656   5.754   1.734   1.651
 4239TIP3   OH212657   6.651   5.028   3.208
 4239TIP3    H112658   6.740   4.993   3.213
 4239TIP3    H212659   6.659   5.117   3.244
 4240TIP3   OH212660   5.173   3.869   5.232
 4240TIP3    H112661   5.267   3.851   5.236
 4240TIP3    H212662   5.131   3.786   5.253
 4241TIP3   OH212663   1.490   5.803   4.872
 4241TIP3    H112664   1.497   5.771   4.782
 4241TIP3    H212665   1.397   5.804   4.890
 4242TIP3   OH212666   1.202   0.728   2.562
 4242TIP3    H112667   1.131   0.707   2.501
 4242TIP3    H212668   1.159   0.772   2.635
 4243TIP3   OH212669   1.122   0.273   4.659
 4243TIP3    H112670   1.084   0.264   4.571
 4243TIP3    H212671   1.141   0.183   4.685
 4244TIP3   OH212672   5.802   2.146   0.548
 4244TIP3    H112673   5.754   2.229   0.551
 4244TIP3    H212674   5.734   2.080   0.530
 4245TIP3   OH212675   0.534   2.477   0.817
 4245TIP3    H112676   0.520   2.483   0.911
 4245TIP3    H212677   0.450   2.500   0.778
 4246TIP3   OH212678   3.452   2.738   2.395
 4246TIP3    H112679   3.451   2.745   2.491
 4246TIP3    H212680   3.539   2.702   2.376
 4247TIP3   OH212681   1.077   0.385   0.785
 4247TIP3    H112682   1.016   0.312   0.783
 4247TIP3    H212683   1.081   0.415   0.694
 4248TIP3   OH212684   5.564   2.215   1.447
 4248TIP3    H112685   5.647   2.176   1.472
 4248TIP3    H212686   5.561   2.298   1.494
 4249TIP3   OH212687   1.577   4.766   0.653
 4249TIP3    H112688   1.507   4.731   0.709
 4249TIP3    H212689   1.552   4.739   0.565
 4250TIP3   OH212690   1.474   1.142   4.029
 4250TIP3    H112691   1.548   1.086   4.049
 4250TIP3    H212692   1.426   1.096   3.960
 4251TIP3   OH212693   6.974   2.183   4.745
 4251TIP3    H112694   7.034   2.153   4.813
 4251TIP3    H212695   6.923   2.106   4.722
 4252TIP3   OH212696   1.948   0.184   5.737
 4252TIP3    H112697   1.996   0.259   5.702
 4252TIP3    H212698   1.933   0.127   5.661
 4253TIP3   OH212699   7.248   2.805   6.343
 4253TIP3    H112700   7.311   2.795   6.272
 4253TIP3    H212701   7.281   2.878   6.395
 4254TIP3   OH212702   8.167   5.517   5.915
 4254TIP3    H112703   8.123   5.600   5.933
 4254TIP3    H212704   8.127   5.486   5.834
 4255TIP3   OH212705   6.650   4.911   0.032
 4255TIP3    H112706   6.660   4.978  -0.034
 4255TIP3    H212707   6.646   4.959   0.115
 4256TIP3   OH212708   5.956   6.785   0.956
 4256TIP3    H112709   5.991   6.699   0.976
 4256TIP3    H212710   5.949   6.829   1.042
 4257TIP3   OH212711   2.710   5.033   1.944
 4257TIP3    H112712   2.632   4.995   1.983
 4257TIP3    H212713   2.713   4.997   1.855
 4258TIP3   OH212714   2.428   6.064   3.205
 4258TIP3    H112715   2.426   6.152   3.244
 4258TIP3    H212716   2.519   6.053   3.176
 4259TIP3   OH212717   3.177   3.076   4.112
 4259TIP3    H112718   3.265   3.041   4.101
 4259TIP3    H212719   3.174   3.153   4.055
 4260TIP3   OH212720   0.513   3.215   0.702
 4260TIP3    H112721   0.607   3.199   0.695
 4260TIP3    H212722   0.473   3.130   0.682
 4261TIP3   OH212723   2.768   7.492   2.148
 4261TIP3    H112724   2.748   7.398   2.144
 4261TIP3    H212725   2.747   7.517   2.237
 4262TIP3   OH212726   6.205   4.131   2.385
 4262TIP3    H112727   6.296   4.152   2.407
 4262TIP3    H212728   6.153   4.194   2.436
 4263TIP3   OH212729   3.570   5.021   4.405
 4263TIP3    H112730   3.564   4.950   4.468
 4263TIP3    H212731   3.487   5.069   4.415
 4264TIP3   OH212732   3.663   2.015   3.090
 4264TIP3    H112733   3.595   2.077   3.064
 4264TIP3    H212734   3.744   2.053   3.058
 4265TIP3   OH212735   0.885   5.416   0.259
 4265TIP3    H112736   0.910   5.329   0.230
 4265TIP3    H212737   0.931   5.476   0.200
 4266TIP3   OH212738   7.749   7.866   0.607
 4266TIP3    H112739   7.839   7.852   0.577
 4266TIP3    H212740   7.703   7.898   0.529
 4267TIP3   OH212741   5.394   3.473   5.652
 4267TIP3    H112742   5.309   3.500   5.689
 4267TIP3    H212743   5.455   3.481   5.725
 4268TIP3   OH212744   1.690   6.967   4.721
 4268TIP3    H112745   1.598   6.944   4.713
 4268TIP3    H212746   1.726   6.903   4.782
 4269TIP3   OH212747   4.671   4.495   3.036
 4269TIP3    H112748   4.684   4.427   2.969
 4269TIP3    H212749   4.654   4.447   3.117
 4270TIP3   OH212750   3.292   6.763   0.631
 4270TIP3    H112751   3.370   6.731   0.585
 4270TIP3    H212752   3.267   6.691   0.689
 4271TIP3   OH212753   8.180   5.698   1.377
 4271TIP3    H112754   8.098   5.669   1.337
 4271TIP3    H212755   8.180   5.793   1.367
 4272TIP3   OH212756   5.180   5.539   0.765
 4272TIP3    H112757   5.154   5.451   0.735
 4272TIP3    H212758   5.126   5.554   0.843
 4273TIP3   OH212759   7.620   5.974   2.567
 4273TIP3    H112760   7.607   6.064   2.538
 4273TIP3    H212761   7.705   5.975   2.611
 4274TIP3   OH212762   0.178   5.445   2.907
 4274TIP3    H112763   0.171   5.382   2.980
 4274TIP3    H212764   0.234   5.400   2.843
 4275TIP3   OH212765   4.236   1.828   1.088
 4275TIP3    H112766   4.289   1.777   1.026
 4275TIP3    H212767   4.187   1.763   1.138
 4276TIP3   OH212768   1.414   2.098   6.329
 4276TIP3    H112769   1.483   2.163   6.318
 4276TIP3    H212770   1.366   2.100   6.246
 4277TIP3   OH212771   6.030   6.598   5.752
 4277TIP3    H112772   6.006   6.683   5.787
 4277TIP3    H212773   6.116   6.612   5.712
 4278TIP3   OH212774   4.855   1.285   6.083
 4278TIP3    H112775   4.915   1.298   6.010
 4278TIP3    H212776   4.834   1.373   6.113
 4279TIP3   OH212777   0.394   5.996   6.700
 4279TIP3    H112778   0.470   5.992   6.643
 4279TIP3    H212779   0.397   5.914   6.750
 4280TIP3   OH212780   1.180   5.903   1.752
 4280TIP3    H112781   1.265   5.859   1.746
 4280TIP3    H212782   1.119   5.833   1.774
 4281TIP3   OH212783   7.279   4.568   0.232
 4281TIP3    H112784   7.233   4.527   0.305
 4281TIP3    H212785   7.264   4.662   0.245
 4282TIP3   OH212786   3.299   5.781   5.827
 4282TIP3    H112787   3.254   5.770   5.744
 4282TIP3    H212788   3.390   5.798   5.804
 4283TIP3   OH212789   3.671   7.335   4.001
 4283TIP3    H112790   3.705   7.253   4.037
 4283TIP3    H212791   3.716   7.404   4.051
 4284TIP3   OH212792   5.680   6.301   6.191
 4284TIP3    H112793   5.708   6.331   6.278
 4284TIP3    H212794   5.754   6.250   6.158
 4285TIP3   OH212795   5.799   3.516   5.109
 4285TIP3    H112796   5.748   3.545   5.033
 4285TIP3    H212797   5.735   3.514   5.180
 4286TIP3   OH212798   5.841   0.929   0.881
 4286TIP3    H112799   5.862   0.886   0.798
 4286TIP3    H212800   5.920   0.977   0.905
 4287TIP3   OH212801   6.850   3.961   6.128
 4287TIP3    H112802   6.827   3.874   6.096
 4287TIP3    H212803   6.783   4.019   6.090
 4288TIP3   OH212804   7.373   7.689   2.827
 4288TIP3    H112805   7.312   7.740   2.773
 4288TIP3    H212806   7.335   7.693   2.915
 4289TIP3   OH212807   6.159   1.828   5.307
 4289TIP3    H112808   6.109   1.778   5.372
 4289TIP3    H212809   6.250   1.806   5.324
 4290TIP3   OH212810   2.166   5.019  -0.014
 4290TIP3    H112811   2.128   5.102   0.014
 4290TIP3    H212812   2.250   5.044  -0.054
 4291TIP3   OH212813   0.188   6.933   0.460
 4291TIP3    H112814   0.226   6.947   0.373
 4291TIP3    H212815   0.095   6.916   0.442
 4292TIP3   OH212816   2.591   2.764   5.890
 4292TIP3    H112817   2.518   2.764   5.951
 4292TIP3    H212818   2.628   2.852   5.896
 4293TIP3   OH212819   4.000   4.485  -0.017
 4293TIP3    H112820   4.032   4.467  -0.105
 4293TIP3    H212821   4.012   4.403   0.031
 4294TIP3   OH212822   4.385   4.835   4.973
 4294TIP3    H112823   4.459   4.848   5.033
 4294TIP3    H212824   4.323   4.782   5.023
 4295TIP3   OH212825   4.609   4.707   2.468
 4295TIP3    H112826   4.661   4.662   2.403
 4295TIP3    H212827   4.600   4.644   2.540
 4296TIP3   OH212828   0.812   4.812   5.815
 4296TIP3    H112829   0.809   4.788   5.908
 4296TIP3    H212830   0.850   4.736   5.772
 4297TIP3   OH212831   2.310   5.634   4.412
 4297TIP3    H112832   2.349   5.577   4.479
 4297TIP3    H212833   2.338   5.722   4.436
 4298TIP3   OH212834   5.656   5.509   2.436
 4298TIP3    H112835   5.574   5.459   2.436
 4298TIP3    H212836   5.716   5.457   2.489
 4299TIP3   OH212837   1.007   6.365   6.653
 4299TIP3    H112838   1.083   6.339   6.601
 4299TIP3    H212839   0.932   6.324   6.609
 4300TIP3   OH212840   2.159   3.192   3.732
 4300TIP3    H112841   2.065   3.191   3.711
 4300TIP3    H212842   2.195   3.116   3.687
 4301TIP3   OH212843   6.108   2.486   3.105
 4301TIP3    H112844   6.103   2.522   3.017
 4301TIP3    H212845   6.112   2.391   3.092
 4302TIP3   OH212846   3.462   1.390   5.462
 4302TIP3    H112847   3.423   1.341   5.389
 4302TIP3    H212848   3.392   1.395   5.527
 4303TIP3   OH212849   8.344   1.362   0.043
 4303TIP3    H112850   8.338   1.326  -0.046
 4303TIP3    H212851   8.256   1.395   0.061
 4304TIP3   OH212852   5.230   5.085   4.617
 4304TIP3    H112853   5.200   5.169   4.652
 4304TIP3    H212854   5.284   5.047   4.686
 4305TIP3   OH212855   4.520   4.363   2.405
 4305TIP3    H112856   4.523   4.387   2.497
 4305TIP3    H212857   4.473   4.279   2.404
 4306TIP3   OH212858   3.549   5.529   1.113
 4306TIP3    H112859   3.597   5.611   1.124
 4306TIP3    H212860   3.531   5.524   1.019
 4307TIP3   OH212861   4.574   1.942   1.649
 4307TIP3    H112862   4.567   1.943   1.553
 4307TIP3    H212863   4.618   2.025   1.670
 4308TIP3   OH212864   1.418   6.548   5.788
 4308TIP3    H112865   1.447   6.541   5.697
 4308TIP3    H212866   1.324   6.563   5.783
 4309TIP3   OH212867   7.009   4.997   1.077
 4309TIP3    H112868   6.980   5.028   0.991
 4309TIP3    H212869   6.937   5.019   1.136
 4310TIP3   OH212870   5.025   0.061   6.546
 4310TIP3    H112871   4.931   0.045   6.560
 4310TIP3    H212872   5.043   0.140   6.596
 4311TIP3   OH212873   6.526   3.656   2.700
 4311TIP3    H112874   6.507   3.580   2.755
 4311TIP3    H212875   6.462   3.722   2.726
 4312TIP3   OH212876   5.053   4.429   0.877
 4312TIP3    H112877   5.047   4.333   0.872
 4312TIP3    H212878   4.999   4.452   0.953
 4313TIP3   OH212879   4.607   7.200   5.725
 4313TIP3    H112880   4.587   7.250   5.804
 4313TIP3    H212881   4.679   7.143   5.750
 4314TIP3   OH212882   3.238   4.268   1.492
 4314TIP3    H112883   3.171   4.305   1.434
 4314TIP3    H212884   3.320   4.279   1.444
 4315TIP3   OH212885   5.286   6.453   2.256
 4315TIP3    H112886   5.302   6.493   2.171
 4315TIP3    H212887   5.336   6.508   2.317
 4316TIP3   OH212888   3.884   1.948   1.381
 4316TIP3    H112889   3.938   1.911   1.450
 4316TIP3    H212890   3.942   2.009   1.335
 4317TIP3   OH212891   1.242   3.521   4.241
 4317TIP3    H112892   1.324   3.516   4.289
 4317TIP3    H212893   1.267   3.543   4.151
 4318TIP3   OH212894   2.977   6.838   3.463
 4318TIP3    H112895   2.916   6.898   3.504
 4318TIP3    H212896   2.922   6.774   3.418
 4319TIP3   OH212897   0.813   2.646   5.717
 4319TIP3    H112898   0.874   2.615   5.784
 4319TIP3    H212899   0.761   2.713   5.762
 4320TIP3   OH212900   7.908   6.830   6.917
 4320TIP3    H112901   7.999   6.827   6.948
 4320TIP3    H212902   7.915   6.822   6.822
 4321TIP3   OH212903   2.493   1.048   3.802
 4321TIP3    H112904   2.551   1.098   3.860
 4321TIP3    H212905   2.459   0.978   3.857
 4322TIP3   OH212906   3.072   1.742   5.095
 4322TIP3    H112907   3.152   1.713   5.052
 4322TIP3    H212908   3.098   1.822   5.142
 4323TIP3   OH212909   4.643   7.443   1.118
 4323TIP3    H112910   4.732   7.412   1.102
 4323TIP3    H212911   4.654   7.522   1.170
 4324TIP3   OH212912   2.141   0.336   4.207
 4324TIP3    H112913   2.122   0.365   4.118
 4324TIP3    H212914   2.057   0.305   4.241
 4325TIP3   OH212915   3.602   2.893   4.983
 4325TIP3    H112916   3.578   2.813   4.936
 4325TIP3    H212917   3.543   2.960   4.949
 4326TIP3   OH212918   2.744   3.700   4.863
 4326TIP3    H112919   2.697   3.783   4.869
 4326TIP3    H212920   2.691   3.647   4.803
 4327TIP3   OH212921   0.082   3.269   0.026
 4327TIP3    H112922   0.068   3.284  -0.068
 4327TIP3    H212923   0.005   3.308   0.068
 4328TIP3   OH212924   4.211   1.548   5.490
 4328TIP3    H112925   4.213   1.485   5.563
 4328TIP3    H212926   4.273   1.511   5.427
 4329TIP3   OH212927   2.294   4.142   1.329
 4329TIP3    H112928   2.377   4.154   1.375
 4329TIP3    H212929   2.245   4.222   1.345
 4330TIP3   OH212930   3.632   4.073   2.576
 4330TIP3    H112931   3.597   4.157   2.547
 4330TIP3    H212932   3.626   4.076   2.671
 4331TIP3   OH212933   2.119   2.879   6.283
 4331TIP3    H112934   2.128   2.918   6.370
 4331TIP3    H212935   2.163   2.939   6.224
 4332TIP3   OH212936   6.574   2.092   6.167
 4332TIP3    H112937   6.590   2.165   6.226
 4332TIP3    H212938   6.505   2.041   6.210
 4333TIP3   OH212939   8.179   7.401   3.807
 4333TIP3    H112940   8.156   7.375   3.896
 4333TIP3    H212941   8.115   7.356   3.752
 4334TIP3   OH212942   4.029   4.252   4.955
 4334TIP3    H112943   3.989   4.326   5.002
 4334TIP3    H212944   3.957   4.213   4.906
 4335TIP3   OH212945   5.725   5.755   0.237
 4335TIP3    H112946   5.783   5.793   0.303
 4335TIP3    H212947   5.712   5.665   0.265
 4336TIP3   OH212948   0.141   3.352   3.055
 4336TIP3    H112949   0.233   3.329   3.042
 4336TIP3    H212950   0.110   3.378   2.969
 4337TIP3   OH212951   4.929   0.175   1.845
 4337TIP3    H112952   4.963   0.200   1.931
 4337TIP3    H212953   4.837   0.199   1.848
 4338TIP3   OH212954   6.568   2.503   0.561
 4338TIP3    H112955   6.648   2.532   0.603
 4338TIP3    H212956   6.593   2.425   0.512
 4339TIP3   OH212957   7.984   7.210   6.060
 4339TIP3    H112958   8.071   7.182   6.087
 4339TIP3    H212959   7.995   7.242   5.970
 4340TIP3   OH212960   2.270   0.415   2.716
 4340TIP3    H112961   2.225   0.472   2.654
 4340TIP3    H212962   2.200   0.368   2.761
 4341TIP3   OH212963   5.506   4.509   4.338
 4341TIP3    H112964   5.480   4.556   4.418
 4341TIP3    H212965   5.524   4.420   4.368
 4342TIP3   OH212966   2.005   3.195   3.445
 4342TIP3    H112967   2.074   3.160   3.389
 4342TIP3    H212968   1.965   3.118   3.485
 4343TIP3   OH212969   3.113   7.503   0.889
 4343TIP3    H112970   3.152   7.590   0.893
 4343TIP3    H212971   3.156   7.453   0.958
 4344TIP3   OH212972   4.556   2.080   6.685
 4344TIP3    H112973   4.499   2.024   6.633
 4344TIP3    H212974   4.498   2.126   6.745
 4345TIP3   OH212975   4.139   1.672   3.095
 4345TIP3    H112976   4.079   1.704   3.028
 4345TIP3    H212977   4.199   1.744   3.110
 4346TIP3   OH212978   7.662   2.536   2.669
 4346TIP3    H112979   7.700   2.458   2.710
 4346TIP3    H212980   7.622   2.503   2.588
 4347TIP3   OH212981   2.897   0.919   1.128
 4347TIP3    H112982   2.846   0.845   1.095
 4347TIP3    H212983   2.987   0.886   1.130
 4348TIP3   OH212984   8.094   5.580   0.317
 4348TIP3    H112985   8.040   5.643   0.364
 4348TIP3    H212986   8.070   5.495   0.356
 4349TIP3   OH212987   0.836   1.597   0.801
 4349TIP3    H112988   0.892   1.539   0.749
 4349TIP3    H212989   0.768   1.539   0.836
 4350TIP3   OH212990   8.298  -0.017   1.597
 4350TIP3    H112991   8.213   0.022   1.616
 4350TIP3    H212992   8.286  -0.110   1.614
 4351TIP3   OH212993   7.474   6.463   0.434
 4351TIP3    H112994   7.534   6.526   0.395
 4351TIP3    H212995   7.399   6.461   0.375
 4352TIP3   OH212996   0.843   7.945   2.481
 4352TIP3    H112997   0.810   8.006   2.546
 4352TIP3    H212998   0.929   7.980   2.457
 4353TIP3   OH212999   1.093   5.015   5.329
 4353TIP3    H113000   1.101   4.928   5.367
 4353TIP3    H213001   1.179   5.055   5.342
 4354TIP3   OH213002   5.754   7.007   6.360
 4354TIP3    H113003   5.710   7.026   6.277
 4354TIP3    H213004   5.846   7.028   6.345
 4355TIP3   OH213005   1.769   1.829   2.495
 4355TIP3    H113006   1.861   1.852   2.482
 4355TIP3    H213007   1.766   1.734   2.485
 4356TIP3   OH213008   5.343   4.075   3.579
 4356TIP3    H113009   5.394   4.004   3.619
 4356TIP3    H213010   5.347   4.057   3.485
 4357TIP3   OH213011   5.832   0.969   5.333
 4357TIP3    H113012   5.812   1.012   5.416
 4357TIP3    H213013   5.798   0.880   5.342
 4358TIP3   OH213014   1.260   2.337   1.011
 4358TIP3    H113015   1.229   2.247   1.022
 4358TIP3    H213016   1.356   2.329   1.005
 4359TIP3   OH213017   6.439   2.699   2.318
 4359TIP3    H113018   6.388   2.701   2.237
 4359TIP3    H213019   6.516   2.753   2.300
 4360TIP3   OH213020   8.002   4.506   5.673
 4360TIP3    H113021   7.942   4.576   5.699
 4360TIP3    H213022   8.051   4.543   5.599
 4361TIP3   OH213023   8.379   1.350   4.891
 4361TIP3    H113024   8.380   1.405   4.813
 4361TIP3    H213025   8.297   1.372   4.936
 4362TIP3   OH213026   5.828   4.139   4.114
 4362TIP3    H113027   5.862   4.125   4.202
 4362TIP3    H213028   5.733   4.138   4.123
 4363TIP3   OH213029   1.382   3.497   2.668
 4363TIP3    H113030   1.426   3.576   2.699
 4363TIP3    H213031   1.384   3.504   2.572
 4364TIP3   OH213032   7.953   1.263   5.347
 4364TIP3    H113033   7.955   1.168   5.348
 4364TIP3    H213034   7.935   1.286   5.256
 4365TIP3   OH213035   8.355   0.618   0.139
 4365TIP3    H113036   8.375   0.530   0.168
 4365TIP3    H213037   8.439   0.655   0.111
 4366TIP3   OH213038   2.545   3.890   2.187
 4366TIP3    H113039   2.523   3.908   2.096
 4366TIP3    H213040   2.621   3.946   2.205
 4367TIP3   OH213041   7.568   3.654   5.524
 4367TIP3    H113042   7.581   3.749   5.528
 4367TIP3    H213043   7.651   3.619   5.492
 4368TIP3   OH213044   5.910   2.481   0.482
 4368TIP3    H113045   5.836   2.435   0.443
 4368TIP3    H213046   5.962   2.413   0.525
 4369TIP3   OH213047   6.533   5.634   6.517
 4369TIP3    H113048   6.562   5.685   6.442
 4369TIP3    H213049   6.492   5.698   6.576
 4370TIP3   OH213050   2.494   5.645   1.820
 4370TIP3    H113051   2.433   5.597   1.764
 4370TIP3    H213052   2.516   5.583   1.890
 4371TIP3   OH213053   5.832   4.666   1.873
 4371TIP3    H113054   5.737   4.672   1.883
 4371TIP3    H213055   5.849   4.706   1.788
 4372TIP3   OH213056   1.549   1.770   6.581
 4372TIP3    H113057   1.481   1.767   6.515
 4372TIP3    H213058   1.553   1.863   6.607
 4373TIP3   OH213059   4.688   5.239   2.193
 4373TIP3    H113060   4.694   5.146   2.214
 4373TIP3    H213061   4.773   5.261   2.156
 4374TIP3   OH213062   1.665   5.454   1.028
 4374TIP3    H113063   1.610   5.392   1.076
 4374TIP3    H213064   1.664   5.422   0.938
 4375TIP3   OH213065   1.664   6.794   0.340
 4375TIP3    H113066   1.626   6.706   0.347
 4375TIP3    H213067   1.588   6.852   0.331
 4376TIP3   OH213068   3.621   2.394   4.608
 4376TIP3    H113069   3.577   2.399   4.524
 4376TIP3    H213070   3.573   2.455   4.665
 4377TIP3   OH213071   5.650   6.396   5.403
 4377TIP3    H113072   5.703   6.410   5.481
 4377TIP3    H213073   5.637   6.301   5.400
 4378TIP3   OH213074   4.036   3.948   2.956
 4378TIP3    H113075   3.959   3.891   2.965
 4378TIP3    H213076   4.077   3.946   3.042
 4379TIP3   OH213077   6.112   6.959   1.592
 4379TIP3    H113078   6.162   6.982   1.513
 4379TIP3    H213079   6.046   6.896   1.560
 4380TIP3   OH213080   3.161   5.817   0.356
 4380TIP3    H113081   3.186   5.902   0.319
 4380TIP3    H213082   3.066   5.823   0.367
 4381TIP3   OH213083   3.840   7.690   5.948
 4381TIP3    H113084   3.925   7.648   5.954
 4381TIP3    H213085   3.851   7.774   5.994
 4382TIP3   OH213086   5.314   5.148   1.041
 4382TIP3    H113087   5.388   5.120   1.096
 4382TIP3    H213088   5.238   5.107   1.081
 4383TIP3   OH213089   1.361   0.335   0.917
 4383TIP3    H113090   1.270   0.311   0.899
 4383TIP3    H213091   1.370   0.422   0.879
 4384TIP3   OH213092   4.563   2.764   4.841
 4384TIP3    H113093   4.648   2.804   4.860
 4384TIP3    H213094   4.529   2.816   4.768
 4385TIP3   OH213095   1.132   6.696   2.371
 4385TIP3    H113096   1.120   6.605   2.399
 4385TIP3    H213097   1.071   6.708   2.298
 4386TIP3   OH213098   5.932   6.839   6.522
 4386TIP3    H113099   5.876   6.768   6.555
 4386TIP3    H213100   5.887   6.869   6.443
 4387TIP3   OH213101   4.109   2.316   1.019
 4387TIP3    H113102   4.101   2.241   1.079
 4387TIP3    H213103   4.200   2.314   0.991
 4388TIP3   OH213104   3.289   3.786   1.465
 4388TIP3    H113105   3.313   3.878   1.476
 4388TIP3    H213106   3.264   3.757   1.552
 4389TIP3   OH213107   4.174   3.935   1.049
 4389TIP3    H113108   4.261   3.921   1.011
 4389TIP3    H213109   4.159   4.029   1.039
 4390TIP3   OH213110   7.586   4.877   6.805
 4390TIP3    H113111   7.542   4.954   6.841
 4390TIP3    H213112   7.557   4.874   6.714
 4391TIP3   OH213113   3.843   0.306   6.611
 4391TIP3    H113114   3.917   0.287   6.669
 4391TIP3    H213115   3.838   0.401   6.610
 4392TIP3   OH213116   7.407   2.477   6.285
 4392TIP3    H113117   7.336   2.497   6.346
 4392TIP3    H213118   7.441   2.562   6.259
 4393TIP3   OH213119   7.090   6.397   0.656
 4393TIP3    H113120   7.090   6.492   0.658
 4393TIP3    H213121   6.998   6.372   0.648
 4394TIP3   OH213122   0.783   0.598   3.310
 4394TIP3    H113123   0.689   0.606   3.293
 4394TIP3    H213124   0.790   0.525   3.372
 4395TIP3   OH213125   4.594   1.995   2.234
 4395TIP3    H113126   4.508   2.017   2.268
 4395TIP3    H213127   4.586   1.905   2.202
 4396TIP3   OH213128   2.805   6.873   3.882
 4396TIP3    H113129   2.790   6.838   3.794
 4396TIP3    H213130   2.897   6.855   3.899
 4397TIP3   OH213131   4.030   1.824   1.583
 4397TIP3    H113132   3.997   1.775   1.659
 4397TIP3    H213133   4.125   1.815   1.588
 4398TIP3   OH213134   8.040   6.576   6.245
 4398TIP3    H113135   8.001   6.505   6.195
 4398TIP3    H213136   8.020   6.556   6.337
 4399TIP3   OH213137   2.001   4.227   3.932
 4399TIP3    H113138   1.929   4.199   3.877
 4399TIP3    H213139   2.040   4.145   3.964
 4400TIP3   OH213140   7.645   1.969   4.275
 4400TIP3    H113141   7.631   2.009   4.189
 4400TIP3    H213142   7.721   1.913   4.263
 4401TIP3   OH213143   1.497   4.145   0.915
 4401TIP3    H113144   1.423   4.148   0.854
 4401TIP3    H213145   1.486   4.063   0.963
 4402TIP3   OH213146   4.882   6.984   0.944
 4402TIP3    H113147   4.934   6.904   0.941
 4402TIP3    H213148   4.889   7.013   1.035
 4403TIP3   OH213149   7.387   4.335   1.635
 4403TIP3    H113150   7.379   4.431   1.639
 4403TIP3    H213151   7.318   4.303   1.692
 4404TIP3   OH213152   5.224   5.122   3.876
 4404TIP3    H113153   5.280   5.128   3.954
 4404TIP3    H213154   5.280   5.150   3.804
 4405TIP3   OH213155   2.055   7.111   2.189
 4405TIP3    H113156   2.111   7.186   2.212
 4405TIP3    H213157   1.980   7.119   2.248
 4406TIP3   OH213158   5.403   2.107   2.748
 4406TIP3    H113159   5.467   2.143   2.686
 4406TIP3    H213160   5.440   2.125   2.834
 4407TIP3   OH213161   7.892   1.518   1.964
 4407TIP3    H113162   7.960   1.581   1.984
 4407TIP3    H213163   7.903   1.499   1.871
 4408TIP3   OH213164   4.567   2.313   4.060
 4408TIP3    H113165   4.562   2.302   4.155
 4408TIP3    H213166   4.482   2.282   4.028
 4409TIP3   OH213167   1.815   2.509   6.749
 4409TIP3    H113168   1.746   2.452   6.784
 4409TIP3    H213169   1.833   2.571   6.820
 4410TIP3   OH213170   5.420   2.288   0.631
 4410TIP3    H113171   5.425   2.214   0.692
 4410TIP3    H213172   5.358   2.260   0.565
 4411TIP3   OH213173   3.392   4.431   0.539
 4411TIP3    H113174   3.487   4.417   0.541
 4411TIP3    H213175   3.382   4.526   0.548
 4412TIP3   OH213176   7.696   2.326   2.851
 4412TIP3    H113177   7.701   2.377   2.932
 4412TIP3    H213178   7.720   2.237   2.877
 4413TIP3   OH213179   6.537   2.666   6.841
 4413TIP3    H113180   6.588   2.746   6.857
 4413TIP3    H213181   6.584   2.599   6.892
 4414TIP3   OH213182   3.435   7.446   5.569
 4414TIP3    H113183   3.489   7.503   5.513
 4414TIP3    H213184   3.365   7.503   5.601
 4415TIP3   OH213185   0.510   5.815   4.848
 4415TIP3    H113186   0.575   5.883   4.865
 4415TIP3    H213187   0.426   5.861   4.849
 4416TIP3   OH213188   2.839   2.262   6.875
 4416TIP3    H113189   2.781   2.201   6.830
 4416TIP3    H213190   2.922   2.254   6.830
 4417TIP3   OH213191   7.428   6.534   4.767
 4417TIP3    H113192   7.360   6.542   4.701
 4417TIP3    H213193   7.398   6.588   4.840
 4418TIP3   OH213194   2.697   0.620   0.150
 4418TIP3    H113195   2.785   0.633   0.114
 4418TIP3    H213196   2.657   0.707   0.149
 4419TIP3   OH213197   6.189   4.057   2.120
 4419TIP3    H113198   6.175   4.111   2.197
 4419TIP3    H213199   6.189   3.968   2.152
 4420TIP3   OH213200   6.496   5.336   0.266
 4420TIP3    H113201   6.448   5.326   0.184
 4420TIP3    H213202   6.432   5.373   0.327
 4421TIP3   OH213203   3.701   0.521   6.767
 4421TIP3    H113204   3.691   0.614   6.784
 4421TIP3    H213205   3.697   0.514   6.671
 4422TIP3   OH213206   8.012   2.427   1.874
 4422TIP3    H113207   8.028   2.393   1.962
 4422TIP3    H213208   8.087   2.398   1.822
 4423TIP3   OH213209   5.379   1.477   6.672
 4423TIP3    H113210   5.381   1.511   6.761
 4423TIP3    H213211   5.367   1.555   6.617
 4424TIP3   OH213212   3.439   0.438   4.040
 4424TIP3    H113213   3.465   0.418   3.950
 4424TIP3    H213214   3.350   0.473   4.032
 4425TIP3   OH213215   6.635   5.789   5.818
 4425TIP3    H113216   6.566   5.730   5.846
 4425TIP3    H213217   6.713   5.761   5.867
 4426TIP3   OH213218   4.131   7.015   5.766
 4426TIP3    H113219   4.198   7.000   5.832
 4426TIP3    H213220   4.121   6.930   5.723
 4427TIP3   OH213221   0.176   5.167   5.789
 4427TIP3    H113222   0.272   5.167   5.784
 4427TIP3    H213223   0.157   5.198   5.877
 4428TIP3   OH213224   1.967   2.820   4.611
 4428TIP3    H113225   1.943   2.782   4.527
 4428TIP3    H213226   2.061   2.801   4.620
 4429TIP3   OH213227   8.351   1.592   5.908
 4429TIP3    H113228   8.438   1.564   5.880
 4429TIP3    H213229   8.365   1.679   5.945
 4430TIP3   OH213230   3.209   3.544   3.591
 4430TIP3    H113231   3.282   3.529   3.651
 4430TIP3    H213232   3.137   3.574   3.647
 4431TIP3   OH213233   2.609   6.609   1.884
 4431TIP3    H113234   2.655   6.526   1.875
 4431TIP3    H213235   2.531   6.599   1.829
 4432TIP3   OH213236   6.306   7.068   3.679
 4432TIP3    H113237   6.294   7.162   3.667
 4432TIP3    H213238   6.245   7.028   3.617
 4433TIP3   OH213239   7.527   5.020   2.455
 4433TIP3    H113240   7.510   5.026   2.549
 4433TIP3    H213241   7.444   4.992   2.417
 4434TIP3   OH213242   7.432   3.468   1.801
 4434TIP3    H113243   7.350   3.442   1.759
 4434TIP3    H213244   7.451   3.555   1.765
 4435TIP3   OH213245   3.705   4.979   6.006
 4435TIP3    H113246   3.624   4.995   5.957
 4435TIP3    H213247   3.749   4.910   5.957
 4436TIP3   OH213248   4.144   6.096   3.893
 4436TIP3    H113249   4.120   6.188   3.904
 4436TIP3    H213250   4.151   6.083   3.799
 4437TIP3   OH213251   6.433   3.532   5.955
 4437TIP3    H113252   6.365   3.477   5.994
 4437TIP3    H213253   6.481   3.567   6.030
 4438TIP3   OH213254   7.296   6.584   2.214
 4438TIP3    H113255   7.328   6.561   2.301
 4438TIP3    H213256   7.259   6.672   2.224
 4439TIP3   OH213257   0.885   0.347   3.732
 4439TIP3    H113258   0.954   0.289   3.701
 4439TIP3    H213259   0.907   0.433   3.697
 4440TIP3   OH213260   4.678   2.897   0.277
 4440TIP3    H113261   4.684   2.809   0.240
 4440TIP3    H213262   4.608   2.939   0.227
 4441TIP3   OH213263   5.597   2.618   4.091
 4441TIP3    H113264   5.596   2.670   4.171
 4441TIP3    H213265   5.679   2.570   4.095
 4442TIP3   OH213266   5.943   2.399   5.724
 4442TIP3    H113267   5.882   2.408   5.651
 4442TIP3    H213268   5.890   2.366   5.796
 4443TIP3   OH213269   2.184   6.768   5.168
 4443TIP3    H113270   2.174   6.794   5.076
 4443TIP3    H213271   2.113   6.815   5.213
 4444TIP3   OH213272   7.318   7.200   2.271
 4444TIP3    H113273   7.223   7.207   2.284
 4444TIP3    H213274   7.353   7.184   2.359
 4445TIP3   OH213275   6.926   2.238   2.412
 4445TIP3    H113276   6.986   2.284   2.353
 4445TIP3    H213277   6.956   2.262   2.500
 4446TIP3   OH213278   6.021   3.125   3.000
 4446TIP3    H113279   6.028   3.030   3.012
 4446TIP3    H213280   6.089   3.161   3.058
 4447TIP3   OH213281   2.321   7.353   1.638
 4447TIP3    H113282   2.334   7.297   1.714
 4447TIP3    H213283   2.396   7.334   1.582
 4448TIP3   OH213284   1.561   5.258   2.843
 4448TIP3    H113285   1.656   5.249   2.848
 4448TIP3    H213286   1.543   5.344   2.880
 4449TIP3   OH213287   2.145   2.051   2.506
 4449TIP3    H113288   2.092   2.050   2.426
 4449TIP3    H213289   2.141   2.142   2.535
 4450TIP3   OH213290   1.300   4.186   2.356
 4450TIP3    H113291   1.380   4.163   2.402
 4450TIP3    H213292   1.275   4.271   2.391
 4451TIP3   OH213293   1.706   0.299   5.557
 4451TIP3    H113294   1.786   0.256   5.529
 4451TIP3    H213295   1.729   0.392   5.563
 4452TIP3   OH213296   3.398   6.589   4.491
 4452TIP3    H113297   3.313   6.549   4.477
 4452TIP3    H213298   3.427   6.616   4.404
 4453TIP3   OH213299   1.087   7.825   4.085
 4453TIP3    H113300   1.158   7.761   4.094
 4453TIP3    H213301   1.111   7.895   4.146
 4454TIP3   OH213302   3.994   3.620   4.184
 4454TIP3    H113303   3.988   3.693   4.245
 4454TIP3    H213304   4.042   3.553   4.232
 4455TIP3   OH213305   3.937   2.974   2.420
 4455TIP3    H113306   3.974   3.062   2.416
 4455TIP3    H213307   3.962   2.933   2.337
 4456TIP3   OH213308   2.247   7.189   2.538
 4456TIP3    H113309   2.213   7.111   2.493
 4456TIP3    H213310   2.184   7.258   2.515
 4457TIP3   OH213311   5.810   2.794   3.845
 4457TIP3    H113312   5.801   2.773   3.938
 4457TIP3    H213313   5.752   2.733   3.801
 4458TIP3   OH213314   0.202   2.085   6.249
 4458TIP3    H113315   0.145   2.092   6.326
 4458TIP3    H213316   0.260   2.012   6.269
 4459TIP3   OH213317   2.143   7.447   2.489
 4459TIP3    H113318   2.214   7.511   2.488
 4459TIP3    H213319   2.146   7.406   2.402
 4460TIP3   OH213320   5.237   1.222   3.835
 4460TIP3    H113321   5.210   1.227   3.926
 4460TIP3    H213322   5.160   1.248   3.785
 4461TIP3   OH213323   4.143   4.960   3.738
 4461TIP3    H113324   4.224   4.908   3.741
 4461TIP3    H213325   4.103   4.938   3.654
 4462TIP3   OH213326   2.912   4.449   5.613
 4462TIP3    H113327   2.952   4.519   5.561
 4462TIP3    H213328   2.931   4.473   5.704
 4463TIP3   OH213329   6.737   0.356   0.283
 4463TIP3    H113330   6.754   0.287   0.347
 4463TIP3    H213331   6.760   0.318   0.199
 4464TIP3   OH213332   5.584   4.053   0.738
 4464TIP3    H113333   5.548   4.125   0.686
 4464TIP3    H213334   5.624   4.096   0.813
 4465TIP3   OH213335   6.095   6.285   0.335
 4465TIP3    H113336   6.047   6.355   0.291
 4465TIP3    H213337   6.123   6.227   0.264
 4466TIP3   OH213338   2.067   1.998   5.318
 4466TIP3    H113339   2.103   1.915   5.349
 4466TIP3    H213340   2.015   1.974   5.241
 4467TIP3   OH213341   8.076   2.688   6.644
 4467TIP3    H113342   8.106   2.779   6.642
 4467TIP3    H213343   8.126   2.644   6.576
 4468TIP3   OH213344   2.678   1.323   3.622
 4468TIP3    H113345   2.692   1.356   3.711
 4468TIP3    H213346   2.761   1.280   3.600
 4469TIP3   OH213347   6.192   7.313   3.634
 4469TIP3    H113348   6.104   7.286   3.660
 4469TIP3    H213349   6.201   7.282   3.544
 4470TIP3   OH213350   4.935   3.671   3.785
 4470TIP3    H113351   4.870   3.731   3.749
 4470TIP3    H213352   4.910   3.661   3.877
 4471TIP3   OH213353   5.368   3.418   4.070
 4471TIP3    H113354   5.445   3.443   4.122
 4471TIP3    H213355   5.403   3.359   4.003
 4472TIP3   OH213356   2.173   0.025   0.868
 4472TIP3    H113357   2.189  -0.027   0.789
 4472TIP3    H213358   2.126  -0.035   0.927
 4473TIP3   OH213359   7.824   7.235   1.615
 4473TIP3    H113360   7.906   7.218   1.569
 4473TIP3    H213361   7.843   7.215   1.707
 4474TIP3   OH213362   3.695   2.040   1.554
 4474TIP3    H113363   3.757   1.995   1.498
 4474TIP3    H213364   3.717   2.011   1.643
 4475TIP3   OH213365   3.897   6.218   5.185
 4475TIP3    H113366   3.818   6.261   5.220
 4475TIP3    H213367   3.968   6.254   5.238
 4476TIP3   OH213368   2.859   0.256   3.777
 4476TIP3    H113369   2.876   0.315   3.851
 4476TIP3    H213370   2.880   0.169   3.811
 4477TIP3   OH213371   5.178   6.036   3.418
 4477TIP3    H113372   5.226   6.021   3.499
 4477TIP3    H213373   5.236   6.094   3.367
 4478TIP3   OH213374   8.058   6.117   3.118
 4478TIP3    H113375   8.053   6.212   3.126
 4478TIP3    H213376   8.126   6.102   3.052
 4479TIP3   OH213377   2.602   6.373   1.581
 4479TIP3    H113378   2.673   6.328   1.534
 4479TIP3    H213379   2.531   6.310   1.584
 4480TIP3   OH213380   8.174   2.029   4.669
 4480TIP3    H113381   8.164   2.077   4.752
 4480TIP3    H213382   8.151   2.093   4.602
 4481TIP3   OH213383   3.509   4.561   1.425
 4481TIP3    H113384   3.414   4.567   1.416
 4481TIP3    H213385   3.536   4.646   1.459
 4482TIP3   OH213386   3.975   5.571   5.854
 4482TIP3    H113387   4.034   5.579   5.779
 4482TIP3    H213388   4.020   5.511   5.913
 4483TIP3   OH213389   3.668   5.574   3.050
 4483TIP3    H113390   3.646   5.491   3.093
 4483TIP3    H213391   3.745   5.554   2.998
 4484TIP3   OH213392   3.683   1.734   4.464
 4484TIP3    H113393   3.753   1.779   4.417
 4484TIP3    H213394   3.604   1.783   4.444
 4485TIP3   OH213395   4.518   5.934   0.886
 4485TIP3    H113396   4.584   5.999   0.862
 4485TIP3    H213397   4.440   5.960   0.837
 4486TIP3   OH213398   0.357   1.863   6.300
 4486TIP3    H113399   0.318   1.825   6.379
 4486TIP3    H213400   0.450   1.869   6.320
 4487TIP3   OH213401   3.622   5.936   2.377
 4487TIP3    H113402   3.606   5.846   2.348
 4487TIP3    H213403   3.535   5.972   2.392
 4488TIP3   OH213404   7.299   1.777   4.784
 4488TIP3    H113405   7.289   1.818   4.698
 4488TIP3    H213406   7.246   1.698   4.780
 4489TIP3   OH213407   0.790   4.033   0.485
 4489TIP3    H113408   0.704   4.072   0.468
 4489TIP3    H213409   0.843   4.105   0.519
 4490TIP3   OH213410   4.333   3.365   3.832
 4490TIP3    H113411   4.316   3.271   3.840
 4490TIP3    H213412   4.362   3.391   3.920
 4491TIP3   OH213413   0.115   2.982   6.214
 4491TIP3    H113414   0.136   2.960   6.123
 4491TIP3    H213415   0.020   2.970   6.221
 4492TIP3   OH213416   0.498   1.340   6.730
 4492TIP3    H113417   0.526   1.327   6.821
 4492TIP3    H213418   0.432   1.272   6.716
 4493TIP3   OH213419   0.651   0.161   2.771
 4493TIP3    H113420   0.675   0.200   2.687
 4493TIP3    H213421   0.669   0.068   2.760
 4494TIP3   OH213422   3.650   7.550   5.437
 4494TIP3    H113423   3.699   7.553   5.355
 4494TIP3    H213424   3.709   7.509   5.499
 4495TIP3   OH213425   2.927   7.860   6.559
 4495TIP3    H113426   2.888   7.773   6.562
 4495TIP3    H213427   2.860   7.915   6.518
 4496TIP3   OH213428   4.566   1.056   1.787
 4496TIP3    H113429   4.541   1.102   1.707
 4496TIP3    H213430   4.542   0.965   1.771
 4497TIP3   OH213431   5.332   4.994   6.495
 4497TIP3    H113432   5.398   5.062   6.495
 4497TIP3    H213433   5.283   5.008   6.413
 4498TIP3   OH213434   6.269   2.820   6.284
 4498TIP3    H113435   6.218   2.797   6.206
 4498TIP3    H213436   6.217   2.787   6.357
 4499TIP3   OH213437   4.226   0.549   1.753
 4499TIP3    H113438   4.265   0.518   1.834
 4499TIP3    H213439   4.274   0.502   1.684
 4500TIP3   OH213440   3.792   5.102   1.829
 4500TIP3    H113441   3.787   5.031   1.765
 4500TIP3    H213442   3.758   5.178   1.782
 4501TIP3   OH213443   5.223   1.753   3.550
 4501TIP3    H113444   5.145   1.802   3.575
 4501TIP3    H213445   5.208   1.665   3.586
 4502TIP3   OH213446   2.531   7.312   1.222
 4502TIP3    H113447   2.461   7.251   1.244
 4502TIP3    H213448   2.511   7.390   1.274
 4503TIP3   OH213449   3.075   5.045   3.545
 4503TIP3    H113450   3.144   5.076   3.486
 4503TIP3    H213451   3.097   4.954   3.562
 4504TIP3   OH213452   1.508   0.698   5.237
 4504TIP3    H113453   1.473   0.644   5.166
 4504TIP3    H213454   1.489   0.788   5.210
 4505TIP3   OH213455   0.393   1.733   5.032
 4505TIP3    H113456   0.396   1.667   5.101
 4505TIP3    H213457   0.481   1.771   5.032
 4506TIP3   OH213458   1.142   6.393   4.319
 4506TIP3    H113459   1.167   6.341   4.396
 4506TIP3    H213460   1.072   6.343   4.278
 4507TIP3   OH213461   6.191   0.918   4.142
 4507TIP3    H113462   6.226   0.988   4.197
 4507TIP3    H213463   6.153   0.963   4.067
 4508TIP3   OH213464   1.374   6.611   0.118
 4508TIP3    H113465   1.309   6.681   0.129
 4508TIP3    H213466   1.438   6.648   0.057
 4509TIP3   OH213467   0.906   0.809   3.864
 4509TIP3    H113468   0.848   0.734   3.879
 4509TIP3    H213469   0.983   0.791   3.919
 4510TIP3   OH213470   8.038   6.909   2.737
 4510TIP3    H113471   8.011   6.998   2.761
 4510TIP3    H213472   8.121   6.896   2.783
 4511TIP3   OH213473   1.025   5.209   0.569
 4511TIP3    H113474   0.960   5.208   0.639
 4511TIP3    H213475   1.102   5.248   0.609
 4512TIP3   OH213476   1.018   5.818   0.794
 4512TIP3    H113477   1.092   5.759   0.808
 4512TIP3    H213478   0.987   5.840   0.882
 4513TIP3   OH213479   6.216   5.729   0.064
 4513TIP3    H113480   6.124   5.701   0.061
 4513TIP3    H213481   6.260   5.663   0.118
 4514TIP3   OH213482   7.587   0.315   4.343
 4514TIP3    H113483   7.585   0.228   4.382
 4514TIP3    H213484   7.516   0.362   4.387
 4515TIP3   OH213485   3.784   0.926   5.241
 4515TIP3    H113486   3.844   0.931   5.167
 4515TIP3    H213487   3.726   0.852   5.220
 4516TIP3   OH213488   0.188   7.522   1.788
 4516TIP3    H113489   0.213   7.508   1.696
 4516TIP3    H213490   0.264   7.491   1.838
 4517TIP3   OH213491   5.202   7.591   0.968
 4517TIP3    H113492   5.147   7.624   0.897
 4517TIP3    H213493   5.227   7.503   0.940
 4518TIP3   OH213494   2.003   4.074   2.308
 4518TIP3    H113495   2.041   4.011   2.246
 4518TIP3    H213496   2.028   4.160   2.274
 4519TIP3   OH213497   7.595   5.841   1.932
 4519TIP3    H113498   7.577   5.759   1.978
 4519TIP3    H213499   7.571   5.823   1.841
 4520TIP3   OH213500   1.967   7.156   4.734
 4520TIP3    H113501   1.919   7.187   4.811
 4520TIP3    H213502   2.059   7.170   4.756
 4521TIP3   OH213503   7.884   7.841   6.085
 4521TIP3    H113504   7.835   7.890   6.019
 4521TIP3    H213505   7.908   7.907   6.151
 4522TIP3   OH213506   1.443   2.398   2.170
 4522TIP3    H113507   1.526   2.353   2.150
 4522TIP3    H213508   1.376   2.335   2.144
 4523TIP3   OH213509   6.675   7.559   4.249
 4523TIP3    H113510   6.751   7.505   4.271
 4523TIP3    H213511   6.710   7.629   4.194
 4524TIP3   OH213512   6.142   2.450   5.535
 4524TIP3    H113513   6.107   2.460   5.623
 4524TIP3    H213514   6.193   2.369   5.538
 4525TIP3   OH213515   1.559   1.305   5.360
 4525TIP3    H113516   1.512   1.382   5.390
 4525TIP3    H213517   1.532   1.235   5.420
 4526TIP3   OH213518   5.356   0.506   6.514
 4526TIP3    H113519   5.270   0.522   6.553
 4526TIP3    H213520   5.381   0.419   6.546
 4527TIP3   OH213521   5.869   5.194   0.930
 4527TIP3    H113522   5.951   5.168   0.972
 4527TIP3    H213523   5.890   5.198   0.837
 4528TIP3   OH213524   6.506   2.378   5.162
 4528TIP3    H113525   6.553   2.434   5.224
 4528TIP3    H213526   6.468   2.308   5.215
 4529TIP3   OH213527   3.572   3.262   0.137
 4529TIP3    H113528   3.591   3.354   0.152
 4529TIP3    H213529   3.478   3.254   0.157
 4530TIP3   OH213530   7.356   3.675   3.845
 4530TIP3    H113531   7.328   3.610   3.909
 4530TIP3    H213532   7.325   3.642   3.761
 4531TIP3   OH213533   2.562   3.459   5.590
 4531TIP3    H113534   2.617   3.381   5.597
 4531TIP3    H213535   2.521   3.452   5.504
 4532TIP3   OH213536   1.596   5.084   2.187
 4532TIP3    H113537   1.686   5.114   2.199
 4532TIP3    H213538   1.604   4.999   2.142
 4533TIP3   OH213539   5.760   2.789   1.945
 4533TIP3    H113540   5.689   2.792   2.009
 4533TIP3    H213541   5.806   2.872   1.957
 4534TIP3   OH213542   7.985   6.118   5.345
 4534TIP3    H113543   7.948   6.131   5.258
 4534TIP3    H213544   8.063   6.173   5.345
 4535TIP3   OH213545   6.381   2.385   6.030
 4535TIP3    H113546   6.354   2.295   6.015
 4535TIP3    H213547   6.464   2.378   6.077
 4536TIP3   OH213548   4.243   3.073   0.723
 4536TIP3    H113549   4.332   3.105   0.738
 4536TIP3    H213550   4.195   3.150   0.693
 4537TIP3   OH213551   6.495   4.258   2.434
 4537TIP3    H113552   6.562   4.260   2.503
 4537TIP3    H213553   6.542   4.228   2.356
 4538TIP3   OH213554   0.485   3.692   0.393
 4538TIP3    H113555   0.578   3.711   0.386
 4538TIP3    H213556   0.445   3.774   0.420
 4539TIP3   OH213557   6.056   4.681   6.431
 4539TIP3    H113558   5.987   4.628   6.390
 4539TIP3    H213559   6.053   4.656   6.524
 4540TIP3   OH213560   2.503   5.663   0.210
 4540TIP3    H113561   2.561   5.646   0.284
 4540TIP3    H213562   2.530   5.748   0.176
 4541TIP3   OH213563   6.061   4.059   3.310
 4541TIP3    H113564   6.138   4.108   3.279
 4541TIP3    H213565   6.004   4.052   3.234
 4542TIP3   OH213566   6.867   4.980   2.481
 4542TIP3    H113567   6.821   4.926   2.417
 4542TIP3    H213568   6.877   4.923   2.557
 4543TIP3   OH213569   1.566   7.467   6.040
 4543TIP3    H113570   1.553   7.399   6.106
 4543TIP3    H213571   1.493   7.527   6.052
 4544TIP3   OH213572   1.813   0.427   3.696
 4544TIP3    H113573   1.869   0.492   3.653
 4544TIP3    H213574   1.822   0.348   3.643
 4545TIP3   OH213575   3.149   7.126   6.571
 4545TIP3    H113576   3.115   7.213   6.594
 4545TIP3    H213577   3.171   7.087   6.655
 4546TIP3   OH213578   7.719   0.071   3.342
 4546TIP3    H113579   7.762  -0.005   3.304
 4546TIP3    H213580   7.626   0.053   3.333
 4547TIP3   OH213581   4.550   4.818   0.874
 4547TIP3    H113582   4.576   4.876   0.803
 4547TIP3    H213583   4.521   4.738   0.830
 4548TIP3   OH213584   5.164   2.856   5.234
 4548TIP3    H113585   5.219   2.835   5.159
 4548TIP3    H213586   5.187   2.947   5.255
 4549TIP3   OH213587   8.319   1.856   5.339
 4549TIP3    H113588   8.367   1.848   5.421
 4549TIP3    H213589   8.326   1.770   5.298
 4550TIP3   OH213590   5.927   5.999   3.082
 4550TIP3    H113591   6.022   5.988   3.072
 4550TIP3    H213592   5.910   5.975   3.174
 4551TIP3   OH213593   7.404   0.318   5.298
 4551TIP3    H113594   7.364   0.231   5.299
 4551TIP3    H213595   7.338   0.375   5.337
 4552TIP3   OH213596   2.092   1.313   2.200
 4552TIP3    H113597   2.153   1.384   2.181
 4552TIP3    H213598   2.142   1.233   2.180
 4553TIP3   OH213599   0.603   2.765   3.016
 4553TIP3    H113600   0.693   2.737   2.999
 4553TIP3    H213601   0.611   2.835   3.080
 4554TIP3   OH213602   7.015   1.140   3.584
 4554TIP3    H113603   7.023   1.217   3.641
 4554TIP3    H213604   7.013   1.177   3.495
 4555TIP3   OH213605   5.029   7.381   0.237
 4555TIP3    H113606   4.971   7.307   0.220
 4555TIP3    H213607   5.102   7.343   0.286
 4556TIP3   OH213608   3.213   7.479   2.819
 4556TIP3    H113609   3.230   7.521   2.903
 4556TIP3    H213610   3.145   7.532   2.779
 4557TIP3   OH213611   7.882   2.184   4.422
 4557TIP3    H113612   7.881   2.105   4.475
 4557TIP3    H213613   7.901   2.154   4.333
 4558TIP3   OH213614   3.259   7.310   1.858
 4558TIP3    H113615   3.220   7.378   1.913
 4558TIP3    H213616   3.186   7.256   1.831
 4559TIP3   OH213617   4.065   5.632   2.814
 4559TIP3    H113618   4.076   5.669   2.726
 4559TIP3    H213619   4.144   5.580   2.827
 4560TIP3   OH213620   7.445   6.682   2.998
 4560TIP3    H113621   7.457   6.767   3.040
 4560TIP3    H213622   7.428   6.702   2.907
 4561TIP3   OH213623   4.732   4.175   5.231
 4561TIP3    H113624   4.735   4.267   5.207
 4561TIP3    H213625   4.822   4.144   5.217
 4562TIP3   OH213626   2.538   1.618   6.110
 4562TIP3    H113627   2.631   1.596   6.101
 4562TIP3    H213628   2.496   1.535   6.133
 4563TIP3   OH213629   6.147   1.387   1.056
 4563TIP3    H113630   6.238   1.376   1.029
 4563TIP3    H213631   6.131   1.313   1.115
 4564TIP3   OH213632   4.359   4.425   5.793
 4564TIP3    H113633   4.363   4.498   5.855
 4564TIP3    H213634   4.270   4.391   5.802
 4565TIP3   OH213635   2.179   2.557   3.836
 4565TIP3    H113636   2.204   2.472   3.870
 4565TIP3    H213637   2.260   2.607   3.831
 4566TIP3   OH213638   5.183   7.678   3.019
 4566TIP3    H113639   5.224   7.691   2.933
 4566TIP3    H213640   5.248   7.628   3.069
 4567TIP3   OH213641   5.931   1.458   0.388
 4567TIP3    H113642   5.910   1.365   0.400
 4567TIP3    H213643   5.906   1.499   0.471
 4568TIP3   OH213644   6.929   5.184   2.661
 4568TIP3    H113645   6.883   5.130   2.597
 4568TIP3    H213646   6.896   5.154   2.746
 4569TIP3   OH213647   5.840   1.463   2.725
 4569TIP3    H113648   5.924   1.427   2.699
 4569TIP3    H213649   5.827   1.538   2.666
 4570TIP3   OH213650   0.591   3.970   6.546
 4570TIP3    H113651   0.648   3.901   6.512
 4570TIP3    H213652   0.507   3.927   6.561
 4571TIP3   OH213653   4.371   4.976   5.728
 4571TIP3    H113654   4.463   4.952   5.733
 4571TIP3    H213655   4.334   4.945   5.811
 4572TIP3   OH213656   0.852   4.788   2.263
 4572TIP3    H113657   0.847   4.821   2.174
 4572TIP3    H213658   0.777   4.827   2.308
 4573TIP3   OH213659   3.026   7.434   3.766
 4573TIP3    H113660   3.031   7.393   3.680
 4573TIP3    H213661   2.939   7.411   3.799
 4574TIP3   OH213662   3.056   3.933   3.702
 4574TIP3    H113663   3.041   3.887   3.785
 4574TIP3    H213664   3.021   3.874   3.636
 4575TIP3   OH213665   7.750   3.534   6.227
 4575TIP3    H113666   7.769   3.524   6.320
 4575TIP3    H213667   7.655   3.523   6.220
 4576TIP3   OH213668   6.601   1.901   3.068
 4576TIP3    H113669   6.619   1.966   3.000
 4576TIP3    H213670   6.578   1.953   3.145
 4577TIP3   OH213671   6.127   1.848   5.791
 4577TIP3    H113672   6.222   1.843   5.786
 4577TIP3    H213673   6.096   1.760   5.767
 4578TIP3   OH213674   5.885   2.216   2.043
 4578TIP3    H113675   5.924   2.206   2.130
 4578TIP3    H213676   5.939   2.283   2.000
 4579TIP3   OH213677   4.718   6.170   5.644
 4579TIP3    H113678   4.695   6.261   5.660
 4579TIP3    H213679   4.814   6.168   5.650
 4580TIP3   OH213680   7.249   6.019   5.740
 4580TIP3    H113681   7.298   6.101   5.742
 4580TIP3    H213682   7.315   5.951   5.738
 4581TIP3   OH213683   4.811   4.161   0.704
 4581TIP3    H113684   4.898   4.143   0.741
 4581TIP3    H213685   4.827   4.225   0.635
 4582TIP3   OH213686   2.699   4.375   6.666
 4582TIP3    H113687   2.773   4.314   6.662
 4582TIP3    H213688   2.726   4.451   6.615
 4583TIP3   OH213689   4.993   3.753   6.853
 4583TIP3    H113690   4.988   3.779   6.761
 4583TIP3    H213691   5.086   3.738   6.869
 4584TIP3   OH213692   2.274   3.733   0.606
 4584TIP3    H113693   2.197   3.769   0.564
 4584TIP3    H213694   2.322   3.810   0.638
 4585TIP3   OH213695   7.640   1.478   1.709
 4585TIP3    H113696   7.693   1.401   1.686
 4585TIP3    H213697   7.598   1.453   1.792
 4586TIP3   OH213698   1.390   4.478   2.210
 4586TIP3    H113699   1.366   4.471   2.303
 4586TIP3    H213700   1.470   4.427   2.202
 4587TIP3   OH213701   2.598   1.665   4.905
 4587TIP3    H113702   2.692   1.649   4.905
 4587TIP3    H213703   2.568   1.636   4.818
 4588TIP3   OH213704   8.241   6.124   1.837
 4588TIP3    H113705   8.198   6.153   1.917
 4588TIP3    H213706   8.285   6.201   1.803
 4589TIP3   OH213707   8.344   2.420   0.634
 4589TIP3    H113708   8.309   2.509   0.627
 4589TIP3    H213709   8.438   2.431   0.621
 4590TIP3   OH213710   5.785   5.029   0.417
 4590TIP3    H113711   5.845   4.967   0.375
 4590TIP3    H213712   5.702   4.982   0.423
 4591TIP3   OH213713   5.473   3.112   4.202
 4591TIP3    H113714   5.455   3.134   4.110
 4591TIP3    H213715   5.492   3.018   4.200
 4592TIP3   OH213716   7.675   7.728   2.829
 4592TIP3    H113717   7.581   7.735   2.816
 4592TIP3    H213718   7.684   7.700   2.921
 4593TIP3   OH213719   3.672   2.671   1.942
 4593TIP3    H113720   3.658   2.700   2.032
 4593TIP3    H213721   3.601   2.608   1.926
 4594TIP3   OH213722   5.053   3.007   0.667
 4594TIP3    H113723   4.979   2.946   0.671
 4594TIP3    H213724   5.055   3.048   0.753
 4595TIP3   OH213725   5.762   7.823   3.121
 4595TIP3    H113726   5.675   7.851   3.149
 4595TIP3    H213727   5.786   7.885   3.052
 4596TIP3   OH213728   3.392   4.734   6.422
 4596TIP3    H113729   3.312   4.713   6.374
 4596TIP3    H213730   3.362   4.790   6.493
 4597TIP3   OH213731   2.993   0.381   2.642
 4597TIP3    H113732   2.923   0.366   2.706
 4597TIP3    H213733   2.949   0.381   2.557
 4598TIP3   OH213734   6.498   4.170   2.968
 4598TIP3    H113735   6.554   4.232   3.015
 4598TIP3    H213736   6.529   4.084   2.994
 4599TIP3   OH213737   4.525   4.082   4.738
 4599TIP3    H113738   4.505   4.084   4.645
 4599TIP3    H213739   4.439   4.087   4.781
 4600TIP3   OH213740   3.036   3.818   3.969
 4600TIP3    H113741   3.004   3.869   4.043
 4600TIP3    H213742   3.072   3.739   4.008
 4601TIP3   OH213743   4.351   4.701   6.576
 4601TIP3    H113744   4.405   4.680   6.652
 4601TIP3    H213745   4.414   4.723   6.507
 4602TIP3   OH213746   2.467   6.414   5.048
 4602TIP3    H113747   2.422   6.449   5.125
 4602TIP3    H213748   2.401   6.416   4.979
 4603TIP3   OH213749   6.575   3.494   0.753
 4603TIP3    H113750   6.666   3.468   0.762
 4603TIP3    H213751   6.545   3.450   0.674
 4604TIP3   OH213752   1.256   7.727   5.645
 4604TIP3    H113753   1.188   7.794   5.648
 4604TIP3    H213754   1.325   7.760   5.704
 4605TIP3   OH213755   0.816   1.128   4.631
 4605TIP3    H113756   0.882   1.066   4.599
 4605TIP3    H213757   0.842   1.146   4.722
 4606TIP3   OH213758   7.057   4.800   0.512
 4606TIP3    H113759   7.014   4.882   0.485
 4606TIP3    H213760   7.089   4.818   0.600
 4607TIP3   OH213761   0.401   4.993   6.489
 4607TIP3    H113762   0.367   5.046   6.561
 4607TIP3    H213763   0.450   5.055   6.435
 4608TIP3   OH213764   0.764   4.259   1.334
 4608TIP3    H113765   0.747   4.272   1.428
 4608TIP3    H213766   0.847   4.304   1.318
 4609TIP3   OH213767   2.306   4.010   6.656
 4609TIP3    H113768   2.367   3.954   6.704
 4609TIP3    H213769   2.336   4.006   6.565
 4610TIP3   OH213770   7.933   3.312   0.346
 4610TIP3    H113771   8.024   3.339   0.361
 4610TIP3    H213772   7.887   3.394   0.330
 4611TIP3   OH213773   3.094   7.404   6.535
 4611TIP3    H113774   3.121   7.430   6.447
 4611TIP3    H213775   3.132   7.471   6.592
 4612TIP3   OH213776   6.887   7.838   1.258
 4612TIP3    H113777   6.902   7.929   1.235
 4612TIP3    H213778   6.910   7.789   1.179
 4613TIP3   OH213779   4.131   3.731   1.273
 4613TIP3    H113780   4.220   3.709   1.302
 4613TIP3    H213781   4.143   3.799   1.207
 4614TIP3   OH213782   5.813   3.714   1.961
 4614TIP3    H113783   5.769   3.793   1.929
 4614TIP3    H213784   5.881   3.695   1.897
 4615TIP3   OH213785   2.339   1.768   4.892
 4615TIP3    H113786   2.294   1.719   4.961
 4615TIP3    H213787   2.432   1.754   4.909
 4616TIP3   OH213788   3.410   7.789   4.663
 4616TIP3    H113789   3.388   7.848   4.736
 4616TIP3    H213790   3.444   7.710   4.706
 4617TIP3   OH213791   0.732   5.990   0.185
 4617TIP3    H113792   0.752   5.996   0.278
 4617TIP3    H213793   0.638   6.007   0.180
 4618TIP3   OH213794   1.320   1.301   4.680
 4618TIP3    H113795   1.412   1.283   4.659
 4618TIP3    H213796   1.306   1.257   4.763
 4619TIP3   OH213797   4.022   0.734   6.797
 4619TIP3    H113798   3.955   0.798   6.819
 4619TIP3    H213799   4.103   0.771   6.832
 4620TIP3   OH213800   7.574   2.959   0.512
 4620TIP3    H113801   7.618   2.878   0.488
 4620TIP3    H213802   7.631   3.028   0.479
 4621TIP3   OH213803   4.923   7.239   1.439
 4621TIP3    H113804   4.917   7.332   1.461
 4621TIP3    H213805   4.870   7.195   1.506
 4622TIP3   OH213806   3.146   6.410   4.467
 4622TIP3    H113807   3.069   6.444   4.513
 4622TIP3    H213808   3.147   6.316   4.488
 4623TIP3   OH213809   2.127   2.098   4.543
 4623TIP3    H113810   2.041   2.057   4.543
 4623TIP3    H213811   2.188   2.024   4.545
 4624TIP3   OH213812   3.498   7.772   5.445
 4624TIP3    H113813   3.555   7.820   5.384
 4624TIP3    H213814   3.552   7.698   5.475
 4625TIP3   OH213815   8.195   5.898   3.825
 4625TIP3    H113816   8.244   5.949   3.761
 4625TIP3    H213817   8.203   5.807   3.796
 4626TIP3   OH213818   6.292   4.096   1.155
 4626TIP3    H113819   6.381   4.062   1.156
 4626TIP3    H213820   6.245   4.042   1.092
 4627TIP3   OH213821   3.387   2.906   3.992
 4627TIP3    H113822   3.430   2.967   3.932
 4627TIP3    H213823   3.441   2.908   4.071
 4628TIP3   OH213824   7.445   6.927   4.433
 4628TIP3    H113825   7.459   6.847   4.482
 4628TIP3    H213826   7.472   6.997   4.492
 4629TIP3   OH213827   1.098   3.457   3.303
 4629TIP3    H113828   1.087   3.551   3.286
 4629TIP3    H213829   1.130   3.421   3.220
 4630TIP3   OH213830   5.050   5.629   3.919
 4630TIP3    H113831   5.040   5.543   3.961
 4630TIP3    H213832   4.976   5.634   3.858
 4631TIP3   OH213833   1.931   5.488   3.038
 4631TIP3    H113834   1.882   5.568   3.057
 4631TIP3    H213835   1.976   5.466   3.119
 4632TIP3   OH213836   6.237   5.255   6.257
 4632TIP3    H113837   6.211   5.194   6.188
 4632TIP3    H213838   6.233   5.204   6.338
 4633TIP3   OH213839   4.486   0.623   4.937
 4633TIP3    H113840   4.419   0.555   4.942
 4633TIP3    H213841   4.450   0.696   4.988
 4634TIP3   OH213842   0.398   5.353   6.438
 4634TIP3    H113843   0.311   5.375   6.473
 4634TIP3    H213844   0.436   5.438   6.415
 4635TIP3   OH213845   4.205   2.768   0.176
 4635TIP3    H113846   4.290   2.753   0.217
 4635TIP3    H213847   4.178   2.855   0.207
 4636TIP3   OH213848   7.093   7.008   6.328
 4636TIP3    H113849   7.169   7.018   6.385
 4636TIP3    H213850   7.017   7.024   6.385
 4637TIP3   OH213851   1.332   1.577   5.242
 4637TIP3    H113852   1.401   1.623   5.195
 4637TIP3    H213853   1.335   1.487   5.208
 4638TIP3   OH213854   6.895   1.867   3.961
 4638TIP3    H113855   6.914   1.860   4.055
 4638TIP3    H213856   6.896   1.961   3.944
 4639TIP3   OH213857   7.921   4.703   3.212
 4639TIP3    H113858   7.829   4.716   3.231
 4639TIP3    H213859   7.967   4.754   3.279
 4640TIP3   OH213860   6.267   6.252   4.875
 4640TIP3    H113861   6.310   6.336   4.860
 4640TIP3    H213862   6.332   6.186   4.849
 4641TIP3   OH213863   1.047   6.738   5.976
 4641TIP3    H113864   1.079   6.651   6.001
 4641TIP3    H213865   1.095   6.799   6.031
 4642TIP3   OH213866   3.605   5.548   3.829
 4642TIP3    H113867   3.656   5.586   3.900
 4642TIP3    H213868   3.667   5.538   3.757
 4643TIP3   OH213869   0.152   3.759   4.504
 4643TIP3    H113870   0.143   3.741   4.410
 4643TIP3    H213871   0.106   3.843   4.516
 4644TIP3   OH213872   7.105   1.422   5.075
 4644TIP3    H113873   7.185   1.456   5.114
 4644TIP3    H213874   7.045   1.411   5.149
 4645TIP3   OH213875   2.274   5.184   0.468
 4645TIP3    H113876   2.256   5.090   0.470
 4645TIP3    H213877   2.218   5.218   0.398
 4646TIP3   OH213878   4.898   4.813   3.343
 4646TIP3    H113879   4.881   4.853   3.258
 4646TIP3    H213880   4.984   4.845   3.369
 4647TIP3   OH213881   4.354   5.223   0.326
 4647TIP3    H113882   4.351   5.144   0.273
 4647TIP3    H213883   4.427   5.274   0.290
 4648TIP3   OH213884   5.476   3.742   5.616
 4648TIP3    H113885   5.450   3.652   5.600
 4648TIP3    H213886   5.512   3.772   5.532
 4649TIP3   OH213887   3.624   1.870   3.428
 4649TIP3    H113888   3.608   1.788   3.383
 4649TIP3    H213889   3.670   1.845   3.508
 4650TIP3   OH213890   4.343   6.651   4.401
 4650TIP3    H113891   4.343   6.602   4.484
 4650TIP3    H213892   4.250   6.668   4.385
 4651TIP3   OH213893   6.743   5.557   5.332
 4651TIP3    H113894   6.683   5.488   5.361
 4651TIP3    H213895   6.757   5.611   5.410
 4652TIP3   OH213896   1.480   2.150   5.141
 4652TIP3    H113897   1.489   2.100   5.059
 4652TIP3    H213898   1.436   2.231   5.115
 4653TIP3   OH213899   1.406   4.826   3.568
 4653TIP3    H113900   1.338   4.816   3.501
 4653TIP3    H213901   1.474   4.877   3.524
 4654TIP3   OH213902   3.943   1.672   1.804
 4654TIP3    H113903   3.940   1.580   1.778
 4654TIP3    H213904   3.852   1.697   1.817
 4655TIP3   OH213905   2.182   1.674   6.109
 4655TIP3    H113906   2.118   1.704   6.173
 4655TIP3    H213907   2.266   1.709   6.141
 4656TIP3   OH213908   2.522   0.533   6.349
 4656TIP3    H113909   2.472   0.476   6.407
 4656TIP3    H213910   2.456   0.590   6.309
 4657TIP3   OH213911   4.909   5.483   1.719
 4657TIP3    H113912   4.964   5.511   1.791
 4657TIP3    H213913   4.943   5.397   1.694
 4658TIP3   OH213914   1.646   2.597   5.984
 4658TIP3    H113915   1.578   2.600   5.916
 4658TIP3    H213916   1.637   2.680   6.031
 4659TIP3   OH213917   1.793   3.042   4.252
 4659TIP3    H113918   1.826   2.953   4.264
 4659TIP3    H213919   1.716   3.048   4.308
 4660TIP3   OH213920   4.947   6.398   6.581
 4660TIP3    H113921   4.967   6.396   6.488
 4660TIP3    H213922   4.866   6.348   6.590
 4661TIP3   OH213923   8.289   1.940   1.977
 4661TIP3    H113924   8.378   1.956   1.948
 4661TIP3    H213925   8.239   2.013   1.942
 4662TIP3   OH213926   3.616   0.244   3.532
 4662TIP3    H113927   3.591   0.198   3.612
 4662TIP3    H213928   3.612   0.178   3.464
 4663TIP3   OH213929   5.514   2.979   6.723
 4663TIP3    H113930   5.447   2.933   6.773
 4663TIP3    H213931   5.530   3.060   6.771
 4664TIP3   OH213932   6.073   0.088   0.369
 4664TIP3    H113933   6.165   0.095   0.395
 4664TIP3    H213934   6.069   0.131   0.284
 4665TIP3   OH213935   4.254   4.016   6.679
 4665TIP3    H113936   4.269   3.932   6.635
 4665TIP3    H213937   4.285   4.082   6.616
 4666TIP3   OH213938   1.044   2.581   2.860
 4666TIP3    H113939   1.128   2.626   2.872
 4666TIP3    H213940   1.056   2.496   2.902
 4667TIP3   OH213941   4.921   6.662   3.710
 4667TIP3    H113942   4.830   6.694   3.710
 4667TIP3    H213943   4.953   6.683   3.622
 4668TIP3   OH213944   8.240   3.233   3.116
 4668TIP3    H113945   8.203   3.306   3.068
 4668TIP3    H213946   8.333   3.254   3.124
 4669TIP3   OH213947   3.648   2.158   5.575
 4669TIP3    H113948   3.621   2.181   5.486
 4669TIP3    H213949   3.727   2.105   5.563
 4670TIP3   OH213950   7.398   7.706   1.634
 4670TIP3    H113951   7.442   7.654   1.702
 4670TIP3    H213952   7.309   7.669   1.631
 4671TIP3   OH213953   4.522   2.378   6.350
 4671TIP3    H113954   4.493   2.288   6.337
 4671TIP3    H213955   4.593   2.390   6.287
 4672TIP3   OH213956   4.570   6.165   2.758
 4672TIP3    H113957   4.556   6.194   2.668
 4672TIP3    H213958   4.482   6.156   2.795
 4673TIP3   OH213959   2.740   3.538   3.918
 4673TIP3    H113960   2.687   3.558   3.841
 4673TIP3    H213961   2.684   3.480   3.971
 4674TIP3   OH213962   7.201   6.131   2.902
 4674TIP3    H113963   7.213   6.070   2.829
 4674TIP3    H213964   7.247   6.210   2.874
 4675TIP3   OH213965   4.188   7.493   0.895
 4675TIP3    H113966   4.259   7.442   0.936
 4675TIP3    H213967   4.183   7.572   0.948
 4676TIP3   OH213968   3.270   4.527   2.272
 4676TIP3    H113969   3.240   4.606   2.228
 4676TIP3    H213970   3.364   4.525   2.257
 4677TIP3   OH213971   5.952   7.269   0.980
 4677TIP3    H113972   5.891   7.227   1.041
 4677TIP3    H213973   5.903   7.275   0.898
 4678TIP3   OH213974   4.039   7.452   5.918
 4678TIP3    H113975   4.020   7.467   5.826
 4678TIP3    H213976   4.134   7.437   5.921
 4679TIP3   OH213977   7.618   4.571   4.697
 4679TIP3    H113978   7.657   4.500   4.749
 4679TIP3    H213979   7.569   4.623   4.760
 4680TIP3   OH213980   7.818   0.552   3.645
 4680TIP3    H113981   7.770   0.627   3.679
 4680TIP3    H213982   7.910   0.572   3.663
 4681TIP3   OH213983   6.200   3.205   0.192
 4681TIP3    H113984   6.172   3.162   0.111
 4681TIP3    H213985   6.144   3.167   0.260
 4682TIP3   OH213986  -0.047   0.403   4.298
 4682TIP3    H113987  -0.004   0.318   4.289
 4682TIP3    H213988   0.016   0.465   4.262
 4683TIP3   OH213989   5.857   4.616   4.800
 4683TIP3    H113990   5.854   4.566   4.719
 4683TIP3    H213991   5.832   4.553   4.868
 4684TIP3   OH213992   4.810   0.157   2.392
 4684TIP3    H113993   4.877   0.089   2.387
 4684TIP3    H213994   4.850   0.233   2.348
 4685TIP3   OH213995   2.966   1.512   4.189
 4685TIP3    H113996   3.003   1.429   4.219
 4685TIP3    H213997   3.015   1.578   4.237
 4686TIP3   OH213998   4.406   1.032   6.275
 4686TIP3    H113999   4.382   1.091   6.203
 4686TIP3    H214000   4.445   1.089   6.341
 4687TIP3   OH214001   2.300   3.492   1.498
 4687TIP3    H114002   2.215   3.530   1.518
 4687TIP3    H214003   2.293   3.400   1.525
 4688TIP3   OH214004   2.150   7.073   5.929
 4688TIP3    H114005   2.107   6.987   5.924
 4688TIP3    H214006   2.107   7.125   5.861
 4689TIP3   OH214007   7.227   1.097   2.042
 4689TIP3    H114008   7.146   1.053   2.017
 4689TIP3    H214009   7.262   1.045   2.114
 4690TIP3   OH214010   1.648   2.498   4.746
 4690TIP3    H114011   1.680   2.415   4.711
 4690TIP3    H214012   1.600   2.538   4.674
 4691TIP3   OH214013   5.893   1.284   4.129
 4691TIP3    H114014   5.958   1.255   4.194
 4691TIP3    H214015   5.899   1.219   4.059
 4692TIP3   OH214016   7.693   6.528   6.364
 4692TIP3    H114017   7.781   6.516   6.398
 4692TIP3    H214018   7.672   6.445   6.321
 4693TIP3   OH214019   0.922   3.287   5.669
 4693TIP3    H114020   0.832   3.320   5.662
 4693TIP3    H214021   0.977   3.363   5.652
 4694TIP3   OH214022   3.141   5.107   3.164
 4694TIP3    H114023   3.182   5.117   3.250
 4694TIP3    H214024   3.148   5.014   3.145
 4695TIP3   OH214025   2.635   0.089   4.959
 4695TIP3    H114026   2.702   0.157   4.952
 4695TIP3    H214027   2.654   0.046   5.043
 4696TIP3   OH214028   0.666   6.575   5.268
 4696TIP3    H114029   0.756   6.601   5.289
 4696TIP3    H214030   0.655   6.489   5.309
 4697TIP3   OH214031   6.859   1.448   3.171
 4697TIP3    H114032   6.850   1.508   3.245
 4697TIP3    H214033   6.782   1.466   3.117
 4698TIP3   OH214034   0.535   5.231   2.200
 4698TIP3    H114035   0.529   5.310   2.254
 4698TIP3    H214036   0.449   5.190   2.206
 4699TIP3   OH214037   8.321   5.678   0.173
 4699TIP3    H114038   8.249   5.620   0.149
 4699TIP3    H214039   8.328   5.668   0.268
 4700TIP3   OH214040   2.103   7.500   5.674
 4700TIP3    H114041   2.152   7.566   5.723
 4700TIP3    H214042   2.106   7.530   5.583
 4701TIP3   OH214043   2.787   4.859   5.963
 4701TIP3    H114044   2.807   4.931   5.903
 4701TIP3    H214045   2.866   4.805   5.963
 4702TIP3   OH214046   0.802   7.633   2.595
 4702TIP3    H114047   0.896   7.616   2.584
 4702TIP3    H214048   0.763   7.602   2.514
 4703TIP3   OH214049   5.594   4.923   6.606
 4703TIP3    H114050   5.558   4.842   6.641
 4703TIP3    H214051   5.656   4.953   6.672
 4704TIP3   OH214052   1.015   2.158   6.010
 4704TIP3    H114053   0.937   2.213   6.014
 4704TIP3    H214054   0.981   2.070   5.993
 4705TIP3   OH214055   8.115   3.225   1.224
 4705TIP3    H114056   8.040   3.229   1.164
 4705TIP3    H214057   8.125   3.132   1.242
 4706TIP3   OH214058   7.966   3.363   3.658
 4706TIP3    H114059   8.033   3.415   3.615
 4706TIP3    H214060   7.956   3.403   3.745
 4707TIP3   OH214061   6.409   5.693   2.986
 4707TIP3    H114062   6.491   5.700   3.034
 4707TIP3    H214063   6.365   5.777   3.000
 4708TIP3   OH214064   6.324   6.435   2.786
 4708TIP3    H114065   6.329   6.515   2.734
 4708TIP3    H214066   6.368   6.369   2.732
 4709TIP3   OH214067   7.097   7.677   4.540
 4709TIP3    H114068   7.135   7.592   4.564
 4709TIP3    H214069   7.171   7.729   4.511
 4710TIP3   OH214070   6.478   4.824   0.901
 4710TIP3    H114071   6.563   4.797   0.936
 4710TIP3    H214072   6.456   4.903   0.950
 4711TIP3   OH214073   3.951   0.567   1.353
 4711TIP3    H114074   3.931   0.482   1.391
 4711TIP3    H214075   3.908   0.630   1.410
 4712TIP3   OH214076   0.544   0.977   4.626
 4712TIP3    H114077   0.481   1.013   4.689
 4712TIP3    H214078   0.617   1.039   4.629
 4713TIP3   OH214079   4.816   5.424   1.422
 4713TIP3    H114080   4.829   5.461   1.509
 4713TIP3    H214081   4.778   5.338   1.438
 4714TIP3   OH214082   2.931   2.187   2.932
 4714TIP3    H114083   2.989   2.260   2.911
 4714TIP3    H214084   2.904   2.152   2.847
 4715TIP3   OH214085   0.559   6.932   1.909
 4715TIP3    H114086   0.506   6.975   1.977
 4715TIP3    H214087   0.623   6.998   1.884
 4716TIP3   OH214088   3.149   6.163   6.276
 4716TIP3    H114089   3.101   6.155   6.193
 4716TIP3    H214090   3.220   6.100   6.269
 4717TIP3   OH214091   2.301   3.480   0.421
 4717TIP3    H114092   2.309   3.543   0.492
 4717TIP3    H214093   2.259   3.404   0.460
 4718TIP3   OH214094   2.492   2.819   3.097
 4718TIP3    H114095   2.547   2.851   3.169
 4718TIP3    H214096   2.459   2.899   3.056
 4719TIP3   OH214097   1.320   6.553   4.733
 4719TIP3    H114098   1.366   6.472   4.757
 4719TIP3    H214099   1.349   6.571   4.644
 4720TIP3   OH214100   1.761   4.906   2.896
 4720TIP3    H114101   1.839   4.911   2.951
 4720TIP3    H214102   1.688   4.900   2.958
 4721TIP3   OH214103   1.839   0.945   4.794
 4721TIP3    H114104   1.810   0.869   4.845
 4721TIP3    H214105   1.845   1.016   4.857
 4722TIP3   OH214106   1.329   2.004   5.619
 4722TIP3    H114107   1.371   1.981   5.537
 4722TIP3    H214108   1.249   2.051   5.593
 4723TIP3   OH214109   5.935   7.367   5.786
 4723TIP3    H114110   5.842   7.386   5.802
 4723TIP3    H214111   5.938   7.343   5.694
 4724TIP3   OH214112   4.215   2.170   4.772
 4724TIP3    H114113   4.192   2.092   4.821
 4724TIP3    H214114   4.131   2.206   4.743
 4725TIP3   OH214115   5.541   5.213   6.559
 4725TIP3    H114116   5.604   5.144   6.582
 4725TIP3    H214117   5.478   5.213   6.631
 4726TIP3   OH214118   2.908   6.845   2.021
 4726TIP3    H114119   2.998   6.830   1.990
 4726TIP3    H214120   2.894   6.777   2.087
 4727TIP3   OH214121   5.452   6.327   0.752
 4727TIP3    H114122   5.472   6.368   0.836
 4727TIP3    H214123   5.484   6.237   0.761
 4728TIP3   OH214124   4.393   7.665   0.303
 4728TIP3    H114125   4.411   7.587   0.355
 4728TIP3    H214126   4.472   7.678   0.251
 4729TIP3   OH214127   6.809   0.591   0.430
 4729TIP3    H114128   6.805   0.547   0.345
 4729TIP3    H214129   6.733   0.558   0.477
 4730TIP3   OH214130   3.291   4.605   3.796
 4730TIP3    H114131   3.376   4.596   3.839
 4730TIP3    H214132   3.284   4.528   3.741
 4731TIP3   OH214133   2.200   1.113   3.715
 4731TIP3    H114134   2.258   1.127   3.790
 4731TIP3    H214135   2.162   1.199   3.698
 4732TIP3   OH214136   5.964   6.691   1.893
 4732TIP3    H114137   6.058   6.696   1.909
 4732TIP3    H214138   5.955   6.710   1.799
 4733TIP3   OH214139   0.546   8.010   5.302
 4733TIP3    H114140   0.455   8.011   5.330
 4733TIP3    H214141   0.571   7.918   5.304
 4734TIP3   OH214142   8.038   2.689   1.230
 4734TIP3    H114143   7.947   2.715   1.215
 4734TIP3    H214144   8.086   2.725   1.156
 4735TIP3   OH214145   7.175   5.963   3.105
 4735TIP3    H114146   7.160   6.042   3.052
 4735TIP3    H214147   7.268   5.942   3.090
 4736TIP3   OH214148   4.379   5.080   6.491
 4736TIP3    H114149   4.291   5.046   6.476
 4736TIP3    H214150   4.378   5.112   6.581
 4737TIP3   OH214151   4.366   1.084   1.517
 4737TIP3    H114152   4.274   1.110   1.519
 4737TIP3    H214153   4.366   0.994   1.485
 4738TIP3   OH214154   3.951   5.735   3.350
 4738TIP3    H114155   3.979   5.717   3.261
 4738TIP3    H214156   3.888   5.806   3.342
 4739TIP3   OH214157   2.186   5.664   0.211
 4739TIP3    H114158   2.278   5.642   0.225
 4739TIP3    H214159   2.169   5.640   0.120
 4740TIP3   OH214160   1.222   3.817   1.168
 4740TIP3    H114161   1.239   3.727   1.194
 4740TIP3    H214162   1.298   3.842   1.116
 4741TIP3   OH214163   3.703   5.771   5.010
 4741TIP3    H114164   3.798   5.778   5.003
 4741TIP3    H214165   3.672   5.861   4.998
 4742TIP3   OH214166   5.402   6.136   6.437
 4742TIP3    H114167   5.479   6.094   6.398
 4742TIP3    H214168   5.434   6.221   6.467
 4743TIP3   OH214169   3.080   1.998   6.338
 4743TIP3    H114170   3.002   1.961   6.297
 4743TIP3    H214171   3.118   2.055   6.270
 4744TIP3   OH214172   4.740   4.517   6.435
 4744TIP3    H114173   4.805   4.469   6.383
 4744TIP3    H214174   4.746   4.607   6.403
 4745TIP3   OH214175   5.320   5.645   4.839
 4745TIP3    H114176   5.350   5.587   4.769
 4745TIP3    H214177   5.318   5.732   4.800
 4746TIP3   OH214178   7.349   5.004   2.697
 4746TIP3    H114179   7.315   5.093   2.699
 4746TIP3    H214180   7.360   4.980   2.789
 4747TIP3   OH214181   7.524   6.171   2.847
 4747TIP3    H114182   7.537   6.216   2.931
 4747TIP3    H214183   7.448   6.212   2.808
 4748TIP3   OH214184   3.610   5.649   1.624
 4748TIP3    H114185   3.632   5.605   1.542
 4748TIP3    H214186   3.564   5.582   1.675
 4749TIP3   OH214187   3.645   5.364   0.075
 4749TIP3    H114188   3.625   5.356  -0.018
 4749TIP3    H214189   3.705   5.292   0.093
 4750TIP3   OH214190   7.497   4.020   2.436
 4750TIP3    H114191   7.591   4.014   2.451
 4750TIP3    H214192   7.485   3.991   2.346
 4751TIP3   OH214193   3.790   0.267   1.778
 4751TIP3    H114194   3.852   0.340   1.777
 4751TIP3    H214195   3.846   0.190   1.791
 4752TIP3   OH214196   5.057   3.831   6.075
 4752TIP3    H114197   5.060   3.737   6.092
 4752TIP3    H214198   5.062   3.838   5.979
 4753TIP3   OH214199   5.459   5.325   2.023
 4753TIP3    H114200   5.396   5.273   2.072
 4753TIP3    H214201   5.539   5.272   2.023
 4754TIP3   OH214202   4.220   0.715   6.563
 4754TIP3    H114203   4.222   0.809   6.545
 4754TIP3    H214204   4.169   0.707   6.643
 4755TIP3   OH214205   2.541   1.904   0.380
 4755TIP3    H114206   2.514   1.974   0.320
 4755TIP3    H214207   2.591   1.949   0.448
 4756TIP3   OH214208   2.133   6.074   1.522
 4756TIP3    H114209   2.117   6.033   1.437
 4756TIP3    H214210   2.077   6.151   1.523
 4757TIP3   OH214211   5.502   3.570   4.678
 4757TIP3    H114212   5.554   3.602   4.751
 4757TIP3    H214213   5.534   3.619   4.602
 4758TIP3   OH214214   0.070   5.737   5.284
 4758TIP3    H114215   0.129   5.765   5.213
 4758TIP3    H214216   0.116   5.665   5.327
 4759TIP3   OH214217   4.991   5.550   6.113
 4759TIP3    H114218   4.936   5.509   6.047
 4759TIP3    H214219   4.974   5.500   6.193
 4760TIP3   OH214220   4.107   0.094   0.781
 4760TIP3    H114221   4.021   0.069   0.815
 4760TIP3    H214222   4.157   0.118   0.858
 4761TIP3   OH214223   1.466   5.079   1.741
 4761TIP3    H114224   1.410   5.035   1.678
 4761TIP3    H214225   1.426   5.165   1.754
 4762TIP3   OH214226   1.515   6.761   5.258
 4762TIP3    H114227   1.576   6.736   5.327
 4762TIP3    H214228   1.469   6.680   5.235
 4763TIP3   OH214229   0.469   7.841   4.774
 4763TIP3    H114230   0.485   7.909   4.840
 4763TIP3    H214231   0.413   7.883   4.709
 4764TIP3   OH214232   6.830   6.522   2.992
 4764TIP3    H114233   6.857   6.549   3.080
 4764TIP3    H214234   6.771   6.591   2.963
 4765TIP3   OH214235   4.124   3.320   1.624
 4765TIP3    H114236   4.150   3.389   1.686
 4765TIP3    H214237   4.050   3.357   1.577
 4766TIP3   OH214238   6.528   0.547   0.532
 4766TIP3    H114239   6.450   0.601   0.544
 4766TIP3    H214240   6.555   0.523   0.620
 4767TIP3   OH214241   5.169   7.152   6.433
 4767TIP3    H114242   5.158   7.231   6.487
 4767TIP3    H214243   5.102   7.091   6.465
 4768TIP3   OH214244   0.522   7.248   6.663
 4768TIP3    H114245   0.538   7.229   6.571
 4768TIP3    H214246   0.526   7.163   6.707
 4769TIP3   OH214247   5.342   6.296   0.122
 4769TIP3    H114248   5.362   6.209   0.086
 4769TIP3    H214249   5.258   6.284   0.167
 4770TIP3   OH214250   4.356   2.314   4.466
 4770TIP3    H114251   4.288   2.347   4.408
 4770TIP3    H214252   4.355   2.375   4.540
 4771TIP3   OH214253   1.617   6.215   1.798
 4771TIP3    H114254   1.658   6.132   1.775
 4771TIP3    H214255   1.523   6.200   1.787
 4772TIP3   OH214256   6.288   1.495   4.982
 4772TIP3    H114257   6.314   1.571   5.034
 4772TIP3    H214258   6.291   1.422   5.044
 4773TIP3   OH214259   7.282   4.935   3.025
 4773TIP3    H114260   7.307   5.015   3.071
 4773TIP3    H214261   7.365   4.897   2.995
 4774TIP3   OH214262   7.724   6.880   2.752
 4774TIP3    H114263   7.736   6.864   2.846
 4774TIP3    H214264   7.685   6.968   2.747
 4775TIP3   OH214265   0.830   4.060   2.773
 4775TIP3    H114266   0.792   4.021   2.852
 4775TIP3    H214267   0.835   4.153   2.792
 4776TIP3   OH214268   0.438   7.429   0.624
 4776TIP3    H114269   0.503   7.466   0.564
 4776TIP3    H214270   0.423   7.498   0.689
 4777TIP3   OH214271   7.634   0.025   6.098
 4777TIP3    H114272   7.599   0.114   6.101
 4777TIP3    H214273   7.726   0.037   6.077
 4778TIP3   OH214274   2.253   4.233   3.370
 4778TIP3    H114275   2.298   4.316   3.385
 4778TIP3    H214276   2.228   4.203   3.457
 4779TIP3   OH214277   4.751   5.135   1.430
 4779TIP3    H114278   4.663   5.122   1.464
 4779TIP3    H214279   4.741   5.134   1.335
 4780TIP3   OH214280   7.488   2.688   2.014
 4780TIP3    H114281   7.512   2.779   2.031
 4780TIP3    H214282   7.570   2.646   1.986
 4781TIP3   OH214283   2.492   6.360   5.547
 4781TIP3    H114284   2.532   6.421   5.484
 4781TIP3    H214285   2.420   6.409   5.585
 4782TIP3   OH214286   0.871   3.670   2.658
 4782TIP3    H114287   0.855   3.581   2.691
 4782TIP3    H214288   0.801   3.723   2.698
 4783TIP3   OH214289   7.635   4.768   3.387
 4783TIP3    H114290   7.637   4.832   3.459
 4783TIP3    H214291   7.545   4.769   3.356
 4784TIP3   OH214292   1.837   2.495   1.806
 4784TIP3    H114293   1.810   2.485   1.715
 4784TIP3    H214294   1.877   2.411   1.829
 4785TIP3   OH214295   2.966   5.800   5.121
 4785TIP3    H114296   2.878   5.794   5.086
 4785TIP3    H214297   2.959   5.859   5.197
 4786TIP3   OH214298   3.257   7.869   0.608
 4786TIP3    H114299   3.220   7.915   0.533
 4786TIP3    H214300   3.348   7.900   0.612
 4787TIP3   OH214301   4.140   2.725   1.106
 4787TIP3    H114302   4.092   2.781   1.045
 4787TIP3    H214303   4.116   2.757   1.192
 4788TIP3   OH214304   2.797   3.389   6.113
 4788TIP3    H114305   2.752   3.432   6.040
 4788TIP3    H214306   2.763   3.299   6.112
 4789TIP3   OH214307   3.578   1.844   5.476
 4789TIP3    H114308   3.657   1.898   5.478
 4789TIP3    H214309   3.506   1.906   5.489
 4790TIP3   OH214310   4.895   2.857   1.244
 4790TIP3    H114311   4.874   2.798   1.316
 4790TIP3    H214312   4.858   2.815   1.167
 4791TIP3   OH214313   5.727   6.521   3.701
 4791TIP3    H114314   5.633   6.535   3.694
 4791TIP3    H214315   5.758   6.593   3.756
 4792TIP3   OH214316   5.260   5.988   5.150
 4792TIP3    H114317   5.248   5.922   5.219
 4792TIP3    H214318   5.354   6.007   5.151
 4793TIP3   OH214319   5.740   3.094   5.887
 4793TIP3    H114320   5.700   3.016   5.847
 4793TIP3    H214321   5.781   3.140   5.814
 4794TIP3   OH214322   2.010   2.808   0.038
 4794TIP3    H114323   2.051   2.797  -0.048
 4794TIP3    H214324   1.924   2.845   0.019
 4795TIP3   OH214325   0.647   2.707   4.037
 4795TIP3    H114326   0.700   2.677   4.111
 4795TIP3    H214327   0.640   2.802   4.049
 4796TIP3   OH214328   4.029   7.142   1.894
 4796TIP3    H114329   3.978   7.084   1.951
 4796TIP3    H214330   4.051   7.216   1.950
 4797TIP3   OH214331   1.741   6.450   6.570
 4797TIP3    H114332   1.777   6.369   6.533
 4797TIP3    H214333   1.649   6.449   6.544
 4798TIP3   OH214334   3.530   5.398   2.152
 4798TIP3    H114335   3.559   5.435   2.068
 4798TIP3    H214336   3.491   5.314   2.129
 4799TIP3   OH214337   4.623   6.345   1.041
 4799TIP3    H114338   4.643   6.251   1.050
 4799TIP3    H214339   4.647   6.382   1.126
 4800TIP3   OH214340   0.761   7.575   3.784
 4800TIP3    H114341   0.809   7.629   3.723
 4800TIP3    H214342   0.679   7.622   3.799
 4801TIP3   OH214343   4.773   5.509   4.242
 4801TIP3    H114344   4.691   5.476   4.278
 4801TIP3    H214345   4.785   5.594   4.284
 4802TIP3   OH214346   1.570   5.323   5.243
 4802TIP3    H114347   1.622   5.307   5.164
 4802TIP3    H214348   1.634   5.341   5.311
 4803TIP3   OH214349   4.632   1.822   6.787
 4803TIP3    H114350   4.623   1.917   6.780
 4803TIP3    H214351   4.543   1.789   6.777
 4804TIP3   OH214352   2.371   6.890   0.204
 4804TIP3    H114353   2.458   6.852   0.186
 4804TIP3    H214354   2.337   6.912   0.117
 4805TIP3   OH214355   0.961   6.781   4.868
 4805TIP3    H114356   0.932   6.691   4.851
 4805TIP3    H214357   1.053   6.772   4.892
 4806TIP3   OH214358   6.650   5.483   2.980
 4806TIP3    H114359   6.667   5.556   2.920
 4806TIP3    H214360   6.602   5.420   2.927
 4807TIP3   OH214361   1.893   5.561   6.746
 4807TIP3    H114362   1.972   5.601   6.782
 4807TIP3    H214363   1.899   5.576   6.652
 4808TIP3   OH214364   0.088   7.310   3.306
 4808TIP3    H114365   0.033   7.235   3.331
 4808TIP3    H214366   0.037   7.356   3.240
 4809TIP3   OH214367   1.494   0.803   3.609
 4809TIP3    H114368   1.539   0.781   3.528
 4809TIP3    H214369   1.497   0.724   3.662
 4810TIP3   OH214370   0.239   3.136   4.803
 4810TIP3    H114371   0.282   3.148   4.719
 4810TIP3    H214372   0.262   3.214   4.854
 4811TIP3   OH214373   5.962   1.980   5.567
 4811TIP3    H114374   5.981   1.890   5.542
 4811TIP3    H214375   6.035   2.006   5.623
 4812TIP3   OH214376   0.475   1.668   1.690
 4812TIP3    H114377   0.425   1.626   1.620
 4812TIP3    H214378   0.514   1.745   1.648
 4813TIP3   OH214379   3.014   3.723   4.739
 4813TIP3    H114380   2.923   3.717   4.767
 4813TIP3    H214381   3.022   3.658   4.670
 4814TIP3   OH214382   6.258   2.091   6.321
 4814TIP3    H114383   6.297   2.178   6.320
 4814TIP3    H214384   6.181   2.100   6.376
 4815TIP3   OH214385   6.763   5.191   5.323
 4815TIP3    H114386   6.845   5.202   5.273
 4815TIP3    H214387   6.746   5.097   5.320
 4816TIP3   OH214388   2.047   0.948   2.272
 4816TIP3    H114389   2.120   0.985   2.222
 4816TIP3    H214390   2.060   0.853   2.265
 4817TIP3   OH214391   0.231   1.698   3.028
 4817TIP3    H114392   0.145   1.721   3.061
 4817TIP3    H214393   0.218   1.618   2.978
 4818TIP3   OH214394   3.259   7.004   6.369
 4818TIP3    H114395   3.207   7.049   6.435
 4818TIP3    H214396   3.279   6.919   6.407
 4819TIP3   OH214397   8.043   1.752   2.298
 4819TIP3    H114398   8.113   1.817   2.293
 4819TIP3    H214399   7.967   1.796   2.258
 4820TIP3   OH214400   2.189   4.093   1.101
 4820TIP3    H114401   2.243   4.044   1.040
 4820TIP3    H214402   2.239   4.096   1.182
 4821TIP3   OH214403   0.217   6.277   0.103
 4821TIP3    H114404   0.253   6.198   0.062
 4821TIP3    H214405   0.294   6.327   0.130
 4822TIP3   OH214406   0.648   2.864   6.394
 4822TIP3    H114407   0.646   2.912   6.476
 4822TIP3    H214408   0.586   2.792   6.406
 4823TIP3   OH214409   7.214   7.557   2.539
 4823TIP3    H114410   7.291   7.527   2.587
 4823TIP3    H214411   7.174   7.623   2.595
 4824TIP3   OH214412   0.512   0.510   2.529
 4824TIP3    H114413   0.571   0.582   2.507
 4824TIP3    H214414   0.457   0.499   2.452
 4825TIP3   OH214415   4.861   2.610   3.254
 4825TIP3    H114416   4.932   2.581   3.195
 4825TIP3    H214417   4.846   2.536   3.312
 4826TIP3   OH214418   4.732   6.963   5.247
 4826TIP3    H114419   4.701   6.942   5.159
 4826TIP3    H214420   4.706   7.054   5.260
 4827TIP3   OH214421   3.113   7.522   1.563
 4827TIP3    H114422   3.175   7.456   1.592
 4827TIP3    H214423   3.167   7.588   1.519
 4828TIP3   OH214424   3.608   0.544   4.765
 4828TIP3    H114425   3.576   0.530   4.854
 4828TIP3    H214426   3.532   0.576   4.716
 4829TIP3   OH214427   4.248   4.363   0.717
 4829TIP3    H114428   4.238   4.313   0.636
 4829TIP3    H214429   4.281   4.299   0.780
 4830TIP3   OH214430   3.385   7.786   6.176
 4830TIP3    H114431   3.438   7.850   6.128
 4830TIP3    H214432   3.445   7.747   6.239
 4831TIP3   OH214433   7.397   2.106   5.351
 4831TIP3    H114434   7.369   2.188   5.312
 4831TIP3    H214435   7.324   2.079   5.407
 4832TIP3   OH214436   6.356   4.238   0.239
 4832TIP3    H114437   6.391   4.327   0.248
 4832TIP3    H214438   6.408   4.185   0.300
 4833TIP3   OH214439   7.548   0.426   1.443
 4833TIP3    H114440   7.510   0.402   1.527
 4833TIP3    H214441   7.582   0.514   1.455
 4834TIP3   OH214442   7.928   1.758   4.303
 4834TIP3    H114443   7.874   1.681   4.287
 4834TIP3    H214444   8.016   1.724   4.315
 4835TIP3   OH214445   8.399   4.141   0.914
 4835TIP3    H114446   8.419   4.055   0.877
 4835TIP3    H214447   8.406   4.201   0.841
 4836TIP3   OH214448   5.263   6.754   0.517
 4836TIP3    H114449   5.343   6.761   0.569
 4836TIP3    H214450   5.230   6.666   0.536
 4837TIP3   OH214451   4.056   4.037   6.877
 4837TIP3    H114452   4.145   4.021   6.844
 4837TIP3    H214453   4.019   4.101   6.816
 4838TIP3   OH214454   5.981   4.209   5.325
 4838TIP3    H114455   5.994   4.302   5.343
 4838TIP3    H214456   6.035   4.192   5.248
 4839TIP3   OH214457   1.314   0.635   4.734
 4839TIP3    H114458   1.337   0.688   4.810
 4839TIP3    H214459   1.296   0.699   4.665
 4840TIP3   OH214460   6.381   3.564   0.200
 4840TIP3    H114461   6.402   3.488   0.146
 4840TIP3    H214462   6.287   3.579   0.186
 4841TIP3   OH214463   4.379   0.173   2.383
 4841TIP3    H114464   4.304   0.232   2.371
 4841TIP3    H214465   4.425   0.209   2.460
 4842TIP3   OH214466   6.012   6.361   1.081
 4842TIP3    H114467   5.941   6.406   1.126
 4842TIP3    H214468   5.973   6.281   1.048
 4843TIP3   OH214469  -0.008   3.526   4.666
 4843TIP3    H114470  -0.072   3.576   4.615
 4843TIP3    H214471   0.047   3.483   4.600
 4844TIP3   OH214472   1.519   7.366   5.776
 4844TIP3    H114473   1.424   7.354   5.784
 4844TIP3    H214474   1.550   7.371   5.866
 4845TIP3   OH214475   4.298   4.525   2.271
 4845TIP3    H114476   4.286   4.564   2.357
 4845TIP3    H214477   4.367   4.459   2.284
 4846TIP3   OH214478   1.903   6.551   4.088
 4846TIP3    H114479   1.922   6.612   4.159
 4846TIP3    H214480   1.882   6.469   4.132
 4847TIP3   OH214481   2.664   6.150   0.158
 4847TIP3    H114482   2.702   6.217   0.101
 4847TIP3    H214483   2.572   6.177   0.167
 4848TIP3   OH214484   5.945   0.366   0.657
 4848TIP3    H114485   5.926   0.306   0.729
 4848TIP3    H214486   5.878   0.346   0.591
 4849TIP3   OH214487   0.837   7.883   1.788
 4849TIP3    H114488   0.781   7.888   1.866
 4849TIP3    H214489   0.777   7.897   1.715
 4850TIP3   OH214490   7.078   7.161   0.512
 4850TIP3    H114491   7.096   7.121   0.597
 4850TIP3    H214492   7.027   7.096   0.464
 4851TIP3   OH214493   4.710   4.505   5.805
 4851TIP3    H114494   4.784   4.505   5.744
 4851TIP3    H214495   4.643   4.559   5.762
 4852TIP3   OH214496   4.347   5.463   4.622
 4852TIP3    H114497   4.259   5.435   4.648
 4852TIP3    H214498   4.333   5.518   4.545
 4853TIP3   OH214499   7.444   3.225   4.579
 4853TIP3    H114500   7.469   3.247   4.669
 4853TIP3    H214501   7.528   3.208   4.535
 4854TIP3   OH214502   3.307   5.410   1.364
 4854TIP3    H114503   3.340   5.360   1.439
 4854TIP3    H214504   3.317   5.502   1.392
 4855TIP3   OH214505   7.048   3.677   3.422
 4855TIP3    H114506   7.081   3.691   3.333
 4855TIP3    H214507   6.958   3.649   3.410
 4856TIP3   OH214508   5.236   1.833   4.166
 4856TIP3    H114509   5.299   1.835   4.094
 4856TIP3    H214510   5.246   1.746   4.204
 4857TIP3   OH214511   1.751   6.821   1.534
 4857TIP3    H114512   1.771   6.904   1.490
 4857TIP3    H214513   1.835   6.776   1.539
 4858TIP3   OH214514   6.658   5.774   3.069
 4858TIP3    H114515   6.733   5.759   3.011
 4858TIP3    H214516   6.676   5.860   3.108
 4859TIP3   OH214517   5.232   4.462   5.521
 4859TIP3    H114518   5.145   4.496   5.500
 4859TIP3    H214519   5.229   4.445   5.615
 4860TIP3   OH214520   2.403   0.378   4.667
 4860TIP3    H114521   2.349   0.440   4.619
 4860TIP3    H214522   2.349   0.299   4.673
 4861TIP3   OH214523   4.142   2.044   5.592
 4861TIP3    H114524   4.160   1.951   5.606
 4861TIP3    H214525   4.062   2.061   5.642
 4862TIP3   OH214526   6.178   3.194   0.793
 4862TIP3    H114527   6.130   3.261   0.842
 4862TIP3    H214528   6.199   3.127   0.859
 4863TIP3   OH214529   2.891   3.458   3.454
 4863TIP3    H114530   2.808   3.442   3.408
 4863TIP3    H214531   2.947   3.499   3.388
 4864TIP3   OH214532   7.989   6.810   5.395
 4864TIP3    H114533   8.039   6.868   5.453
 4864TIP3    H214534   7.915   6.863   5.366
 4865TIP3   OH214535   3.350   6.625   0.315
 4865TIP3    H114536   3.274   6.615   0.258
 4865TIP3    H214537   3.421   6.581   0.268
 4866TIP3   OH214538   6.534   5.626   2.368
 4866TIP3    H114539   6.490   5.673   2.297
 4866TIP3    H214540   6.473   5.557   2.393
 4867TIP3   OH214541   0.403   2.029   5.647
 4867TIP3    H114542   0.422   2.090   5.718
 4867TIP3    H214543   0.393   2.084   5.569
 4868TIP3   OH214544   8.166   6.040   4.287
 4868TIP3    H114545   8.247   5.993   4.266
 4868TIP3    H214546   8.130   6.066   4.202
 4869TIP3   OH214547   3.743   5.208   3.679
 4869TIP3    H114548   3.793   5.137   3.717
 4869TIP3    H214549   3.789   5.288   3.705
 4870TIP3   OH214550   3.982   5.842   6.172
 4870TIP3    H114551   3.980   5.833   6.076
 4870TIP3    H214552   4.013   5.757   6.203
 4871TIP3   OH214553   2.922   5.464   3.704
 4871TIP3    H114554   2.892   5.520   3.632
 4871TIP3    H214555   3.015   5.482   3.712
 4872TIP3   OH214556   2.165   0.576   2.531
 4872TIP3    H114557   2.155   0.656   2.583
 4872TIP3    H214558   2.076   0.547   2.513
 4873TIP3   OH214559   0.174   6.391   5.316
 4873TIP3    H114560   0.160   6.296   5.308
 4873TIP3    H214561   0.138   6.427   5.236
 4874TIP3   OH214562   1.755   0.478   0.770
 4874TIP3    H114563   1.664   0.499   0.750
 4874TIP3    H214564   1.750   0.402   0.828
 4875TIP3   OH214565   2.031   1.047   5.234
 4875TIP3    H114566   1.966   0.987   5.197
 4875TIP3    H214567   2.051   1.011   5.321
 4876TIP3   OH214568   3.738   2.602   4.260
 4876TIP3    H114569   3.731   2.686   4.306
 4876TIP3    H214570   3.795   2.549   4.315
 4877TIP3   OH214571   3.235   5.898   3.272
 4877TIP3    H114572   3.291   5.960   3.225
 4877TIP3    H214573   3.197   5.843   3.203
 4878TIP3   OH214574   1.222   2.975   1.962
 4878TIP3    H114575   1.284   2.942   1.897
 4878TIP3    H214576   1.159   3.026   1.910
 4879TIP3   OH214577   5.856   3.131   0.977
 4879TIP3    H114578   5.905   3.067   0.924
 4879TIP3    H214579   5.838   3.086   1.059
 4880TIP3   OH214580   0.134   0.498   2.953
 4880TIP3    H114581   0.069   0.485   3.022
 4880TIP3    H214582   0.085   0.489   2.872
 4881TIP3   OH214583   4.991   1.787   3.229
 4881TIP3    H114584   5.047   1.841   3.286
 4881TIP3    H214585   5.022   1.698   3.243
 4882TIP3   OH214586   8.235   6.532   0.250
 4882TIP3    H114587   8.148   6.498   0.271
 4882TIP3    H214588   8.291   6.454   0.248
 4883TIP3   OH214589   8.296   4.979   0.312
 4883TIP3    H114590   8.206   4.949   0.296
 4883TIP3    H214591   8.343   4.901   0.340
 4884TIP3   OH214592   5.446   6.004   1.158
 4884TIP3    H114593   5.402   5.927   1.123
 4884TIP3    H214594   5.431   6.001   1.252
 4885TIP3   OH214595   2.654   7.715   3.839
 4885TIP3    H114596   2.703   7.716   3.757
 4885TIP3    H214597   2.689   7.788   3.889
 4886TIP3   OH214598   4.530   3.233   2.684
 4886TIP3    H114599   4.542   3.251   2.777
 4886TIP3    H214600   4.470   3.301   2.654
 4887TIP3   OH214601   2.470   5.824   3.442
 4887TIP3    H114602   2.522   5.877   3.502
 4887TIP3    H214603   2.441   5.885   3.374
 4888TIP3   OH214604   6.237   6.891   1.081
 4888TIP3    H114605   6.145   6.916   1.084
 4888TIP3    H214606   6.239   6.815   1.023
 4889TIP3   OH214607   3.939   2.143   1.850
 4889TIP3    H114608   3.865   2.188   1.890
 4889TIP3    H214609   3.899   2.073   1.797
 4890TIP3   OH214610   3.343   2.868   1.831
 4890TIP3    H114611   3.393   2.897   1.908
 4890TIP3    H214612   3.369   2.929   1.761
 4891TIP3   OH214613   6.309   1.803   0.035
 4891TIP3    H114614   6.301   1.893   0.066
 4891TIP3    H214615   6.291   1.749   0.113
 4892TIP3   OH214616   0.440   3.652   6.342
 4892TIP3    H114617   0.438   3.560   6.318
 4892TIP3    H214618   0.391   3.656   6.425
 4893TIP3   OH214619   2.062   0.655   4.120
 4893TIP3    H114620   2.023   0.680   4.036
 4893TIP3    H214621   2.096   0.567   4.105
 4894TIP3   OH214622   6.224   1.108   5.827
 4894TIP3    H114623   6.277   1.083   5.902
 4894TIP3    H214624   6.274   1.077   5.751
 4895TIP3   OH214625   2.383   2.376   0.217
 4895TIP3    H114626   2.417   2.463   0.237
 4895TIP3    H214627   2.320   2.358   0.287
 4896TIP3   OH214628   4.639   6.621   6.005
 4896TIP3    H114629   4.631   6.594   6.096
 4896TIP3    H214630   4.557   6.667   5.987
 4897TIP3   OH214631   3.238   6.996   3.472
 4897TIP3    H114632   3.303   6.925   3.472
 4897TIP3    H214633   3.157   6.955   3.503
 4898TIP3   OH214634   3.574   4.072   2.846
 4898TIP3    H114635   3.587   4.130   2.920
 4898TIP3    H214636   3.542   3.990   2.884
 4899TIP3   OH214637   4.448   6.038   5.322
 4899TIP3    H114638   4.416   6.122   5.289
 4899TIP3    H214639   4.421   5.974   5.256
 4900TIP3   OH214640   1.303   0.471   5.868
 4900TIP3    H114641   1.248   0.436   5.798
 4900TIP3    H214642   1.392   0.463   5.835
 4901TIP3   OH214643   4.234   5.204   5.067
 4901TIP3    H114644   4.197   5.128   5.022
 4901TIP3    H214645   4.225   5.275   5.004
 4902TIP3   OH214646   0.961   5.354   6.478
 4902TIP3    H114647   1.011   5.424   6.519
 4902TIP3    H214648   0.977   5.277   6.533
 4903TIP3   OH214649   8.267   2.124   5.927
 4903TIP3    H114650   8.244   2.038   5.892
 4903TIP3    H214651   8.289   2.176   5.850
 4904TIP3   OH214652   5.486   3.922   5.127
 4904TIP3    H114653   5.443   3.987   5.072
 4904TIP3    H214654   5.580   3.941   5.119
 4905TIP3   OH214655   0.455   2.861   6.642
 4905TIP3    H114656   0.380   2.871   6.700
 4905TIP3    H214657   0.416   2.850   6.555
 4906TIP3   OH214658   0.270   5.146   2.240
 4906TIP3    H114659   0.229   5.229   2.216
 4906TIP3    H214660   0.200   5.082   2.235
 4907TIP3   OH214661   4.438   1.517   2.282
 4907TIP3    H114662   4.492   1.528   2.360
 4907TIP3    H214663   4.492   1.465   2.222
 4908TIP3   OH214664   6.645   2.269   2.114
 4908TIP3    H114665   6.723   2.226   2.078
 4908TIP3    H214666   6.650   2.358   2.081
 4909TIP3   OH214667   3.389   6.126   5.712
 4909TIP3    H114668   3.334   6.097   5.785
 4909TIP3    H214669   3.471   6.153   5.754
 4910TIP3   OH214670   5.918   0.615   4.297
 4910TIP3    H114671   5.868   0.567   4.362
 4910TIP3    H214672   5.966   0.548   4.248
 4911TIP3   OH214673   6.228   6.402   0.063
 4911TIP3    H114674   6.147   6.397   0.113
 4911TIP3    H214675   6.209   6.356  -0.019
 4912TIP3   OH214676   5.541   2.280  -0.020
 4912TIP3    H114677   5.534   2.250   0.071
 4912TIP3    H214678   5.617   2.337  -0.021
 4913TIP3   OH214679   0.452   0.225   0.741
 4913TIP3    H114680   0.543   0.222   0.771
 4913TIP3    H214681   0.446   0.305   0.689
 4914TIP3   OH214682   1.844   1.045   1.766
 4914TIP3    H114683   1.862   1.111   1.699
 4914TIP3    H214684   1.893   0.968   1.738
 4915TIP3   OH214685   6.025   6.312   6.472
 4915TIP3    H114686   6.119   6.298   6.468
 4915TIP3    H214687   6.015   6.404   6.499
 4916TIP3   OH214688   4.064   3.286   3.245
 4916TIP3    H114689   4.091   3.221   3.309
 4916TIP3    H214690   3.971   3.268   3.231
 4917TIP3   OH214691   7.199   5.758   4.667
 4917TIP3    H114692   7.239   5.821   4.728
 4917TIP3    H214693   7.262   5.753   4.595
 4918TIP3   OH214694   0.634   5.423   0.943
 4918TIP3    H114695   0.543   5.395   0.954
 4918TIP3    H214696   0.632   5.487   0.872
 4919TIP3   OH214697   0.857   6.601   4.198
 4919TIP3    H114698   0.856   6.630   4.289
 4919TIP3    H214699   0.766   6.604   4.171
 4920TIP3   OH214700   1.940   6.068   5.903
 4920TIP3    H114701   1.899   5.996   5.855
 4920TIP3    H214702   1.937   6.040   5.995
 4921TIP3   OH214703   6.283   6.736   0.639
 4921TIP3    H114704   6.218   6.670   0.615
 4921TIP3    H214705   6.367   6.696   0.616
 4922TIP3   OH214706   2.445   1.313   1.781
 4922TIP3    H114707   2.413   1.401   1.801
 4922TIP3    H214708   2.461   1.274   1.867
 4923TIP3   OH214709   1.034   2.190   3.290
 4923TIP3    H114710   1.088   2.128   3.339
 4923TIP3    H214711   0.999   2.249   3.357
 4924TIP3   OH214712   3.505   2.620   2.913
 4924TIP3    H114713   3.519   2.645   3.004
 4924TIP3    H214714   3.437   2.552   2.918
 4925TIP3   OH214715   8.381   4.176   3.165
 4925TIP3    H114716   8.341   4.089   3.172
 4925TIP3    H214717   8.350   4.210   3.081
 4926TIP3   OH214718   4.223   2.016   4.144
 4926TIP3    H114719   4.162   1.948   4.114
 4926TIP3    H214720   4.212   2.018   4.239
 4927TIP3   OH214721   4.363   1.904   6.608
 4927TIP3    H114722   4.364   1.836   6.676
 4927TIP3    H214723   4.316   1.864   6.535
 4928TIP3   OH214724   1.645   5.324   0.760
 4928TIP3    H114725   1.729   5.314   0.716
 4928TIP3    H214726   1.604   5.398   0.717
 4929TIP3   OH214727   1.925   5.629   1.493
 4929TIP3    H114728   1.862   5.607   1.561
 4929TIP3    H214729   2.010   5.604   1.530
 4930TIP3   OH214730   2.072   4.929   5.379
 4930TIP3    H114731   2.028   4.891   5.303
 4930TIP3    H214732   2.121   4.856   5.417
 4931TIP3   OH214733   6.839   7.680   3.062
 4931TIP3    H114734   6.865   7.759   3.014
 4931TIP3    H214735   6.755   7.703   3.101
 4932TIP3   OH214736   4.879   4.590   0.132
 4932TIP3    H114737   4.909   4.679   0.152
 4932TIP3    H214738   4.853   4.595   0.040
 4933TIP3   OH214739   1.075   4.951   6.816
 4933TIP3    H114740   1.021   4.889   6.865
 4933TIP3    H214741   1.161   4.945   6.856
 4934TIP3   OH214742   2.975   3.305   4.173
 4934TIP3    H114743   2.904   3.258   4.217
 4934TIP3    H214744   3.053   3.287   4.227
 4935TIP3   OH214745   6.335   7.801   1.688
 4935TIP3    H114746   6.389   7.868   1.731
 4935TIP3    H214747   6.343   7.822   1.594
 4936TIP3   OH214748   0.329   1.157   5.106
 4936TIP3    H114749   0.242   1.179   5.071
 4936TIP3    H214750   0.313   1.084   5.165
 4937TIP3   OH214751   6.383   4.462   3.056
 4937TIP3    H114752   6.376   4.399   3.127
 4937TIP3    H214753   6.455   4.519   3.081
 4938TIP3   OH214754   0.922   5.016   6.061
 4938TIP3    H114755   0.958   5.064   6.136
 4938TIP3    H214756   0.902   4.929   6.095
 4939TIP3   OH214757   3.117   4.414   4.940
 4939TIP3    H114758   3.139   4.322   4.927
 4939TIP3    H214759   3.050   4.432   4.874
 4940TIP3   OH214760   5.627   3.278   4.929
 4940TIP3    H114761   5.654   3.333   4.855
 4940TIP3    H214762   5.708   3.265   4.979
 4941TIP3   OH214763   2.561   7.868   4.434
 4941TIP3    H114764   2.519   7.807   4.495
 4941TIP3    H214765   2.588   7.814   4.360
 4942TIP3   OH214766   6.304   4.945   2.174
 4942TIP3    H114767   6.277   4.859   2.206
 4942TIP3    H214768   6.236   4.971   2.112
 4943TIP3   OH214769   8.106   0.141   0.975
 4943TIP3    H114770   8.061   0.100   1.049
 4943TIP3    H214771   8.101   0.235   0.993
 4944TIP3   OH214772   7.265   5.553   1.477
 4944TIP3    H114773   7.298   5.478   1.428
 4944TIP3    H214774   7.252   5.621   1.410
 4945TIP3   OH214775   0.549   2.169   1.473
 4945TIP3    H114776   0.461   2.191   1.503
 4945TIP3    H214777   0.607   2.227   1.523
 4946TIP3   OH214778   1.394   5.491   1.206
 4946TIP3    H114779   1.416   5.416   1.150
 4946TIP3    H214780   1.378   5.563   1.145
 4947TIP3   OH214781   6.127   5.280   2.967
 4947TIP3    H114782   6.170   5.364   2.951
 4947TIP3    H214783   6.187   5.233   3.025
 4948TIP3   OH214784   0.127   5.317   4.919
 4948TIP3    H114785   0.095   5.299   4.831
 4948TIP3    H214786   0.090   5.403   4.941
 4949TIP3   OH214787   6.048   7.248   6.508
 4949TIP3    H114788   6.083   7.235   6.596
 4949TIP3    H214789   5.956   7.271   6.521
 4950TIP3   OH214790   7.372   3.714   2.872
 4950TIP3    H114791   7.428   3.669   2.809
 4950TIP3    H214792   7.311   3.647   2.902
 4951TIP3   OH214793   5.949   2.961   1.726
 4951TIP3    H114794   5.859   2.994   1.726
 4951TIP3    H214795   5.986   2.991   1.643
 4952TIP3   OH214796   1.554   4.818   1.378
 4952TIP3    H114797   1.523   4.753   1.441
 4952TIP3    H214798   1.605   4.880   1.430
 4953TIP3   OH214799   1.929   5.645   1.032
 4953TIP3    H114800   1.852   5.698   1.015
 4953TIP3    H214801   1.979   5.648   0.951
 4954TIP3   OH214802   4.091   4.093   2.498
 4954TIP3    H114803   4.038   4.040   2.557
 4954TIP3    H214804   4.137   4.154   2.555
 4955TIP3   OH214805   5.149   7.760   0.032
 4955TIP3    H114806   5.062   7.764  -0.008
 4955TIP3    H214807   5.134   7.726   0.120
 4956TIP3   OH214808   2.132   7.629   1.374
 4956TIP3    H114809   2.070   7.699   1.395
 4956TIP3    H214810   2.213   7.655   1.418
 4957TIP3   OH214811   6.506   6.148   2.146
 4957TIP3    H114812   6.536   6.069   2.191
 4957TIP3    H214813   6.586   6.185   2.107
 4958TIP3   OH214814   4.462   1.152   4.111
 4958TIP3    H114815   4.524   1.093   4.068
 4958TIP3    H214816   4.491   1.155   4.203
 4959TIP3   OH214817   5.550   0.346   3.145
 4959TIP3    H114818   5.622   0.408   3.143
 4959TIP3    H214819   5.554   0.306   3.232
 4960TIP3   OH214820   5.250   4.759   4.519
 4960TIP3    H114821   5.344   4.741   4.516
 4960TIP3    H214822   5.234   4.788   4.609
 4961TIP3   OH214823   0.531   2.493   2.909
 4961TIP3    H114824   0.612   2.462   2.950
 4961TIP3    H214825   0.518   2.581   2.945
 4962TIP3   OH214826   5.694   6.900   1.692
 4962TIP3    H114827   5.746   6.979   1.675
 4962TIP3    H214828   5.733   6.862   1.770
 4963TIP3   OH214829   0.766   6.502   1.646
 4963TIP3    H114830   0.695   6.554   1.683
 4963TIP3    H214831   0.835   6.565   1.627
 4964TIP3   OH214832   7.803   2.865   2.440
 4964TIP3    H114833   7.804   2.816   2.358
 4964TIP3    H214834   7.895   2.873   2.464
 4965TIP3   OH214835   2.999   6.972   5.015
 4965TIP3    H114836   2.946   6.956   4.937
 4965TIP3    H214837   2.955   6.922   5.084
 4966TIP3   OH214838   7.125   0.064   3.410
 4966TIP3    H114839   7.063   0.081   3.339
 4966TIP3    H214840   7.151  -0.027   3.397
 4967TIP3   OH214841   3.138   1.486   1.880
 4967TIP3    H114842   3.075   1.415   1.869
 4967TIP3    H214843   3.105   1.557   1.824
 4968TIP3   OH214844   3.539   3.169   5.150
 4968TIP3    H114845   3.542   3.264   5.161
 4968TIP3    H214846   3.630   3.145   5.129
 4969TIP3   OH214847   7.413   0.407   5.035
 4969TIP3    H114848   7.490   0.406   4.978
 4969TIP3    H214849   7.445   0.371   5.118
 4970TIP3   OH214850   5.495   5.822   3.906
 4970TIP3    H114851   5.510   5.730   3.885
 4970TIP3    H214852   5.581   5.864   3.898
 4971TIP3   OH214853   5.117   1.987   3.353
 4971TIP3    H114854   5.163   2.035   3.422
 4971TIP3    H214855   5.171   2.000   3.275
 4972TIP3   OH214856   7.005   4.093   0.743
 4972TIP3    H114857   7.077   4.035   0.766
 4972TIP3    H214858   7.033   4.135   0.661
 4973TIP3   OH214859   7.055   3.934   3.784
 4973TIP3    H114860   7.150   3.936   3.776
 4973TIP3    H214861   7.027   4.024   3.768
 4974TIP3   OH214862   6.775   5.165   2.952
 4974TIP3    H114863   6.737   5.147   3.038
 4974TIP3    H214864   6.852   5.218   2.970
 4975TIP3   OH214865   4.452   3.389   2.909
 4975TIP3    H114866   4.377   3.362   2.963
 4975TIP3    H214867   4.422   3.467   2.864
 4976TIP3   OH214868   6.075   0.654   2.029
 4976TIP3    H114869   6.122   0.732   2.059
 4976TIP3    H214870   6.011   0.687   1.966
 4977TIP3   OH214871   4.286   2.597   4.314
 4977TIP3    H114872   4.221   2.667   4.318
 4977TIP3    H214873   4.235   2.516   4.314
 4978TIP3   OH214874   1.650   5.004   6.423
 4978TIP3    H114875   1.627   5.057   6.347
 4978TIP3    H214876   1.593   5.036   6.493
 4979TIP3   OH214877   4.747   7.566   2.695
 4979TIP3    H114878   4.693   7.606   2.627
 4979TIP3    H214879   4.696   7.575   2.775
 4980TIP3   OH214880   5.884   0.797   2.307
 4980TIP3    H114881   5.921   0.710   2.291
 4980TIP3    H214882   5.790   0.785   2.297
 4981TIP3   OH214883   4.217   1.101   3.132
 4981TIP3    H114884   4.177   1.039   3.194
 4981TIP3    H214885   4.286   1.050   3.089
 4982TIP3   OH214886   2.996   6.466   1.593
 4982TIP3    H114887   3.090   6.466   1.612
 4982TIP3    H214888   2.956   6.513   1.667
 4983TIP3   OH214889   2.234   0.851   0.253
 4983TIP3    H114890   2.219   0.798   0.175
 4983TIP3    H214891   2.155   0.905   0.261
 4984TIP3   OH214892   1.027   4.278   1.256
 4984TIP3    H114893   1.057   4.299   1.344
 4984TIP3    H214894   1.088   4.323   1.198
 4985TIP3   OH214895   1.347   3.727   0.267
 4985TIP3    H114896   1.266   3.749   0.312
 4985TIP3    H214897   1.320   3.664   0.200
 4986TIP3   OH214898   5.488   0.619   3.033
 4986TIP3    H114899   5.543   0.680   3.083
 4986TIP3    H214900   5.475   0.545   3.091
 4987TIP3   OH214901   7.468   7.552   1.140
 4987TIP3    H114902   7.438   7.622   1.197
 4987TIP3    H214903   7.495   7.482   1.199
 4988TIP3   OH214904   3.506   6.844   5.931
 4988TIP3    H114905   3.449   6.773   5.900
 4988TIP3    H214906   3.494   6.914   5.868
 4989TIP3   OH214907   6.532   1.474   2.340
 4989TIP3    H114908   6.623   1.453   2.359
 4989TIP3    H214909   6.490   1.483   2.425
 4990TIP3   OH214910   1.322   4.955   1.508
 4990TIP3    H114911   1.276   4.880   1.545
 4990TIP3    H214912   1.415   4.930   1.509
 4991TIP3   OH214913   3.088   6.705   5.855
 4991TIP3    H114914   3.006   6.720   5.807
 4991TIP3    H214915   3.157   6.732   5.794
 4992TIP3   OH214916   1.670   5.293   6.746
 4992TIP3    H114917   1.704   5.211   6.780
 4992TIP3    H214918   1.739   5.357   6.763
 4993TIP3   OH214919   3.413   1.137   1.522
 4993TIP3    H114920   3.432   1.124   1.429
 4993TIP3    H214921   3.417   1.049   1.560
 4994TIP3   OH214922   6.840   5.386   1.072
 4994TIP3    H114923   6.921   5.406   1.025
 4994TIP3    H214924   6.773   5.437   1.026
 4995TIP3   OH214925   4.495   1.238   3.695
 4995TIP3    H114926   4.400   1.233   3.688
 4995TIP3    H214927   4.512   1.239   3.789
 4996TIP3   OH214928   5.207   2.477   4.547
 4996TIP3    H114929   5.140   2.468   4.479
 4996TIP3    H214930   5.279   2.421   4.518
 4997TIP3   OH214931   4.954   3.872   2.808
 4997TIP3    H114932   4.881   3.842   2.862
 4997TIP3    H214933   4.923   3.953   2.768
 4998TIP3   OH214934   4.552   4.309   6.226
 4998TIP3    H114935   4.497   4.381   6.257
 4998TIP3    H214936   4.591   4.342   6.145
 4999TIP3   OH214937   2.079   1.313   6.741
 4999TIP3    H114938   2.076   1.399   6.784
 4999TIP3    H214939   2.045   1.331   6.653
 5000TIP3   OH214940   0.293   6.013   2.459
 5000TIP3    H114941   0.275   6.047   2.547
 5000TIP3    H214942   0.256   5.925   2.460
 5001TIP3   OH214943   4.259   4.571   4.735
 5001TIP3    H114944   4.303   4.500   4.781
 5001TIP3    H214945   4.329   4.633   4.715
 5002TIP3   OH214946   4.079   4.536   4.940
 5002TIP3    H114947   4.115   4.450   4.915
 5002TIP3    H214948   4.093   4.591   4.863
 5003TIP3   OH214949   0.903   6.029   3.276
 5003TIP3    H114950   0.976   6.085   3.251
 5003TIP3    H214951   0.850   6.083   3.334
 5004TIP3   OH214952   4.764   0.120   2.092
 5004TIP3    H114953   4.715   0.039   2.108
 5004TIP3    H214954   4.786   0.152   2.179
 5005TIP3   OH214955   0.202   5.385   0.271
 5005TIP3    H114956   0.293   5.363   0.249
 5005TIP3    H214957   0.154   5.374   0.189
 5006TIP3   OH214958   0.622   1.531   0.280
 5006TIP3    H114959   0.561   1.493   0.344
 5006TIP3    H214960   0.605   1.625   0.284
 5007TIP3   OH214961   2.066   3.370   0.280
 5007TIP3    H114962   1.995   3.313   0.249
 5007TIP3    H214963   2.054   3.375   0.375
 5008TIP3   OH214964   0.181   4.694   5.845
 5008TIP3    H114965   0.171   4.753   5.920
 5008TIP3    H214966   0.238   4.741   5.785
 5009TIP3   OH214967   7.712   6.278   1.722
 5009TIP3    H114968   7.742   6.302   1.635
 5009TIP3    H214969   7.774   6.322   1.781
 5010TIP3   OH214970   7.141   3.414   3.804
 5010TIP3    H114971   7.173   3.461   3.726
 5010TIP3    H214972   7.052   3.449   3.817
 5011TIP3   OH214973   8.449   1.046   2.150
 5011TIP3    H114974   8.460   1.011   2.238
 5011TIP3    H214975   8.354   1.051   2.138
 5012TIP3   OH214976   7.389   0.333   0.493
 5012TIP3    H114977   7.381   0.311   0.400
 5012TIP3    H214978   7.301   0.360   0.519
 5013TIP3   OH214979   1.803   3.174   6.347
 5013TIP3    H114980   1.760   3.255   6.321
 5013TIP3    H214981   1.878   3.165   6.288
 5014TIP3   OH214982   6.938   5.766   3.103
 5014TIP3    H114983   6.970   5.767   3.193
 5014TIP3    H214984   6.947   5.856   3.072
 5015TIP3   OH214985   8.112   4.743   2.099
 5015TIP3    H114986   8.083   4.660   2.137
 5015TIP3    H214987   8.207   4.731   2.085
 5016TIP3   OH214988   0.166   0.753   6.500
 5016TIP3    H114989   0.190   0.757   6.593
 5016TIP3    H214990   0.232   0.696   6.460
 5017TIP3   OH214991   1.283   5.307   2.777
 5017TIP3    H114992   1.373   5.290   2.751
 5017TIP3    H214993   1.288   5.387   2.829
 5018TIP3   OH214994   5.581   3.248   6.031
 5018TIP3    H114995   5.631   3.187   5.977
 5018TIP3    H214996   5.613   3.334   6.005
 5019TIP3   OH214997   0.887   7.441   2.195
 5019TIP3    H114998   0.805   7.399   2.167
 5019TIP3    H214999   0.941   7.368   2.225
 5020TIP3   OH215000   4.909   2.344   2.447
 5020TIP3    H115001   4.851   2.339   2.523
 5020TIP3    H215002   4.991   2.303   2.477
 5021TIP3   OH215003   8.070   4.823   2.970
 5021TIP3    H115004   7.999   4.785   3.022
 5021TIP3    H215005   8.097   4.900   3.020
 5022TIP3   OH215006   2.621   1.358   0.492
 5022TIP3    H115007   2.665   1.410   0.425
 5022TIP3    H215008   2.601   1.275   0.448
 5023TIP3   OH215009   0.722   0.316   3.373
 5023TIP3    H115010   0.806   0.269   3.370
 5023TIP3    H215011   0.665   0.259   3.425
 5024TIP3   OH215012   3.305   0.098   5.015
 5024TIP3    H115013   3.293   0.076   5.107
 5024TIP3    H215014   3.261   0.182   5.005
 5025TIP3   OH215015   6.830   0.746   1.934
 5025TIP3    H115016   6.804   0.741   2.026
 5025TIP3    H215017   6.867   0.834   1.924
 5026TIP3   OH215018   2.924   0.160   1.845
 5026TIP3    H115019   2.917   0.198   1.757
 5026TIP3    H215020   2.836   0.130   1.865
 5027TIP3   OH215021   5.017   7.851   2.255
 5027TIP3    H115022   4.994   7.798   2.179
 5027TIP3    H215023   5.040   7.936   2.219
 5028TIP3   OH215024   6.818   6.692   3.256
 5028TIP3    H115025   6.904   6.713   3.293
 5028TIP3    H215026   6.783   6.623   3.313
 5029TIP3   OH215027   5.687   7.046   1.995
 5029TIP3    H115028   5.721   6.956   1.994
 5029TIP3    H215029   5.758   7.098   2.031
 5030TIP3   OH215030   1.109   4.659   1.136
 5030TIP3    H115031   1.202   4.678   1.143
 5030TIP3    H215032   1.105   4.571   1.098
 5031TIP3   OH215033   4.958   4.427   4.657
 5031TIP3    H115034   4.905   4.363   4.609
 5031TIP3    H215035   5.048   4.411   4.628
 5032TIP3   OH215036   3.431   5.711   3.393
 5032TIP3    H115037   3.357   5.771   3.387
 5032TIP3    H215038   3.447   5.701   3.487
 5033TIP3   OH215039   6.379   5.220   3.833
 5033TIP3    H115040   6.467   5.183   3.824
 5033TIP3    H215041   6.323   5.159   3.784
 5034TIP3   OH215042   7.751   4.198   6.785
 5034TIP3    H115043   7.742   4.292   6.769
 5034TIP3    H215044   7.678   4.159   6.737
 5035TIP3   OH215045   2.619   5.132   1.011
 5035TIP3    H115046   2.588   5.042   1.018
 5035TIP3    H215047   2.541   5.185   1.029
 5036TIP3   OH215048   0.232   5.405   3.313
 5036TIP3    H115049   0.238   5.498   3.336
 5036TIP3    H215050   0.290   5.395   3.238
 5037TIP3   OH215051   3.029   2.527   5.036
 5037TIP3    H115052   3.026   2.555   4.945
 5037TIP3    H215053   3.118   2.549   5.065
 5038TIP3   OH215054   7.216   2.857   0.234
 5038TIP3    H115055   7.235   2.907   0.154
 5038TIP3    H215056   7.191   2.923   0.298
 5039TIP3   OH215057   8.136   3.027   2.993
 5039TIP3    H115058   8.200   2.997   2.929
 5039TIP3    H215059   8.185   3.087   3.050
 5040TIP3   OH215060   6.298   3.953   3.439
 5040TIP3    H115061   6.285   3.858   3.439
 5040TIP3    H215062   6.213   3.988   3.411
 5041TIP3   OH215063   0.508   3.514   0.802
 5041TIP3    H115064   0.582   3.550   0.853
 5041TIP3    H215065   0.518   3.419   0.809
 5042TIP3   OH215066   2.355   0.517   2.342
 5042TIP3    H115067   2.280   0.514   2.402
 5042TIP3    H215068   2.390   0.605   2.353
 5043TIP3   OH215069   0.529   3.941   5.845
 5043TIP3    H115070   0.620   3.967   5.831
 5043TIP3    H215071   0.493   3.933   5.756
 5044TIP3   OH215072   2.156   4.393   1.359
 5044TIP3    H115073   2.075   4.415   1.406
 5044TIP3    H215074   2.128   4.383   1.268
 5045TIP3   OH215075   6.237   5.780   0.471
 5045TIP3    H115076   6.147   5.784   0.437
 5045TIP3    H215077   6.229   5.807   0.562
 5046TIP3   OH215078   4.353   6.285   4.282
 5046TIP3    H115079   4.405   6.364   4.268
 5046TIP3    H215080   4.267   6.307   4.246
 5047TIP3   OH215081   2.854   1.264   3.249
 5047TIP3    H115082   2.949   1.262   3.236
 5047TIP3    H215083   2.822   1.186   3.202
 5048TIP3   OH215084   6.286   7.806   5.363
 5048TIP3    H115085   6.246   7.859   5.432
 5048TIP3    H215086   6.227   7.731   5.353
 5049TIP3   OH215087   1.954   4.794   4.685
 5049TIP3    H115088   1.884   4.805   4.750
 5049TIP3    H215089   1.988   4.883   4.672
 5050TIP3   OH215090   5.512   5.387   1.274
 5050TIP3    H115091   5.457   5.454   1.233
 5050TIP3    H215092   5.549   5.338   1.200
 5051TIP3   OH215093   6.937   1.362   1.440
 5051TIP3    H115094   6.843   1.352   1.423
 5051TIP3    H215095   6.950   1.322   1.527
 5052TIP3   OH215096   0.594   6.683   4.162
 5052TIP3    H115097   0.500   6.701   4.158
 5052TIP3    H215098   0.630   6.756   4.212
 5053TIP3   OH215099   0.616   2.004   6.078
 5053TIP3    H115100   0.553   2.076   6.075
 5053TIP3    H215101   0.657   2.011   6.164
 5054TIP3   OH215102   1.449   2.988   5.524
 5054TIP3    H115103   1.499   3.030   5.593
 5054TIP3    H215104   1.364   2.968   5.565
 5055TIP3   OH215105   3.336   2.184   4.533
 5055TIP3    H115106   3.273   2.120   4.565
 5055TIP3    H215107   3.307   2.204   4.444
 5056TIP3   OH215108   0.329   5.946   3.904
 5056TIP3    H115109   0.355   5.868   3.953
 5056TIP3    H215110   0.399   5.958   3.840
 5057TIP3   OH215111   3.087   2.386   0.189
 5057TIP3    H115112   3.137   2.376   0.108
 5057TIP3    H215113   3.066   2.297   0.216
 5058TIP3   OH215114   7.873   0.271   5.508
 5058TIP3    H115115   7.931   0.340   5.541
 5058TIP3    H215116   7.809   0.318   5.454
 5059TIP3   OH215117   1.493   3.613   5.150
 5059TIP3    H115118   1.529   3.696   5.182
 5059TIP3    H215119   1.410   3.604   5.198
 5060TIP3   OH215120   6.112   6.719   2.449
 5060TIP3    H115121   6.099   6.653   2.381
 5060TIP3    H215122   6.023   6.737   2.481
 5061TIP3   OH215123   0.071   1.564   4.692
 5061TIP3    H115124   0.142   1.627   4.706
 5061TIP3    H215125  -0.009   1.612   4.713
 5062TIP3   OH215126   6.883   3.074   0.383
 5062TIP3    H115127   6.835   3.063   0.465
 5062TIP3    H215128   6.975   3.074   0.408
 5063TIP3   OH215129   4.448   5.280   4.208
 5063TIP3    H115130   4.428   5.193   4.243
 5063TIP3    H215131   4.484   5.328   4.281
 5064TIP3   OH215132   1.611   7.099   1.976
 5064TIP3    H115133   1.598   7.183   1.931
 5064TIP3    H215134   1.635   7.038   1.906
 5065TIP3   OH215135   1.990   2.802   6.641
 5065TIP3    H115136   1.940   2.843   6.711
 5065TIP3    H215137   1.923   2.774   6.578
 5066TIP3   OH215138   3.485   0.901   4.530
 5066TIP3    H115139   3.390   0.897   4.517
 5066TIP3    H215140   3.514   0.967   4.468
 5067TIP3   OH215141   2.766   7.104   0.840
 5067TIP3    H115142   2.691   7.058   0.802
 5067TIP3    H215143   2.750   7.196   0.819
 5068TIP3   OH215144   6.478   0.129   6.636
 5068TIP3    H115145   6.429   0.062   6.589
 5068TIP3    H215146   6.491   0.093   6.724
 5069TIP3   OH215147   5.005   7.001   6.020
 5069TIP3    H115148   4.937   6.993   6.088
 5069TIP3    H215149   5.082   7.032   6.068
 5070TIP3   OH215150   3.649   4.250   3.022
 5070TIP3    H115151   3.631   4.328   2.970
 5070TIP3    H215152   3.696   4.282   3.099
 5071TIP3   OH215153   4.918   0.434   3.953
 5071TIP3    H115154   4.871   0.466   4.030
 5071TIP3    H215155   4.972   0.508   3.925
 5072TIP3   OH215156   5.832   3.397   5.788
 5072TIP3    H115157   5.812   3.329   5.723
 5072TIP3    H215158   5.902   3.448   5.747
 5073TIP3   OH215159   5.891   0.495   2.187
 5073TIP3    H115160   5.934   0.533   2.111
 5073TIP3    H215161   5.797   0.502   2.169
 5074TIP3   OH215162   4.169   6.295   6.165
 5074TIP3    H115163   4.118   6.349   6.225
 5074TIP3    H215164   4.192   6.217   6.216
 5075TIP3   OH215165   2.748   2.561   3.397
 5075TIP3    H115166   2.760   2.487   3.458
 5075TIP3    H215167   2.654   2.562   3.379
 5076TIP3   OH215168   4.771   7.041   6.185
 5076TIP3    H115169   4.784   7.058   6.278
 5076TIP3    H215170   4.707   6.970   6.182
 5077TIP3   OH215171   4.961   5.933   0.118
 5077TIP3    H115172   5.028   5.865   0.107
 5077TIP3    H215173   4.878   5.885   0.117
 5078TIP3   OH215174   4.929   1.075   5.369
 5078TIP3    H115175   4.951   1.019   5.294
 5078TIP3    H215176   4.833   1.074   5.371
 5079TIP3   OH215177   4.698   4.073   0.315
 5079TIP3    H115178   4.614   4.117   0.332
 5079TIP3    H215179   4.758   4.144   0.291
 5080TIP3   OH215180   2.897   7.835   2.434
 5080TIP3    H115181   2.976   7.885   2.415
 5080TIP3    H215182   2.912   7.750   2.393
 5081TIP3   OH215183   4.732   4.726   6.155
 5081TIP3    H115184   4.827   4.711   6.151
 5081TIP3    H215185   4.694   4.639   6.147
 5082TIP3   OH215186   2.295   1.151   0.816
 5082TIP3    H115187   2.319   1.193   0.898
 5082TIP3    H215188   2.205   1.121   0.830
 5083TIP3   OH215189   2.182   5.948   3.315
 5083TIP3    H115190   2.264   5.990   3.290
 5083TIP3    H215191   2.133   6.017   3.361
 5084TIP3   OH215192   7.030   6.637   0.397
 5084TIP3    H115193   7.038   6.674   0.485
 5084TIP3    H215194   7.112   6.660   0.354
 5085TIP3   OH215195   3.277   0.319   4.423
 5085TIP3    H115196   3.324   0.335   4.505
 5085TIP3    H215197   3.233   0.401   4.404
 5086TIP3   OH215198   5.505   4.688   4.564
 5086TIP3    H115199   5.591   4.726   4.548
 5086TIP3    H215200   5.502   4.672   4.658
 5087TIP3   OH215201   4.714   3.413   5.614
 5087TIP3    H115202   4.722   3.318   5.600
 5087TIP3    H215203   4.664   3.443   5.538
 5088TIP3   OH215204   0.758   2.761   2.623
 5088TIP3    H115205   0.740   2.820   2.550
 5088TIP3    H215206   0.758   2.818   2.700
 5089TIP3   OH215207   1.179   4.585   6.805
 5089TIP3    H115208   1.204   4.511   6.750
 5089TIP3    H215209   1.087   4.570   6.827
 5090TIP3   OH215210   0.064   3.861   3.423
 5090TIP3    H115211   0.147   3.897   3.454
 5090TIP3    H215212   0.089   3.789   3.366
 5091TIP3   OH215213   5.553   4.071   6.030
 5091TIP3    H115214   5.508   4.017   5.965
 5091TIP3    H215215   5.505   4.154   6.029
 5092TIP3   OH215216   6.258   1.102   6.617
 5092TIP3    H115217   6.263   1.156   6.538
 5092TIP3    H215218   6.306   1.152   6.683
 5093TIP3   OH215219   0.072   0.360   6.590
 5093TIP3    H115220   0.092   0.299   6.519
 5093TIP3    H215221  -0.024   0.365   6.591
 5094TIP3   OH215222   3.562   2.425   3.128
 5094TIP3    H115223   3.485   2.437   3.183
 5094TIP3    H215224   3.633   2.410   3.190
 5095TIP3   OH215225   3.081   0.035   3.281
 5095TIP3    H115226   3.063   0.113   3.333
 5095TIP3    H215227   3.168   0.050   3.245
 5096TIP3   OH215228   6.952   6.755   3.899
 5096TIP3    H115229   6.979   6.830   3.953
 5096TIP3    H215230   7.034   6.720   3.864
 5097TIP3   OH215231   7.626   0.754   3.384
 5097TIP3    H115232   7.574   0.782   3.459
 5097TIP3    H215233   7.710   0.799   3.395
 5098TIP3   OH215234   3.070   4.648   1.018
 5098TIP3    H115235   3.085   4.725   1.073
 5098TIP3    H215236   3.076   4.681   0.928
 5099TIP3   OH215237   6.955   2.973   5.030
 5099TIP3    H115238   7.012   2.980   4.953
 5099TIP3    H215239   6.893   2.904   5.007
 5100TIP3   OH215240   3.880   7.285   6.404
 5100TIP3    H115241   3.814   7.216   6.416
 5100TIP3    H215242   3.918   7.267   6.318
 5101TIP3   OH215243   1.387   2.800   3.667
 5101TIP3    H115244   1.364   2.888   3.698
 5101TIP3    H215245   1.436   2.762   3.740
 5102TIP3   OH215246   7.488   6.400   6.067
 5102TIP3    H115247   7.424   6.446   6.123
 5102TIP3    H215248   7.572   6.419   6.108
 5103TIP3   OH215249   3.066   2.307   0.741
 5103TIP3    H115250   3.010   2.384   0.735
 5103TIP3    H215251   3.131   2.318   0.671
 5104TIP3   OH215252   0.622   2.899   4.273
 5104TIP3    H115253   0.642   2.806   4.286
 5104TIP3    H215254   0.708   2.941   4.269
 5105TIP3   OH215255   4.657   1.043   5.567
 5105TIP3    H115256   4.652   1.080   5.479
 5105TIP3    H215257   4.708   0.962   5.556
 5106TIP3   OH215258   1.321   1.665   4.835
 5106TIP3    H115259   1.415   1.645   4.842
 5106TIP3    H215260   1.288   1.602   4.771
 5107TIP3   OH215261   4.792   0.918   2.075
 5107TIP3    H115262   4.865   0.900   2.134
 5107TIP3    H215263   4.805   0.859   2.001
 5108TIP3   OH215264   2.119   4.197   6.621
 5108TIP3    H115265   2.188   4.131   6.623
 5108TIP3    H215266   2.051   4.159   6.566
 5109TIP3   OH215267   3.952   3.487   6.538
 5109TIP3    H115268   3.984   3.540   6.465
 5109TIP3    H215269   3.858   3.483   6.525
 5110TIP3   OH215270   7.811   4.217   4.509
 5110TIP3    H115271   7.848   4.182   4.590
 5110TIP3    H215272   7.860   4.172   4.440
 5111TIP3   OH215273   3.366   0.640   0.200
 5111TIP3    H115274   3.430   0.581   0.162
 5111TIP3    H215275   3.415   0.692   0.264
 5112TIP3   OH215276   4.296   4.662   1.610
 5112TIP3    H115277   4.285   4.714   1.690
 5112TIP3    H215278   4.234   4.700   1.548
 5113TIP3   OH215279   1.497   0.293   6.097
 5113TIP3    H115280   1.499   0.251   6.183
 5113TIP3    H215281   1.407   0.321   6.085
 5114TIP3   OH215282   0.945   5.503   0.513
 5114TIP3    H115283   1.027   5.454   0.517
 5114TIP3    H215284   0.921   5.502   0.420
 5115TIP3   OH215285   0.934   4.185   2.445
 5115TIP3    H115286   0.906   4.229   2.525
 5115TIP3    H215287   0.864   4.206   2.382
 5116TIP3   OH215288   5.755   2.345   3.976
 5116TIP3    H115289   5.717   2.322   3.891
 5116TIP3    H215290   5.681   2.344   4.037
 5117TIP3   OH215291   4.586   0.738   2.051
 5117TIP3    H115292   4.637   0.817   2.036
 5117TIP3    H215293   4.538   0.724   1.969
 5118TIP3   OH215294   5.344   2.440   6.070
 5118TIP3    H115295   5.291   2.517   6.090
 5118TIP3    H215296   5.420   2.474   6.024
 5119TIP3   OH215297   2.299   7.020   4.019
 5119TIP3    H115298   2.351   7.098   4.037
 5119TIP3    H215299   2.210   7.043   4.045
 5120TIP3   OH215300   8.057   0.791   5.942
 5120TIP3    H115301   8.130   0.827   5.991
 5120TIP3    H215302   8.005   0.867   5.915
 5121TIP3   OH215303   5.035   5.124   3.540
 5121TIP3    H115304   5.042   5.061   3.612
 5121TIP3    H215305   5.003   5.073   3.466
 5122TIP3   OH215306   2.406   2.681   6.125
 5122TIP3    H115307   2.314   2.670   6.149
 5122TIP3    H215308   2.453   2.622   6.183
 5123TIP3   OH215309   1.803   1.147   4.580
 5123TIP3    H115310   1.879   1.197   4.549
 5123TIP3    H215311   1.828   1.118   4.667
 5124TIP3   OH215312   1.626   1.381   5.031
 5124TIP3    H115313   1.566   1.313   4.998
 5124TIP3    H215314   1.628   1.367   5.125
 5125TIP3   OH215315   2.692   2.686   0.679
 5125TIP3    H115316   2.646   2.768   0.656
 5125TIP3    H215317   2.700   2.640   0.595
 5126TIP3   OH215318   7.555   3.627   4.340
 5126TIP3    H115319   7.553   3.650   4.433
 5126TIP3    H215320   7.517   3.539   4.335
 5127TIP3   OH215321   2.546   7.632   5.833
 5127TIP3    H115322   2.522   7.540   5.829
 5127TIP3    H215323   2.463   7.679   5.832
 5128TIP3   OH215324   7.125   4.624   2.486
 5128TIP3    H115325   7.154   4.668   2.407
 5128TIP3    H215326   7.082   4.544   2.455
 5129TIP3   OH215327   6.159   5.685   3.165
 5129TIP3    H115328   6.193   5.774   3.174
 5129TIP3    H215329   6.156   5.670   3.070
 5130TIP3   OH215330   3.127   4.691   0.197
 5130TIP3    H115331   3.049   4.671   0.249
 5130TIP3    H215332   3.186   4.617   0.212
 5131TIP3   OH215333   2.986   2.698   6.762
 5131TIP3    H115334   2.961   2.744   6.842
 5131TIP3    H215335   2.915   2.717   6.700
 5132TIP3   OH215336   7.798   7.007  -0.036
 5132TIP3    H115337   7.731   7.054   0.013
 5132TIP3    H215338   7.864   6.985   0.030
 5133TIP3   OH215339   0.478   2.583   0.217
 5133TIP3    H115340   0.415   2.647   0.182
 5133TIP3    H215341   0.559   2.632   0.224
 5134TIP3   OH215342   0.693   1.354   2.065
 5134TIP3    H115343   0.697   1.364   1.970
 5134TIP3    H215344   0.703   1.443   2.099
 5135TIP3   OH215345   5.404   6.565   0.217
 5135TIP3    H115346   5.336   6.622   0.255
 5135TIP3    H215347   5.364   6.478   0.215
 5136TIP3   OH215348   5.935   7.151   2.037
 5136TIP3    H115349   5.988   7.116   1.965
 5136TIP3    H215350   5.935   7.246   2.024
 5137TIP3   OH215351   5.518   3.625   3.830
 5137TIP3    H115352   5.573   3.590   3.899
 5137TIP3    H215353   5.541   3.574   3.752
 5138TIP3   OH215354   6.919   3.224   5.756
 5138TIP3    H115355   6.976   3.166   5.807
 5138TIP3    H215356   6.913   3.304   5.807
 5139TIP3   OH215357   4.046   7.699   2.532
 5139TIP3    H115358   4.055   7.789   2.499
 5139TIP3    H215359   4.135   7.674   2.557
 5140TIP3   OH215360   2.363   6.405   6.012
 5140TIP3    H115361   2.372   6.445   5.925
 5140TIP3    H215362   2.386   6.475   6.073
 5141TIP3   OH215363   1.288   6.562   5.363
 5141TIP3    H115364   1.202   6.526   5.385
 5141TIP3    H215365   1.344   6.534   5.435
 5142TIP3   OH215366   0.106   3.679   6.637
 5142TIP3    H115367   0.095   3.640   6.723
 5142TIP3    H215368   0.156   3.614   6.587
 5143TIP3   OH215369   4.010   2.800   2.223
 5143TIP3    H115370   3.961   2.838   2.150
 5143TIP3    H215371   4.048   2.719   2.188
 5144TIP3   OH215372   7.217   1.441   6.515
 5144TIP3    H115373   7.232   1.408   6.426
 5144TIP3    H215374   7.158   1.516   6.504
 5145TIP3   OH215375   0.339   4.998   5.309
 5145TIP3    H115376   0.300   4.966   5.227
 5145TIP3    H215377   0.398   4.929   5.336
 5146TIP3   OH215378   2.111   7.160   2.787
 5146TIP3    H115379   2.140   7.169   2.696
 5146TIP3    H215380   2.123   7.067   2.806
 5147TIP3   OH215381   6.122   2.711   5.514
 5147TIP3    H115382   6.181   2.699   5.588
 5147TIP3    H215383   6.107   2.622   5.481
 5148TIP3   OH215384   0.919   6.964   1.670
 5148TIP3    H115385   0.935   6.970   1.576
 5148TIP3    H215386   0.990   7.013   1.710
 5149TIP3   OH215387   8.414   6.840   6.851
 5149TIP3    H115388   8.410   6.803   6.763
 5149TIP3    H215389   8.334   6.892   6.859
 5150TIP3   OH215390   8.075   5.381   6.612
 5150TIP3    H115391   8.022   5.428   6.677
 5150TIP3    H215392   8.140   5.444   6.582
 5151TIP3   OH215393   4.700   6.097   5.375
 5151TIP3    H115394   4.708   6.096   5.470
 5151TIP3    H215395   4.606   6.085   5.358
 5152TIP3   OH215396   1.288   7.825   3.847
 5152TIP3    H115397   1.270   7.919   3.843
 5152TIP3    H215398   1.383   7.819   3.852
 5153TIP3   OH215399   4.010   4.166   3.482
 5153TIP3    H115400   4.060   4.247   3.488
 5153TIP3    H215401   4.039   4.114   3.556
 5154TIP3   OH215402   0.977   6.684   6.332
 5154TIP3    H115403   0.890   6.653   6.359
 5154TIP3    H215404   1.001   6.746   6.401
 5155TIP3   OH215405   1.039   7.896   3.740
 5155TIP3    H115406   1.125   7.863   3.766
 5155TIP3    H215407   0.988   7.896   3.821
 5156TIP3   OH215408   3.632   6.359   5.112
 5156TIP3    H115409   3.586   6.432   5.153
 5156TIP3    H215410   3.564   6.296   5.090
 5157TIP3   OH215411   5.316   7.561   1.849
 5157TIP3    H115412   5.375   7.486   1.851
 5157TIP3    H215413   5.343   7.611   1.772
 5158TIP3   OH215414   7.362   5.275   3.763
 5158TIP3    H115415   7.382   5.368   3.754
 5158TIP3    H215416   7.391   5.253   3.852
 5159TIP3   OH215417   3.151   2.028   4.662
 5159TIP3    H115418   3.112   2.025   4.750
 5159TIP3    H215419   3.081   2.064   4.607
 5160TIP3   OH215420   0.629   6.499   2.280
 5160TIP3    H115421   0.668   6.550   2.209
 5160TIP3    H215422   0.538   6.486   2.253
 5161TIP3   OH215423   2.775   4.317   0.537
 5161TIP3    H115424   2.681   4.331   0.534
 5161TIP3    H215425   2.811   4.398   0.573
 5162TIP3   OH215426  -0.118   7.616   5.121
 5162TIP3    H115427  -0.158   7.609   5.034
 5162TIP3    H215428  -0.049   7.549   5.121
 5163TIP3   OH215429   1.505   5.316   4.754
 5163TIP3    H115430   1.541   5.235   4.789
 5163TIP3    H215431   1.434   5.288   4.696
 5164TIP3   OH215432   6.450   5.437   4.659
 5164TIP3    H115433   6.366   5.432   4.704
 5164TIP3    H215434   6.473   5.346   4.639
 5165TIP3   OH215435   7.261   6.718   4.631
 5165TIP3    H115436   7.246   6.791   4.692
 5165TIP3    H215437   7.174   6.694   4.600
 5166TIP3   OH215438   1.223   5.650   2.246
 5166TIP3    H115439   1.285   5.722   2.235
 5166TIP3    H215440   1.164   5.657   2.170
 5167TIP3   OH215441   4.401   5.434   0.789
 5167TIP3    H115442   4.315   5.438   0.832
 5167TIP3    H215443   4.442   5.356   0.826
 5168TIP3   OH215444   7.266   5.158   5.151
 5168TIP3    H115445   7.349   5.112   5.138
 5168TIP3    H215446   7.260   5.169   5.246
 5169TIP3   OH215447   7.216   2.641   6.670
 5169TIP3    H115448   7.173   2.718   6.708
 5169TIP3    H215449   7.306   2.646   6.700
 5170TIP3   OH215450   5.722   4.850   6.377
 5170TIP3    H115451   5.658   4.887   6.438
 5170TIP3    H215452   5.717   4.756   6.392
 5171TIP3   OH215453   7.021   4.180   0.114
 5171TIP3    H115454   6.957   4.110   0.101
 5171TIP3    H215455   6.970   4.251   0.155
 5172TIP3   OH215456   4.903   1.646   0.494
 5172TIP3    H115457   4.811   1.656   0.472
 5172TIP3    H215458   4.933   1.575   0.438
 5173TIP3   OH215459   7.636   7.399   3.718
 5173TIP3    H115460   7.707   7.420   3.778
 5173TIP3    H215461   7.679   7.355   3.644
 5174TIP3   OH215462   0.996   3.296   1.585
 5174TIP3    H115463   0.920   3.345   1.617
 5174TIP3    H215464   0.991   3.303   1.490
 5175TIP3   OH215465   0.421   2.889   6.200
 5175TIP3    H115466   0.511   2.868   6.224
 5175TIP3    H215467   0.370   2.814   6.229
 5176TIP3   OH215468   6.746   3.048   2.844
 5176TIP3    H115469   6.840   3.033   2.832
 5176TIP3    H215470   6.705   2.994   2.776
 5177TIP3   OH215471   4.686   1.711   0.142
 5177TIP3    H115472   4.749   1.782   0.158
 5177TIP3    H215473   4.603   1.746   0.173
 5178TIP3   OH215474   7.693   0.917   2.449
 5178TIP3    H115475   7.747   0.951   2.377
 5178TIP3    H215476   7.693   0.987   2.514
 5179TIP3   OH215477   7.191   7.906   6.777
 5179TIP3    H115478   7.281   7.876   6.785
 5179TIP3    H215479   7.191   7.992   6.820
 5180TIP3   OH215480   6.806   4.778   4.435
 5180TIP3    H115481   6.839   4.698   4.393
 5180TIP3    H215482   6.711   4.773   4.424
 5181TIP3   OH215483   1.419   0.320   6.786
 5181TIP3    H115484   1.362   0.244   6.778
 5181TIP3    H215485   1.480   0.313   6.713
 5182TIP3   OH215486   4.126   6.735   5.713
 5182TIP3    H115487   4.186   6.719   5.787
 5182TIP3    H215488   4.107   6.648   5.679
 5183TIP3   OH215489   0.826   4.069   4.859
 5183TIP3    H115490   0.850   4.012   4.786
 5183TIP3    H215491   0.907   4.114   4.883
 5184TIP3   OH215492   2.171   2.009   0.586
 5184TIP3    H115493   2.117   1.932   0.605
 5184TIP3    H215494   2.247   1.999   0.643
 5185TIP3   OH215495   1.875   5.960   6.861
 5185TIP3    H115496   1.809   5.939   6.795
 5185TIP3    H215497   1.841   5.924   6.942
 5186TIP3   OH215498   2.496   3.611   3.222
 5186TIP3    H115499   2.499   3.678   3.154
 5186TIP3    H215500   2.403   3.596   3.237
 5187TIP3   OH215501   2.971   5.272   3.015
 5187TIP3    H115502   3.008   5.259   2.928
 5187TIP3    H215503   3.014   5.205   3.069
 5188TIP3   OH215504   4.053   7.870   3.671
 5188TIP3    H115505   4.135   7.821   3.670
 5188TIP3    H215506   4.065   7.935   3.741
 5189TIP3   OH215507   4.736   5.963   2.857
 5189TIP3    H115508   4.695   6.031   2.804
 5189TIP3    H215509   4.716   5.882   2.811
 5190TIP3   OH215510   8.243   6.368   5.727
 5190TIP3    H115511   8.303   6.323   5.787
 5190TIP3    H215512   8.234   6.308   5.653
 5191TIP3   OH215513   7.724   0.977   2.853
 5191TIP3    H115514   7.795   1.038   2.873
 5191TIP3    H215515   7.688   1.010   2.770
 5192TIP3   OH215516   3.477   5.367   3.529
 5192TIP3    H115517   3.572   5.380   3.536
 5192TIP3    H215518   3.463   5.276   3.557
 5193TIP3   OH215519   0.092   3.574   6.230
 5193TIP3    H115520   0.097   3.499   6.170
 5193TIP3    H215521   0.000   3.578   6.255
 5194TIP3   OH215522   5.231   4.712   6.482
 5194TIP3    H115523   5.153   4.681   6.528
 5194TIP3    H215524   5.241   4.803   6.511
 5195TIP3   OH215525   6.250   1.764   6.625
 5195TIP3    H115526   6.183   1.830   6.609
 5195TIP3    H215527   6.308   1.804   6.689
 5196TIP3   OH215528   0.683   2.785   1.472
 5196TIP3    H115529   0.735   2.720   1.424
 5196TIP3    H215530   0.603   2.739   1.496
 5197TIP3   OH215531   4.997   6.492   6.038
 5197TIP3    H115532   4.962   6.515   5.951
 5197TIP3    H215533   5.091   6.507   6.031
 5198TIP3   OH215534   3.714   4.675   1.211
 5198TIP3    H115535   3.764   4.739   1.160
 5198TIP3    H215536   3.636   4.722   1.239
 5199TIP3   OH215537   6.481   6.113   0.634
 5199TIP3    H115538   6.438   6.027   0.637
 5199TIP3    H215539   6.532   6.118   0.714
 5200TIP3   OH215540   4.982   2.905   1.784
 5200TIP3    H115541   5.053   2.860   1.738
 5200TIP3    H215542   5.002   2.998   1.775
 5201TIP3   OH215543   1.335   4.417   0.755
 5201TIP3    H115544   1.399   4.485   0.732
 5201TIP3    H215545   1.374   4.336   0.721
 5202TIP3   OH215546   5.703   1.172   2.952
 5202TIP3    H115547   5.650   1.104   2.994
 5202TIP3    H215548   5.755   1.124   2.887
 5203TIP3   OH215549   2.115   6.471   5.779
 5203TIP3    H115550   2.197   6.490   5.734
 5203TIP3    H215551   2.120   6.378   5.801
 5204TIP3   OH215552   7.345   1.653   0.977
 5204TIP3    H115553   7.379   1.713   0.911
 5204TIP3    H215554   7.371   1.567   0.946
 5205TIP3   OH215555   5.786   4.059   2.259
 5205TIP3    H115556   5.825   4.144   2.280
 5205TIP3    H215557   5.850   4.016   2.203
 5206TIP3   OH215558   3.719   7.618   0.843
 5206TIP3    H115559   3.811   7.614   0.869
 5206TIP3    H215560   3.691   7.527   0.840
 5207TIP3   OH215561   4.933   5.341   5.188
 5207TIP3    H115562   4.871   5.332   5.116
 5207TIP3    H215563   4.966   5.431   5.180
 5208TIP3   OH215564   0.288   5.886   5.117
 5208TIP3    H115565   0.370   5.851   5.151
 5208TIP3    H215566   0.314   5.965   5.070
 5209TIP3   OH215567   6.950   1.230   1.707
 5209TIP3    H115568   6.863   1.212   1.743
 5209TIP3    H215569   6.991   1.144   1.697
 5210TIP3   OH215570   1.614   1.047   3.245
 5210TIP3    H115571   1.698   1.006   3.225
 5210TIP3    H215572   1.635   1.140   3.257
 5211TIP3   OH215573   7.881   7.307   6.586
 5211TIP3    H115574   7.877   7.290   6.492
 5211TIP3    H215575   7.810   7.369   6.602
 5212TIP3   OH215576   1.834   2.908   0.343
 5212TIP3    H115577   1.814   2.857   0.265
 5212TIP3    H215578   1.792   2.860   0.415
 5213TIP3   OH215579   3.162   6.332   5.448
 5213TIP3    H115580   3.214   6.255   5.425
 5213TIP3    H215581   3.075   6.312   5.415
 5214TIP3   OH215582   8.066   0.609   3.759
 5214TIP3    H115583   8.121   0.662   3.817
 5214TIP3    H215584   8.085   0.518   3.784
 5215TIP3   OH215585   6.392   1.862   0.850
 5215TIP3    H115586   6.455   1.934   0.844
 5215TIP3    H215587   6.357   1.854   0.761
 5216TIP3   OH215588   4.746   0.952   3.547
 5216TIP3    H115589   4.754   0.876   3.489
 5216TIP3    H215590   4.688   0.923   3.617
 5217TIP3   OH215591   6.011   3.881   6.243
 5217TIP3    H115592   6.098   3.897   6.281
 5217TIP3    H215593   5.964   3.963   6.259
 5218TIP3   OH215594   5.386   5.803   2.324
 5218TIP3    H115595   5.433   5.727   2.288
 5218TIP3    H215596   5.426   5.878   2.281
 5219TIP3   OH215597   1.556   1.129   1.729
 5219TIP3    H115598   1.502   1.144   1.806
 5219TIP3    H215599   1.646   1.133   1.761
 5220TIP3   OH215600   6.737   1.698   3.420
 5220TIP3    H115601   6.824   1.689   3.459
 5220TIP3    H215602   6.678   1.706   3.494
 5221TIP3   OH215603   8.008   6.490   5.838
 5221TIP3    H115604   7.995   6.505   5.745
 5221TIP3    H215605   8.088   6.437   5.843
 5222TIP3   OH215606   3.674   6.773   1.050
 5222TIP3    H115607   3.678   6.856   1.099
 5222TIP3    H215608   3.584   6.768   1.019
 5223TIP3   OH215609   6.362   2.091   3.469
 5223TIP3    H115610   6.272   2.122   3.473
 5223TIP3    H215611   6.354   1.996   3.455
 5224TIP3   OH215612   3.081   0.399   4.694
 5224TIP3    H115613   3.103   0.471   4.635
 5224TIP3    H215614   3.014   0.350   4.647
 5225TIP3   OH215615   7.357   7.099   4.086
 5225TIP3    H115616   7.356   7.128   3.995
 5225TIP3    H215617   7.318   7.012   4.083
 5226TIP3   OH215618   4.090   4.548   2.731
 5226TIP3    H115619   4.028   4.475   2.740
 5226TIP3    H215620   4.143   4.544   2.811
 5227TIP3   OH215621   4.551   6.808   1.365
 5227TIP3    H115622   4.631   6.853   1.393
 5227TIP3    H215623   4.532   6.746   1.436
 5228TIP3   OH215624   7.969   3.773   0.072
 5228TIP3    H115625   7.933   3.685   0.082
 5228TIP3    H215626   7.948   3.818   0.154
 5229TIP3   OH215627   7.398   2.303   2.876
 5229TIP3    H115628   7.373   2.352   2.797
 5229TIP3    H215629   7.493   2.304   2.876
 5230TIP3   OH215630   6.993   0.377   3.979
 5230TIP3    H115631   6.955   0.424   3.905
 5230TIP3    H215632   7.088   0.390   3.969
 5231TIP3   OH215633   6.557   4.048   6.373
 5231TIP3    H115634   6.587   4.109   6.306
 5231TIP3    H215635   6.623   4.056   6.443
 5232TIP3   OH215636   4.913   6.635   0.095
 5232TIP3    H115637   4.820   6.614   0.094
 5232TIP3    H215638   4.952   6.575   0.031
 5233TIP3   OH215639   2.712   7.449   4.079
 5233TIP3    H115640   2.780   7.480   4.139
 5233TIP3    H215641   2.634   7.500   4.101
 5234TIP3   OH215642   3.890   3.444   3.756
 5234TIP3    H115643   3.884   3.378   3.687
 5234TIP3    H215644   3.950   3.407   3.820
 5235TIP3   OH215645   2.323   2.022   4.818
 5235TIP3    H115646   2.379   2.065   4.882
 5235TIP3    H215647   2.310   1.933   4.853
 5236TIP3   OH215648   3.447   3.839   2.959
 5236TIP3    H115649   3.352   3.836   2.958
 5236TIP3    H215650   3.470   3.849   3.051
 5237TIP3   OH215651   4.404   7.212   0.594
 5237TIP3    H115652   4.440   7.167   0.671
 5237TIP3    H215653   4.355   7.143   0.548
 5238TIP3   OH215654   1.569   0.528   3.651
 5238TIP3    H115655   1.650   0.489   3.683
 5238TIP3    H215656   1.590   0.559   3.563
 5239TIP3   OH215657   6.309   4.207   0.725
 5239TIP3    H115658   6.383   4.185   0.781
 5239TIP3    H215659   6.284   4.125   0.684
 5240TIP3   OH215660   3.124   4.779   3.604
 5240TIP3    H115661   3.159   4.727   3.676
 5240TIP3    H215662   3.077   4.716   3.549
 5241TIP3   OH215663   4.231   1.698   2.197
 5241TIP3    H115664   4.260   1.789   2.206
 5241TIP3    H215665   4.148   1.704   2.149
 5242TIP3   OH215666   3.650   3.461   3.481
 5242TIP3    H115667   3.742   3.465   3.456
 5242TIP3    H215668   3.603   3.447   3.399
 5243TIP3   OH215669   2.693   2.031   0.570
 5243TIP3    H115670   2.648   2.071   0.644
 5243TIP3    H215671   2.786   2.040   0.589
 5244TIP3   OH215672   1.134   6.315   3.576
 5244TIP3    H115673   1.197   6.243   3.570
 5244TIP3    H215674   1.072   6.286   3.643
 5245TIP3   OH215675   0.071   6.619   0.357
 5245TIP3    H115676   0.000   6.561   0.328
 5245TIP3    H215677   0.151   6.570   0.338
 5246TIP3   OH215678   7.721   4.091   3.045
 5246TIP3    H115679   7.636   4.062   3.011
 5246TIP3    H215680   7.719   4.186   3.036
 5247TIP3   OH215681   6.308   5.297   1.650
 5247TIP3    H115682   6.318   5.236   1.577
 5247TIP3    H215683   6.263   5.247   1.717
 5248TIP3   OH215684   1.757   5.393   3.572
 5248TIP3    H115685   1.733   5.425   3.659
 5248TIP3    H215686   1.800   5.309   3.589
 5249TIP3   OH215687   7.068   3.167   0.073
 5249TIP3    H115688   7.056   3.234   0.139
 5249TIP3    H215689   6.989   3.112   0.080
 5250TIP3   OH215690   5.534   6.456   1.873
 5250TIP3    H115691   5.515   6.475   1.781
 5250TIP3    H215692   5.463   6.498   1.922
 5251TIP3   OH215693   6.852   7.744   4.655
 5251TIP3    H115694   6.850   7.657   4.695
 5251TIP3    H215695   6.923   7.738   4.590
 5252TIP3   OH215696   6.007   1.105   2.521
 5252TIP3    H115697   5.918   1.139   2.529
 5252TIP3    H215698   5.996   1.022   2.474
 5253TIP3   OH215699   7.635   0.607   5.578
 5253TIP3    H115700   7.698   0.675   5.554
 5253TIP3    H215701   7.663   0.530   5.529
 5254TIP3   OH215702   4.197   0.953   0.887
 5254TIP3    H115703   4.136   0.939   0.815
 5254TIP3    H215704   4.268   1.004   0.848
 5255TIP3   OH215705   6.614   6.152   6.255
 5255TIP3    H115706   6.625   6.112   6.168
 5255TIP3    H215707   6.701   6.146   6.294
 5256TIP3   OH215708   4.931   7.882   5.448
 5256TIP3    H115709   4.857   7.822   5.441
 5256TIP3    H215710   4.982   7.849   5.521
 5257TIP3   OH215711   2.767   2.300   6.226
 5257TIP3    H115712   2.695   2.239   6.243
 5257TIP3    H215713   2.740   2.347   6.147
 5258TIP3   OH215714   3.968   7.025   5.234
 5258TIP3    H115715   3.930   6.963   5.170
 5258TIP3    H215716   3.982   6.972   5.312
 5259TIP3   OH215717   5.802   2.335   0.210
 5259TIP3    H115718   5.791   2.283   0.130
 5259TIP3    H215719   5.719   2.323   0.257
 5260TIP3   OH215720   1.877   3.964   5.262
 5260TIP3    H115721   1.823   4.033   5.300
 5260TIP3    H215722   1.833   3.941   5.180
 5261TIP3   OH215723   8.242   0.541   1.288
 5261TIP3    H115724   8.231   0.576   1.376
 5261TIP3    H215725   8.335   0.551   1.269
 5262TIP3   OH215726   6.474   5.308   6.018
 5262TIP3    H115727   6.421   5.279   5.944
 5262TIP3    H215728   6.562   5.276   6.000
 5263TIP3   OH215729   5.601   3.077   0.816
 5263TIP3    H115730   5.694   3.078   0.838
 5263TIP3    H215731   5.595   3.028   0.734
 5264TIP3   OH215732   0.227   1.521   2.528
 5264TIP3    H115733   0.191   1.596   2.482
 5264TIP3    H215734   0.178   1.519   2.611
 5265TIP3   OH215735   4.837   7.170   5.076
 5265TIP3    H115736   4.927   7.196   5.057
 5265TIP3    H215737   4.813   7.113   5.003
 5266TIP3   OH215738   3.713   0.131   0.419
 5266TIP3    H115739   3.756   0.178   0.348
 5266TIP3    H215740   3.774   0.060   0.442
 5267TIP3   OH215741   1.231   3.591   5.210
 5267TIP3    H115742   1.177   3.629   5.140
 5267TIP3    H215743   1.184   3.511   5.234
 5268TIP3   OH215744   0.817   3.873   2.055
 5268TIP3    H115745   0.721   3.869   2.054
 5268TIP3    H215746   0.839   3.933   1.983
 5269TIP3   OH215747   6.129   4.580   0.562
 5269TIP3    H115748   6.139   4.493   0.523
 5269TIP3    H215749   6.163   4.570   0.651
 5270TIP3   OH215750   8.015   5.121   6.668
 5270TIP3    H115751   8.034   5.213   6.649
 5270TIP3    H215752   7.937   5.102   6.617
 5271TIP3   OH215753   1.579   6.678   3.469
 5271TIP3    H115754   1.658   6.730   3.452
 5271TIP3    H215755   1.598   6.631   3.550
 5272TIP3   OH215756   7.821   5.012   2.387
 5272TIP3    H115757   7.815   5.100   2.349
 5272TIP3    H215758   7.736   4.998   2.428
 5273TIP3   OH215759   7.533   4.886   3.625
 5273TIP3    H115760   7.452   4.834   3.627
 5273TIP3    H215761   7.511   4.963   3.573
 5274TIP3   OH215762   2.684   6.185   5.638
 5274TIP3    H115763   2.664   6.098   5.604
 5274TIP3    H215764   2.620   6.243   5.597
 5275TIP3   OH215765   4.747   2.619   6.418
 5275TIP3    H115766   4.699   2.700   6.405
 5275TIP3    H215767   4.717   2.586   6.503
 5276TIP3   OH215768   1.014   3.443   6.143
 5276TIP3    H115769   1.029   3.352   6.166
 5276TIP3    H215770   1.102   3.478   6.126
 5277TIP3   OH215771   6.307   3.054   6.105
 5277TIP3    H115772   6.376   3.003   6.064
 5277TIP3    H215773   6.260   2.992   6.160
 5278TIP3   OH215774   8.155   2.703   3.005
 5278TIP3    H115775   8.094   2.712   3.078
 5278TIP3    H215776   8.188   2.792   2.991
 5279TIP3   OH215777   5.459   4.628   1.455
 5279TIP3    H115778   5.467   4.579   1.373
 5279TIP3    H215779   5.530   4.693   1.450
 5280TIP3   OH215780   7.037   5.976   5.959
 5280TIP3    H115781   7.103   6.034   5.921
 5280TIP3    H215782   6.964   5.978   5.897
 5281TIP3   OH215783   3.720   1.342   0.072
 5281TIP3    H115784   3.766   1.422   0.098
 5281TIP3    H215785   3.766   1.272   0.119
 5282TIP3   OH215786   5.462   4.616   5.867
 5282TIP3    H115787   5.492   4.555   5.800
 5282TIP3    H215788   5.479   4.703   5.830
 5283TIP3   OH215789   5.598   7.340   6.314
 5283TIP3    H115790   5.539   7.360   6.388
 5283TIP3    H215791   5.602   7.422   6.264
 5284TIP3   OH215792   8.104   3.219   6.644
 5284TIP3    H115793   8.088   3.300   6.596
 5284TIP3    H215794   8.062   3.232   6.729
 5285TIP3   OH215795   3.219   2.327   2.492
 5285TIP3    H115796   3.124   2.337   2.483
 5285TIP3    H215797   3.246   2.406   2.539
 5286TIP3   OH215798   0.926   1.501   2.769
 5286TIP3    H115799   0.842   1.459   2.787
 5286TIP3    H215800   0.919   1.587   2.810
 5287TIP3   OH215801   7.390   1.434   4.202
 5287TIP3    H115802   7.436   1.378   4.265
 5287TIP3    H215803   7.422   1.522   4.221
 5288TIP3   OH215804   6.143   3.195   1.996
 5288TIP3    H115805   6.067   3.250   1.974
 5288TIP3    H215806   6.109   3.133   2.060
 5289TIP3   OH215807   6.660   4.390   5.770
 5289TIP3    H115808   6.603   4.404   5.694
 5289TIP3    H215809   6.601   4.359   5.839
 5290TIP3   OH215810   3.556   2.725   6.599
 5290TIP3    H115811   3.462   2.711   6.615
 5290TIP3    H215812   3.597   2.643   6.626
 5291TIP3   OH215813   8.261   3.880   1.919
 5291TIP3    H115814   8.215   3.796   1.922
 5291TIP3    H215815   8.257   3.913   2.009
 5292TIP3   OH215816   7.783   5.278   2.278
 5292TIP3    H115817   7.711   5.316   2.227
 5292TIP3    H215818   7.823   5.353   2.322
 5293TIP3   OH215819   0.460   3.061   2.651
 5293TIP3    H115820   0.504   3.013   2.721
 5293TIP3    H215821   0.445   2.995   2.583
 5294TIP3   OH215822   3.699   0.219   4.002
 5294TIP3    H115823   3.761   0.173   4.059
 5294TIP3    H215824   3.719   0.312   4.014
 5295TIP3   OH215825   3.736   5.614   0.500
 5295TIP3    H115826   3.735   5.650   0.411
 5295TIP3    H215827   3.665   5.659   0.545
 5296TIP3   OH215828   6.542   0.269   6.190
 5296TIP3    H115829   6.508   0.346   6.146
 5296TIP3    H215830   6.523   0.284   6.283
 5297TIP3   OH215831   5.795   1.859   4.700
 5297TIP3    H115832   5.720   1.892   4.650
 5297TIP3    H215833   5.836   1.937   4.736
 5298TIP3   OH215834   2.889   1.753   5.749
 5298TIP3    H115835   2.933   1.769   5.666
 5298TIP3    H215836   2.954   1.705   5.802
 5299TIP3   OH215837   3.453   1.104   1.927
 5299TIP3    H115838   3.447   1.025   1.980
 5299TIP3    H215839   3.403   1.170   1.975
 5300TIP3   OH215840   5.580   5.684   2.623
 5300TIP3    H115841   5.669   5.673   2.655
 5300TIP3    H215842   5.583   5.652   2.533
 5301TIP3   OH215843   1.098   0.435   0.524
 5301TIP3    H115844   1.065   0.392   0.445
 5301TIP3    H215845   1.156   0.504   0.492
 5302TIP3   OH215846   5.023   5.348   3.172
 5302TIP3    H115847   4.949   5.313   3.123
 5302TIP3    H215848   4.995   5.435   3.200
 5303TIP3   OH215849   7.030   5.860   3.329
 5303TIP3    H115850   7.067   5.878   3.415
 5303TIP3    H215851   7.084   5.912   3.269
 5304TIP3   OH215852   2.540   6.641   5.419
 5304TIP3    H115853   2.616   6.652   5.363
 5304TIP3    H215854   2.514   6.730   5.443
 5305TIP3   OH215855   8.154   4.406   5.883
 5305TIP3    H115856   8.098   4.441   5.813
 5305TIP3    H215857   8.223   4.358   5.837
 5306TIP3   OH215858   3.840   5.785   5.564
 5306TIP3    H115859   3.825   5.691   5.574
 5306TIP3    H215860   3.860   5.796   5.471
 5307TIP3   OH215861   3.911   0.002   1.839
 5307TIP3    H115862   3.913  -0.006   1.934
 5307TIP3    H215863   3.822  -0.024   1.814
 5308TIP3   OH215864   0.372   4.795   0.147
 5308TIP3    H115865   0.369   4.756   0.234
 5308TIP3    H215866   0.284   4.783   0.112
 5309TIP3   OH215867   4.275   0.363   1.555
 5309TIP3    H115868   4.266   0.427   1.484
 5309TIP3    H215869   4.325   0.292   1.516
 5310TIP3   OH215870   8.064   2.727   5.633
 5310TIP3    H115871   8.086   2.793   5.699
 5310TIP3    H215872   8.100   2.646   5.668
 5311TIP3   OH215873   5.265   4.705   6.054
 5311TIP3    H115874   5.189   4.672   6.006
 5311TIP3    H215875   5.339   4.693   5.995
 5312TIP3   OH215876   0.382   5.749   0.593
 5312TIP3    H115877   0.343   5.835   0.611
 5312TIP3    H215878   0.336   5.717   0.516
 5313TIP3   OH215879   7.030   3.346   6.380
 5313TIP3    H115880   6.948   3.327   6.425
 5313TIP3    H215881   7.003   3.381   6.295
 5314TIP3   OH215882   0.741   0.975   0.401
 5314TIP3    H115883   0.697   0.889   0.399
 5314TIP3    H215884   0.742   1.003   0.310
 5315TIP3   OH215885   0.242   0.023   0.676
 5315TIP3    H115886   0.310   0.078   0.716
 5315TIP3    H215887   0.253   0.038   0.582
 5316TIP3   OH215888   3.749   2.128   3.485
 5316TIP3    H115889   3.710   2.062   3.428
 5316TIP3    H215890   3.828   2.087   3.518
 5317TIP3   OH215891   3.360   0.210   6.041
 5317TIP3    H115892   3.274   0.178   6.067
 5317TIP3    H215893   3.403   0.236   6.122
 5318TIP3   OH215894   8.076   7.195   6.742
 5318TIP3    H115895   8.159   7.204   6.695
 5318TIP3    H215896   8.010   7.229   6.681
 5319TIP3   OH215897   7.512   3.835   6.158
 5319TIP3    H115898   7.509   3.897   6.086
 5319TIP3    H215899   7.570   3.876   6.223
 5320TIP3   OH215900   3.559   0.244   1.053
 5320TIP3    H115901   3.621   0.284   1.114
 5320TIP3    H215902   3.475   0.250   1.098
 5321TIP3   OH215903   6.525   1.098   6.340
 5321TIP3    H115904   6.525   1.145   6.424
 5321TIP3    H215905   6.474   1.019   6.357
 5322TIP3   OH215906   7.465   3.936   4.435
 5322TIP3    H115907   7.501   3.927   4.347
 5322TIP3    H215908   7.489   4.024   4.462
 5323TIP3   OH215909   8.138   1.940   0.611
 5323TIP3    H115910   8.182   2.000   0.551
 5323TIP3    H215911   8.207   1.912   0.672
 5324TIP3   OH215912   5.086   7.405   6.082
 5324TIP3    H115913   5.018   7.416   6.148
 5324TIP3    H215914   5.041   7.418   5.998
 5325TIP3   OH215915   4.232   0.820   3.193
 5325TIP3    H115916   4.200   0.864   3.272
 5325TIP3    H215917   4.284   0.746   3.225
 5326TIP3   OH215918   7.943   7.526   5.899
 5326TIP3    H115919   7.985   7.441   5.883
 5326TIP3    H215920   7.987   7.559   5.977
 5327TIP3   OH215921   0.698   6.482   6.208
 5327TIP3    H115922   0.721   6.393   6.233
 5327TIP3    H215923   0.604   6.487   6.219
 5328TIP3   OH215924   5.409   6.834   3.175
 5328TIP3    H115925   5.446   6.872   3.096
 5328TIP3    H215926   5.427   6.740   3.167
 5329TIP3   OH215927   1.254   4.695   1.893
 5329TIP3    H115928   1.271   4.604   1.869
 5329TIP3    H215929   1.183   4.689   1.957
 5330TIP3   OH215930   7.702   0.864   1.533
 5330TIP3    H115931   7.624   0.917   1.546
 5330TIP3    H215932   7.727   0.834   1.620
 5331TIP3   OH215933   0.528   4.140   0.477
 5331TIP3    H115934   0.568   4.224   0.454
 5331TIP3    H215935   0.453   4.163   0.532
 5332TIP3   OH215936   7.255   4.842   5.278
 5332TIP3    H115937   7.317   4.790   5.330
 5332TIP3    H215938   7.284   4.830   5.188
 5333TIP3   OH215939   1.509   1.400   4.110
 5333TIP3    H115940   1.481   1.313   4.082
 5333TIP3    H215941   1.436   1.434   4.162
 5334TIP3   OH215942   1.255   0.906   1.158
 5334TIP3    H115943   1.174   0.856   1.151
 5334TIP3    H215944   1.230   0.986   1.205
 5335TIP3   OH215945   7.721   0.564   0.178
 5335TIP3    H115946   7.713   0.474   0.146
 5335TIP3    H215947   7.788   0.604   0.122
 5336TIP3   OH215948   1.478   6.758   1.734
 5336TIP3    H115949   1.554   6.805   1.699
 5336TIP3    H215950   1.403   6.798   1.691
 5337TIP3   OH215951   5.592   7.795   5.367
 5337TIP3    H115952   5.537   7.740   5.424
 5337TIP3    H215953   5.545   7.798   5.284
 5338TIP3   OH215954   2.633   0.113   0.959
 5338TIP3    H115955   2.636   0.110   1.055
 5338TIP3    H215956   2.626   0.206   0.938
 5339TIP3   OH215957   0.188   0.236   3.483
 5339TIP3    H115958   0.208   0.322   3.448
 5339TIP3    H215959   0.273   0.191   3.487
 5340TIP3   OH215960   4.461   3.185   1.641
 5340TIP3    H115961   4.409   3.106   1.656
 5340TIP3    H215962   4.452   3.235   1.722
 5341TIP3   OH215963   7.753   3.236   5.310
 5341TIP3    H115964   7.727   3.178   5.381
 5341TIP3    H215965   7.761   3.179   5.233
 5342TIP3   OH215966   6.148   6.247   3.166
 5342TIP3    H115967   6.063   6.239   3.209
 5342TIP3    H215968   6.197   6.309   3.220
 5343TIP3   OH215969   4.652   1.358   4.711
 5343TIP3    H115970   4.659   1.264   4.731
 5343TIP3    H215971   4.593   1.392   4.778
 5344TIP3   OH215972   6.236   3.636   3.462
 5344TIP3    H115973   6.245   3.541   3.457
 5344TIP3    H215974   6.162   3.650   3.520
 5345TIP3   OH215975   0.296   1.885   3.431
 5345TIP3    H115976   0.247   1.843   3.502
 5345TIP3    H215977   0.256   1.852   3.351
 5346TIP3   OH215978   5.802   7.084   3.286
 5346TIP3    H115979   5.744   7.086   3.210
 5346TIP3    H215980   5.743   7.069   3.360
 5347TIP3   OH215981   0.690   4.267   5.572
 5347TIP3    H115982   0.662   4.348   5.530
 5347TIP3    H215983   0.621   4.247   5.635
 5348TIP3   OH215984   7.715   1.593   6.681
 5348TIP3    H115985   7.677   1.653   6.618
 5348TIP3    H215986   7.806   1.582   6.654
 5349TIP3   OH215987   6.545   5.370   4.247
 5349TIP3    H115988   6.529   5.453   4.202
 5349TIP3    H215989   6.636   5.375   4.275
 5350TIP3   OH215990   4.897   3.306   5.815
 5350TIP3    H115991   4.969   3.252   5.847
 5350TIP3    H215992   4.831   3.243   5.785
 5351TIP3   OH215993   4.433   3.167   2.221
 5351TIP3    H115994   4.371   3.113   2.270
 5351TIP3    H215995   4.514   3.165   2.273
 5352TIP3   OH215996   5.895   4.120   6.298
 5352TIP3    H115997   5.979   4.155   6.327
 5352TIP3    H215998   5.847   4.196   6.264
 5353TIP3   OH215999   1.742   2.656   2.184
 5353TIP3    H116000   1.782   2.574   2.154
 5353TIP3    H216001   1.724   2.642   2.277
 5354TIP3   OH216002   7.448   6.187   2.442
 5354TIP3    H116003   7.361   6.227   2.448
 5354TIP3    H216004   7.473   6.199   2.350
 5355TIP3   OH216005   5.974   3.323   6.270
 5355TIP3    H116006   5.943   3.389   6.208
 5355TIP3    H216007   5.990   3.246   6.216
 5356TIP3   OH216008   3.413   4.022   1.536
 5356TIP3    H116009   3.484   4.052   1.593
 5356TIP3    H216010   3.425   4.070   1.454
 5357TIP3   OH216011   8.021   7.585   5.182
 5357TIP3    H116012   8.116   7.578   5.179
 5357TIP3    H216013   8.002   7.678   5.175
 5358TIP3   OH216014   4.629   1.502   2.051
 5358TIP3    H116015   4.656   1.429   1.995
 5358TIP3    H216016   4.709   1.529   2.096
 5359TIP3   OH216017   2.978   3.571   0.439
 5359TIP3    H116018   2.929   3.631   0.382
 5359TIP3    H216019   2.951   3.595   0.528
 5360TIP3   OH216020   3.837   4.880   0.756
 5360TIP3    H116021   3.782   4.810   0.721
 5360TIP3    H216022   3.775   4.940   0.798
 5361TIP3   OH216023   3.593   0.853   2.415
 5361TIP3    H116024   3.662   0.850   2.481
 5361TIP3    H216025   3.518   0.810   2.458
 5362TIP3   OH216026   4.234   5.175   3.901
 5362TIP3    H116027   4.329   5.169   3.891
 5362TIP3    H216028   4.199   5.104   3.847
 5363TIP3   OH216029   8.029   7.777   4.655
 5363TIP3    H116030   7.972   7.782   4.732
 5363TIP3    H216031   8.069   7.863   4.648
 5364TIP3   OH216032   2.053   0.229   1.318
 5364TIP3    H116033   2.140   0.264   1.302
 5364TIP3    H216034   2.011   0.228   1.231
 5365TIP3   OH216035   4.329   4.766   5.479
 5365TIP3    H116036   4.271   4.735   5.409
 5365TIP3    H216037   4.270   4.803   5.544
 5366TIP3   OH216038   3.544   4.404   1.065
 5366TIP3    H116039   3.561   4.413   0.971
 5366TIP3    H216040   3.451   4.427   1.074
 5367TIP3   OH216041   7.576   0.487   2.315
 5367TIP3    H116042   7.648   0.458   2.371
 5367TIP3    H216043   7.540   0.563   2.360
 5368TIP3   OH216044   5.195   3.883   2.661
 5368TIP3    H116045   5.102   3.892   2.683
 5368TIP3    H216046   5.202   3.914   2.571
 5369TIP3   OH216047   1.398   5.595   3.842
 5369TIP3    H116048   1.329   5.552   3.893
 5369TIP3    H216049   1.417   5.676   3.890
 5370TIP3   OH216050   5.292   0.540   3.253
 5370TIP3    H116051   5.248   0.543   3.168
 5370TIP3    H216052   5.258   0.461   3.295
 5371TIP3   OH216053   4.890   4.804   0.567
 5371TIP3    H116054   4.912   4.825   0.476
 5371TIP3    H216055   4.914   4.712   0.577
 5372TIP3   OH216056   5.176   3.968   2.925
 5372TIP3    H116057   5.243   3.917   2.880
 5372TIP3    H216058   5.093   3.939   2.886
 5373TIP3   OH216059   1.582   5.002   3.378
 5373TIP3    H116060   1.618   5.077   3.330
 5373TIP3    H216061   1.572   5.035   3.468
 5374TIP3   OH216062   1.014   4.163   6.044
 5374TIP3    H116063   0.987   4.255   6.050
 5374TIP3    H216064   1.099   4.166   6.001
 5375TIP3   OH216065   3.471   1.908   0.645
 5375TIP3    H116066   3.505   1.919   0.734
 5375TIP3    H216067   3.512   1.979   0.595
 5376TIP3   OH216068   2.500   1.153   6.057
 5376TIP3    H116069   2.415   1.120   6.029
 5376TIP3    H216070   2.480   1.229   6.111
 5377TIP3   OH216071   4.602   5.763   5.286
 5377TIP3    H116072   4.642   5.850   5.283
 5377TIP3    H216073   4.513   5.777   5.254
 5378TIP3   OH216074   5.296   0.202   4.438
 5378TIP3    H116075   5.345   0.256   4.499
 5378TIP3    H216076   5.327   0.113   4.455
 5379TIP3   OH216077   5.207   1.195   5.119
 5379TIP3    H116078   5.217   1.107   5.082
 5379TIP3    H216079   5.290   1.239   5.100
 5380TIP3   OH216080   3.483   7.554   4.791
 5380TIP3    H116081   3.412   7.495   4.766
 5380TIP3    H216082   3.454   7.591   4.874
 5381TIP3   OH216083   6.566   7.463   6.491
 5381TIP3    H116084   6.618   7.453   6.570
 5381TIP3    H216085   6.486   7.412   6.507
 5382TIP3   OH216086   4.362   0.555   3.243
 5382TIP3    H116087   4.288   0.495   3.233
 5382TIP3    H216088   4.362   0.576   3.337
 5383TIP3   OH216089   5.170   2.044   5.595
 5383TIP3    H116090   5.188   1.953   5.617
 5383TIP3    H216091   5.244   2.072   5.542
 5384TIP3   OH216092   5.300   2.889   1.700
 5384TIP3    H116093   5.371   2.922   1.645
 5384TIP3    H216094   5.326   2.912   1.789
 5385TIP3   OH216095   2.243   4.769   3.146
 5385TIP3    H116096   2.163   4.787   3.097
 5385TIP3    H216097   2.302   4.728   3.083
 5386TIP3   OH216098   2.580   1.766   1.100
 5386TIP3    H116099   2.651   1.739   1.042
 5386TIP3    H216100   2.620   1.768   1.187
 5387TIP3   OH216101   4.052   4.387   2.959
 5387TIP3    H116102   3.984   4.338   2.912
 5387TIP3    H216103   4.122   4.324   2.972
 5388TIP3   OH216104   6.045   7.122   5.077
 5388TIP3    H116105   6.132   7.084   5.093
 5388TIP3    H216106   6.023   7.093   4.988
 5389TIP3   OH216107   5.484   0.919   0.900
 5389TIP3    H116108   5.459   1.010   0.918
 5389TIP3    H216109   5.504   0.882   0.986
 5390TIP3   OH216110   6.506   0.907   0.674
 5390TIP3    H116111   6.512   0.813   0.691
 5390TIP3    H216112   6.596   0.934   0.654
 5391TIP3   OH216113   2.704   5.616   5.756
 5391TIP3    H116114   2.682   5.709   5.749
 5391TIP3    H216115   2.799   5.615   5.763
 5392TIP3   OH216116   6.197   7.680   5.858
 5392TIP3    H116117   6.240   7.756   5.897
 5392TIP3    H216118   6.255   7.606   5.877
 5393TIP3   OH216119   3.910   0.062   6.257
 5393TIP3    H116120   3.952   0.130   6.310
 5393TIP3    H216121   3.873   0.110   6.183
 5394TIP3   OH216122   5.464   3.872   4.819
 5394TIP3    H116123   5.412   3.879   4.899
 5394TIP3    H216124   5.401   3.845   4.752
 5395TIP3   OH216125   0.866   4.078   1.872
 5395TIP3    H116126   0.819   4.047   1.796
 5395TIP3    H216127   0.890   4.169   1.851
 5396TIP3   OH216128   1.940   2.185   0.938
 5396TIP3    H116129   1.896   2.247   0.996
 5396TIP3    H216130   2.012   2.150   0.990
 5397TIP3   OH216131   3.018   1.964   1.634
 5397TIP3    H116132   3.041   1.974   1.542
 5397TIP3    H216133   2.998   2.052   1.664
 5398TIP3   OH216134   2.693   7.372   0.767
 5398TIP3    H116135   2.613   7.361   0.819
 5398TIP3    H216136   2.720   7.462   0.785
 5399TIP3   OH216137   5.897   5.296   2.484
 5399TIP3    H116138   5.916   5.203   2.473
 5399TIP3    H216139   5.978   5.332   2.522
 5400TIP3   OH216140   1.550   4.826   2.436
 5400TIP3    H116141   1.511   4.910   2.461
 5400TIP3    H216142   1.511   4.806   2.351
 5401TIP3   OH216143   0.712   7.269   0.041
 5401TIP3    H116144   0.640   7.327   0.015
 5401TIP3    H216145   0.671   7.207   0.102
 5402TIP3   OH216146   6.086   1.967   1.189
 5402TIP3    H116147   6.165   1.990   1.141
 5402TIP3    H216148   6.045   2.051   1.209
 5403TIP3   OH216149   4.927   1.918   2.280
 5403TIP3    H116150   4.891   1.883   2.198
 5403TIP3    H216151   4.852   1.920   2.339
 5404TIP3   OH216152   2.192   2.751   2.800
 5404TIP3    H116153   2.233   2.665   2.796
 5404TIP3    H216154   2.185   2.771   2.893
 5405TIP3   OH216155   0.821   0.963   5.461
 5405TIP3    H116156   0.858   0.941   5.547
 5405TIP3    H216157   0.738   1.007   5.482
 5406TIP3   OH216158   7.330   0.410   4.764
 5406TIP3    H116159   7.344   0.384   4.855
 5406TIP3    H216160   7.306   0.329   4.720
 5407TIP3   OH216161   4.529   0.677   4.647
 5407TIP3    H116162   4.577   0.597   4.623
 5407TIP3    H216163   4.514   0.668   4.741
 5408TIP3   OH216164   2.858   0.971   3.174
 5408TIP3    H116165   2.821   0.934   3.254
 5408TIP3    H216166   2.804   0.935   3.104
 5409TIP3   OH216167   5.571   1.995   0.525
 5409TIP3    H116168   5.587   1.901   0.513
 5409TIP3    H216169   5.488   2.011   0.479
 5410TIP3   OH216170   3.879   4.997   2.541
 5410TIP3    H116171   3.838   4.960   2.619
 5410TIP3    H216172   3.891   5.090   2.563
 5411TIP3   OH216173   4.677   1.393   5.363
 5411TIP3    H116174   4.704   1.459   5.299
 5411TIP3    H216175   4.758   1.349   5.387
 5412TIP3   OH216176   1.644   3.460   1.585
 5412TIP3    H116177   1.572   3.428   1.529
 5412TIP3    H216178   1.723   3.445   1.533
 5413TIP3   OH216179   4.542   7.406   5.011
 5413TIP3    H116180   4.598   7.483   5.009
 5413TIP3    H216181   4.580   7.346   4.946
 5414TIP3   OH216182   3.344   2.475   5.798
 5414TIP3    H116183   3.430   2.437   5.815
 5414TIP3    H216184   3.298   2.409   5.745
 5415TIP3   OH216185   2.748   2.254   0.203
 5415TIP3    H116186   2.686   2.259   0.276
 5415TIP3    H216187   2.706   2.302   0.132
 5416TIP3   OH216188   7.486   3.650   6.781
 5416TIP3    H116189   7.442   3.733   6.798
 5416TIP3    H216190   7.418   3.584   6.790
 5417TIP3   OH216191   2.692   2.895   4.134
 5417TIP3    H116192   2.610   2.936   4.161
 5417TIP3    H216193   2.691   2.809   4.177
 5418TIP3   OH216194   2.045   6.431   4.692
 5418TIP3    H116195   2.118   6.407   4.748
 5418TIP3    H216196   2.084   6.479   4.620
 5419TIP3   OH216197   1.064   1.650   1.395
 5419TIP3    H116198   1.088   1.692   1.477
 5419TIP3    H216199   0.985   1.696   1.367
 5420TIP3   OH216200   5.912   4.337   2.872
 5420TIP3    H116201   5.992   4.389   2.862
 5420TIP3    H216202   5.855   4.393   2.925
 5421TIP3   OH216203   1.637   5.083   5.816
 5421TIP3    H116204   1.699   5.156   5.805
 5421TIP3    H216205   1.689   5.014   5.856
 5422TIP3   OH216206   1.543   0.698   0.227
 5422TIP3    H116207   1.572   0.705   0.136
 5422TIP3    H216208   1.508   0.609   0.233
 5423TIP3   OH216209   3.954   6.362   5.811
 5423TIP3    H116210   3.935   6.347   5.904
 5423TIP3    H216211   3.895   6.303   5.765
 5424TIP3   OH216212   7.424   7.347   2.815
 5424TIP3    H116213   7.463   7.410   2.754
 5424TIP3    H216214   7.446   7.381   2.901
 5425TIP3   OH216215   2.121   5.082   2.847
 5425TIP3    H116216   2.130   5.035   2.764
 5425TIP3    H216217   2.185   5.153   2.841
 5426TIP3   OH216218   3.542   3.659   6.593
 5426TIP3    H116219   3.585   3.728   6.644
 5426TIP3    H216220   3.450   3.684   6.591
 5427TIP3   OH216221   4.250   0.979   6.529
 5427TIP3    H116222   4.323   0.981   6.467
 5427TIP3    H216223   4.287   1.012   6.611
 5428TIP3   OH216224   0.022   3.369   3.803
 5428TIP3    H116225  -0.007   3.440   3.745
 5428TIP3    H216226   0.110   3.348   3.773
 5429TIP3   OH216227   5.067   6.836   4.249
 5429TIP3    H116228   5.095   6.757   4.202
 5429TIP3    H216229   4.986   6.810   4.293
 5430TIP3   OH216230   0.311   5.489   2.332
 5430TIP3    H116231   0.305   5.474   2.238
 5430TIP3    H216232   0.401   5.518   2.346
 5431TIP3   OH216233   4.327   7.435   0.031
 5431TIP3    H116234   4.249   7.382   0.042
 5431TIP3    H216235   4.399   7.378   0.055
 5432TIP3   OH216236   3.441   2.036   2.419
 5432TIP3    H116237   3.347   2.036   2.434
 5432TIP3    H216238   3.453   1.991   2.335
 5433TIP3   OH216239   6.006   7.437   2.046
 5433TIP3    H116240   6.006   7.528   2.015
 5433TIP3    H216241   6.097   7.418   2.065
 5434TIP3   OH216242   5.240   4.477   4.665
 5434TIP3    H116243   5.221   4.555   4.717
 5434TIP3    H216244   5.283   4.417   4.726
 5435TIP3   OH216245   2.475   4.047   5.246
 5435TIP3    H116246   2.437   4.135   5.251
 5435TIP3    H216247   2.434   3.999   5.318
 5436TIP3   OH216248   8.222   0.362   2.374
 5436TIP3    H116249   8.268   0.278   2.377
 5436TIP3    H216250   8.246   0.399   2.289
 5437TIP3   OH216251   5.030   4.120   1.075
 5437TIP3    H116252   4.943   4.149   1.103
 5437TIP3    H216253   5.014   4.038   1.028
 5438TIP3   OH216254   6.479   6.825   3.667
 5438TIP3    H116255   6.425   6.759   3.711
 5438TIP3    H216256   6.472   6.903   3.722
 5439TIP3   OH216257   4.158   3.674   6.798
 5439TIP3    H116258   4.070   3.703   6.823
 5439TIP3    H216259   4.172   3.712   6.712
 5440TIP3   OH216260   0.276   0.250   5.444
 5440TIP3    H116261   0.353   0.201   5.418
 5440TIP3    H216262   0.211   0.183   5.465
 5441TIP3   OH216263   0.933   0.606   0.222
 5441TIP3    H116264   0.839   0.599   0.237
 5441TIP3    H216265   0.964   0.672   0.284
 5442TIP3   OH216266   0.364   6.283   1.114
 5442TIP3    H116267   0.447   6.330   1.123
 5442TIP3    H216268   0.303   6.348   1.078
 5443TIP3   OH216269   0.506   7.035   6.834
 5443TIP3    H116270   0.555   6.957   6.809
 5443TIP3    H216271   0.421   7.003   6.862
 5444TIP3   OH216272   7.027   7.141   1.431
 5444TIP3    H116273   7.058   7.156   1.520
 5444TIP3    H216274   7.081   7.199   1.377
 5445TIP3   OH216275   5.006   7.540   4.951
 5445TIP3    H116276   4.971   7.481   5.017
 5445TIP3    H216277   5.100   7.544   4.970
 5446TIP3   OH216278   5.896   0.976   2.825
 5446TIP3    H116279   5.913   0.960   2.732
 5446TIP3    H216280   5.905   0.890   2.866
 5447TIP3   OH216281   8.297   6.717   4.310
 5447TIP3    H116282   8.231   6.732   4.377
 5447TIP3    H216283   8.288   6.624   4.288
 5448TIP3   OH216284   4.876   5.787   0.458
 5448TIP3    H116285   4.921   5.859   0.414
 5448TIP3    H216286   4.789   5.821   0.477
 5449TIP3   OH216287   5.232   4.444   1.544
 5449TIP3    H116288   5.285   4.514   1.505
 5449TIP3    H216289   5.275   4.364   1.515
 5450TIP3   OH216290   1.487   7.220   2.452
 5450TIP3    H116291   1.558   7.159   2.466
 5450TIP3    H216292   1.525   7.291   2.401
 5451TIP3   OH216293   2.784   0.895   2.204
 5451TIP3    H116294   2.765   0.923   2.114
 5451TIP3    H216295   2.715   0.832   2.225
 5452TIP3   OH216296   1.541   7.167   1.337
 5452TIP3    H116297   1.616   7.127   1.382
 5452TIP3    H216298   1.576   7.249   1.301
 5453TIP3   OH216299   5.606   4.376   3.889
 5453TIP3    H116300   5.533   4.335   3.935
 5453TIP3    H216301   5.570   4.400   3.804
 5454TIP3   OH216302   6.702   4.725   1.052
 5454TIP3    H116303   6.785   4.705   1.010
 5454TIP3    H216304   6.722   4.727   1.146
 5455TIP3   OH216305   2.833   1.803   2.826
 5455TIP3    H116306   2.883   1.759   2.895
 5455TIP3    H216307   2.784   1.871   2.873
 5456TIP3   OH216308   7.190   6.089   1.107
 5456TIP3    H116309   7.193   6.153   1.035
 5456TIP3    H216310   7.248   6.126   1.174
 5457TIP3   OH216311   4.921   5.038   0.988
 5457TIP3    H116312   4.909   5.125   1.026
 5457TIP3    H216313   4.984   4.995   1.045
 5458TIP3   OH216314   5.405   0.821   2.310
 5458TIP3    H116315   5.462   0.840   2.235
 5458TIP3    H216316   5.465   0.796   2.380
 5459TIP3   OH216317   4.774   5.883   3.122
 5459TIP3    H116318   4.729   5.925   3.049
 5459TIP3    H216319   4.817   5.955   3.168
 5460TIP3   OH216320   2.370   0.107   3.617
 5460TIP3    H116321   2.363   0.045   3.689
 5460TIP3    H216322   2.410   0.185   3.657
 5461TIP3   OH216323   6.473   7.416   4.020
 5461TIP3    H116324   6.564   7.389   4.027
 5461TIP3    H216325   6.460   7.476   4.094
 5462TIP3   OH216326   4.236   2.082   5.152
 5462TIP3    H116327   4.210   2.109   5.240
 5462TIP3    H216328   4.291   2.154   5.120
 5463TIP3   OH216329   0.041   5.846   2.208
 5463TIP3    H116330   0.033   5.779   2.275
 5463TIP3    H216331   0.032   5.799   2.125
 5464TIP3   OH216332   0.290   6.244   2.269
 5464TIP3    H116333   0.200   6.274   2.276
 5464TIP3    H216334   0.301   6.181   2.340
 5465TIP3   OH216335   0.279   5.727   2.738
 5465TIP3    H116336   0.347   5.750   2.801
 5465TIP3    H216337   0.198   5.728   2.790
 5466TIP3   OH216338   0.929   0.245   4.207
 5466TIP3    H116339   0.951   0.270   4.118
 5466TIP3    H216340   0.869   0.171   4.197
 5467TIP3   OH216341   7.539   7.801   3.126
 5467TIP3    H116342   7.450   7.773   3.148
 5467TIP3    H216343   7.562   7.864   3.195
 5468TIP3   OH216344   7.832   5.926   3.213
 5468TIP3    H116345   7.892   5.974   3.156
 5468TIP3    H216346   7.857   5.835   3.203
 5469TIP3   OH216347   4.292   1.405   3.549
 5469TIP3    H116348   4.241   1.398   3.468
 5469TIP3    H216349   4.369   1.456   3.524
 5470TIP3   OH216350   6.463   0.378   0.778
 5470TIP3    H116351   6.374   0.348   0.795
 5470TIP3    H216352   6.505   0.306   0.731
 5471TIP3   OH216353   3.579   6.007   6.035
 5471TIP3    H116354   3.657   6.002   6.091
 5471TIP3    H216355   3.508   6.031   6.096
 5472TIP3   OH216356   2.509   1.565   4.645
 5472TIP3    H116357   2.554   1.559   4.561
 5472TIP3    H216358   2.438   1.628   4.630
 5473TIP3   OH216359   5.155   0.603   3.022
 5473TIP3    H116360   5.062   0.587   3.036
 5473TIP3    H216361   5.166   0.604   2.927
 5474TIP3   OH216362   5.392   2.501   0.837
 5474TIP3    H116363   5.365   2.446   0.911
 5474TIP3    H216364   5.406   2.440   0.765
 5475TIP3   OH216365   1.576   4.830   1.853
 5475TIP3    H116366   1.488   4.793   1.862
 5475TIP3    H216367   1.563   4.924   1.855
 5476TIP3   OH216368   6.958   2.058   5.777
 5476TIP3    H116369   6.884   2.092   5.828
 5476TIP3    H216370   6.965   2.116   5.702
 5477TIP3   OH216371   2.915   4.438   2.076
 5477TIP3    H116372   2.974   4.513   2.067
 5477TIP3    H216373   2.935   4.404   2.163
 5478TIP3   OH216374   1.635   4.647   2.644
 5478TIP3    H116375   1.579   4.693   2.582
 5478TIP3    H216376   1.601   4.558   2.646
 5479TIP3   OH216377   1.666   4.642   5.658
 5479TIP3    H116378   1.668   4.735   5.635
 5479TIP3    H216379   1.580   4.629   5.699
 5480TIP3   OH216380   4.554   1.095   3.265
 5480TIP3    H116381   4.521   1.179   3.234
 5480TIP3    H216382   4.499   1.074   3.341
 5481TIP3   OH216383   8.126   2.235   5.178
 5481TIP3    H116384   8.151   2.221   5.269
 5481TIP3    H216385   8.073   2.159   5.155
 5482TIP3   OH216386   5.340   7.868   0.803
 5482TIP3    H116387   5.340   7.935   0.871
 5482TIP3    H216388   5.275   7.898   0.739
 5483TIP3   OH216389   3.534   7.542   6.575
 5483TIP3    H116390   3.617   7.559   6.530
 5483TIP3    H216391   3.489   7.478   6.520
 5484TIP3   OH216392   1.871   6.434   1.483
 5484TIP3    H116393   1.780   6.452   1.458
 5484TIP3    H216394   1.867   6.351   1.530
 5485TIP3   OH216395   5.965   5.454   1.542
 5485TIP3    H116396   5.921   5.438   1.459
 5485TIP3    H216397   6.048   5.494   1.518
 5486TIP3   OH216398   2.372   0.786   1.469
 5486TIP3    H116399   2.359   0.746   1.383
 5486TIP3    H216400   2.299   0.847   1.479
 5487TIP3   OH216401   3.711   0.219   6.099
 5487TIP3    H116402   3.690   0.312   6.112
 5487TIP3    H216403   3.693   0.204   6.006
 5488TIP3   OH216404   6.833   2.477   0.628
 5488TIP3    H116405   6.902   2.439   0.682
 5488TIP3    H216406   6.855   2.451   0.539
 5489TIP3   OH216407   0.382   7.844   1.432
 5489TIP3    H116408   0.351   7.756   1.412
 5489TIP3    H216409   0.320   7.877   1.497
 5490TIP3   OH216410   7.032   3.645   0.868
 5490TIP3    H116411   7.116   3.681   0.896
 5490TIP3    H216412   7.009   3.581   0.935
 5491TIP3   OH216413   7.823   0.388   2.434
 5491TIP3    H116414   7.847   0.352   2.519
 5491TIP3    H216415   7.879   0.465   2.424
 5492TIP3   OH216416   4.590   1.351   0.330
 5492TIP3    H116417   4.495   1.339   0.338
 5492TIP3    H216418   4.627   1.289   0.394
 5493TIP3   OH216419   4.810   1.873   2.022
 5493TIP3    H116420   4.715   1.871   2.023
 5493TIP3    H216421   4.834   1.818   1.947
 5494TIP3   OH216422   4.448   0.575   2.233
 5494TIP3    H116423   4.487   0.647   2.184
 5494TIP3    H216424   4.392   0.529   2.170
 5495TIP3   OH216425   6.216   1.516   6.797
 5495TIP3    H116426   6.196   1.605   6.767
 5495TIP3    H216427   6.133   1.482   6.830
 5496TIP3   OH216428   1.764   0.694   4.286
 5496TIP3    H116429   1.747   0.732   4.200
 5496TIP3    H216430   1.847   0.648   4.276
 5497TIP3   OH216431   5.407   2.316   4.452
 5497TIP3    H116432   5.432   2.281   4.366
 5497TIP3    H216433   5.402   2.240   4.509
 5498TIP3   OH216434   1.916   7.658   5.182
 5498TIP3    H116435   1.845   7.721   5.188
 5498TIP3    H216436   1.982   7.701   5.128
 5499TIP3   OH216437   2.875   1.012   5.746
 5499TIP3    H116438   2.877   1.067   5.824
 5499TIP3    H216439   2.799   1.043   5.697
 5500TIP3   OH216440   8.161   7.316   5.871
 5500TIP3    H116441   8.200   7.240   5.828
 5500TIP3    H216442   8.234   7.377   5.882
 5501TIP3   OH216443   5.890   3.127   4.713
 5501TIP3    H116444   5.880   3.217   4.742
 5501TIP3    H216445   5.884   3.131   4.618
 5502TIP3   OH216446   6.092   0.949   1.606
 5502TIP3    H116447   6.089   0.924   1.513
 5502TIP3    H216448   6.185   0.966   1.623
 5503TIP3   OH216449   2.294   5.670   4.832
 5503TIP3    H116450   2.238   5.600   4.798
 5503TIP3    H216451   2.270   5.747   4.780
 5504TIP3   OH216452   1.138   2.378   3.040
 5504TIP3    H116453   1.100   2.357   3.125
 5504TIP3    H216454   1.232   2.361   3.051
 5505TIP3   OH216455   3.037   4.688   2.169
 5505TIP3    H116456   3.060   4.775   2.136
 5505TIP3    H216457   3.038   4.698   2.264
 5506TIP3   OH216458   6.263   2.552   1.521
 5506TIP3    H116459   6.284   2.629   1.574
 5506TIP3    H216460   6.170   2.536   1.537
 5507TIP3   OH216461   5.159   7.899   1.779
 5507TIP3    H116462   5.210   7.845   1.840
 5507TIP3    H216463   5.071   7.902   1.817
 5508TIP3   OH216464   7.379   2.911   6.773
 5508TIP3    H116465   7.410   2.943   6.688
 5508TIP3    H216466   7.426   2.828   6.786
 5509TIP3   OH216467   0.288   2.285   6.817
 5509TIP3    H116468   0.339   2.359   6.783
 5509TIP3    H216469   0.264   2.312   6.906
 5510TIP3   OH216470   1.796   3.440   2.385
 5510TIP3    H116471   1.828   3.405   2.302
 5510TIP3    H216472   1.702   3.455   2.370
 5511TIP3   OH216473   8.125   5.340   3.168
 5511TIP3    H116474   8.110   5.410   3.105
 5511TIP3    H216475   8.208   5.363   3.210
 5512TIP3   OH216476   2.502   0.461  -0.049
 5512TIP3    H116477   2.543   0.381  -0.015
 5512TIP3    H216478   2.556   0.532  -0.016
 5513TIP3   OH216479   4.404   5.434   6.808
 5513TIP3    H116480   4.458   5.466   6.736
 5513TIP3    H216481   4.465   5.385   6.864
 5514TIP3   OH216482   6.154   6.236   4.114
 5514TIP3    H116483   6.232   6.222   4.061
 5514TIP3    H216484   6.081   6.219   4.054
 5515TIP3   OH216485   4.996   0.284   6.717
 5515TIP3    H116486   4.906   0.275   6.747
 5515TIP3    H216487   5.022   0.372   6.744
 5516TIP3   OH216488   3.843   2.803   6.532
 5516TIP3    H116489   3.866   2.713   6.556
 5516TIP3    H216490   3.752   2.797   6.502
 5517TIP3   OH216491   2.943   2.382   4.617
 5517TIP3    H116492   2.864   2.333   4.643
 5517TIP3    H216493   2.982   2.328   4.547
 5518TIP3   OH216494   2.721   6.198   2.725
 5518TIP3    H116495   2.700   6.165   2.637
 5518TIP3    H216496   2.790   6.140   2.756
 5519TIP3   OH216497   6.798   4.939   4.161
 5519TIP3    H116498   6.746   5.019   4.158
 5519TIP3    H216499   6.794   4.912   4.252
 5520TIP3   OH216500   4.778   6.869   4.000
 5520TIP3    H116501   4.824   6.922   3.935
 5520TIP3    H216502   4.738   6.932   4.059
 5521TIP3   OH216503   3.026   2.532   5.737
 5521TIP3    H116504   3.084   2.607   5.744
 5521TIP3    H216505   3.084   2.457   5.723
 5522TIP3   OH216506   4.637   1.055   2.880
 5522TIP3    H116507   4.580   1.129   2.858
 5522TIP3    H216508   4.581   0.978   2.871
 5523TIP3   OH216509   0.921   2.885   5.381
 5523TIP3    H116510   0.851   2.876   5.317
 5523TIP3    H216511   0.927   2.979   5.396
 5524TIP3   OH216512   2.685   0.224   4.222
 5524TIP3    H116513   2.600   0.256   4.194
 5524TIP3    H216514   2.724   0.298   4.270
 5525TIP3   OH216515   4.126   7.650   0.232
 5525TIP3    H116516   4.220   7.655   0.251
 5525TIP3    H216517   4.098   7.569   0.274
 5526TIP3   OH216518   3.834   3.163   5.025
 5526TIP3    H116519   3.862   3.141   4.936
 5526TIP3    H216520   3.785   3.245   5.015
 5527TIP3   OH216521   4.217   2.308   6.012
 5527TIP3    H116522   4.277   2.239   6.040
 5527TIP3    H216523   4.265   2.389   6.027
 5528TIP3   OH216524   5.083   1.553   2.753
 5528TIP3    H116525   5.077   1.466   2.793
 5528TIP3    H216526   5.052   1.613   2.821
 5529TIP3   OH216527   7.643   7.050   6.638
 5529TIP3    H116528   7.712   7.044   6.572
 5529TIP3    H216529   7.681   7.009   6.716
 5530TIP3   OH216530   8.027   1.144   3.710
 5530TIP3    H116531   8.067   1.219   3.754
 5530TIP3    H216532   7.990   1.180   3.629
 5531TIP3   OH216533   8.360   1.495   3.095
 5531TIP3    H116534   8.445   1.481   3.052
 5531TIP3    H216535   8.300   1.515   3.023
 5532TIP3   OH216536   5.078   1.861   2.573
 5532TIP3    H116537   4.985   1.855   2.553
 5532TIP3    H216538   5.113   1.774   2.555
 5533TIP3   OH216539   0.243   0.966   5.646
 5533TIP3    H116540   0.253   0.873   5.627
 5533TIP3    H216541   0.188   0.970   5.725
 5534TIP3   OH216542   4.529   1.745   2.158
 5534TIP3    H116543   4.532   1.723   2.065
 5534TIP3    H216544   4.449   1.703   2.190
 5535TIP3   OH216545   8.340   4.812   2.993
 5535TIP3    H116546   8.253   4.807   2.954
 5535TIP3    H216547   8.387   4.738   2.955
 5536TIP3   OH216548   2.845   5.871   3.325
 5536TIP3    H116549   2.836   5.799   3.388
 5536TIP3    H216550   2.869   5.828   3.243
 5537TIP3   OH216551   7.659   7.467   1.569
 5537TIP3    H116552   7.728   7.401   1.582
 5537TIP3    H216553   7.618   7.476   1.655
 5538TIP3   OH216554   8.220   0.238   5.355
 5538TIP3    H116555   8.186   0.209   5.270
 5538TIP3    H216556   8.248   0.328   5.339
 5539TIP3   OH216557   1.232   7.422   2.748
 5539TIP3    H116558   1.193   7.334   2.746
 5539TIP3    H216559   1.325   7.406   2.761
 5540TIP3   OH216560   3.182   0.773   1.032
 5540TIP3    H116561   3.123   0.797   0.960
 5540TIP3    H216562   3.252   0.838   1.027
 5541TIP3   OH216563   6.441   5.829   4.426
 5541TIP3    H116564   6.530   5.794   4.426
 5541TIP3    H216565   6.392   5.768   4.371
 5542TIP3   OH216566   6.449   3.582   1.365
 5542TIP3    H116567   6.432   3.522   1.437
 5542TIP3    H216568   6.404   3.543   1.290
 5543TIP3   OH216569   5.292   4.177   1.556
 5543TIP3    H116570   5.267   4.160   1.648
 5543TIP3    H216571   5.382   4.148   1.550
 5544TIP3   OH216572   4.192   7.790   5.512
 5544TIP3    H116573   4.219   7.882   5.514
 5544TIP3    H216574   4.139   7.783   5.433
 5545TIP3   OH216575   8.108   4.213   4.746
 5545TIP3    H116576   8.184   4.228   4.802
 5545TIP3    H216577   8.087   4.299   4.710
 5546TIP3   OH216578   1.494   2.896   0.098
 5546TIP3    H116579   1.442   2.960   0.147
 5546TIP3    H216580   1.430   2.846   0.049
 5547TIP3   OH216581   6.041   0.063   4.578
 5547TIP3    H116582   5.971   0.053   4.513
 5547TIP3    H216583   6.072  -0.026   4.593
 5548TIP3   OH216584   0.810   4.195   2.132
 5548TIP3    H116585   0.892   4.243   2.141
 5548TIP3    H216586   0.830   4.122   2.074
 5549TIP3   OH216587   5.225   5.671   0.545
 5549TIP3    H116588   5.295   5.630   0.494
 5549TIP3    H216589   5.227   5.626   0.629
 5550TIP3   OH216590   4.498   0.866   4.260
 5550TIP3    H116591   4.414   0.824   4.278
 5550TIP3    H216592   4.528   0.898   4.345
 5551TIP3   OH216593   7.666   1.499   6.038
 5551TIP3    H116594   7.571   1.507   6.040
 5551TIP3    H216595   7.696   1.549   6.114
 5552TIP3   OH216596   6.099   4.815   5.433
 5552TIP3    H116597   6.031   4.751   5.412
 5552TIP3    H216598   6.052   4.886   5.477
 5553TIP3   OH216599   3.050   5.559   4.009
 5553TIP3    H116600   3.104   5.537   3.933
 5553TIP3    H216601   2.973   5.602   3.971
 5554TIP3   OH216602   6.629   7.552   5.895
 5554TIP3    H116603   6.694   7.609   5.854
 5554TIP3    H216604   6.664   7.534   5.982
 5555TIP3   OH216605   0.455   1.804   3.871
 5555TIP3    H116606   0.527   1.765   3.921
 5555TIP3    H216607   0.496   1.873   3.819
 5556TIP3   OH216608   2.851   3.567   2.139
 5556TIP3    H116609   2.771   3.544   2.093
 5556TIP3    H216610   2.878   3.650   2.100
 5557TIP3   OH216611   1.030   0.977   4.528
 5557TIP3    H116612   1.055   1.066   4.501
 5557TIP3    H216613   1.068   0.920   4.462
 5558TIP3   OH216614   4.648   1.824   0.763
 5558TIP3    H116615   4.606   1.907   0.742
 5558TIP3    H216616   4.683   1.793   0.679
 5559TIP3   OH216617   1.996   6.912   4.112
 5559TIP3    H116618   1.993   6.882   4.203
 5559TIP3    H216619   1.965   7.002   4.116
 5560TIP3   OH216620   1.040   3.062   0.779
 5560TIP3    H116621   1.047   3.032   0.869
 5560TIP3    H216622   1.126   3.101   0.761
 5561TIP3   OH216623   6.008   4.720   5.955
 5561TIP3    H116624   5.925   4.768   5.952
 5561TIP3    H216625   6.009   4.669   5.875
 5562TIP3   OH216626   5.309   4.675   3.327
 5562TIP3    H116627   5.380   4.732   3.357
 5562TIP3    H216628   5.236   4.694   3.385
 5563TIP3   OH216629   7.506   4.595   1.929
 5563TIP3    H116630   7.581   4.558   1.976
 5563TIP3    H216631   7.542   4.621   1.844
 5564TIP3   OH216632   4.479   3.386   4.112
 5564TIP3    H116633   4.538   3.310   4.111
 5564TIP3    H216634   4.537   3.462   4.116
 5565TIP3   OH216635   1.964   1.880   6.645
 5565TIP3    H116636   1.922   1.938   6.581
 5565TIP3    H216637   2.054   1.913   6.650
 5566TIP3   OH216638   8.253   4.956   5.970
 5566TIP3    H116639   8.321   4.908   6.017
 5566TIP3    H216640   8.200   4.995   6.039
 5567TIP3   OH216641   6.356   6.970   6.489
 5567TIP3    H116642   6.347   6.898   6.428
 5567TIP3    H216643   6.284   6.959   6.551
 5568TIP3   OH216644   7.665   5.296   4.962
 5568TIP3    H116645   7.601   5.360   4.929
 5568TIP3    H216646   7.727   5.285   4.890
 5569TIP3   OH216647   8.048   0.979   3.025
 5569TIP3    H116648   8.090   0.969   3.110
 5569TIP3    H216649   8.099   0.924   2.965
 5570TIP3   OH216650   7.618   1.705   5.804
 5570TIP3    H116651   7.713   1.712   5.812
 5570TIP3    H216652   7.585   1.786   5.844
 5571TIP3   OH216653   7.446   7.597   4.041
 5571TIP3    H116654   7.475   7.509   4.067
 5571TIP3    H216655   7.526   7.648   4.035
 5572TIP3   OH216656   3.198   5.305   0.842
 5572TIP3    H116657   3.114   5.275   0.876
 5572TIP3    H216658   3.253   5.314   0.919
 5573TIP3   OH216659   5.664   3.105   6.380
 5573TIP3    H116660   5.698   3.039   6.441
 5573TIP3    H216661   5.710   3.185   6.404
 5574TIP3   OH216662   2.031   0.232   6.151
 5574TIP3    H116663   1.940   0.259   6.161
 5574TIP3    H216664   2.027   0.136   6.146
 5575TIP3   OH216665   4.698   4.813   4.373
 5575TIP3    H116666   4.720   4.751   4.442
 5575TIP3    H216667   4.605   4.831   4.384
 5576TIP3   OH216668   2.618   0.189   0.419
 5576TIP3    H116669   2.672   0.119   0.456
 5576TIP3    H216670   2.679   0.263   0.410
 5577TIP3   OH216671   2.931   2.013   2.466
 5577TIP3    H116672   2.951   1.924   2.496
 5577TIP3    H216673   2.875   2.000   2.390
 5578TIP3   OH216674   0.543   3.950   5.577
 5578TIP3    H116675   0.637   3.941   5.596
 5578TIP3    H216676   0.540   3.973   5.484
 5579TIP3   OH216677   0.402   5.044   3.988
 5579TIP3    H116678   0.334   4.981   3.965
 5579TIP3    H216679   0.362   5.129   3.970
 5580TIP3   OH216680   8.425   7.615   5.638
 5580TIP3    H116681   8.370   7.670   5.693
 5580TIP3    H216682   8.515   7.641   5.660
 5581TIP3   OH216683   7.136   3.335   4.593
 5581TIP3    H116684   7.208   3.337   4.531
 5581TIP3    H216685   7.106   3.244   4.592
 5582TIP3   OH216686   7.413   1.971   1.693
 5582TIP3    H116687   7.477   2.031   1.731
 5582TIP3    H216688   7.448   1.951   1.606
 5583TIP3   OH216689   5.424   0.717   2.790
 5583TIP3    H116690   5.353   0.657   2.768
 5583TIP3    H216691   5.441   0.701   2.883
 5584TIP3   OH216692   5.210   2.942   5.763
 5584TIP3    H116693   5.140   2.903   5.816
 5584TIP3    H216694   5.234   2.873   5.701
 5585TIP3   OH216695   2.037   1.044   5.803
 5585TIP3    H116696   1.995   1.028   5.888
 5585TIP3    H216697   2.072   0.959   5.778
 5586TIP3   OH216698   3.907   7.834   0.493
 5586TIP3    H116699   3.871   7.816   0.580
 5586TIP3    H216700   3.830   7.852   0.439
 5587TIP3   OH216701   3.183   5.746   1.945
 5587TIP3    H116702   3.128   5.685   1.995
 5587TIP3    H216703   3.178   5.715   1.855
 5588TIP3   OH216704   8.007   1.167   6.746
 5588TIP3    H116705   7.982   1.237   6.686
 5588TIP3    H216706   8.073   1.117   6.699
 5589TIP3   OH216707   3.029   5.531   4.441
 5589TIP3    H116708   3.065   5.479   4.370
 5589TIP3    H216709   2.974   5.470   4.490
 5590TIP3   OH216710   7.068   3.961   2.917
 5590TIP3    H116711   7.067   4.026   2.987
 5590TIP3    H216712   7.019   4.001   2.846
 5591TIP3   OH216713   5.420   2.540   5.506
 5591TIP3    H116714   5.365   2.542   5.428
 5591TIP3    H216715   5.509   2.525   5.472
 5592TIP3   OH216716   0.391   2.460   0.466
 5592TIP3    H116717   0.378   2.502   0.381
 5592TIP3    H216718   0.486   2.459   0.478
 5593TIP3   OH216719   1.928   4.065   4.183
 5593TIP3    H116720   1.902   4.118   4.259
 5593TIP3    H216721   2.023   4.066   4.185
 5594TIP3   OH216722   5.642   0.992   2.653
 5594TIP3    H116723   5.727   0.953   2.670
 5594TIP3    H216724   5.662   1.081   2.625
 5595TIP3   OH216725   3.512   6.345   2.296
 5595TIP3    H116726   3.585   6.357   2.237
 5595TIP3    H216727   3.434   6.360   2.242
 5596TIP3   OH216728   4.520   2.071   3.125
 5596TIP3    H116729   4.537   2.058   3.031
 5596TIP3    H216730   4.458   2.001   3.148
 5597TIP3   OH216731   5.855   0.355   2.886
 5597TIP3    H116732   5.774   0.327   2.843
 5597TIP3    H216733   5.841   0.335   2.978
 5598TIP3   OH216734   2.151   3.437   3.065
 5598TIP3    H116735   2.082   3.405   3.123
 5598TIP3    H216736   2.109   3.505   3.012
 5599TIP3   OH216737   6.302   7.155   5.735
 5599TIP3    H116738   6.212   7.141   5.706
 5599TIP3    H216739   6.302   7.243   5.772
 5600TIP3   OH216740   5.879   6.315   2.654
 5600TIP3    H116741   5.889   6.386   2.591
 5600TIP3    H216742   5.786   6.292   2.651
 5601TIP3   OH216743   5.259   3.625   0.077
 5601TIP3    H116744   5.243   3.536   0.110
 5601TIP3    H216745   5.345   3.620   0.036
 5602TIP3   OH216746   3.459   3.796   4.681
 5602TIP3    H116747   3.433   3.732   4.614
 5602TIP3    H216748   3.555   3.795   4.677
 5603TIP3   OH216749   7.806   4.087   0.316
 5603TIP3    H116750   7.715   4.060   0.328
 5603TIP3    H216751   7.824   4.071   0.224
 5604TIP3   OH216752   6.198   1.130   3.927
 5604TIP3    H116753   6.226   1.217   3.900
 5604TIP3    H216754   6.103   1.137   3.936
 5605TIP3   OH216755   1.519   5.021   4.880
 5605TIP3    H116756   1.487   4.933   4.859
 5605TIP3    H216757   1.443   5.066   4.916
 5606TIP3   OH216758   7.036   3.751   5.795
 5606TIP3    H116759   7.066   3.661   5.785
 5606TIP3    H216760   6.942   3.747   5.780
 5607TIP3   OH216761   4.329   5.581   2.067
 5607TIP3    H116762   4.291   5.502   2.105
 5607TIP3    H216763   4.417   5.553   2.040
 5608TIP3   OH216764   8.373   1.833   6.064
 5608TIP3    H116765   8.356   1.886   6.142
 5608TIP3    H216766   8.295   1.844   6.010
 5609TIP3   OH216767   0.603   0.979   3.252
 5609TIP3    H116768   0.694   0.968   3.278
 5609TIP3    H216769   0.599   1.066   3.213
 5610TIP3   OH216770   8.157   1.643   2.070
 5610TIP3    H116771   8.120   1.674   2.153
 5610TIP3    H216772   8.197   1.720   2.032
 5611TIP3   OH216773   4.899   4.479   1.386
 5611TIP3    H116774   4.892   4.467   1.291
 5611TIP3    H216775   4.990   4.501   1.402
 5612TIP3   OH216776   3.826   2.046   2.223
 5612TIP3    H116777   3.743   2.021   2.183
 5612TIP3    H216778   3.803   2.111   2.289
 5613TIP3   OH216779   1.302   1.398   5.481
 5613TIP3    H116780   1.294   1.487   5.449
 5613TIP3    H216781   1.243   1.394   5.557
 5614TIP3   OH216782   2.204   1.001   3.469
 5614TIP3    H116783   2.211   1.062   3.543
 5614TIP3    H216784   2.285   0.950   3.473
 5615TIP3   OH216785   3.463   4.300   3.445
 5615TIP3    H116786   3.418   4.247   3.380
 5615TIP3    H216787   3.535   4.244   3.476
 5616TIP3   OH216788   8.293   4.326   5.636
 5616TIP3    H116789   8.380   4.313   5.674
 5616TIP3    H216790   8.309   4.368   5.552
 5617TIP3   OH216791   3.699   1.664   1.451
 5617TIP3    H116792   3.646   1.587   1.430
 5617TIP3    H216793   3.720   1.702   1.366
 5618TIP3   OH216794   0.971   0.872   2.950
 5618TIP3    H116795   1.032   0.944   2.967
 5618TIP3    H216796   0.968   0.824   3.033
 5619TIP3   OH216797   1.818   1.147   1.309
 5619TIP3    H116798   1.771   1.227   1.285
 5619TIP3    H216799   1.754   1.077   1.297
 5620TIP3   OH216800   7.614   6.777   1.334
 5620TIP3    H116801   7.695   6.770   1.384
 5620TIP3    H216802   7.623   6.712   1.265
 5621TIP3   OH216803   7.082   2.816   5.788
 5621TIP3    H116804   7.010   2.755   5.772
 5621TIP3    H216805   7.043   2.889   5.836
 5622TIP3   OH216806   0.684   2.638   4.287
 5622TIP3    H116807   0.626   2.569   4.317
 5622TIP3    H216808   0.772   2.609   4.313
 5623TIP3   OH216809   7.810   7.256   1.120
 5623TIP3    H116810   7.882   7.294   1.170
 5623TIP3    H216811   7.732   7.275   1.173
 5624TIP3   OH216812   1.703   1.155   2.564
 5624TIP3    H116813   1.656   1.206   2.499
 5624TIP3    H216814   1.750   1.089   2.513
 5625TIP3   OH216815   0.645   3.207   4.536
 5625TIP3    H116816   0.678   3.234   4.450
 5625TIP3    H216817   0.676   3.117   4.546
 5626TIP3   OH216818   5.370   2.567   2.676
 5626TIP3    H116819   5.453   2.529   2.705
 5626TIP3    H216820   5.386   2.662   2.676
 5627TIP3   OH216821   8.288   1.381   0.372
 5627TIP3    H116822   8.275   1.436   0.448
 5627TIP3    H216823   8.375   1.406   0.338
 5628TIP3   OH216824   7.897   2.221   3.737
 5628TIP3    H116825   7.867   2.178   3.817
 5628TIP3    H216826   7.991   2.233   3.750
 5629TIP3   OH216827   3.902   0.874   5.485
 5629TIP3    H116828   3.863   0.922   5.412
 5629TIP3    H216829   3.847   0.895   5.560
 5630TIP3   OH216830   2.122   2.807   2.523
 5630TIP3    H116831   2.060   2.880   2.526
 5630TIP3    H216832   2.128   2.778   2.614
 5631TIP3   OH216833   0.960   0.674   2.463
 5631TIP3    H116834   0.917   0.668   2.377
 5631TIP3    H216835   0.895   0.714   2.519
 5632TIP3   OH216836   7.428   6.613   3.728
 5632TIP3    H116837   7.429   6.586   3.820
 5632TIP3    H216838   7.518   6.598   3.698
 5633TIP3   OH216839   6.372   6.528   4.812
 5633TIP3    H116840   6.422   6.602   4.847
 5633TIP3    H216841   6.431   6.488   4.748
 5634TIP3   OH216842   7.944   0.835   1.404
 5634TIP3    H116843   7.868   0.867   1.454
 5634TIP3    H216844   7.988   0.914   1.374
 5635TIP3   OH216845   7.117   5.058   6.038
 5635TIP3    H116846   7.165   5.137   6.013
 5635TIP3    H216847   7.129   5.051   6.133
 5636TIP3   OH216848   0.414   4.724   0.398
 5636TIP3    H116849   0.507   4.748   0.408
 5636TIP3    H216850   0.369   4.776   0.464
 5637TIP3   OH216851   8.072   6.625   1.632
 5637TIP3    H116852   8.161   6.591   1.623
 5637TIP3    H216853   8.082   6.702   1.689
 5638TIP3   OH216854   7.449   3.735   2.546
 5638TIP3    H116855   7.507   3.689   2.607
 5638TIP3    H216856   7.471   3.827   2.558
 5639TIP3   OH216857   6.678   6.916   4.775
 5639TIP3    H116858   6.604   6.858   4.758
 5639TIP3    H216859   6.740   6.862   4.824
 5640TIP3   OH216860   0.142   4.325   2.231
 5640TIP3    H116861   0.233   4.323   2.200
 5640TIP3    H216862   0.091   4.288   2.158
 5641TIP3   OH216863   2.634   5.113   6.329
 5641TIP3    H116864   2.719   5.128   6.370
 5641TIP3    H216865   2.634   5.170   6.252
 5642TIP3   OH216866   0.835   5.438   3.050
 5642TIP3    H116867   0.926   5.449   3.077
 5642TIP3    H216868   0.839   5.374   2.979
 5643TIP3   OH216869   8.401   5.396   5.343
 5643TIP3    H116870   8.319   5.444   5.342
 5643TIP3    H216871   8.391   5.330   5.274
 5644TIP3   OH216872   2.040   3.830   2.560
 5644TIP3    H116873   2.081   3.747   2.584
 5644TIP3    H216874   2.051   3.837   2.465
 5645TIP3   OH216875   2.555   2.936   0.067
 5645TIP3    H116876   2.527   3.022   0.035
 5645TIP3    H216877   2.485   2.908   0.126
 5646TIP3   OH216878   6.967   4.109   3.144
 5646TIP3    H116879   6.910   4.126   3.069
 5646TIP3    H216880   6.954   4.016   3.163
 5647TIP3   OH216881   8.458   1.221   1.928
 5647TIP3    H116882   8.372   1.263   1.923
 5647TIP3    H216883   8.444   1.146   1.985
 5648TIP3   OH216884   6.127   1.660   1.704
 5648TIP3    H116885   6.191   1.731   1.702
 5648TIP3    H216886   6.124   1.633   1.795
 5649TIP3   OH216887   5.917   6.808   2.901
 5649TIP3    H116888   5.983   6.744   2.928
 5649TIP3    H216889   5.964   6.866   2.841
 5650TIP3   OH216890   4.278   7.352   5.027
 5650TIP3    H116891   4.240   7.347   4.939
 5650TIP3    H216892   4.368   7.384   5.012
 5651TIP3   OH216893   2.655   3.910   0.403
 5651TIP3    H116894   2.659   3.829   0.454
 5651TIP3    H216895   2.584   3.896   0.341
 5652TIP3   OH216896   6.575   2.973   1.561
 5652TIP3    H116897   6.552   3.066   1.559
 5652TIP3    H216898   6.671   2.972   1.572
 5653TIP3   OH216899   7.986   0.261   1.206
 5653TIP3    H116900   7.895   0.288   1.219
 5653TIP3    H216901   8.028   0.338   1.169
 5654TIP3   OH216902   1.896   0.617   3.517
 5654TIP3    H116903   1.858   0.704   3.526
 5654TIP3    H216904   1.871   0.589   3.429
 5655TIP3   OH216905   0.975   5.120   3.788
 5655TIP3    H116906   0.898   5.176   3.797
 5655TIP3    H216907   1.047   5.173   3.821
 5656TIP3   OH216908   5.616   3.605   6.483
 5656TIP3    H116909   5.539   3.654   6.510
 5656TIP3    H216910   5.670   3.668   6.437
 5657TIP3   OH216911   1.323   6.467   2.135
 5657TIP3    H116912   1.389   6.501   2.074
 5657TIP3    H216913   1.240   6.488   2.093
 5658TIP3   OH216914   4.128   1.956   0.459
 5658TIP3    H116915   4.127   1.923   0.549
 5658TIP3    H216916   4.038   1.984   0.442
 5659TIP3   OH216917   8.049   2.035   4.179
 5659TIP3    H116918   8.108   2.098   4.220
 5659TIP3    H216919   8.089   1.950   4.199
 5660TIP3   OH216920   3.505   1.101   2.316
 5660TIP3    H116921   3.432   1.047   2.285
 5660TIP3    H216922   3.568   1.038   2.351
 5661TIP3   OH216923   2.279   3.451   2.784
 5661TIP3    H116924   2.216   3.418   2.848
 5661TIP3    H216925   2.238   3.433   2.699
 5662TIP3   OH216926   4.284   0.300   0.635
 5662TIP3    H116927   4.219   0.341   0.579
 5662TIP3    H216928   4.236   0.232   0.682
 5663TIP3   OH216929   3.899  -0.036   0.937
 5663TIP3    H116930   3.962  -0.032   1.009
 5663TIP3    H216931   3.818   0.000   0.975
 5664TIP3   OH216932   0.245   2.892   0.682
 5664TIP3    H116933   0.217   2.905   0.773
 5664TIP3    H216934   0.224   2.975   0.638
 5665TIP3   OH216935   6.244   5.166   0.578
 5665TIP3    H116936   6.164   5.117   0.597
 5665TIP3    H216937   6.308   5.133   0.641
 5666TIP3   OH216938   7.327   6.689   4.956
 5666TIP3    H116939   7.406   6.742   4.957
 5666TIP3    H216940   7.262   6.744   4.912
 5667TIP3   OH216941   1.929   0.132   3.894
 5667TIP3    H116942   1.987   0.204   3.917
 5667TIP3    H216943   1.969   0.091   3.818
 5668TIP3   OH216944   4.148   6.514   2.944
 5668TIP3    H116945   4.204   6.586   2.972
 5668TIP3    H216946   4.060   6.538   2.973
 5669TIP3   OH216947   4.389   0.646   3.833
 5669TIP3    H116948   4.387   0.723   3.890
 5669TIP3    H216949   4.482   0.623   3.827
 5670TIP3   OH216950   1.967   0.162   2.518
 5670TIP3    H116951   1.913   0.213   2.458
 5670TIP3    H216952   1.972   0.075   2.478
 5671TIP3   OH216953   3.807   7.525   4.160
 5671TIP3    H116954   3.785   7.605   4.209
 5671TIP3    H216955   3.888   7.495   4.200
 5672TIP3   OH216956   3.432   2.105   1.698
 5672TIP3    H116957   3.502   2.103   1.633
 5672TIP3    H216958   3.396   2.193   1.692
 5673TIP3   OH216959   5.770   4.071   5.361
 5673TIP3    H116960   5.759   4.098   5.453
 5673TIP3    H216961   5.862   4.089   5.342
 5674TIP3   OH216962   0.488   1.585   3.285
 5674TIP3    H116963   0.443   1.668   3.298
 5674TIP3    H216964   0.477   1.566   3.191
 5675TIP3   OH216965   3.438   2.041   5.733
 5675TIP3    H116966   3.350   2.069   5.755
 5675TIP3    H216967   3.458   2.085   5.651
 5676TIP3   OH216968   5.353   2.465   4.141
 5676TIP3    H116969   5.340   2.393   4.079
 5676TIP3    H216970   5.404   2.529   4.092
 5677TIP3   OH216971   0.840   1.229   1.510
 5677TIP3    H116972   0.811   1.194   1.426
 5677TIP3    H216973   0.831   1.324   1.501
 5678TIP3   OH216974   0.825   7.100   5.894
 5678TIP3    H116975   0.909   7.079   5.853
 5678TIP3    H216976   0.761   7.055   5.839
 5679TIP3   OH216977   0.557   0.106   2.034
 5679TIP3    H116978   0.485   0.067   2.083
 5679TIP3    H216979   0.540   0.084   1.942
 5680TIP3   OH216980   6.936   7.955   6.755
 5680TIP3    H116981   6.887   7.881   6.788
 5680TIP3    H216982   7.028   7.929   6.761
 5681TIP3   OH216983   0.629   1.865   6.707
 5681TIP3    H116984   0.619   1.793   6.645
 5681TIP3    H216985   0.552   1.920   6.691
 5682TIP3   OH216986   4.333   0.312   5.421
 5682TIP3    H116987   4.241   0.305   5.397
 5682TIP3    H216988   4.380   0.310   5.338
 5683TIP3   OH216989   2.095   7.892   4.509
 5683TIP3    H116990   2.112   7.983   4.533
 5683TIP3    H216991   2.127   7.841   4.584
 5684TIP3   OH216992   8.448   0.920   5.844
 5684TIP3    H116993   8.402   0.885   5.920
 5684TIP3    H216994   8.383   0.974   5.799
 5685TIP3   OH216995   4.777   7.256   3.271
 5685TIP3    H116996   4.818   7.170   3.258
 5685TIP3    H216997   4.812   7.287   3.354
 5686TIP3   OH216998   7.207   7.107   1.959
 5686TIP3    H116999   7.257   7.170   2.011
 5686TIP3    H217000   7.120   7.107   1.999
 5687TIP3   OH217001   2.655   5.679   0.496
 5687TIP3    H117002   2.586   5.625   0.534
 5687TIP3    H217003   2.735   5.652   0.542
 5688TIP3   OH217004   2.483   5.879   4.894
 5688TIP3    H117005   2.426   5.901   4.820
 5688TIP3    H217006   2.459   5.942   4.962
 5689TIP3   OH217007   0.379   4.867   2.063
 5689TIP3    H117008   0.389   4.873   2.158
 5689TIP3    H217009   0.457   4.820   2.033
 5690TIP3   OH217010   2.578   6.384   3.459
 5690TIP3    H117011   2.567   6.403   3.366
 5690TIP3    H217012   2.521   6.447   3.503
 5691TIP3   OH217013   7.733   0.101   0.963
 5691TIP3    H117014   7.699   0.011   0.966
 5691TIP3    H217015   7.739   0.127   1.055
 5692TIP3   OH217016   5.431   5.360   0.927
 5692TIP3    H117017   5.372   5.394   0.859
 5692TIP3    H217018   5.381   5.290   0.969
 5693TIP3   OH217019   0.143   1.360   4.418
 5693TIP3    H117020   0.229   1.321   4.436
 5693TIP3    H217021   0.091   1.341   4.497
 5694TIP3   OH217022   4.002   5.632   6.836
 5694TIP3    H117023   4.096   5.648   6.838
 5694TIP3    H217024   3.963   5.712   6.871
 5695TIP3   OH217025   4.519   1.666   2.923
 5695TIP3    H117026   4.598   1.709   2.889
 5695TIP3    H217027   4.449   1.693   2.862
 5696TIP3   OH217028   5.921   1.595   6.792
 5696TIP3    H117029   5.828   1.575   6.794
 5696TIP3    H217030   5.926   1.689   6.808
 5697TIP3   OH217031   7.752   3.743   5.147
 5697TIP3    H117032   7.810   3.675   5.182
 5697TIP3    H217033   7.784   3.824   5.186
 5698TIP3   OH217034   0.705   2.154   6.459
 5698TIP3    H117035   0.663   2.192   6.537
 5698TIP3    H217036   0.787   2.117   6.492
 5699TIP3   OH217037   8.145   0.398   2.617
 5699TIP3    H117038   8.139   0.373   2.525
 5699TIP3    H217039   8.208   0.470   2.618
 5700TIP3   OH217040   5.065   0.970   5.850
 5700TIP3    H117041   5.068   1.062   5.876
 5700TIP3    H217042   5.157   0.946   5.837
 5701TIP3   OH217043   8.257   0.544   6.223
 5701TIP3    H117044   8.169   0.577   6.206
 5701TIP3    H217045   8.245   0.464   6.272
 5702TIP3   OH217046   3.402   5.123   1.861
 5702TIP3    H117047   3.453   5.196   1.826
 5702TIP3    H217048   3.426   5.120   1.954
 5703TIP3   OH217049   6.270   1.521   2.257
 5703TIP3    H117050   6.361   1.495   2.273
 5703TIP3    H217051   6.222   1.439   2.250
 5704TIP3   OH217052   1.034   0.078   5.563
 5704TIP3    H117053   1.054   0.126   5.643
 5704TIP3    H217054   0.948   0.039   5.579
 5705TIP3   OH217055   0.487   1.040   0.039
 5705TIP3    H117056   0.469   1.001  -0.046
 5705TIP3    H217057   0.583   1.044   0.044
 5706TIP3   OH217058   2.946   5.839   1.484
 5706TIP3    H117059   2.916   5.784   1.412
 5706TIP3    H217060   2.931   5.928   1.454
 5707TIP3   OH217061   5.676   7.201   3.773
 5707TIP3    H117062   5.681   7.234   3.864
 5707TIP3    H217063   5.585   7.174   3.762
 5708TIP3   OH217064   7.185   6.348   0.368
 5708TIP3    H117065   7.124   6.396   0.424
 5708TIP3    H217066   7.132   6.323   0.292
 5709TIP3   OH217067   7.876   7.801   0.323
 5709TIP3    H117068   7.871   7.880   0.269
 5709TIP3    H217069   7.969   7.779   0.325
 5710TIP3   OH217070   2.923   0.091   2.323
 5710TIP3    H117071   2.981   0.040   2.379
 5710TIP3    H217072   2.979   0.125   2.254
 5711TIP3   OH217073   7.450   2.419   5.606
 5711TIP3    H117074   7.500   2.460   5.676
 5711TIP3    H217075   7.492   2.449   5.525
 5712TIP3   OH217076   2.143   5.376   5.887
 5712TIP3    H117077   2.233   5.396   5.913
 5712TIP3    H217078   2.103   5.461   5.871
 5713TIP3   OH217079   4.959   2.412   2.112
 5713TIP3    H117080   4.923   2.403   2.200
 5713TIP3    H217081   5.053   2.403   2.123
 5714TIP3   OH217082   5.055   2.552   3.947
 5714TIP3    H117083   5.070   2.531   3.855
 5714TIP3    H217084   5.130   2.514   3.993
 5715TIP3   OH217085   6.479   3.652   5.713
 5715TIP3    H117086   6.397   3.701   5.705
 5715TIP3    H217087   6.464   3.591   5.786
 5716TIP3   OH217088   1.011   3.904   0.096
 5716TIP3    H117089   1.074   3.975   0.101
 5716TIP3    H217090   0.933   3.943   0.057
 5717TIP3   OH217091   2.632   5.536   1.589
 5717TIP3    H117092   2.719   5.536   1.628
 5717TIP3    H217093   2.572   5.538   1.664
 5718TIP3   OH217094   3.430   1.982   3.743
 5718TIP3    H117095   3.521   1.995   3.768
 5718TIP3    H217096   3.384   2.057   3.781
 5719TIP3   OH217097   4.395   3.454   2.186
 5719TIP3    H117098   4.424   3.362   2.187
 5719TIP3    H217099   4.336   3.459   2.111
 5720TIP3   OH217100   5.967   3.835   1.574
 5720TIP3    H117101   5.993   3.885   1.651
 5720TIP3    H217102   6.001   3.884   1.500
 5721TIP3   OH217103   3.118   7.235   4.213
 5721TIP3    H117104   3.175   7.169   4.174
 5721TIP3    H217105   3.104   7.204   4.303
 5722TIP3   OH217106   4.068   6.278   3.227
 5722TIP3    H117107   4.098   6.336   3.297
 5722TIP3    H217108   3.999   6.328   3.183
 5723TIP3   OH217109   3.631   5.303   4.367
 5723TIP3    H117110   3.619   5.208   4.368
 5723TIP3    H217111   3.590   5.331   4.285
 5724TIP3   OH217112   5.100   3.311   3.139
 5724TIP3    H117113   5.169   3.320   3.205
 5724TIP3    H217114   5.018   3.317   3.189
 5725TIP3   OH217115   4.072   5.424   1.500
 5725TIP3    H117116   4.113   5.488   1.558
 5725TIP3    H217117   4.122   5.432   1.418
 5726TIP3   OH217118   6.580   0.630   6.423
 5726TIP3    H117119   6.491   0.601   6.443
 5726TIP3    H217120   6.636   0.569   6.470
 5727TIP3   OH217121   2.817   5.782   2.535
 5727TIP3    H117122   2.741   5.794   2.592
 5727TIP3    H217123   2.802   5.843   2.462
 5728TIP3   OH217124   2.974   0.612   3.132
 5728TIP3    H117125   2.882   0.587   3.128
 5728TIP3    H217126   2.984   0.654   3.218
 5729TIP3   OH217127   8.102   2.380   0.258
 5729TIP3    H117128   8.169   2.314   0.247
 5729TIP3    H217129   8.029   2.349   0.204
 5730TIP3   OH217130   7.564   4.147   6.585
 5730TIP3    H117131   7.614   4.160   6.505
 5730TIP3    H217132   7.502   4.077   6.564
 5731TIP3   OH217133   5.761   0.781   6.645
 5731TIP3    H117134   5.773   0.821   6.559
 5731TIP3    H217135   5.713   0.701   6.628
 5732TIP3   OH217136   0.148   2.114   2.542
 5732TIP3    H117137   0.227   2.091   2.493
 5732TIP3    H217138   0.164   2.203   2.573
 5733TIP3   OH217139   5.589   6.771   6.419
 5733TIP3    H117140   5.613   6.863   6.433
 5733TIP3    H217141   5.631   6.724   6.491
 5734TIP3   OH217142   2.644   6.871   1.936
 5734TIP3    H117143   2.738   6.866   1.948
 5734TIP3    H217144   2.617   6.781   1.917
 5735TIP3   OH217145   5.234   4.972   4.177
 5735TIP3    H117146   5.219   5.049   4.231
 5735TIP3    H217147   5.314   4.933   4.212
 5736TIP3   OH217148   2.335   7.774   1.573
 5736TIP3    H117149   2.409   7.834   1.564
 5736TIP3    H217150   2.264   7.829   1.606
 5737TIP3   OH217151   3.284   6.433   1.596
 5737TIP3    H117152   3.240   6.349   1.612
 5737TIP3    H217153   3.330   6.420   1.513
 5738TIP3   OH217154   1.722   3.053   2.091
 5738TIP3    H117155   1.700   3.119   2.026
 5738TIP3    H217156   1.684   2.972   2.057
 5739TIP3   OH217157   6.032   0.104   2.680
 5739TIP3    H117158   5.979   0.132   2.755
 5739TIP3    H217159   6.093   0.040   2.716
 5740TIP3   OH217160   6.731   3.592   1.419
 5740TIP3    H117161   6.638   3.571   1.431
 5740TIP3    H217162   6.776   3.508   1.426
 5741TIP3   OH217163  -0.010   1.652   2.742
 5741TIP3    H117164   0.012   1.744   2.758
 5741TIP3    H217165  -0.104   1.646   2.758
 5742TIP3   OH217166   6.555   1.259   6.576
 5742TIP3    H117167   6.634   1.246   6.628
 5742TIP3    H217168   6.483   1.250   6.638
 5743TIP3   OH217169   0.537   3.128   6.411
 5743TIP3    H117170   0.575   3.104   6.326
 5743TIP3    H217171   0.605   3.180   6.454
 5744TIP3   OH217172   7.335   2.929   4.187
 5744TIP3    H117173   7.358   2.984   4.262
 5744TIP3    H217174   7.252   2.963   4.155
 5745TIP3   OH217175   2.326   4.529   5.638
 5745TIP3    H117176   2.318   4.555   5.730
 5745TIP3    H217177   2.297   4.607   5.589
 5746TIP3   OH217178   3.326   3.561   0.065
 5746TIP3    H117179   3.304   3.556   0.158
 5746TIP3    H217180   3.418   3.588   0.063
 5747TIP3   OH217181   7.296   3.946   2.752
 5747TIP3    H117182   7.324   3.862   2.788
 5747TIP3    H217183   7.213   3.964   2.796
 5748TIP3   OH217184   7.910   1.877   0.875
 5748TIP3    H117185   7.876   1.871   0.785
 5748TIP3    H217186   7.990   1.928   0.867
 5749TIP3   OH217187   8.231   4.187   4.119
 5749TIP3    H117188   8.287   4.237   4.058
 5749TIP3    H217189   8.256   4.096   4.104
 5750TIP3   OH217190   1.675   3.968   3.627
 5750TIP3    H117191   1.688   3.873   3.630
 5750TIP3    H217192   1.653   3.986   3.536
 5751TIP3   OH217193   0.346   7.799   2.291
 5751TIP3    H117194   0.313   7.771   2.376
 5751TIP3    H217195   0.440   7.807   2.303
 5752TIP3   OH217196   6.322   1.828   1.735
 5752TIP3    H117197   6.412   1.800   1.750
 5752TIP3    H217198   6.299   1.879   1.813
 5753TIP3   OH217199   5.390   3.624   3.169
 5753TIP3    H117200   5.415   3.647   3.259
 5753TIP3    H217201   5.294   3.618   3.171
 5754TIP3   OH217202   8.390   7.711   1.658
 5754TIP3    H117203   8.296   7.722   1.668
 5754TIP3    H217204   8.422   7.688   1.745
 5755TIP3   OH217205   4.763   3.047   4.080
 5755TIP3    H117206   4.785   2.954   4.092
 5755TIP3    H217207   4.843   3.086   4.044
 5756TIP3   OH217208   6.395   7.555   1.911
 5756TIP3    H117209   6.388   7.464   1.940
 5756TIP3    H217210   6.386   7.551   1.816
 5757TIP3   OH217211   6.880   6.376   3.651
 5757TIP3    H117212   6.818   6.307   3.677
 5757TIP3    H217213   6.919   6.343   3.570
 5758TIP3   OH217214   1.080   3.094   5.796
 5758TIP3    H117215   1.143   3.147   5.846
 5758TIP3    H217216   1.013   3.156   5.769
 5759TIP3   OH217217   3.821   1.432   3.432
 5759TIP3    H117218   3.791   1.403   3.518
 5759TIP3    H217219   3.828   1.352   3.380
 5760TIP3   OH217220   2.949   2.746   0.802
 5760TIP3    H117221   2.868   2.747   0.751
 5760TIP3    H217222   3.017   2.726   0.738
 5761TIP3   OH217223   4.890   0.792   3.316
 5761TIP3    H117224   4.891   0.774   3.222
 5761TIP3    H217225   4.942   0.722   3.355
 5762TIP3   OH217226   4.353   6.139   5.081
 5762TIP3    H117227   4.304   6.210   5.123
 5762TIP3    H217228   4.441   6.173   5.070
 5763TIP3   OH217229   3.559   0.415   0.125
 5763TIP3    H117230   3.634   0.417   0.067
 5763TIP3    H217231   3.575   0.340   0.183
 5764TIP3   OH217232   0.637   6.755   0.641
 5764TIP3    H117233   0.627   6.795   0.555
 5764TIP3    H217234   0.628   6.828   0.703
 5765TIP3   OH217235   1.983   3.501   3.466
 5765TIP3    H117236   1.966   3.407   3.471
 5765TIP3    H217237   1.979   3.520   3.372
 5766TIP3   OH217238   5.636   7.511   5.229
 5766TIP3    H117239   5.552   7.556   5.238
 5766TIP3    H217240   5.682   7.559   5.161
 5767TIP3   OH217241   0.683   5.745   3.578
 5767TIP3    H117242   0.775   5.736   3.555
 5767TIP3    H217243   0.677   5.829   3.624
 5768TIP3   OH217244   7.392   7.136   3.301
 5768TIP3    H117245   7.297   7.147   3.291
 5768TIP3    H217246   7.402   7.090   3.384
 5769TIP3   OH217247   1.738   1.966   3.564
 5769TIP3    H117248   1.695   1.924   3.489
 5769TIP3    H217249   1.740   2.059   3.541
 5770TIP3   OH217250   7.028   0.569   6.780
 5770TIP3    H117251   6.978   0.541   6.703
 5770TIP3    H217252   6.984   0.526   6.854
 5771TIP3   OH217253   8.240   6.736   1.932
 5771TIP3    H117254   8.272   6.782   2.010
 5771TIP3    H217255   8.289   6.775   1.860
 5772TIP3   OH217256   1.076   6.797   3.412
 5772TIP3    H117257   1.038   6.827   3.330
 5772TIP3    H217258   1.021   6.723   3.438
 5773TIP3   OH217259   0.372   0.610   6.363
 5773TIP3    H117260   0.439   0.642   6.303
 5773TIP3    H217261   0.400   0.521   6.385
 5774TIP3   OH217262   7.087   2.251   5.256
 5774TIP3    H117263   7.002   2.294   5.272
 5774TIP3    H217264   7.094   2.186   5.326
 5775TIP3   OH217265   3.434   1.363   3.301
 5775TIP3    H117266   3.349   1.322   3.287
 5775TIP3    H217267   3.481   1.303   3.358
 5776TIP3   OH217268   3.960   2.132   4.379
 5776TIP3    H117269   3.895   2.153   4.447
 5776TIP3    H217270   3.980   2.216   4.338
 5777TIP3   OH217271   4.961   7.668   2.036
 5777TIP3    H117272   4.936   7.626   1.954
 5777TIP3    H217273   4.950   7.599   2.102
 5778TIP3   OH217274   2.218   4.170   3.695
 5778TIP3    H117275   2.245   4.243   3.751
 5778TIP3    H217276   2.138   4.201   3.653
 5779TIP3   OH217277   1.294   1.268   4.233
 5779TIP3    H117278   1.285   1.199   4.168
 5779TIP3    H217279   1.257   1.231   4.313
 5780TIP3   OH217280   3.853   7.704   0.083
 5780TIP3    H117281   3.891   7.749   0.158
 5780TIP3    H217282   3.907   7.626   0.072
 5781TIP3   OH217283   8.208   1.812   1.337
 5781TIP3    H117284   8.148   1.885   1.321
 5781TIP3    H217285   8.184   1.748   1.270
 5782TIP3   OH217286   3.591   2.941   6.789
 5782TIP3    H117287   3.579   2.873   6.723
 5782TIP3    H217288   3.663   2.910   6.843
 5783TIP3   OH217289   4.636   4.498   6.064
 5783TIP3    H117290   4.546   4.528   6.051
 5783TIP3    H217291   4.675   4.498   5.976
 5784TIP3   OH217292   7.763   1.071   1.237
 5784TIP3    H117293   7.727   0.983   1.238
 5784TIP3    H217294   7.729   1.110   1.156
 5785TIP3   OH217295   0.372   1.530   5.226
 5785TIP3    H117296   0.404   1.444   5.254
 5785TIP3    H217297   0.395   1.589   5.299
 5786TIP3   OH217298   0.072   6.452   3.391
 5786TIP3    H117299  -0.016   6.458   3.426
 5786TIP3    H217300   0.061   6.413   3.304
 5787TIP3   OH217301   2.957   7.887   2.116
 5787TIP3    H117302   3.020   7.959   2.118
 5787TIP3    H217303   3.006   7.810   2.144
 5788TIP3   OH217304   7.762   3.834   3.360
 5788TIP3    H117305   7.703   3.910   3.361
 5788TIP3    H217306   7.724   3.774   3.424
 5789TIP3   OH217307   5.448   0.817   1.170
 5789TIP3    H117308   5.439   0.725   1.143
 5789TIP3    H217309   5.359   0.845   1.190
 5790TIP3   OH217310   1.535   7.470   2.328
 5790TIP3    H117311   1.541   7.540   2.393
 5790TIP3    H217312   1.481   7.507   2.258
 5791TIP3   OH217313   0.330   4.216   3.854
 5791TIP3    H117314   0.316   4.286   3.790
 5791TIP3    H217315   0.384   4.257   3.922
 5792TIP3   OH217316   1.068   6.327   0.663
 5792TIP3    H117317   1.083   6.233   0.661
 5792TIP3    H217318   1.019   6.346   0.583
 5793TIP3   OH217319   2.669   0.962   1.276
 5793TIP3    H117320   2.602   0.947   1.209
 5793TIP3    H217321   2.751   0.968   1.227
 5794TIP3   OH217322   4.397   7.460   2.944
 5794TIP3    H117323   4.328   7.521   2.972
 5794TIP3    H217324   4.377   7.379   2.990
 5795TIP3   OH217325   3.941   5.167   6.328
 5795TIP3    H117326   3.879   5.106   6.367
 5795TIP3    H217327   4.025   5.122   6.334
 5796TIP3   OH217328   5.720   1.463   6.518
 5796TIP3    H117329   5.726   1.496   6.608
 5796TIP3    H217330   5.701   1.370   6.529
 5797TIP3   OH217331   2.831   6.306   1.433
 5797TIP3    H117332   2.895   6.242   1.403
 5797TIP3    H217333   2.881   6.367   1.487
 5798TIP3   OH217334   7.940   1.986   3.561
 5798TIP3    H117335   7.917   2.058   3.620
 5798TIP3    H217336   7.992   2.027   3.492
 5799TIP3   OH217337   6.596   4.826   3.762
 5799TIP3    H117338   6.561   4.770   3.832
 5799TIP3    H217339   6.569   4.782   3.681
 5800TIP3   OH217340   2.445   0.807   0.419
 5800TIP3    H117341   2.383   0.808   0.346
 5800TIP3    H217342   2.423   0.886   0.470
 5801TIP3   OH217343   1.000   1.250   0.368
 5801TIP3    H117344   0.919   1.288   0.399
 5801TIP3    H217345   1.018   1.177   0.427
 5802TIP3   OH217346   2.948   1.613   3.435
 5802TIP3    H117347   2.946   1.562   3.516
 5802TIP3    H217348   2.883   1.571   3.378
 5803TIP3   OH217349   6.099   6.551   4.916
 5803TIP3    H117350   6.185   6.509   4.905
 5803TIP3    H217351   6.046   6.516   4.844
 5804TIP3   OH217352   8.207   0.706   0.352
 5804TIP3    H117353   8.256   0.659   0.284
 5804TIP3    H217354   8.115   0.693   0.328
 5805TIP3   OH217355   0.544   2.469   6.068
 5805TIP3    H117356   0.504   2.519   5.997
 5805TIP3    H217357   0.471   2.447   6.126
 5806TIP3   OH217358   7.044   2.122   6.430
 5806TIP3    H117359   6.970   2.093   6.376
 5806TIP3    H217360   7.024   2.090   6.518
 5807TIP3   OH217361   2.157   6.567   0.228
 5807TIP3    H117362   2.070   6.587   0.263
 5807TIP3    H217363   2.210   6.548   0.305
 5808TIP3   OH217364   4.792   0.114   4.906
 5808TIP3    H117365   4.822   0.049   4.842
 5808TIP3    H217366   4.786   0.196   4.857
 5809TIP3   OH217367   7.945   5.131   2.881
 5809TIP3    H117368   7.955   5.086   2.797
 5809TIP3    H217369   8.026   5.111   2.929
 5810TIP3   OH217370   7.917   4.526   1.703
 5810TIP3    H117371   7.992   4.582   1.725
 5810TIP3    H217372   7.902   4.475   1.782
 5811TIP3   OH217373   1.574   4.432   1.507
 5811TIP3    H117374   1.633   4.436   1.432
 5811TIP3    H217375   1.591   4.346   1.547
 5812TIP3   OH217376   1.740   0.551   2.671
 5812TIP3    H117377   1.720   0.630   2.722
 5812TIP3    H217378   1.813   0.510   2.718
 5813TIP3   OH217379   6.344   4.743   5.355
 5813TIP3    H117380   6.255   4.777   5.348
 5813TIP3    H217381   6.353   4.720   5.448
 5814TIP3   OH217382   2.624   1.162   1.643
 5814TIP3    H117383   2.586   1.075   1.656
 5814TIP3    H217384   2.558   1.221   1.681
 5815TIP3   OH217385   8.226   6.043   2.663
 5815TIP3    H117386   8.287   6.063   2.734
 5815TIP3    H217387   8.273   5.984   2.605
 5816TIP3   OH217388   2.054   2.358   5.539
 5816TIP3    H117389   1.976   2.408   5.563
 5816TIP3    H217390   2.049   2.279   5.592
 5817TIP3   OH217391   5.391   7.323   4.104
 5817TIP3    H117392   5.471   7.338   4.154
 5817TIP3    H217393   5.323   7.309   4.171
 5818TIP3   OH217394   5.977   4.387   4.971
 5818TIP3    H117395   6.022   4.382   4.887
 5818TIP3    H217396   6.029   4.448   5.023
 5819TIP3   OH217397   0.551   2.205   4.831
 5819TIP3    H117398   0.516   2.279   4.781
 5819TIP3    H217399   0.498   2.203   4.911
 5820TIP3   OH217400   3.587   6.991   3.126
 5820TIP3    H117401   3.567   6.940   3.204
 5820TIP3    H217402   3.520   6.966   3.063
 5821TIP3   OH217403   3.766   2.773   2.997
 5821TIP3    H117404   3.708   2.753   3.071
 5821TIP3    H217405   3.724   2.731   2.923
 5822TIP3   OH217406   1.155   1.865   3.609
 5822TIP3    H117407   1.195   1.778   3.606
 5822TIP3    H217408   1.160   1.897   3.519
 5823TIP3   OH217409   7.677   5.467   3.633
 5823TIP3    H117410   7.692   5.385   3.587
 5823TIP3    H217411   7.582   5.469   3.647
 5824TIP3   OH217412   1.477   2.361   0.693
 5824TIP3    H117413   1.422   2.286   0.669
 5824TIP3    H217414   1.441   2.434   0.643
 5825TIP3   OH217415   5.931   4.762   2.678
 5825TIP3    H117416   5.943   4.779   2.585
 5825TIP3    H217417   6.006   4.707   2.702
 5826TIP3   OH217418   1.307   1.695   5.840
 5826TIP3    H117419   1.289   1.774   5.892
 5826TIP3    H217420   1.369   1.725   5.774
 5827TIP3   OH217421   0.552   4.777   6.429
 5827TIP3    H117422   0.639   4.814   6.442
 5827TIP3    H217423   0.492   4.845   6.459
 5828TIP3   OH217424   6.825   0.951   3.625
 5828TIP3    H117425   6.899   1.009   3.637
 5828TIP3    H217426   6.772   0.993   3.557
 5829TIP3   OH217427   7.671   6.912   2.091
 5829TIP3    H117428   7.615   6.919   2.014
 5829TIP3    H217429   7.616   6.871   2.158
 5830TIP3   OH217430   5.353   1.412   4.975
 5830TIP3    H117431   5.352   1.370   4.889
 5830TIP3    H217432   5.435   1.384   5.015
 5831TIP3   OH217433   1.728   7.305   6.797
 5831TIP3    H117434   1.643   7.327   6.836
 5831TIP3    H217435   1.711   7.223   6.749
 5832TIP3   OH217436   4.021   1.003   0.343
 5832TIP3    H117437   4.040   1.031   0.253
 5832TIP3    H217438   4.108   0.995   0.384
 5833TIP3   OH217439   7.166   6.959   2.661
 5833TIP3    H117440   7.196   7.032   2.715
 5833TIP3    H217441   7.080   6.987   2.629
 5834TIP3   OH217442   3.751   1.752   5.164
 5834TIP3    H117443   3.786   1.809   5.232
 5834TIP3    H217444   3.762   1.663   5.199
 5835TIP3   OH217445   5.840   1.578   6.042
 5835TIP3    H117446   5.914   1.602   6.097
 5835TIP3    H217447   5.771   1.552   6.103
 5836TIP3   OH217448   5.595   1.794   3.008
 5836TIP3    H117449   5.515   1.744   2.992
 5836TIP3    H217450   5.631   1.808   2.920
 5837TIP3   OH217451   0.955   2.607   4.197
 5837TIP3    H117452   1.013   2.676   4.166
 5837TIP3    H217453   0.987   2.528   4.153
 5838TIP3   OH217454   4.628   5.198   0.893
 5838TIP3    H117455   4.623   5.228   0.802
 5838TIP3    H217456   4.660   5.108   0.887
 5839TIP3   OH217457   5.980   0.982   5.715
 5839TIP3    H117458   6.015   0.921   5.651
 5839TIP3    H217459   6.058   1.022   5.754
 5840TIP3   OH217460   4.463   0.664   6.686
 5840TIP3    H117461   4.453   0.606   6.761
 5840TIP3    H217462   4.383   0.652   6.635
 5841TIP3   OH217463   6.552   2.587   1.803
 5841TIP3    H117464   6.616   2.547   1.862
 5841TIP3    H217465   6.485   2.519   1.792
 5842TIP3   OH217466   4.916   0.867   5.610
 5842TIP3    H117467   4.971   0.905   5.542
 5842TIP3    H217468   4.967   0.878   5.691
 5843TIP3   OH217469   6.624   4.549   4.220
 5843TIP3    H117470   6.575   4.604   4.281
 5843TIP3    H217471   6.630   4.464   4.264
 5844TIP3   OH217472   0.655   5.109   1.971
 5844TIP3    H117473   0.678   5.187   1.922
 5844TIP3    H217474   0.598   5.141   2.042
 5845TIP3   OH217475   6.794   3.760   2.932
 5845TIP3    H117476   6.759   3.820   2.866
 5845TIP3    H217477   6.773   3.673   2.900
 5846TIP3   OH217478   4.778   4.087   5.484
 5846TIP3    H117479   4.719   4.020   5.520
 5846TIP3    H217480   4.765   4.080   5.389
 5847TIP3   OH217481   7.253   1.734   5.397
 5847TIP3    H117482   7.199   1.798   5.350
 5847TIP3    H217483   7.340   1.774   5.400
 5848TIP3   OH217484   3.845   4.504   5.078
 5848TIP3    H117485   3.769   4.521   5.023
 5848TIP3    H217486   3.920   4.508   5.018
 5849TIP3   OH217487   8.238   3.530   4.257
 5849TIP3    H117488   8.319   3.480   4.264
 5849TIP3    H217489   8.234   3.555   4.165
 5850TIP3   OH217490   6.543   3.934   4.722
 5850TIP3    H117491   6.595   4.003   4.679
 5850TIP3    H217492   6.572   3.853   4.679
 5851TIP3   OH217493   1.675   2.961   5.006
 5851TIP3    H117494   1.690   2.866   5.012
 5851TIP3    H217495   1.759   2.996   4.977
 5852TIP3   OH217496   7.554   7.810   5.261
 5852TIP3    H117497   7.469   7.853   5.252
 5852TIP3    H217498   7.581   7.790   5.171
 5853TIP3   OH217499   4.062   0.732   4.123
 5853TIP3    H117500   3.968   0.747   4.136
 5853TIP3    H217501   4.067   0.668   4.053
 5854TIP3   OH217502   4.678   1.730   5.296
 5854TIP3    H117503   4.722   1.649   5.267
 5854TIP3    H217504   4.750   1.791   5.312
 5855TIP3   OH217505   0.350   5.737   4.096
 5855TIP3    H117506   0.375   5.755   4.187
 5855TIP3    H217507   0.431   5.708   4.054
 5856TIP3   OH217508   5.666   7.505   5.851
 5856TIP3    H117509   5.668   7.562   5.927
 5856TIP3    H217510   5.573   7.484   5.840
 5857TIP3   OH217511   7.341   1.680   0.103
 5857TIP3    H117512   7.403   1.667   0.031
 5857TIP3    H217513   7.256   1.684   0.061
 5858TIP3   OH217514   4.235   4.628   2.507
 5858TIP3    H117515   4.186   4.602   2.585
 5858TIP3    H217516   4.300   4.690   2.539
 5859TIP3   OH217517   7.653   0.805   1.265
 5859TIP3    H117518   7.593   0.735   1.292
 5859TIP3    H217519   7.707   0.822   1.343
 5860TIP3   OH217520   4.094   1.639   3.378
 5860TIP3    H117521   4.097   1.646   3.283
 5860TIP3    H217522   4.055   1.553   3.395
 5861TIP3   OH217523   3.182   3.500   6.718
 5861TIP3    H117524   3.272   3.521   6.743
 5861TIP3    H217525   3.186   3.486   6.623
 5862TIP3   OH217526   3.029   7.343   0.373
 5862TIP3    H117527   2.965   7.284   0.413
 5862TIP3    H217528   2.978   7.420   0.347
 5863TIP3   OH217529   0.355   2.020   4.742
 5863TIP3    H117530   0.361   2.077   4.818
 5863TIP3    H217531   0.447   2.004   4.717
 5864TIP3   OH217532   1.334   6.738   0.657
 5864TIP3    H117533   1.309   6.824   0.622
 5864TIP3    H217534   1.262   6.712   0.714
 5865TIP3   OH217535   3.676   5.089   0.853
 5865TIP3    H117536   3.599   5.111   0.800
 5865TIP3    H217537   3.641   5.079   0.942
 5866TIP3   OH217538   1.575   4.630   4.457
 5866TIP3    H117539   1.523   4.582   4.392
 5866TIP3    H217540   1.646   4.570   4.479
 5867TIP3   OH217541   6.753   5.560   1.954
 5867TIP3    H117542   6.693   5.495   1.916
 5867TIP3    H217543   6.713   5.644   1.933
 5868TIP3   OH217544   1.697   5.663   4.540
 5868TIP3    H117545   1.774   5.688   4.592
 5868TIP3    H217546   1.682   5.571   4.562
 5869TIP3   OH217547   1.313   7.527   3.160
 5869TIP3    H117548   1.388   7.545   3.104
 5869TIP3    H217549   1.349   7.514   3.247
 5870TIP3   OH217550   1.746   2.361   0.619
 5870TIP3    H117551   1.793   2.280   0.636
 5870TIP3    H217552   1.659   2.346   0.654
 5871TIP3   OH217553   2.875   0.560   3.439
 5871TIP3    H117554   2.947   0.621   3.422
 5871TIP3    H217555   2.856   0.571   3.532
 5872TIP3   OH217556   4.675   4.590   0.304
 5872TIP3    H117557   4.637   4.677   0.287
 5872TIP3    H217558   4.751   4.586   0.247
 5873TIP3   OH217559   5.335   0.222   1.501
 5873TIP3    H117560   5.356   0.291   1.437
 5873TIP3    H217561   5.374   0.143   1.464
 5874TIP3   OH217562   7.618   4.219   5.954
 5874TIP3    H117563   7.645   4.299   5.909
 5874TIP3    H217564   7.700   4.178   5.980
 5875TIP3   OH217565   0.061   5.640   6.381
 5875TIP3    H117566   0.127   5.673   6.443
 5875TIP3    H217567   0.046   5.713   6.321
 5876TIP3   OH217568   4.569   1.850   1.374
 5876TIP3    H117569   4.647   1.843   1.318
 5876TIP3    H217570   4.527   1.765   1.367
 5877TIP3   OH217571   1.184   5.420   0.658
 5877TIP3    H117572   1.269   5.375   0.659
 5877TIP3    H217573   1.195   5.490   0.594
 5878TIP3   OH217574   1.604   7.399   0.450
 5878TIP3    H117575   1.635   7.489   0.441
 5878TIP3    H217576   1.564   7.378   0.365
 5879TIP3   OH217577   1.940   6.895   2.452
 5879TIP3    H117578   1.986   6.895   2.536
 5879TIP3    H217579   2.007   6.922   2.389
 5880TIP3   OH217580   5.248   6.808   2.560
 5880TIP3    H117581   5.259   6.873   2.491
 5880TIP3    H217582   5.164   6.830   2.601
 5881TIP3   OH217583   7.880   7.473   1.866
 5881TIP3    H117584   7.873   7.378   1.876
 5881TIP3    H217585   7.897   7.506   1.955
 5882TIP3   OH217586   7.212   2.089   5.908
 5882TIP3    H117587   7.132   2.077   5.856
 5882TIP3    H217588   7.199   2.172   5.953
 5883TIP3   OH217589   7.178   2.792   1.130
 5883TIP3    H117590   7.125   2.755   1.201
 5883TIP3    H217591   7.256   2.826   1.173
 5884TIP3   OH217592   3.577   5.328   4.102
 5884TIP3    H117593   3.617   5.255   4.055
 5884TIP3    H217594   3.503   5.355   4.047
 5885TIP3   OH217595   5.185   1.590   5.044
 5885TIP3    H117596   5.110   1.541   5.010
 5885TIP3    H217597   5.261   1.537   5.020
 5886TIP3   OH217598   7.195   2.316   6.072
 5886TIP3    H117599   7.232   2.395   6.033
 5886TIP3    H217600   7.140   2.348   6.143
 5887TIP3   OH217601   7.400   2.532   0.998
 5887TIP3    H117602   7.404   2.584   1.079
 5887TIP3    H217603   7.345   2.457   1.020
 5888TIP3   OH217604   8.086   7.050   3.319
 5888TIP3    H117605   8.015   7.105   3.351
 5888TIP3    H217606   8.164   7.082   3.365
 5889TIP3   OH217607   1.224   5.565   6.518
 5889TIP3    H117608   1.278   5.641   6.496
 5889TIP3    H217609   1.284   5.503   6.558
 5890TIP3   OH217610   5.416   1.263   1.772
 5890TIP3    H117611   5.402   1.212   1.692
 5890TIP3    H217612   5.446   1.199   1.837
 5891TIP3   OH217613   0.558   5.601   2.326
 5891TIP3    H117614   0.558   5.638   2.238
 5891TIP3    H217615   0.625   5.533   2.322
 5892TIP3   OH217616   2.839   4.877   2.352
 5892TIP3    H117617   2.863   4.815   2.421
 5892TIP3    H217618   2.907   4.944   2.356
 5893TIP3   OH217619   1.096   2.441   2.429
 5893TIP3    H117620   1.126   2.392   2.505
 5893TIP3    H217621   1.086   2.531   2.462
 5894TIP3   OH217622   3.402   2.416   5.094
 5894TIP3    H117623   3.323   2.395   5.043
 5894TIP3    H217624   3.379   2.496   5.141
 5895TIP3   OH217625   4.751   7.660   3.349
 5895TIP3    H117626   4.836   7.702   3.339
 5895TIP3    H217627   4.750   7.591   3.283
 5896TIP3   OH217628   4.356   5.117   5.495
 5896TIP3    H117629   4.435   5.171   5.491
 5896TIP3    H217630   4.368   5.062   5.573
 5897TIP3   OH217631   1.619   6.499   3.236
 5897TIP3    H117632   1.557   6.431   3.211
 5897TIP3    H217633   1.573   6.549   3.303
 5898TIP3   OH217634   1.368   3.769   3.019
 5898TIP3    H117635   1.283   3.767   2.975
 5898TIP3    H217636   1.353   3.820   3.099
 5899TIP3   OH217637   7.418   1.063   0.914
 5899TIP3    H117638   7.498   1.057   0.863
 5899TIP3    H217639   7.440   1.024   0.999
 5900TIP3   OH217640   1.906   6.243   0.389
 5900TIP3    H117641   1.821   6.280   0.413
 5900TIP3    H217642   1.944   6.216   0.473
 5901TIP3   OH217643   0.340   1.403   3.469
 5901TIP3    H117644   0.418   1.455   3.485
 5901TIP3    H217645   0.281   1.461   3.421
 5902TIP3   OH217646   2.462   0.759   3.233
 5902TIP3    H117647   2.405   0.692   3.196
 5902TIP3    H217648   2.488   0.813   3.158
 5903TIP3   OH217649   6.909   4.452   5.849
 5903TIP3    H117650   6.966   4.375   5.853
 5903TIP3    H217651   6.829   4.420   5.807
 5904TIP3   OH217652   4.222   4.097   1.683
 5904TIP3    H117653   4.250   4.069   1.596
 5904TIP3    H217654   4.252   4.188   1.690
 5905TIP3   OH217655   6.508   0.559   2.593
 5905TIP3    H117656   6.532   0.614   2.668
 5905TIP3    H217657   6.444   0.497   2.628
 5906TIP3   OH217658   6.576   1.711   4.240
 5906TIP3    H117659   6.655   1.688   4.288
 5906TIP3    H217660   6.606   1.733   4.152
 5907TIP3   OH217661   5.215   0.066   4.200
 5907TIP3    H117662   5.279   0.003   4.166
 5907TIP3    H217663   5.262   0.111   4.271
 5908TIP3   OH217664   1.484   4.529   5.192
 5908TIP3    H117665   1.430   4.579   5.254
 5908TIP3    H217666   1.432   4.528   5.111
 5909TIP3   OH217667   4.182   0.463   4.653
 5909TIP3    H117668   4.143   0.482   4.568
 5909TIP3    H217669   4.165   0.541   4.706
 5910TIP3   OH217670   6.650   0.317   0.989
 5910TIP3    H117671   6.743   0.318   1.009
 5910TIP3    H217672   6.645   0.343   0.897
 5911TIP3   OH217673   5.365   5.336   5.470
 5911TIP3    H117674   5.279   5.315   5.432
 5911TIP3    H217675   5.398   5.252   5.501
 5912TIP3   OH217676   4.887   3.769   4.198
 5912TIP3    H117677   4.840   3.773   4.281
 5912TIP3    H217678   4.930   3.854   4.191
 5913TIP3   OH217679   2.272   7.424   6.878
 5913TIP3    H117680   2.334   7.421   6.804
 5913TIP3    H217681   2.252   7.332   6.895
 5914TIP3   OH217682   4.295   1.957   2.254
 5914TIP3    H117683   4.219   1.998   2.214
 5914TIP3    H217684   4.274   1.954   2.348
 5915TIP3   OH217685   6.538   0.059   3.960
 5915TIP3    H117686   6.591   0.100   3.892
 5915TIP3    H217687   6.562  -0.034   3.957
 5916TIP3   OH217688   7.389   0.149   1.958
 5916TIP3    H117689   7.438   0.181   2.033
 5916TIP3    H217690   7.415   0.057   1.949
 5917TIP3   OH217691   1.309   3.835   1.534
 5917TIP3    H117692   1.344   3.748   1.515
 5917TIP3    H217693   1.230   3.819   1.586
 5918TIP3   OH217694   7.360   0.153   3.114
 5918TIP3    H117695   7.393   0.099   3.186
 5918TIP3    H217696   7.408   0.236   3.123
 5919TIP3   OH217697   7.728   6.543   3.977
 5919TIP3    H117698   7.689   6.456   3.991
 5919TIP3    H217699   7.808   6.543   4.029
 5920TIP3   OH217700   1.227   1.589   3.677
 5920TIP3    H117701   1.182   1.525   3.731
 5920TIP3    H217702   1.305   1.613   3.728
 5921TIP3   OH217703   1.433   4.379   3.794
 5921TIP3    H117704   1.492   4.415   3.860
 5921TIP3    H217705   1.359   4.344   3.843
 5922TIP3   OH217706   7.058   4.411   0.867
 5922TIP3    H117707   7.145   4.375   0.881
 5922TIP3    H217708   7.003   4.334   0.848
 5923TIP3   OH217709   2.410   2.566   1.465
 5923TIP3    H117710   2.401   2.562   1.561
 5923TIP3    H217711   2.361   2.644   1.439
 5924TIP3   OH217712   5.868   3.966   0.236
 5924TIP3    H117713   5.788   3.923   0.265
 5924TIP3    H217714   5.851   3.992   0.145
 5925TIP3   OH217715   0.566   0.435   1.624
 5925TIP3    H117716   0.547   0.492   1.550
 5925TIP3    H217717   0.589   0.495   1.695
 5926TIP3   OH217718   5.396   7.360   4.816
 5926TIP3    H117719   5.486   7.393   4.827
 5926TIP3    H217720   5.342   7.439   4.818
 5927TIP3   OH217721   6.030   7.879   1.410
 5927TIP3    H117722   6.051   7.970   1.434
 5927TIP3    H217723   5.994   7.886   1.321
 5928TIP3   OH217724   4.964   3.635   1.777
 5928TIP3    H117725   4.929   3.591   1.699
 5928TIP3    H217726   4.886   3.662   1.826
 5929TIP3   OH217727   1.222   0.853   6.503
 5929TIP3    H117728   1.247   0.870   6.412
 5929TIP3    H217729   1.294   0.800   6.537
 5930TIP3   OH217730   7.213   5.760   1.310
 5930TIP3    H117731   7.289   5.740   1.255
 5930TIP3    H217732   7.137   5.743   1.254
 5931TIP3   OH217733   8.008   1.732   0.245
 5931TIP3    H117734   8.042   1.730   0.335
 5931TIP3    H217735   7.920   1.697   0.252
 5932TIP3   OH217736   5.622   3.098   0.251
 5932TIP3    H117737   5.548   3.088   0.191
 5932TIP3    H217738   5.648   3.009   0.273
 5933TIP3   OH217739   6.449   3.860   2.356
 5933TIP3    H117740   6.451   3.765   2.373
 5933TIP3    H217741   6.370   3.874   2.305
 5934TIP3   OH217742   3.056   7.637   2.284
 5934TIP3    H117743   3.092   7.579   2.217
 5934TIP3    H217744   3.009   7.579   2.343
 5935TIP3   OH217745   0.356   4.215   6.282
 5935TIP3    H117746   0.327   4.302   6.252
 5935TIP3    H217747   0.344   4.159   6.205
 5936TIP3   OH217748   5.504   2.191   3.004
 5936TIP3    H117749   5.506   2.275   2.957
 5936TIP3    H217750   5.593   2.181   3.038
 5937TIP3   OH217751   4.548   5.689   1.256
 5937TIP3    H117752   4.558   5.784   1.266
 5937TIP3    H217753   4.552   5.675   1.161
 5938TIP3   OH217754   2.800   2.812   6.485
 5938TIP3    H117755   2.893   2.799   6.469
 5938TIP3    H217756   2.762   2.724   6.477
 5939TIP3   OH217757   0.171   4.972   4.687
 5939TIP3    H117758   0.259   5.009   4.683
 5939TIP3    H217759   0.119   5.040   4.731
 5940TIP3   OH217760   3.153   3.362   0.413
 5940TIP3    H117761   3.095   3.439   0.411
 5940TIP3    H217762   3.210   3.373   0.338
 5941TIP3   OH217763   5.360   1.541   1.574
 5941TIP3    H117764   5.388   1.631   1.589
 5941TIP3    H217765   5.428   1.488   1.616
 5942TIP3   OH217766   7.820   4.423   5.943
 5942TIP3    H117767   7.866   4.481   5.883
 5942TIP3    H217768   7.740   4.470   5.965
 5943TIP3   OH217769   1.393   2.014   3.760
 5943TIP3    H117770   1.378   1.956   3.685
 5943TIP3    H217771   1.427   2.094   3.721
 5944TIP3   OH217772   7.293   1.787   3.743
 5944TIP3    H117773   7.293   1.703   3.697
 5944TIP3    H217774   7.352   1.843   3.692
 5945TIP3   OH217775   8.127   7.202   1.524
 5945TIP3    H117776   8.209   7.245   1.498
 5945TIP3    H217777   8.129   7.119   1.476
 5946TIP3   OH217778   1.873   7.732   5.553
 5946TIP3    H117779   1.866   7.664   5.620
 5946TIP3    H217780   1.782   7.756   5.534
 5947TIP3   OH217781   8.247   2.182   3.644
 5947TIP3    H117782   8.194   2.182   3.723
 5947TIP3    H217783   8.338   2.187   3.675
 5948TIP3   OH217784   3.313   1.581   2.228
 5948TIP3    H117785   3.250   1.627   2.283
 5948TIP3    H217786   3.306   1.625   2.143
 5949TIP3   OH217787   5.171   5.118   5.662
 5949TIP3    H117788   5.258   5.114   5.622
 5949TIP3    H217789   5.127   5.190   5.618
 5950TIP3   OH217790   6.531   3.348   0.524
 5950TIP3    H117791   6.455   3.318   0.475
 5950TIP3    H217792   6.605   3.328   0.467
 5951TIP3   OH217793   1.852   5.579   0.274
 5951TIP3    H117794   1.858   5.565   0.180
 5951TIP3    H217795   1.762   5.556   0.297
 5952TIP3   OH217796   6.381   0.888   0.436
 5952TIP3    H117797   6.358   0.795   0.440
 5952TIP3    H217798   6.422   0.906   0.520
 5953TIP3   OH217799   3.906   2.427   3.692
 5953TIP3    H117800   3.965   2.404   3.621
 5953TIP3    H217801   3.936   2.374   3.766
 5954TIP3   OH217802   1.117   7.142   4.462
 5954TIP3    H117803   1.069   7.110   4.538
 5954TIP3    H217804   1.089   7.086   4.390
 5955TIP3   OH217805   5.574   2.548   5.098
 5955TIP3    H117806   5.593   2.586   5.184
 5955TIP3    H217807   5.631   2.595   5.037
 5956TIP3   OH217808   6.607   4.423   6.771
 5956TIP3    H117809   6.546   4.367   6.723
 5956TIP3    H217810   6.659   4.465   6.703
 5957TIP3   OH217811   1.516   1.589   2.608
 5957TIP3    H117812   1.563   1.595   2.526
 5957TIP3    H217813   1.536   1.501   2.642
 5958TIP3   OH217814   4.580   1.462   0.755
 5958TIP3    H117815   4.672   1.446   0.772
 5958TIP3    H217816   4.534   1.417   0.826
 5959TIP3   OH217817   2.986   0.323   5.363
 5959TIP3    H117818   2.982   0.245   5.308
 5959TIP3    H217819   2.896   0.334   5.395
 5960TIP3   OH217820   4.864   5.392   2.574
 5960TIP3    H117821   4.820   5.317   2.533
 5960TIP3    H217822   4.871   5.367   2.667
 5961TIP3   OH217823   1.834   4.626   6.026
 5961TIP3    H117824   1.836   4.537   6.061
 5961TIP3    H217825   1.899   4.626   5.956
 5962TIP3   OH217826   6.574   2.912   4.048
 5962TIP3    H117827   6.593   2.829   4.092
 5962TIP3    H217828   6.641   2.920   3.981
 5963TIP3   OH217829   2.276   0.452   1.811
 5963TIP3    H117830   2.248   0.369   1.849
 5963TIP3    H217831   2.249   0.447   1.720
 5964TIP3   OH217832   0.228   6.327   2.692
 5964TIP3    H117833   0.246   6.399   2.631
 5964TIP3    H217834   0.300   6.330   2.755
 5965TIP3   OH217835   0.832   3.402   2.724
 5965TIP3    H117836   0.811   3.330   2.664
 5965TIP3    H217837   0.927   3.394   2.738
 5966TIP3   OH217838   0.033   5.633   2.416
 5966TIP3    H117839   0.003   5.569   2.481
 5966TIP3    H217840   0.128   5.630   2.421
 5967TIP3   OH217841   7.089   3.419   2.296
 5967TIP3    H117842   7.037   3.399   2.373
 5967TIP3    H217843   7.025   3.453   2.233
 5968TIP3   OH217844   3.935   7.544   1.753
 5968TIP3    H117845   3.996   7.475   1.729
 5968TIP3    H217846   3.990   7.620   1.770
 5969TIP3   OH217847   2.756   4.033   0.074
 5969TIP3    H117848   2.732   3.953   0.028
 5969TIP3    H217849   2.841   4.014   0.115
 5970TIP3   OH217850   8.276   1.346   6.465
 5970TIP3    H117851   8.303   1.383   6.549
 5970TIP3    H217852   8.334   1.386   6.400
 5971TIP3   OH217853   2.837   0.763   0.833
 5971TIP3    H117854   2.863   0.692   0.891
 5971TIP3    H217855   2.743   0.750   0.820
 5972TIP3   OH217856   1.206   5.250   6.807
 5972TIP3    H117857   1.140   5.240   6.739
 5972TIP3    H217858   1.237   5.161   6.824
 5973TIP3   OH217859   1.843   4.037   4.654
 5973TIP3    H117860   1.833   3.949   4.618
 5973TIP3    H217861   1.760   4.081   4.633
 5974TIP3   OH217862   5.057   6.640   2.002
 5974TIP3    H117863   5.043   6.660   1.909
 5974TIP3    H217864   4.972   6.655   2.043
 5975TIP3   OH217865   6.162   6.756   4.171
 5975TIP3    H117866   6.079   6.727   4.210
 5975TIP3    H217867   6.158   6.725   4.081
 5976TIP3   OH217868   6.103   0.455   2.773
 5976TIP3    H117869   6.040   0.441   2.843
 5976TIP3    H217870   6.128   0.367   2.745
 5977TIP3   OH217871   3.306   1.343   0.945
 5977TIP3    H117872   3.364   1.332   0.870
 5977TIP3    H217873   3.244   1.270   0.938
 5978TIP3   OH217874   7.886   5.981   3.484
 5978TIP3    H117875   7.818   5.963   3.549
 5978TIP3    H217876   7.850   5.948   3.402
 5979TIP3   OH217877   3.104   4.419   5.214
 5979TIP3    H117878   3.172   4.472   5.256
 5979TIP3    H217879   3.114   4.437   5.121
 5980TIP3   OH217880   6.960   5.611   6.109
 5980TIP3    H117881   6.910   5.561   6.174
 5980TIP3    H217882   7.049   5.577   6.115
 5981TIP3   OH217883   2.320   0.099   6.320
 5981TIP3    H117884   2.310   0.056   6.405
 5981TIP3    H217885   2.328   0.192   6.340
 5982TIP3   OH217886   5.717   0.253   6.370
 5982TIP3    H117887   5.739   0.321   6.306
 5982TIP3    H217888   5.735   0.293   6.455
 5983TIP3   OH217889   3.736   4.689   4.700
 5983TIP3    H117890   3.735   4.657   4.610
 5983TIP3    H217891   3.826   4.720   4.713
 5984TIP3   OH217892   8.368   5.401   4.707
 5984TIP3    H117893   8.421   5.461   4.655
 5984TIP3    H217894   8.278   5.417   4.677
 5985TIP3   OH217895   5.036   4.547   6.645
 5985TIP3    H117896   4.981   4.469   6.642
 5985TIP3    H217897   5.057   4.558   6.737
 5986TIP3   OH217898   2.807   6.461   2.736
 5986TIP3    H117899   2.795   6.366   2.732
 5986TIP3    H217900   2.778   6.485   2.824
 5987TIP3   OH217901   6.320   7.317   3.040
 5987TIP3    H117902   6.379   7.251   3.077
 5987TIP3    H217903   6.320   7.299   2.946
 5988TIP3   OH217904   0.385   2.368   4.624
 5988TIP3    H117905   0.361   2.440   4.681
 5988TIP3    H217906   0.308   2.353   4.569
 5989TIP3   OH217907   2.241   2.569   4.860
 5989TIP3    H117908   2.323   2.530   4.828
 5989TIP3    H217909   2.172   2.511   4.825
 5990TIP3   OH217910   3.938   1.734   2.933
 5990TIP3    H117911   3.912   1.716   3.024
 5990TIP3    H217912   3.855   1.737   2.885
 5991TIP3   OH217913   4.898   7.685   4.471
 5991TIP3    H117914   4.891   7.641   4.557
 5991TIP3    H217915   4.988   7.668   4.443
 5992TIP3   OH217916   8.277   2.183   6.190
 5992TIP3    H117917   8.281   2.154   6.099
 5992TIP3    H217918   8.275   2.279   6.184
 5993TIP3   OH217919   7.447   5.018   2.050
 5993TIP3    H117920   7.375   5.046   2.106
 5993TIP3    H217921   7.487   4.944   2.097
 5994TIP3   OH217922   6.878   0.091   4.559
 5994TIP3    H117923   6.898   0.011   4.511
 5994TIP3    H217924   6.783   0.098   4.555
 5995TIP3   OH217925   0.474   6.341   1.635
 5995TIP3    H117926   0.520   6.397   1.573
 5995TIP3    H217927   0.422   6.401   1.688
 5996TIP3   OH217928   4.251   7.255   3.044
 5996TIP3    H117929   4.241   7.160   3.039
 5996TIP3    H217930   4.165   7.289   3.019
 5997TIP3   OH217931   0.859   7.523   6.709
 5997TIP3    H117932   0.812   7.459   6.763
 5997TIP3    H217933   0.879   7.476   6.628
 5998TIP3   OH217934   3.424   2.676   3.863
 5998TIP3    H117935   3.414   2.750   3.922
 5998TIP3    H217936   3.430   2.715   3.776
 5999TIP3   OH217937   6.850   0.117   1.915
 5999TIP3    H117938   6.800   0.143   1.993
 5999TIP3    H217939   6.915   0.186   1.905
 6000TIP3   OH217940   7.362   4.787   5.044
 6000TIP3    H117941   7.427   4.722   5.015
 6000TIP3    H217942   7.376   4.862   4.987
 6001TIP3   OH217943   2.857   7.723   3.311
 6001TIP3    H117944   2.905   7.796   3.350
 6001TIP3    H217945   2.924   7.658   3.290
 6002TIP3   OH217946   4.117   2.044   3.085
 6002TIP3    H117947   4.052   2.113   3.079
 6002TIP3    H217948   4.161   2.045   2.999
 6003TIP3   OH217949   2.822   6.650   3.357
 6003TIP3    H117950   2.729   6.672   3.355
 6003TIP3    H217951   2.824   6.554   3.357
 6004TIP3   OH217952   7.943   5.393   0.470
 6004TIP3    H117953   7.852   5.418   0.454
 6004TIP3    H217954   7.966   5.437   0.553
 6005TIP3   OH217955   0.033   3.659   2.282
 6005TIP3    H117956  -0.055   3.681   2.250
 6005TIP3    H217957   0.092   3.692   2.215
 6006TIP3   OH217958   5.768   4.945   2.188
 6006TIP3    H117959   5.749   5.031   2.224
 6006TIP3    H217960   5.734   4.884   2.254
 6007TIP3   OH217961   1.922   7.702   0.568
 6007TIP3    H117962   1.839   7.698   0.616
 6007TIP3    H217963   1.898   7.685   0.477
 6008TIP3   OH217964   4.931   3.710   1.237
 6008TIP3    H117965   4.849   3.661   1.232
 6008TIP3    H217966   4.989   3.654   1.288
 6009TIP3   OH217967   2.541   5.105   0.660
 6009TIP3    H117968   2.553   5.199   0.673
 6009TIP3    H217969   2.472   5.081   0.722
 6010TIP3   OH217970   6.208   6.744   1.985
 6010TIP3    H117971   6.218   6.702   2.071
 6010TIP3    H217972   6.282   6.805   1.980
 6011TIP3   OH217973   4.419   5.342   2.624
 6011TIP3    H117974   4.458   5.292   2.553
 6011TIP3    H217975   4.369   5.411   2.580
 6012TIP3   OH217976   4.788   1.481   0.176
 6012TIP3    H117977   4.717   1.539   0.148
 6012TIP3    H217978   4.743   1.405   0.213
 6013TIP3   OH217979   1.826   0.893   2.458
 6013TIP3    H117980   1.918   0.908   2.478
 6013TIP3    H217981   1.825   0.817   2.400
 6014TIP3   OH217982   6.340   0.647   1.749
 6014TIP3    H117983   6.382   0.561   1.744
 6014TIP3    H217984   6.246   0.628   1.744
 6015TIP3   OH217985   1.311   1.237   3.631
 6015TIP3    H117986   1.392   1.281   3.605
 6015TIP3    H217987   1.262   1.303   3.679
 6016TIP3   OH217988   7.645   0.973   4.864
 6016TIP3    H117989   7.647   0.887   4.823
 6016TIP3    H217990   7.566   1.015   4.829
 6017TIP3   OH217991   5.964   2.668   1.378
 6017TIP3    H117992   5.952   2.608   1.304
 6017TIP3    H217993   5.922   2.624   1.451
 6018TIP3   OH217994   5.640   7.464   6.736
 6018TIP3    H117995   5.560   7.417   6.713
 6018TIP3    H217996   5.695   7.460   6.657
 6019TIP3   OH217997   4.870   3.225   4.608
 6019TIP3    H117998   4.945   3.172   4.632
 6019TIP3    H217999   4.805   3.207   4.676
 6020TIP3   OH218000   2.051   5.400   1.652
 6020TIP3    H118001   1.999   5.406   1.572
 6020TIP3    H218002   2.010   5.330   1.702
 6021TIP3   OH218003   6.491   4.036   0.395
 6021TIP3    H118004   6.438   3.976   0.343
 6021TIP3    H218005   6.581   4.021   0.367
 6022TIP3   OH218006   6.798   5.635   2.481
 6022TIP3    H118007   6.724   5.676   2.437
 6022TIP3    H218008   6.874   5.683   2.449
 6023TIP3   OH218009   1.237   5.172   0.895
 6023TIP3    H118010   1.194   5.223   0.964
 6023TIP3    H218011   1.217   5.219   0.814
 6024TIP3   OH218012   1.947   7.322   0.221
 6024TIP3    H118013   1.954   7.323   0.317
 6024TIP3    H218014   1.866   7.275   0.203
 6025TIP3   OH218015   0.469   6.544   4.544
 6025TIP3    H118016   0.491   6.637   4.550
 6025TIP3    H218017   0.473   6.513   4.634
 6026TIP3   OH218018   4.127   4.491   1.009
 6026TIP3    H118019   4.088   4.515   1.093
 6026TIP3    H218020   4.100   4.560   0.949
 6027TIP3   OH218021   0.281   2.764   1.425
 6027TIP3    H118022   0.192   2.732   1.442
 6027TIP3    H218023   0.281   2.786   1.332
 6028TIP3   OH218024   0.902   7.119   0.313
 6028TIP3    H118025   0.867   7.037   0.278
 6028TIP3    H218026   0.951   7.093   0.391
 6029TIP3   OH218027   7.912   3.180   4.592
 6029TIP3    H118028   7.972   3.142   4.656
 6029TIP3    H218029   7.965   3.190   4.513
 6030TIP3   OH218030   1.349   0.591   0.812
 6030TIP3    H118031   1.426   0.570   0.759
 6030TIP3    H218032   1.284   0.624   0.750
 6031TIP3   OH218033   2.640   6.541   4.894
 6031TIP3    H118034   2.582   6.496   4.956
 6031TIP3    H218035   2.621   6.500   4.810
 6032TIP3   OH218036   7.687   0.742   3.890
 6032TIP3    H118037   7.676   0.712   3.980
 6032TIP3    H218038   7.628   0.818   3.883
 6033TIP3   OH218039   7.261   7.139   2.880
 6033TIP3    H118040   7.308   7.212   2.841
 6033TIP3    H218041   7.194   7.180   2.935
 6034TIP3   OH218042   1.024   2.825   0.089
 6034TIP3    H118043   0.994   2.747   0.135
 6034TIP3    H218044   1.049   2.886   0.160
 6035TIP3   OH218045   6.644   4.147   0.649
 6035TIP3    H118046   6.721   4.183   0.607
 6035TIP3    H218047   6.578   4.142   0.579
 6036TIP3   OH218048   6.638   5.609   4.480
 6036TIP3    H118049   6.722   5.564   4.472
 6036TIP3    H218050   6.585   5.552   4.535
 6037TIP3   OH218051   1.315   3.924   2.626
 6037TIP3    H118052   1.391   3.982   2.619
 6037TIP3    H218053   1.240   3.980   2.610
 6038TIP3   OH218054   5.984   2.410   2.576
 6038TIP3    H118055   5.963   2.321   2.548
 6038TIP3    H218056   6.011   2.454   2.495
 6039TIP3   OH218057   2.528   7.671   0.696
 6039TIP3    H118058   2.537   7.686   0.790
 6039TIP3    H218059   2.474   7.592   0.690
 6040TIP3   OH218060   7.770   1.456   1.224
 6040TIP3    H118061   7.800   1.541   1.257
 6040TIP3    H218062   7.722   1.477   1.143
 6041TIP3   OH218063   6.827   1.630   2.143
 6041TIP3    H118064   6.840   1.671   2.228
 6041TIP3    H218065   6.908   1.582   2.126
 6042TIP3   OH218066   2.136   7.684   0.292
 6042TIP3    H118067   2.187   7.679   0.373
 6042TIP3    H218068   2.185   7.745   0.237
 6043TIP3   OH218069   1.270   1.371   5.055
 6043TIP3    H118070   1.255   1.276   5.058
 6043TIP3    H218071   1.204   1.403   4.994
 6044TIP3   OH218072   7.440   1.861   6.482
 6044TIP3    H118073   7.440   1.797   6.411
 6044TIP3    H218074   7.526   1.851   6.524
 6045TIP3   OH218075   2.447   7.531   4.168
 6045TIP3    H118076   2.355   7.525   4.192
 6045TIP3    H218077   2.492   7.477   4.233
 6046TIP3   OH218078   3.790   1.298   5.583
 6046TIP3    H118079   3.876   1.322   5.549
 6046TIP3    H218080   3.807   1.273   5.674
 6047TIP3   OH218081   5.436   1.786   1.705
 6047TIP3    H118082   5.531   1.793   1.710
 6047TIP3    H218083   5.406   1.874   1.683
 6048TIP3   OH218084   8.116   1.389   5.529
 6048TIP3    H118085   8.178   1.316   5.530
 6048TIP3    H218086   8.045   1.359   5.472
 6049TIP3   OH218087   2.287   0.599   4.548
 6049TIP3    H118088   2.257   0.674   4.600
 6049TIP3    H218089   2.257   0.618   4.459
 6050TIP3   OH218090   3.144   0.258   3.028
 6050TIP3    H118091   3.163   0.259   3.122
 6050TIP3    H218092   3.178   0.174   2.998
 6051TIP3   OH218093   6.874   6.716   4.229
 6051TIP3    H118094   6.864   6.762   4.313
 6051TIP3    H218095   6.872   6.785   4.163
 6052TIP3   OH218096   5.688   7.312   0.208
 6052TIP3    H118097   5.635   7.263   0.146
 6052TIP3    H218098   5.650   7.400   0.208
 6053TIP3   OH218099   7.591   3.692   6.532
 6053TIP3    H118100   7.676   3.648   6.531
 6053TIP3    H218101   7.553   3.668   6.617
 6054TIP3   OH218102   1.355   0.269   3.440
 6054TIP3    H118103   1.351   0.364   3.431
 6054TIP3    H218104   1.353   0.254   3.534
 6055TIP3   OH218105   5.531   5.632   2.157
 6055TIP3    H118106   5.590   5.629   2.082
 6055TIP3    H218107   5.500   5.542   2.167
 6056TIP3   OH218108   6.007   7.443   1.744
 6056TIP3    H118109   5.976   7.407   1.827
 6056TIP3    H218110   5.995   7.538   1.754
 6057TIP3   OH218111   4.372   5.240   0.041
 6057TIP3    H118112   4.374   5.245  -0.054
 6057TIP3    H218113   4.462   5.257   0.069
 6058TIP3   OH218114   5.311   5.659   3.597
 6058TIP3    H118115   5.292   5.747   3.631
 6058TIP3    H218116   5.386   5.629   3.650
 6059TIP3   OH218117   2.657   0.389   3.047
 6059TIP3    H118118   2.664   0.445   3.124
 6059TIP3    H218119   2.598   0.318   3.074
 6060TIP3   OH218120   2.842   7.563   0.903
 6060TIP3    H118121   2.846   7.485   0.959
 6060TIP3    H218122   2.934   7.580   0.879
 6061TIP3   OH218123   7.380   4.079   0.602
 6061TIP3    H118124   7.435   4.005   0.574
 6061TIP3    H218125   7.420   4.109   0.684
 6062TIP3   OH218126   7.745   3.622   1.425
 6062TIP3    H118127   7.819   3.631   1.485
 6062TIP3    H218128   7.715   3.532   1.436
 6063TIP3   OH218129   5.744   0.445   6.190
 6063TIP3    H118130   5.783   0.450   6.103
 6063TIP3    H218131   5.741   0.536   6.220
 6064TIP3   OH218132   2.412   7.611   3.865
 6064TIP3    H118133   2.498   7.649   3.848
 6064TIP3    H218134   2.399   7.622   3.959
 6065TIP3   OH218135   7.352   6.149   4.328
 6065TIP3    H118136   7.334   6.156   4.422
 6065TIP3    H218137   7.437   6.192   4.316
 6066TIP3   OH218138   2.564   4.090   6.260
 6066TIP3    H118139   2.596   4.087   6.350
 6066TIP3    H218140   2.551   4.183   6.242
 6067TIP3   OH218141   2.934   1.176   2.870
 6067TIP3    H118142   2.847   1.182   2.908
 6067TIP3    H218143   2.923   1.208   2.780
 6068TIP3   OH218144   6.370   3.087   4.822
 6068TIP3    H118145   6.401   3.175   4.843
 6068TIP3    H218146   6.275   3.092   4.833
 6069TIP3   OH218147   2.199   5.132   4.061
 6069TIP3    H118148   2.250   5.177   3.994
 6069TIP3    H218149   2.264   5.105   4.126
 6070TIP3   OH218150   3.880   3.065   3.868
 6070TIP3    H118151   3.918   3.058   3.956
 6070TIP3    H218152   3.806   3.003   3.870
 6071TIP3   OH218153   5.303   6.907   1.428
 6071TIP3    H118154   5.253   6.972   1.378
 6071TIP3    H218155   5.318   6.949   1.513
 6072TIP3   OH218156   5.786   5.061   4.603
 6072TIP3    H118157   5.772   5.072   4.697
 6072TIP3    H218158   5.878   5.036   4.594
 6073TIP3   OH218159   4.290   1.802   3.463
 6073TIP3    H118160   4.206   1.763   3.437
 6073TIP3    H218161   4.325   1.742   3.528
 6074TIP3   OH218162   6.567   2.102   3.230
 6074TIP3    H118163   6.573   2.191   3.196
 6074TIP3    H218164   6.488   2.102   3.283
 6075TIP3   OH218165   7.063   5.294   0.776
 6075TIP3    H118166   6.970   5.272   0.768
 6075TIP3    H218167   7.069   5.344   0.857
 6076TIP3   OH218168   7.094   2.637   5.475
 6076TIP3    H118169   7.115   2.600   5.561
 6076TIP3    H218170   7.054   2.564   5.427
 6077TIP3   OH218171   7.804   4.400   0.113
 6077TIP3    H118172   7.722   4.354   0.131
 6077TIP3    H218173   7.829   4.437   0.197
 6078TIP3   OH218174   2.527   2.067   5.515
 6078TIP3    H118175   2.501   2.152   5.550
 6078TIP3    H218176   2.482   2.060   5.432
 6079TIP3   OH218177   2.892   0.263   2.893
 6079TIP3    H118178   2.839   0.317   2.952
 6079TIP3    H218179   2.980   0.265   2.931
 6080TIP3   OH218180   0.291   7.678   6.368
 6080TIP3    H118181   0.362   7.616   6.386
 6080TIP3    H218182   0.219   7.647   6.422
 6081TIP3   OH218183   6.501   6.742   5.654
 6081TIP3    H118184   6.493   6.740   5.749
 6081TIP3    H218185   6.468   6.828   5.629
 6082TIP3   OH218186   0.678   4.617   1.550
 6082TIP3    H118187   0.678   4.709   1.524
 6082TIP3    H218188   0.652   4.569   1.471
 6083TIP3   OH218189   2.347   4.264   0.810
 6083TIP3    H118190   2.437   4.234   0.796
 6083TIP3    H218191   2.301   4.187   0.844
 6084TIP3   OH218192   8.272   7.156   4.038
 6084TIP3    H118193   8.307   7.073   4.070
 6084TIP3    H218194   8.179   7.153   4.060
 6085TIP3   OH218195   1.105   1.173   2.420
 6085TIP3    H118196   1.047   1.107   2.458
 6085TIP3    H218197   1.056   1.210   2.348
 6086TIP3   OH218198   2.547   2.512   6.322
 6086TIP3    H118199   2.470   2.481   6.370
 6086TIP3    H218200   2.619   2.499   6.383
 6087TIP3   OH218201   5.084   1.143   2.200
 6087TIP3    H118202   5.143   1.200   2.149
 6087TIP3    H218203   5.127   1.135   2.285
 6088TIP3   OH218204   5.125   7.291   4.673
 6088TIP3    H118205   5.157   7.307   4.761
 6088TIP3    H218206   5.187   7.229   4.635
 6089TIP3   OH218207   8.121   3.011   0.144
 6089TIP3    H118208   8.084   2.942   0.088
 6089TIP3    H218209   8.137   3.084   0.084
 6090TIP3   OH218210   4.772   2.199   0.021
 6090TIP3    H118211   4.789   2.283   0.063
 6090TIP3    H218212   4.812   2.206  -0.065
 6091TIP3   OH218213   4.179   1.371   4.665
 6091TIP3    H118214   4.209   1.450   4.621
 6091TIP3    H218215   4.084   1.380   4.668
 6092TIP3   OH218216   1.352   7.254   1.045
 6092TIP3    H118217   1.437   7.298   1.048
 6092TIP3    H218218   1.303   7.300   0.977
 6093TIP3   OH218219   4.786   3.175   1.766
 6093TIP3    H118220   4.806   3.264   1.735
 6093TIP3    H218221   4.866   3.125   1.746
 6094TIP3   OH218222   1.021   7.948   3.462
 6094TIP3    H118223   1.026   7.935   3.557
 6094TIP3    H218224   1.023   7.860   3.425
 6095TIP3   OH218225   2.664   3.580   6.780
 6095TIP3    H118226   2.740   3.538   6.741
 6095TIP3    H218227   2.674   3.673   6.760
 6096TIP3   OH218228   7.660   3.319   3.359
 6096TIP3    H118229   7.630   3.332   3.269
 6096TIP3    H218230   7.748   3.281   3.349
 6097TIP3   OH218231   1.334   7.893   5.335
 6097TIP3    H118232   1.368   7.909   5.423
 6097TIP3    H218233   1.250   7.849   5.348
 6098TIP3   OH218234   6.689   0.734   3.766
 6098TIP3    H118235   6.612   0.705   3.718
 6098TIP3    H218236   6.707   0.822   3.733
 6099TIP3   OH218237   0.986   0.607   4.479
 6099TIP3    H118238   0.936   0.553   4.540
 6099TIP3    H218239   0.926   0.678   4.456
 6100TIP3   OH218240   5.297   1.374   3.014
 6100TIP3    H118241   5.277   1.329   2.932
 6100TIP3    H218242   5.355   1.445   2.989
 6101TIP3   OH218243   5.235   6.134   5.690
 6101TIP3    H118244   5.225   6.220   5.731
 6101TIP3    H218245   5.227   6.072   5.762
 6102TIP3   OH218246   0.034   5.172   3.513
 6102TIP3    H118247  -0.022   5.240   3.474
 6102TIP3    H218248   0.086   5.140   3.440
 6103TIP3   OH218249   6.011   0.910   5.040
 6103TIP3    H118250   6.049   0.924   5.127
 6103TIP3    H218251   5.952   0.837   5.051
 6104TIP3   OH218252   0.403   5.641   3.140
 6104TIP3    H118253   0.425   5.581   3.069
 6104TIP3    H218254   0.483   5.650   3.191
 6105TIP3   OH218255   5.689   2.589   5.364
 6105TIP3    H118256   5.723   2.506   5.396
 6105TIP3    H218257   5.760   2.651   5.379
 6106TIP3   OH218258   5.019   0.389   6.286
 6106TIP3    H118259   5.028   0.461   6.349
 6106TIP3    H218260   4.948   0.335   6.322
 6107TIP3   OH218261   0.717   2.723   0.112
 6107TIP3    H118262   0.708   2.812   0.078
 6107TIP3    H218263   0.712   2.667   0.034
 6108TIP3   OH218264   5.024   1.885   5.815
 6108TIP3    H118265   5.078   1.954   5.854
 6108TIP3    H218266   5.081   1.808   5.813
 6109TIP3   OH218267   1.130   4.229   6.878
 6109TIP3    H118268   1.091   4.265   6.798
 6109TIP3    H218269   1.112   4.135   6.874
 6110TIP3   OH218270   1.932   4.322   5.433
 6110TIP3    H118271   1.937   4.394   5.496
 6110TIP3    H218272   1.982   4.352   5.357
 6111TIP3   OH218273   5.949   0.002   1.456
 6111TIP3    H118274   5.870   0.002   1.401
 6111TIP3    H218275   6.017  -0.035   1.399
 6112TIP3   OH218276   5.067   2.696   3.463
 6112TIP3    H118277   4.996   2.736   3.413
 6112TIP3    H218278   5.071   2.606   3.431
 6113TIP3   OH218279   5.297   2.461   5.075
 6113TIP3    H118280   5.269   2.419   4.993
 6113TIP3    H218281   5.391   2.478   5.062
 6114TIP3   OH218282   3.815   1.130   6.362
 6114TIP3    H118283   3.762   1.065   6.407
 6114TIP3    H218284   3.896   1.134   6.413
 6115TIP3   OH218285   6.666   6.658   1.021
 6115TIP3    H118286   6.682   6.719   1.092
 6115TIP3    H218287   6.663   6.712   0.942
 6116TIP3   OH218288   4.745   1.871   3.323
 6116TIP3    H118289   4.669   1.835   3.277
 6116TIP3    H218290   4.819   1.822   3.289
 6117TIP3   OH218291   2.034   1.765   0.641
 6117TIP3    H118292   1.976   1.703   0.597
 6117TIP3    H218293   1.978   1.808   0.706
 6118TIP3   OH218294   1.481   3.966   3.834
 6118TIP3    H118295   1.521   3.985   3.749
 6118TIP3    H218296   1.552   3.928   3.886
 6119TIP3   OH218297   3.711   1.748   6.544
 6119TIP3    H118298   3.661   1.687   6.489
 6119TIP3    H218299   3.654   1.824   6.554
 6120TIP3   OH218300   5.302   6.041   1.443
 6120TIP3    H118301   5.387   6.080   1.466
 6120TIP3    H218302   5.241   6.114   1.443
 6121TIP3   OH218303   1.736   2.534   6.470
 6121TIP3    H118304   1.786   2.503   6.546
 6121TIP3    H218305   1.799   2.585   6.419
 6122TIP3   OH218306   0.329   2.452   3.377
 6122TIP3    H118307   0.280   2.524   3.337
 6122TIP3    H218308   0.298   2.374   3.331
 6123TIP3   OH218309   7.017   4.023   4.801
 6123TIP3    H118310   7.037   4.112   4.772
 6123TIP3    H218311   7.034   3.969   4.724
 6124TIP3   OH218312   5.795   7.502   2.809
 6124TIP3    H118313   5.774   7.469   2.721
 6124TIP3    H218314   5.709   7.518   2.848
 6125TIP3   OH218315   6.702   3.883   5.302
 6125TIP3    H118316   6.757   3.947   5.256
 6125TIP3    H218317   6.752   3.802   5.297
 6126TIP3   OH218318   0.089   2.604   3.602
 6126TIP3    H118319   0.049   2.689   3.621
 6126TIP3    H218320   0.131   2.615   3.517
 6127TIP3   OH218321   1.355   0.567   2.756
 6127TIP3    H118322   1.360   0.569   2.661
 6127TIP3    H218323   1.276   0.616   2.777
 6128TIP3   OH218324   6.097   4.403   2.098
 6128TIP3    H118325   6.048   4.484   2.083
 6128TIP3    H218326   6.177   4.431   2.142
 6129TIP3   OH218327   1.126   6.178   0.248
 6129TIP3    H118328   1.092   6.094   0.219
 6129TIP3    H218329   1.188   6.203   0.180
 6130TIP3   OH218330   2.085   5.602   0.790
 6130TIP3    H118331   2.130   5.519   0.773
 6130TIP3    H218332   2.141   5.669   0.750
 6131TIP3   OH218333   7.444   5.848   1.671
 6131TIP3    H118334   7.376   5.896   1.719
 6131TIP3    H218335   7.424   5.756   1.687
 6132TIP3   OH218336   5.753   2.329   6.662
 6132TIP3    H118337   5.751   2.328   6.758
 6132TIP3    H218338   5.812   2.401   6.641
 6133TIP3   OH218339   1.672   6.390   2.309
 6133TIP3    H118340   1.605   6.440   2.262
 6133TIP3    H218341   1.731   6.357   2.241
 6134TIP3   OH218342   4.897   4.313   0.466
 6134TIP3    H118343   4.857   4.343   0.384
 6134TIP3    H218344   4.991   4.311   0.447
 6135TIP3   OH218345   4.804   6.280   1.572
 6135TIP3    H118346   4.815   6.360   1.623
 6135TIP3    H218347   4.751   6.223   1.629
 6136TIP3   OH218348   4.704   4.620   4.563
 6136TIP3    H118349   4.780   4.620   4.621
 6136TIP3    H218350   4.643   4.558   4.602
 6137TIP3   OH218351   4.704   6.648   1.085
 6137TIP3    H118352   4.635   6.714   1.095
 6137TIP3    H218353   4.752   6.651   1.167
 6138TIP3   OH218354   3.645   4.346   1.313
 6138TIP3    H118355   3.620   4.420   1.368
 6138TIP3    H218356   3.628   4.375   1.223
 6139TIP3   OH218357   3.988   5.802   4.284
 6139TIP3    H118358   3.968   5.830   4.195
 6139TIP3    H218359   3.996   5.706   4.277
 6140TIP3   OH218360   3.413   0.542   0.535
 6140TIP3    H118361   3.431   0.473   0.598
 6140TIP3    H218362   3.390   0.618   0.588
 6141TIP3   OH218363   5.740   2.220   4.392
 6141TIP3    H118364   5.744   2.315   4.399
 6141TIP3    H218365   5.685   2.204   4.315
 6142TIP3   OH218366   7.069   7.556   3.132
 6142TIP3    H118367   6.997   7.619   3.124
 6142TIP3    H218368   7.045   7.501   3.206
 6143TIP3   OH218369   2.735   1.705   6.781
 6143TIP3    H118370   2.777   1.770   6.725
 6143TIP3    H218371   2.748   1.621   6.736
 6144TIP3   OH218372   1.107   4.039   0.459
 6144TIP3    H118373   1.046   4.027   0.532
 6144TIP3    H218374   1.132   3.950   0.433
 6145TIP3   OH218375   7.790   6.927   3.653
 6145TIP3    H118376   7.866   6.876   3.628
 6145TIP3    H218377   7.826   7.007   3.693
 6146TIP3   OH218378   6.273   4.950   4.451
 6146TIP3    H118379   6.349   4.893   4.439
 6146TIP3    H218380   6.306   5.038   4.433
 6147TIP3   OH218381   2.832   7.503   0.272
 6147TIP3    H118382   2.774   7.513   0.347
 6147TIP3    H218383   2.820   7.583   0.221
 6148TIP3   OH218384   0.084   1.816   6.487
 6148TIP3    H118385   0.080   1.875   6.563
 6148TIP3    H218386   0.019   1.851   6.426
 6149TIP3   OH218387   0.626   5.539   0.278
 6149TIP3    H118388   0.562   5.474   0.248
 6149TIP3    H218389   0.711   5.499   0.258
 6150TIP3   OH218390   3.158   4.624   6.359
 6150TIP3    H118391   3.067   4.626   6.329
 6150TIP3    H218392   3.161   4.550   6.419
 6151TIP3   OH218393   4.769   2.760   2.280
 6151TIP3    H118394   4.696   2.701   2.261
 6151TIP3    H218395   4.846   2.703   2.283
 6152TIP3   OH218396   5.994   0.382   3.793
 6152TIP3    H118397   5.900   0.399   3.790
 6152TIP3    H218398   6.025   0.431   3.869
 6153TIP3   OH218399   2.315   5.847   5.375
 6153TIP3    H118400   2.373   5.771   5.380
 6153TIP3    H218401   2.235   5.819   5.419
 6154TIP3   OH218402   0.892   1.576   3.485
 6154TIP3    H118403   0.869   1.519   3.411
 6154TIP3    H218404   0.888   1.664   3.449
 6155TIP3   OH218405   1.126   6.857   4.264
 6155TIP3    H118406   1.129   6.769   4.225
 6155TIP3    H218407   1.087   6.912   4.196
 6156TIP3   OH218408   6.326   6.082   5.458
 6156TIP3    H118409   6.299   6.013   5.397
 6156TIP3    H218410   6.363   6.035   5.532
 6157TIP3   OH218411   5.252   3.235   6.692
 6157TIP3    H118412   5.234   3.301   6.760
 6157TIP3    H218413   5.322   3.274   6.639
 6158TIP3   OH218414   3.103   2.606   1.705
 6158TIP3    H118415   3.181   2.637   1.660
 6158TIP3    H218416   3.032   2.615   1.640
 6159TIP3   OH218417   3.400   5.306   2.632
 6159TIP3    H118418   3.366   5.245   2.697
 6159TIP3    H218419   3.464   5.359   2.679
 6160TIP3   OH218420   0.351   6.181   5.587
 6160TIP3    H118421   0.286   6.133   5.534
 6160TIP3    H218422   0.316   6.178   5.676
 6161TIP3   OH218423   3.956   1.272   5.329
 6161TIP3    H118424   4.018   1.308   5.265
 6161TIP3    H218425   4.011   1.224   5.391
 6162TIP3   OH218426   6.739   0.178   5.125
 6162TIP3    H118427   6.833   0.172   5.144
 6162TIP3    H218428   6.716   0.092   5.089
 6163TIP3   OH218429   3.875   7.012   0.531
 6163TIP3    H118430   3.788   6.988   0.564
 6163TIP3    H218431   3.924   6.930   0.531
 6164TIP3   OH218432   0.309   3.891   1.065
 6164TIP3    H118433   0.216   3.871   1.056
 6164TIP3    H218434   0.354   3.823   1.015
 6165TIP3   OH218435   2.966   2.389   2.434
 6165TIP3    H118436   2.991   2.441   2.357
 6165TIP3    H218437   2.884   2.346   2.409
 6166TIP3   OH218438   7.921   1.993   4.845
 6166TIP3    H118439   7.972   2.071   4.865
 6166TIP3    H218440   7.838   2.027   4.812
 6167TIP3   OH218441   0.969   7.025   4.663
 6167TIP3    H118442   1.040   6.965   4.686
 6167TIP3    H218443   0.908   7.020   4.737
 6168TIP3   OH218444   6.881   6.167   5.832
 6168TIP3    H118445   6.906   6.255   5.858
 6168TIP3    H218446   6.842   6.178   5.745
 6169TIP3   OH218447   2.155   1.528   0.819
 6169TIP3    H118448   2.120   1.499   0.735
 6169TIP3    H218449   2.250   1.531   0.807
 6170TIP3   OH218450   0.274   3.055   1.404
 6170TIP3    H118451   0.329   3.106   1.345
 6170TIP3    H218452   0.329   2.980   1.429
 6171TIP3   OH218453   4.364   2.810   3.972
 6171TIP3    H118454   4.317   2.851   3.899
 6171TIP3    H218455   4.449   2.786   3.936
 6172TIP3   OH218456   2.407   5.320   1.402
 6172TIP3    H118457   2.467   5.355   1.336
 6172TIP3    H218458   2.321   5.322   1.360
 6173TIP3   OH218459   4.252   0.719   4.325
 6173TIP3    H118460   4.273   0.629   4.348
 6173TIP3    H218461   4.183   0.711   4.258
 6174TIP3   OH218462   8.166   0.241   2.071
 6174TIP3    H118463   8.200   0.330   2.078
 6174TIP3    H218464   8.212   0.192   2.139
 6175TIP3   OH218465   4.520   3.788   5.039
 6175TIP3    H118466   4.447   3.801   4.979
 6175TIP3    H218467   4.596   3.825   4.992
 6176TIP3   OH218468   4.447   5.543   2.439
 6176TIP3    H118469   4.476   5.615   2.383
 6176TIP3    H218470   4.481   5.565   2.525
 6177TIP3   OH218471   5.778   2.257   5.903
 6177TIP3    H118472   5.846   2.191   5.918
 6177TIP3    H218473   5.767   2.300   5.988
 6178TIP3   OH218474   2.638   1.091   5.609
 6178TIP3    H118475   2.625   1.176   5.651
 6178TIP3    H218476   2.636   1.110   5.516
 6179TIP3   OH218477   3.465   7.668   0.525
 6179TIP3    H118478   3.483   7.755   0.561
 6179TIP3    H218479   3.403   7.629   0.586
 6180TIP3   OH218480   0.627   6.184   1.388
 6180TIP3    H118481   0.631   6.268   1.343
 6180TIP3    H218482   0.534   6.163   1.392
 6181TIP3   OH218483   7.863   5.565   6.212
 6181TIP3    H118484   7.858   5.531   6.122
 6181TIP3    H218485   7.793   5.518   6.258
 6182TIP3   OH218486   4.311   7.783   3.696
 6182TIP3    H118487   4.396   7.807   3.659
 6182TIP3    H218488   4.286   7.703   3.648
 6183TIP3   OH218489   5.064   2.662   5.612
 6183TIP3    H118490   5.023   2.709   5.540
 6183TIP3    H218491   5.082   2.575   5.576
 6184TIP3   OH218492   0.894   5.493   1.864
 6184TIP3    H118493   0.803   5.513   1.842
 6184TIP3    H218494   0.901   5.516   1.957
 6185TIP3   OH218495   6.987   0.048   5.997
 6185TIP3    H118496   7.013  -0.024   6.056
 6185TIP3    H218497   7.038   0.033   5.918
 6186TIP3   OH218498   3.872   5.487   2.146
 6186TIP3    H118499   3.864   5.578   2.174
 6186TIP3    H218500   3.873   5.492   2.051
 6187TIP3   OH218501   7.625   7.744   6.719
 6187TIP3    H118502   7.542   7.760   6.765
 6187TIP3    H218503   7.692   7.782   6.776
 6188TIP3   OH218504   7.499   1.390   0.101
 6188TIP3    H118505   7.489   1.298   0.080
 6188TIP3    H218506   7.451   1.402   0.183
 6189TIP3   OH218507   0.568   5.474   5.867
 6189TIP3    H118508   0.514   5.553   5.877
 6189TIP3    H218509   0.523   5.408   5.920
 6190TIP3   OH218510   1.236   4.174   5.270
 6190TIP3    H118511   1.305   4.110   5.287
 6190TIP3    H218512   1.231   4.225   5.351
 6191TIP3   OH218513   2.622   5.874   0.112
 6191TIP3    H118514   2.713   5.886   0.083
 6191TIP3    H218515   2.599   5.957   0.153
 6192TIP3   OH218516   7.044   5.496   2.418
 6192TIP3    H118517   6.985   5.499   2.342
 6192TIP3    H218518   6.986   5.508   2.494
 6193TIP3   OH218519   0.983   1.293   2.197
 6193TIP3    H118520   0.941   1.240   2.129
 6193TIP3    H218521   0.912   1.347   2.231
 6194TIP3   OH218522   0.290   1.133   4.129
 6194TIP3    H118523   0.268   1.058   4.074
 6194TIP3    H218524   0.379   1.114   4.160
 6195TIP3   OH218525   3.747   2.348   1.890
 6195TIP3    H118526   3.674   2.386   1.939
 6195TIP3    H218527   3.825   2.380   1.936
 6196TIP3   OH218528   0.587   3.136   4.792
 6196TIP3    H118529   0.520   3.070   4.771
 6196TIP3    H218530   0.602   3.183   4.710
 6197TIP3   OH218531   0.878   5.777   5.686
 6197TIP3    H118532   0.905   5.755   5.776
 6197TIP3    H218533   0.961   5.797   5.641
 6198TIP3   OH218534   0.836   5.117   5.791
 6198TIP3    H118535   0.850   5.089   5.882
 6198TIP3    H218536   0.768   5.058   5.759
 6199TIP3   OH218537   8.372   6.973   6.392
 6199TIP3    H118538   8.370   6.882   6.362
 6199TIP3    H218539   8.462   6.988   6.420
 6200TIP3   OH218540   0.838   3.565   5.216
 6200TIP3    H118541   0.800   3.639   5.168
 6200TIP3    H218542   0.900   3.525   5.154
 6201TIP3   OH218543   5.372   6.345   0.496
 6201TIP3    H118544   5.412   6.372   0.579
 6201TIP3    H218545   5.440   6.358   0.431
 6202TIP3   OH218546   2.549   0.986   4.430
 6202TIP3    H118547   2.633   1.030   4.418
 6202TIP3    H218548   2.531   0.993   4.524
 6203TIP3   OH218549   6.584   7.768   0.708
 6203TIP3    H118550   6.638   7.704   0.662
 6203TIP3    H218551   6.507   7.720   0.736
 6204TIP3   OH218552   6.567   3.631   2.151
 6204TIP3    H118553   6.511   3.581   2.091
 6204TIP3    H218554   6.518   3.632   2.233
 6205TIP3   OH218555   8.274   4.834   3.957
 6205TIP3    H118556   8.253   4.923   3.930
 6205TIP3    H218557   8.194   4.784   3.939
 6206TIP3   OH218558   3.807   7.175   1.467
 6206TIP3    H118559   3.845   7.111   1.528
 6206TIP3    H218560   3.877   7.193   1.405
 6207TIP3   OH218561   2.781   0.069   3.282
 6207TIP3    H118562   2.867   0.039   3.312
 6207TIP3    H218563   2.768   0.153   3.326
 6208TIP3   OH218564   7.609   1.203   4.195
 6208TIP3    H118565   7.676   1.251   4.244
 6208TIP3    H218566   7.658   1.156   4.128
 6209TIP3   OH218567   1.851   2.415   1.529
 6209TIP3    H118568   1.941   2.425   1.559
 6209TIP3    H218569   1.840   2.321   1.514
 6210TIP3   OH218570   6.145   5.294   0.958
 6210TIP3    H118571   6.143   5.199   0.943
 6210TIP3    H218572   6.231   5.310   0.995
 6211TIP3   OH218573   8.391   2.803   2.371
 6211TIP3    H118574   8.308   2.850   2.357
 6211TIP3    H218575   8.437   2.812   2.288
 6212TIP3   OH218576   5.248   1.997   0.683
 6212TIP3    H118577   5.160   2.025   0.707
 6212TIP3    H218578   5.300   2.009   0.762
 6213TIP3   OH218579   2.541   1.301   5.789
 6213TIP3    H118580   2.503   1.269   5.871
 6213TIP3    H218581   2.622   1.344   5.815
 6214TIP3   OH218582   3.767   0.693   6.299
 6214TIP3    H118583   3.859   0.701   6.326
 6214TIP3    H218584   3.755   0.763   6.235
 6215TIP3   OH218585   3.716   1.641   2.725
 6215TIP3    H118586   3.683   1.678   2.644
 6215TIP3    H218587   3.650   1.576   2.751
 6216TIP3   OH218588   4.389   3.850   0.886
 6216TIP3    H118589   4.460   3.892   0.837
 6216TIP3    H218590   4.426   3.766   0.914
 6217TIP3   OH218591   1.493   1.363   1.175
 6217TIP3    H118592   1.578   1.406   1.172
 6217TIP3    H218593   1.433   1.431   1.205
 6218TIP3   OH218594   6.079   6.380   2.923
 6218TIP3    H118595   6.107   6.301   2.970
 6218TIP3    H218596   6.158   6.413   2.881
 6219TIP3   OH218597   3.910   6.098   4.698
 6219TIP3    H118598   3.916   6.145   4.781
 6219TIP3    H218599   3.978   6.139   4.643
 6220TIP3   OH218600   1.780   5.817   3.364
 6220TIP3    H118601   1.728   5.841   3.440
 6220TIP3    H218602   1.775   5.894   3.307
 6221TIP3   OH218603   3.016   1.476   4.498
 6221TIP3    H118604   2.930   1.436   4.492
 6221TIP3    H218605   3.076   1.409   4.465
 6222TIP3   OH218606   0.334   0.675   4.104
 6222TIP3    H118607   0.420   0.634   4.105
 6222TIP3    H218608   0.347   0.760   4.147
 6223TIP3   OH218609   4.970   0.795   4.815
 6223TIP3    H118610   4.893   0.749   4.848
 6223TIP3    H218611   5.028   0.726   4.782
 6224TIP3   OH218612   2.813   4.457   2.443
 6224TIP3    H118613   2.898   4.418   2.423
 6224TIP3    H218614   2.798   4.435   2.535
 6225TIP3   OH218615   1.082   6.441   0.119
 6225TIP3    H118616   1.126   6.473   0.198
 6225TIP3    H218617   1.094   6.346   0.121
 6226TIP3   OH218618   6.622   6.995   4.374
 6226TIP3    H118619   6.587   6.974   4.287
 6226TIP3    H218620   6.607   7.089   4.384
 6227TIP3   OH218621   0.303   0.215   2.541
 6227TIP3    H118622   0.296   0.311   2.543
 6227TIP3    H218623   0.305   0.190   2.634
 6228TIP3   OH218624   7.564   1.208   2.287
 6228TIP3    H118625   7.508   1.163   2.351
 6228TIP3    H218626   7.503   1.257   2.232
 6229TIP3   OH218627   5.843   6.013   4.580
 6229TIP3    H118628   5.921   6.058   4.613
 6229TIP3    H218629   5.873   5.969   4.501
 6230TIP3   OH218630   3.949   7.510   3.130
 6230TIP3    H118631   4.022   7.543   3.077
 6230TIP3    H218632   3.885   7.478   3.067
 6231TIP3   OH218633   5.673   2.060   1.027
 6231TIP3    H118634   5.633   2.062   1.114
 6231TIP3    H218635   5.654   1.973   0.993
 6232TIP3   OH218636   7.933   0.657   3.031
 6232TIP3    H118637   7.998   0.615   3.088
 6232TIP3    H218638   7.871   0.587   3.010
 6233TIP3   OH218639   2.065   5.629   5.828
 6233TIP3    H118640   2.001   5.683   5.874
 6233TIP3    H218641   2.138   5.688   5.810
 6234TIP3   OH218642   3.189   0.210  -0.017
 6234TIP3    H118643   3.211   0.201  -0.109
 6234TIP3    H218644   3.252   0.155   0.029
 6235TIP3   OH218645   5.641   6.389   4.183
 6235TIP3    H118646   5.581   6.380   4.109
 6235TIP3    H218647   5.623   6.312   4.237
 6236TIP3   OH218648   8.189   4.413   1.131
 6236TIP3    H118649   8.108   4.408   1.181
 6236TIP3    H218650   8.201   4.325   1.095
 6237TIP3   OH218651   4.604   3.708   0.711
 6237TIP3    H118652   4.622   3.676   0.623
 6237TIP3    H218653   4.634   3.799   0.711
 6238TIP3   OH218654   2.333   5.552   1.074
 6238TIP3    H118655   2.397   5.517   1.012
 6238TIP3    H218656   2.312   5.478   1.131
 6239TIP3   OH218657   0.062   4.239   2.482
 6239TIP3    H118658   0.057   4.255   2.387
 6239TIP3    H218659   0.049   4.145   2.491
 6240TIP3   OH218660   8.035   1.688   2.744
 6240TIP3    H118661   7.944   1.665   2.729
 6240TIP3    H218662   8.072   1.702   2.657
 6241TIP3   OH218663   6.731   2.161   6.531
 6241TIP3    H118664   6.656   2.116   6.493
 6241TIP3    H218665   6.709   2.254   6.525
 6242TIP3   OH218666   4.871   4.317   6.650
 6242TIP3    H118667   4.875   4.248   6.716
 6242TIP3    H218668   4.803   4.289   6.589
 6243TIP3   OH218669   5.769   6.526   3.347
 6243TIP3    H118670   5.821   6.448   3.326
 6243TIP3    H218671   5.771   6.578   3.266
 6244TIP3   OH218672   5.371   4.910   3.712
 6244TIP3    H118673   5.432   4.981   3.691
 6244TIP3    H218674   5.426   4.832   3.715
 6245TIP3   OH218675   1.567   3.316   2.757
 6245TIP3    H118676   1.510   3.261   2.811
 6245TIP3    H218677   1.508   3.383   2.721
 6246TIP3   OH218678   5.376   3.089   3.301
 6246TIP3    H118679   5.376   3.112   3.394
 6246TIP3    H218680   5.302   3.030   3.291
 6247TIP3   OH218681   1.464   4.727   6.141
 6247TIP3    H118682   1.462   4.632   6.148
 6247TIP3    H218683   1.373   4.754   6.152
 6248TIP3   OH218684   8.023   0.282   3.256
 6248TIP3    H118685   7.950   0.304   3.199
 6248TIP3    H218686   8.055   0.197   3.223
 6249TIP3   OH218687   2.443   2.334   6.101
 6249TIP3    H118688   2.403   2.391   6.167
 6249TIP3    H218689   2.381   2.335   6.028
 6250TIP3   OH218690   3.052   0.418   6.266
 6250TIP3    H118691   3.023   0.329   6.290
 6250TIP3    H218692   2.978   0.454   6.217
 6251TIP3   OH218693   6.201   7.859   6.072
 6251TIP3    H118694   6.139   7.841   6.143
 6251TIP3    H218695   6.286   7.834   6.109
 6252TIP3   OH218696   3.951   0.931   3.811
 6252TIP3    H118697   3.927   1.006   3.757
 6252TIP3    H218698   3.905   0.857   3.770
 6253TIP3   OH218699   4.902   7.600   5.868
 6253TIP3    H118700   4.882   7.509   5.889
 6253TIP3    H218701   4.827   7.650   5.902
 6254TIP3   OH218702   1.057   6.941   3.658
 6254TIP3    H118703   1.029   7.030   3.637
 6254TIP3    H218704   1.057   6.895   3.574
 6255TIP3   OH218705   6.832   0.769   6.063
 6255TIP3    H118706   6.822   0.862   6.083
 6255TIP3    H218707   6.873   0.768   5.976
 6256TIP3   OH218708   1.846   6.429   3.674
 6256TIP3    H118709   1.841   6.520   3.702
 6256TIP3    H218710   1.756   6.398   3.672
 6257TIP3   OH218711   1.311   6.363   1.382
 6257TIP3    H118712   1.269   6.429   1.328
 6257TIP3    H218713   1.322   6.288   1.323
 6258TIP3   OH218714   5.452   7.897   2.602
 6258TIP3    H118715   5.502   7.831   2.553
 6258TIP3    H218716   5.496   7.980   2.582
 6259TIP3   OH218717   7.599   3.964   1.565
 6259TIP3    H118718   7.509   3.968   1.534
 6259TIP3    H218719   7.650   3.944   1.486
 6260TIP3   OH218720   2.644   2.365   1.032
 6260TIP3    H118721   2.656   2.394   1.123
 6260TIP3    H218722   2.564   2.410   1.003
 6261TIP3   OH218723   4.328   4.276   3.869
 6261TIP3    H118724   4.278   4.335   3.812
 6261TIP3    H218725   4.285   4.284   3.955
 6262TIP3   OH218726   0.185   1.040   0.307
 6262TIP3    H118727   0.101   1.068   0.271
 6262TIP3    H218728   0.166   1.021   0.399
 6263TIP3   OH218729   5.014   2.248   5.672
 6263TIP3    H118730   5.061   2.320   5.632
 6263TIP3    H218731   5.058   2.169   5.640
 6264TIP3   OH218732   4.121   5.395   4.800
 6264TIP3    H118733   4.049   5.335   4.822
 6264TIP3    H218734   4.141   5.439   4.882
 6265TIP3   OH218735   0.425   3.157   5.206
 6265TIP3    H118736   0.412   3.136   5.299
 6265TIP3    H218737   0.426   3.072   5.162
 6266TIP3   OH218738   1.968   7.290   5.121
 6266TIP3    H118739   1.889   7.278   5.068
 6266TIP3    H218740   1.985   7.204   5.159
 6267TIP3   OH218741   3.323   4.741   5.492
 6267TIP3    H118742   3.330   4.817   5.434
 6267TIP3    H218743   3.230   4.736   5.514
 6268TIP3   OH218744   4.047   5.486   5.331
 6268TIP3    H118745   4.033   5.396   5.358
 6268TIP3    H218746   4.129   5.512   5.374
 6269TIP3   OH218747   4.593   4.878   1.312
 6269TIP3    H118748   4.566   4.786   1.310
 6269TIP3    H218749   4.546   4.918   1.239
 6270TIP3   OH218750   2.318   1.234   1.071
 6270TIP3    H118751   2.232   1.258   1.104
 6270TIP3    H218752   2.378   1.257   1.141
 6271TIP3   OH218753   7.266   5.215   4.152
 6271TIP3    H118754   7.278   5.199   4.246
 6271TIP3    H218755   7.354   5.221   4.117
 6272TIP3   OH218756   4.707   1.265   1.912
 6272TIP3    H118757   4.697   1.241   2.005
 6272TIP3    H218758   4.664   1.194   1.865
 6273TIP3   OH218759   5.895   5.592   5.549
 6273TIP3    H118760   5.827   5.567   5.486
 6273TIP3    H218761   5.851   5.649   5.611
 6274TIP3   OH218762   7.510   1.620   6.858
 6274TIP3    H118763   7.468   1.547   6.812
 6274TIP3    H218764   7.582   1.646   6.800
 6275TIP3   OH218765   5.244   5.765   1.495
 6275TIP3    H118766   5.259   5.852   1.457
 6275TIP3    H218767   5.231   5.780   1.588
 6276TIP3   OH218768   1.923   4.172   1.149
 6276TIP3    H118769   2.016   4.181   1.130
 6276TIP3    H218770   1.883   4.142   1.067
 6277TIP3   OH218771   6.477   5.180   5.285
 6277TIP3    H118772   6.569   5.201   5.273
 6277TIP3    H218773   6.473   5.138   5.371
 6278TIP3   OH218774   0.749   5.673   3.000
 6278TIP3    H118775   0.805   5.709   3.068
 6278TIP3    H218776   0.758   5.578   3.008
 6279TIP3   OH218777   7.754   3.158   6.594
 6279TIP3    H118778   7.837   3.205   6.588
 6279TIP3    H218779   7.756   3.097   6.520
 6280TIP3   OH218780   3.357   4.062   3.395
 6280TIP3    H118781   3.299   3.986   3.388
 6280TIP3    H218782   3.371   4.073   3.489
 6281TIP3   OH218783   6.919   3.975   2.166
 6281TIP3    H118784   6.920   3.931   2.251
 6281TIP3    H218785   6.848   3.932   2.118
 6282TIP3   OH218786   7.093   3.818   0.114
 6282TIP3    H118787   7.038   3.791   0.040
 6282TIP3    H218788   7.141   3.738   0.138
 6283TIP3   OH218789   6.883   0.709   5.226
 6283TIP3    H118790   6.929   0.793   5.218
 6283TIP3    H218791   6.912   0.659   5.150
 6284TIP3   OH218792   7.086   5.832   2.121
 6284TIP3    H118793   7.054   5.922   2.121
 6284TIP3    H218794   7.042   5.792   2.046
 6285TIP3   OH218795   8.271   7.198   6.548
 6285TIP3    H118796   8.305   7.271   6.496
 6285TIP3    H218797   8.276   7.122   6.491
 6286TIP3   OH218798   7.342   2.508   2.682
 6286TIP3    H118799   7.321   2.556   2.602
 6286TIP3    H218800   7.403   2.565   2.729
 6287TIP3   OH218801   7.094   5.473   2.009
 6287TIP3    H118802   7.048   5.490   2.091
 6287TIP3    H218803   7.175   5.430   2.035
 6288TIP3   OH218804   6.586   1.019   4.959
 6288TIP3    H118805   6.607   1.027   5.051
 6288TIP3    H218806   6.506   0.965   4.957
 6289TIP3   OH218807   2.424   2.866   5.301
 6289TIP3    H118808   2.331   2.870   5.323
 6289TIP3    H218809   2.431   2.908   5.215
 6290TIP3   OH218810   3.121   5.435   2.460
 6290TIP3    H118811   3.124   5.426   2.555
 6290TIP3    H218812   3.029   5.448   2.440
 6291TIP3   OH218813   6.121   1.813   5.037
 6291TIP3    H118814   6.143   1.894   4.991
 6291TIP3    H218815   6.144   1.830   5.128
 6292TIP3   OH218816   3.841   7.059   4.010
 6292TIP3    H118817   3.846   7.038   4.103
 6292TIP3    H218818   3.815   6.976   3.969
 6293TIP3   OH218819   4.195   5.600   4.040
 6293TIP3    H118820   4.291   5.601   4.044
 6293TIP3    H218821   4.167   5.588   4.131
 6294TIP3   OH218822   4.017   6.310   3.677
 6294TIP3    H118823   4.108   6.307   3.647
 6294TIP3    H218824   3.966   6.272   3.606
 6295TIP3   OH218825   2.342   6.409   6.441
 6295TIP3    H118826   2.303   6.419   6.528
 6295TIP3    H218827   2.422   6.359   6.457
 6296TIP3   OH218828   8.089   4.490   2.216
 6296TIP3    H118829   8.096   4.395   2.227
 6296TIP3    H218830   8.021   4.516   2.277
 6297TIP3   OH218831   6.342   5.768   2.222
 6297TIP3    H118832   6.324   5.851   2.265
 6297TIP3    H218833   6.266   5.753   2.166
 6298TIP3   OH218834   6.078   3.206   5.829
 6298TIP3    H118835   6.109   3.270   5.764
 6298TIP3    H218836   6.002   3.247   5.869
 6299TIP3   OH218837   0.566   3.261   5.557
 6299TIP3    H118838   0.526   3.245   5.643
 6299TIP3    H218839   0.612   3.345   5.567
 6300TIP3   OH218840   0.750   7.244   6.154
 6300TIP3    H118841   0.809   7.200   6.092
 6300TIP3    H218842   0.694   7.298   6.099
 6301TIP3   OH218843   1.490   4.905   3.000
 6301TIP3    H118844   1.426   4.924   3.069
 6301TIP3    H218845   1.464   4.819   2.968
 6302TIP3   OH218846   0.260   3.244   4.190
 6302TIP3    H118847   0.327   3.213   4.251
 6302TIP3    H218848   0.270   3.189   4.112
 6303TIP3   OH218849   6.075   3.837   1.138
 6303TIP3    H118850   6.110   3.797   1.058
 6303TIP3    H218851   6.030   3.765   1.183
 6304TIP3   OH218852   7.968   2.528   2.893
 6304TIP3    H118853   8.052   2.572   2.909
 6304TIP3    H218854   7.975   2.445   2.940
 6305TIP3   OH218855   1.072   1.875   5.430
 6305TIP3    H118856   1.068   1.929   5.351
 6305TIP3    H218857   1.063   1.937   5.502
 6306TIP3   OH218858   4.826   5.599   3.750
 6306TIP3    H118859   4.843   5.522   3.697
 6306TIP3    H218860   4.769   5.568   3.821
 6307TIP3   OH218861   1.889   0.504   1.727
 6307TIP3    H118862   1.928   0.419   1.746
 6307TIP3    H218863   1.798   0.496   1.756
 6308TIP3   OH218864   5.365   0.219   5.102
 6308TIP3    H118865   5.389   0.311   5.114
 6308TIP3    H218866   5.382   0.179   5.187
 6309TIP3   OH218867   0.822   5.835   5.154
 6309TIP3    H118868   0.886   5.799   5.093
 6309TIP3    H218869   0.739   5.793   5.129
 6310TIP3   OH218870   1.977   2.329   4.783
 6310TIP3    H118871   1.904   2.302   4.727
 6310TIP3    H218872   1.998   2.251   4.834
 6311TIP3   OH218873   1.487   5.659   6.795
 6311TIP3    H118874   1.457   5.600   6.725
 6311TIP3    H218875   1.417   5.724   6.803
 6312TIP3   OH218876   4.376   5.062   4.359
 6312TIP3    H118877   4.307   5.097   4.415
 6312TIP3    H218878   4.422   5.000   4.414
 6313TIP3   OH218879   2.775   0.404   2.013
 6313TIP3    H118880   2.806   0.339   1.950
 6313TIP3    H218881   2.725   0.466   1.960
 6314TIP3   OH218882   7.973   2.075   3.281
 6314TIP3    H118883   7.912   2.003   3.271
 6314TIP3    H218884   7.918   2.152   3.297
 6315TIP3   OH218885   2.665   7.148   1.890
 6315TIP3    H118886   2.631   7.158   1.801
 6315TIP3    H218887   2.637   7.060   1.916
 6316TIP3   OH218888   0.280   6.619   1.497
 6316TIP3    H118889   0.239   6.699   1.530
 6316TIP3    H218890   0.206   6.562   1.476
 6317TIP3   OH218891   5.788   3.865   0.957
 6317TIP3    H118892   5.726   3.924   0.915
 6317TIP3    H218893   5.850   3.922   1.002
 6318TIP3   OH218894   8.054   2.572   3.254
 6318TIP3    H118895   8.130   2.531   3.211
 6318TIP3    H218896   8.067   2.555   3.347
 6319TIP3   OH218897   6.715   0.224   2.169
 6319TIP3    H118898   6.769   0.297   2.137
 6319TIP3    H218899   6.625   0.256   2.160
 6320TIP3   OH218900   0.875   6.007   6.754
 6320TIP3    H118901   0.880   6.096   6.787
 6320TIP3    H218902   0.943   6.002   6.688
 6321TIP3   OH218903   6.531   3.015   6.789
 6321TIP3    H118904   6.485   2.965   6.722
 6321TIP3    H218905   6.616   3.037   6.750
 6322TIP3   OH218906   5.818   6.577   2.738
 6322TIP3    H118907   5.813   6.531   2.821
 6322TIP3    H218908   5.899   6.546   2.698
 6323TIP3   OH218909   5.513   4.845   0.741
 6323TIP3    H118910   5.423   4.872   0.759
 6323TIP3    H218911   5.562   4.926   0.732
 6324TIP3   OH218912   1.880   0.074   2.952
 6324TIP3    H118913   1.790   0.042   2.945
 6324TIP3    H218914   1.930  -0.001   2.985
 6325TIP3   OH218915   6.954   0.827   4.221
 6325TIP3    H118916   6.908   0.908   4.241
 6325TIP3    H218917   6.910   0.793   4.143
 6326TIP3   OH218918   3.330   0.150   0.836
 6326TIP3    H118919   3.391   0.224   0.842
 6326TIP3    H218920   3.284   0.163   0.753
 6327TIP3   OH218921   2.227   7.591   1.751
 6327TIP3    H118922   2.277   7.661   1.709
 6327TIP3    H218923   2.256   7.511   1.708
 6328TIP3   OH218924   3.053   0.261   1.283
 6328TIP3    H118925   3.024   0.352   1.273
 6328TIP3    H218926   3.107   0.262   1.362
 6329TIP3   OH218927   0.751   6.186   3.464
 6329TIP3    H118928   0.762   6.276   3.434
 6329TIP3    H218929   0.656   6.175   3.472
 6330TIP3   OH218930   2.823   5.207   1.668
 6330TIP3    H118931   2.733   5.213   1.635
 6330TIP3    H218932   2.830   5.117   1.701
 6331TIP3   OH218933   6.700   3.539   1.091
 6331TIP3    H118934   6.610   3.566   1.073
 6331TIP3    H218935   6.707   3.536   1.186
 6332TIP3   OH218936   4.653   7.803   1.954
 6332TIP3    H118937   4.737   7.766   1.927
 6332TIP3    H218938   4.651   7.792   2.049
 6333TIP3   OH218939   1.076   0.566   0.986
 6333TIP3    H118940   1.118   0.535   1.066
 6333TIP3    H218941   1.094   0.498   0.921
 6334TIP3   OH218942   7.068   0.724   4.470
 6334TIP3    H118943   7.018   0.748   4.392
 6334TIP3    H218944   7.002   0.705   4.536
 6335TIP3   OH218945   7.645   1.713   3.797
 6335TIP3    H118946   7.610   1.672   3.718
 6335TIP3    H218947   7.735   1.735   3.774
 6336TIP3   OH218948   7.726   1.127   3.604
 6336TIP3    H118949   7.783   1.074   3.547
 6336TIP3    H218950   7.639   1.088   3.594
 6337TIP3   OH218951   0.593   1.900   4.609
 6337TIP3    H118952   0.567   1.836   4.543
 6337TIP3    H218953   0.611   1.980   4.559
 6338TIP3   OH218954   7.824   7.451   5.110
 6338TIP3    H118955   7.843   7.363   5.077
 6338TIP3    H218956   7.909   7.484   5.141
 6339TIP3   OH218957   2.145   6.323   0.770
 6339TIP3    H118958   2.182   6.409   0.751
 6339TIP3    H218959   2.158   6.312   0.864
 6340TIP3   OH218960   4.077   5.371   6.026
 6340TIP3    H118961   4.024   5.308   6.075
 6340TIP3    H218962   4.135   5.316   5.973
 6341TIP3   OH218963   2.635   5.956   4.612
 6341TIP3    H118964   2.644   6.025   4.546
 6341TIP3    H218965   2.540   5.943   4.619
 6342TIP3   OH218966   2.565   6.671   2.620
 6342TIP3    H118967   2.517   6.710   2.693
 6342TIP3    H218968   2.566   6.577   2.639
 6343TIP3   OH218969   6.448   3.492   5.059
 6343TIP3    H118970   6.535   3.530   5.046
 6343TIP3    H218971   6.436   3.492   5.154
 6344TIP3   OH218972   0.279   0.921   1.742
 6344TIP3    H118973   0.303   0.969   1.821
 6344TIP3    H218974   0.363   0.891   1.706
 6345TIP3   OH218975   1.684   3.243   1.892
 6345TIP3    H118976   1.667   3.334   1.867
 6345TIP3    H218977   1.655   3.191   1.818
 6346TIP3   OH218978   7.178   7.590   1.387
 6346TIP3    H118979   7.274   7.583   1.391
 6346TIP3    H218980   7.162   7.672   1.341
 6347TIP3   OH218981   6.642   6.432   2.682
 6347TIP3    H118982   6.599   6.404   2.601
 6347TIP3    H218983   6.652   6.526   2.672
 6348TIP3   OH218984   4.576   0.447   3.066
 6348TIP3    H118985   4.506   0.501   3.102
 6348TIP3    H218986   4.616   0.406   3.142
 6349TIP3   OH218987   7.721   4.131   5.451
 6349TIP3    H118988   7.757   4.090   5.373
 6349TIP3    H218989   7.794   4.183   5.486
 6350TIP3   OH218990   5.862   1.388   1.044
 6350TIP3    H118991   5.833   1.298   1.061
 6350TIP3    H218992   5.951   1.379   1.012
 6351TIP3   OH218993   2.319   6.045   5.947
 6351TIP3    H118994   2.297   6.068   6.037
 6351TIP3    H218995   2.401   6.091   5.930
 6352TIP3   OH218996   6.677   3.072   5.757
 6352TIP3    H118997   6.652   3.120   5.677
 6352TIP3    H218998   6.763   3.107   5.780
 6353TIP3   OH218999   6.379   1.264   6.151
 6353TIP3    H119000   6.429   1.218   6.218
 6353TIP3    H219001   6.375   1.202   6.078
 6354TIP3   OH219002   4.582   0.879   6.802
 6354TIP3    H119003   4.537   0.796   6.793
 6354TIP3    H219004   4.675   0.856   6.805
 6355TIP3   OH219005   1.561   6.469   1.446
 6355TIP3    H119006   1.488   6.414   1.420
 6355TIP3    H219007   1.524   6.557   1.453
 6356TIP3   OH219008   2.216   7.462   3.019
 6356TIP3    H119009   2.156   7.403   3.065
 6356TIP3    H219010   2.208   7.437   2.927
 6357TIP3   OH219011   5.406   3.041   6.073
 6357TIP3    H119012   5.451   3.124   6.084
 6357TIP3    H219013   5.440   2.986   6.144
 6358TIP3   OH219014   5.165   4.009   2.371
 6358TIP3    H119015   5.094   3.983   2.312
 6358TIP3    H219016   5.230   4.049   2.314
 6359TIP3   OH219017   0.218   1.782   4.798
 6359TIP3    H119018   0.260   1.753   4.879
 6359TIP3    H219019   0.284   1.837   4.755
 6360TIP3   OH219020   3.180   7.540   4.132
 6360TIP3    H119021   3.180   7.446   4.151
 6360TIP3    H219022   3.211   7.546   4.041
 6361TIP3   OH219023   7.962   6.875   0.161
 6361TIP3    H119024   8.048   6.840   0.188
 6361TIP3    H219025   7.926   6.915   0.240
 6362TIP3   OH219026   4.275   3.331   3.085
 6362TIP3    H119027   4.190   3.313   3.124
 6362TIP3    H219028   4.324   3.249   3.096
 6363TIP3   OH219029   5.192   0.761   1.867
 6363TIP3    H119030   5.122   0.799   1.920
 6363TIP3    H219031   5.205   0.825   1.796
 6364TIP3   OH219032   1.661   0.223   3.906
 6364TIP3    H119033   1.672   0.243   3.998
 6364TIP3    H219034   1.743   0.180   3.881
 6365TIP3   OH219035   4.525   7.290   3.406
 6365TIP3    H119036   4.565   7.272   3.321
 6365TIP3    H219037   4.561   7.375   3.432
 6366TIP3   OH219038   0.192   3.003   5.162
 6366TIP3    H119039   0.123   3.043   5.109
 6366TIP3    H219040   0.189   3.050   5.245
 6367TIP3   OH219041   3.814   6.058   0.368
 6367TIP3    H119042   3.788   6.109   0.291
 6367TIP3    H219043   3.909   6.046   0.359
 6368TIP3   OH219044   1.896   7.740   3.090
 6368TIP3    H119045   1.973   7.723   3.035
 6368TIP3    H219046   1.830   7.773   3.029
 6369TIP3   OH219047   1.410   6.073   5.113
 6369TIP3    H119048   1.431   5.988   5.075
 6369TIP3    H219049   1.486   6.128   5.094
 6370TIP3   OH219050   1.453   7.399   3.900
 6370TIP3    H119051   1.404   7.359   3.971
 6370TIP3    H219052   1.445   7.338   3.827
 6371TIP3   OH219053   8.219   6.296   0.966
 6371TIP3    H119054   8.157   6.362   0.998
 6371TIP3    H219055   8.170   6.247   0.900
 6372TIP3   OH219056   5.155   3.652   4.241
 6372TIP3    H119057   5.063   3.658   4.214
 6372TIP3    H219058   5.204   3.658   4.159
 6373TIP3   OH219059   2.895   7.276   2.439
 6373TIP3    H119060   2.979   7.255   2.478
 6373TIP3    H219061   2.833   7.272   2.511
 6374TIP3   OH219062   5.998   0.220   5.310
 6374TIP3    H119063   5.911   0.204   5.346
 6374TIP3    H219064   6.054   0.155   5.352
 6375TIP3   OH219065   0.526   3.270   5.819
 6375TIP3    H119066   0.468   3.216   5.874
 6375TIP3    H219067   0.494   3.359   5.831
 6376TIP3   OH219068   1.490   2.347   2.648
 6376TIP3    H119069   1.437   2.404   2.592
 6376TIP3    H219070   1.527   2.282   2.589
 6377TIP3   OH219071   0.279   2.213   1.572
 6377TIP3    H119072   0.241   2.142   1.623
 6377TIP3    H219073   0.284   2.287   1.633
 6378TIP3   OH219074   8.376   6.111   2.244
 6378TIP3    H119075   8.396   6.018   2.245
 6378TIP3    H219076   8.305   6.120   2.180
 6379TIP3   OH219077   2.991   4.735   6.640
 6379TIP3    H119078   2.969   4.645   6.617
 6379TIP3    H219079   2.920   4.788   6.603
 6380TIP3   OH219080   6.988   2.003   3.091
 6380TIP3    H119081   6.934   2.075   3.058
 6380TIP3    H219082   6.935   1.964   3.161
 6381TIP3   OH219083   7.595   2.316   0.332
 6381TIP3    H119084   7.633   2.402   0.349
 6381TIP3    H219085   7.609   2.267   0.413
 6382TIP3   OH219086   5.249   0.700   4.704
 6382TIP3    H119087   5.317   0.740   4.650
 6382TIP3    H219088   5.292   0.683   4.787
 6383TIP3   OH219089   2.238   3.775   5.074
 6383TIP3    H119090   2.177   3.705   5.052
 6383TIP3    H219091   2.281   3.797   4.991
 6384TIP3   OH219092   8.341   6.119   1.130
 6384TIP3    H119093   8.266   6.060   1.120
 6384TIP3    H219094   8.338   6.175   1.052
 6385TIP3   OH219095   2.308   3.398   4.904
 6385TIP3    H119096   2.275   3.378   4.817
 6385TIP3    H219097   2.403   3.400   4.895
 6386TIP3   OH219098   1.456   0.644   3.162
 6386TIP3    H119099   1.392   0.695   3.112
 6386TIP3    H219100   1.532   0.636   3.103
 6387TIP3   OH219101   6.286   0.239   0.467
 6387TIP3    H119102   6.309   0.236   0.374
 6387TIP3    H219103   6.225   0.311   0.475
 6388TIP3   OH219104   4.837   1.252   3.924
 6388TIP3    H119105   4.830   1.259   3.829
 6388TIP3    H219106   4.847   1.342   3.955
 6389TIP3   OH219107   5.867   6.787   2.560
 6389TIP3    H119108   5.808   6.745   2.622
 6389TIP3    H219109   5.856   6.880   2.576
 6390TIP3   OH219110   0.651   6.566   0.082
 6390TIP3    H119111   0.721   6.584   0.020
 6390TIP3    H219112   0.599   6.646   0.083
 6391TIP3   OH219113   6.928   3.259   0.633
 6391TIP3    H119114   6.890   3.298   0.712
 6391TIP3    H219115   6.855   3.210   0.594
 6392TIP3   OH219116   2.943   2.269   1.270
 6392TIP3    H119117   2.936   2.262   1.175
 6392TIP3    H219118   2.979   2.357   1.285
 6393TIP3   OH219119   2.645   7.394   4.761
 6393TIP3    H119120   2.568   7.383   4.705
 6393TIP3    H219121   2.618   7.361   4.846
 6394TIP3   OH219122   6.257   5.650   4.269
 6394TIP3    H119123   6.191   5.623   4.333
 6394TIP3    H219124   6.243   5.744   4.259
 6395TIP3   OH219125   8.344   2.836   3.879
 6395TIP3    H119126   8.387   2.863   3.798
 6395TIP3    H219127   8.349   2.912   3.936
 6396TIP3   OH219128   6.893   1.980   4.436
 6396TIP3    H119129   6.920   2.064   4.397
 6396TIP3    H219130   6.849   2.005   4.517
 6397TIP3   OH219131   6.640   4.651   6.014
 6397TIP3    H119132   6.571   4.589   5.993
 6397TIP3    H219133   6.715   4.596   6.037
 6398TIP3   OH219134   2.665   4.280   4.220
 6398TIP3    H119135   2.716   4.361   4.213
 6398TIP3    H219136   2.682   4.249   4.309
 6399TIP3   OH219137   0.332   4.046   6.069
 6399TIP3    H119138   0.281   3.965   6.067
 6399TIP3    H219139   0.410   4.026   6.018
 6400TIP3   OH219140   0.096   1.137   6.387
 6400TIP3    H119141   0.167   1.105   6.331
 6400TIP3    H219142   0.102   1.233   6.381
 6401TIP3   OH219143   1.710   6.451   6.856
 6401TIP3    H119144   1.740   6.428   6.768
 6401TIP3    H219145   1.746   6.381   6.912
 6402TIP3   OH219146   0.379   2.046   6.702
 6402TIP3    H119147   0.313   1.978   6.713
 6402TIP3    H219148   0.345   2.121   6.751
 6403TIP3   OH219149   4.061   2.348   6.761
 6403TIP3    H119150   3.986   2.340   6.820
 6403TIP3    H219151   4.111   2.268   6.775
 6404TIP3   OH219152   8.091   3.216   4.391
 6404TIP3    H119153   8.153   3.205   4.464
 6404TIP3    H219154   8.124   3.292   4.343
 6405TIP3   OH219155   4.386   1.065   6.741
 6405TIP3    H119156   4.480   1.049   6.746
 6405TIP3    H219157   4.375   1.153   6.778
 6406TIP3   OH219158   7.076   1.638   5.589
 6406TIP3    H119159   7.107   1.645   5.679
 6406TIP3    H219160   7.143   1.681   5.536
 6407TIP3   OH219161   3.480   6.935   5.208
 6407TIP3    H119162   3.526   7.007   5.165
 6407TIP3    H219163   3.492   6.860   5.149
 6408TIP3   OH219164   7.469   7.326   0.199
 6408TIP3    H119165   7.383   7.289   0.181
 6408TIP3    H219166   7.490   7.377   0.121
 6409TIP3   OH219167   0.313   4.402   3.650
 6409TIP3    H119168   0.296   4.327   3.594
 6409TIP3    H219169   0.243   4.464   3.628
 6410TIP3   OH219170   6.066   1.993   0.757
 6410TIP3    H119171   5.978   2.008   0.790
 6410TIP3    H219172   6.114   2.072   0.781
 6411TIP3   OH219173   8.008   5.088   2.593
 6411TIP3    H119174   8.049   5.168   2.559
 6411TIP3    H219175   7.966   5.048   2.516
 6412TIP3   OH219176   4.315   0.861   4.526
 6412TIP3    H119177   4.395   0.820   4.561
 6412TIP3    H219178   4.282   0.799   4.462
 6413TIP3   OH219179   0.868   0.043   2.349
 6413TIP3    H119180   0.807   0.116   2.360
 6413TIP3    H219181   0.860   0.019   2.256
 6414TIP3   OH219182   2.123   2.398   3.260
 6414TIP3    H119183   2.056   2.463   3.238
 6414TIP3    H219184   2.206   2.445   3.248
 6415TIP3   OH219185   2.619   1.930   5.062
 6415TIP3    H119186   2.667   1.883   5.130
 6415TIP3    H219187   2.628   2.022   5.085
 6416TIP3   OH219188   0.597   7.421   1.209
 6416TIP3    H119189   0.648   7.396   1.132
 6416TIP3    H219190   0.662   7.457   1.270
 6417TIP3   OH219191   6.175   2.892   3.109
 6417TIP3    H119192   6.150   2.837   3.183
 6417TIP3    H219193   6.201   2.830   3.041
 6418TIP3   OH219194   3.695   6.603   2.629
 6418TIP3    H119195   3.716   6.553   2.549
 6418TIP3    H219196   3.767   6.665   2.638
 6419TIP3   OH219197   7.016   7.229   0.072
 6419TIP3    H119198   6.930   7.249   0.109
 6419TIP3    H219199   7.078   7.262   0.138
 6420TIP3   OH219200   6.657   5.075   0.266
 6420TIP3    H119201   6.598   5.149   0.285
 6420TIP3    H219202   6.643   5.015   0.339
 6421TIP3   OH219203   3.719   5.329   2.354
 6421TIP3    H119204   3.650   5.372   2.303
 6421TIP3    H219205   3.777   5.291   2.289
 6422TIP3   OH219206   2.392   5.559   2.999
 6422TIP3    H119207   2.315   5.578   3.051
 6422TIP3    H219208   2.463   5.549   3.064
 6423TIP3   OH219209   7.934   6.109   1.904
 6423TIP3    H119210   7.867   6.063   1.854
 6423TIP3    H219211   7.898   6.197   1.918
 6424TIP3   OH219212   1.203   0.879   5.983
 6424TIP3    H119213   1.131   0.942   5.989
 6424TIP3    H219214   1.184   0.828   5.904
 6425TIP3   OH219215   8.069   4.839   3.433
 6425TIP3    H119216   8.042   4.930   3.443
 6425TIP3    H219217   8.042   4.797   3.515
 6426TIP3   OH219218   8.177   3.918   4.456
 6426TIP3    H119219   8.127   3.947   4.532
 6426TIP3    H219220   8.158   3.983   4.388
 6427TIP3   OH219221   2.194   0.975   1.485
 6427TIP3    H119222   2.114   0.922   1.485
 6427TIP3    H219223   2.203   1.005   1.575
 6428TIP3   OH219224   7.572   5.310   6.003
 6428TIP3    H119225   7.649   5.365   6.011
 6428TIP3    H219226   7.589   5.254   5.927
 6429TIP3   OH219227   4.068   6.848   1.045
 6429TIP3    H119228   4.139   6.911   1.056
 6429TIP3    H219229   4.111   6.763   1.039
 6430TIP3   OH219230   7.420   1.787   2.293
 6430TIP3    H119231   7.493   1.829   2.339
 6430TIP3    H219232   7.342   1.831   2.327
 6431TIP3   OH219233   4.021   3.804   1.557
 6431TIP3    H119234   4.045   3.804   1.464
 6431TIP3    H219235   3.929   3.832   1.557
 6432TIP3   OH219236   6.320   7.757   2.055
 6432TIP3    H119237   6.352   7.677   2.013
 6432TIP3    H219238   6.399   7.796   2.094
 6433TIP3   OH219239   3.874   6.194   2.069
 6433TIP3    H119240   3.811   6.260   2.095
 6433TIP3    H219241   3.830   6.144   2.000
 6434TIP3   OH219242   7.044   1.768   0.290
 6434TIP3    H119243   6.994   1.686   0.284
 6434TIP3    H219244   6.993   1.830   0.238
 6435TIP3   OH219245   0.959   7.164   4.978
 6435TIP3    H119246   0.909   7.118   5.045
 6435TIP3    H219247   0.900   7.232   4.946
 6436TIP3   OH219248   6.142   2.879   5.008
 6436TIP3    H119249   6.185   2.946   5.062
 6436TIP3    H219250   6.052   2.876   5.040
 6437TIP3   OH219251   0.814   1.926   1.618
 6437TIP3    H119252   0.867   1.850   1.645
 6437TIP3    H219253   0.875   1.981   1.569
 6438TIP3   OH219254   1.433   2.593   5.459
 6438TIP3    H119255   1.349   2.600   5.505
 6438TIP3    H219256   1.461   2.503   5.473
 6439TIP3   OH219257   5.938   5.161   0.111
 6439TIP3    H119258   5.858   5.183   0.159
 6439TIP3    H219259   5.920   5.185   0.020
 6440TIP3   OH219260   2.128   0.880   5.571
 6440TIP3    H119261   2.072   0.845   5.502
 6440TIP3    H219262   2.099   0.835   5.651
 6441TIP3   OH219263   7.753   4.406   4.849
 6441TIP3    H119264   7.837   4.448   4.833
 6441TIP3    H219265   7.772   4.312   4.848
 6442TIP3   OH219266   4.378   2.550  -0.006
 6442TIP3    H119267   4.296   2.501  -0.009
 6442TIP3    H219268   4.405   2.548   0.086
 6443TIP3   OH219269   1.873   2.354   5.095
 6443TIP3    H119270   1.912   2.298   5.028
 6443TIP3    H219271   1.931   2.346   5.170
 6444TIP3   OH219272   2.965   4.992   4.224
 6444TIP3    H119273   3.023   5.065   4.242
 6444TIP3    H219274   2.991   4.925   4.287
 6445TIP3   OH219275   7.438   2.732   6.169
 6445TIP3    H119276   7.499   2.804   6.182
 6445TIP3    H219277   7.399   2.748   6.083
 6446TIP3   OH219278   3.679   7.421   1.345
 6446TIP3    H119279   3.684   7.374   1.429
 6446TIP3    H219280   3.725   7.503   1.361
 6447TIP3   OH219281   8.105   7.018   5.522
 6447TIP3    H119282   8.124   7.108   5.496
 6447TIP3    H219283   8.094   7.021   5.617
 6448TIP3   OH219284   4.327   7.839   6.545
 6448TIP3    H119285   4.271   7.793   6.608
 6448TIP3    H219286   4.401   7.779   6.531
 6449TIP3   OH219287   4.616   5.752   6.798
 6449TIP3    H119288   4.694   5.766   6.852
 6449TIP3    H219289   4.548   5.730   6.861
 6450TIP3   OH219290   2.732   2.362   3.572
 6450TIP3    H119291   2.683   2.306   3.513
 6450TIP3    H219292   2.717   2.324   3.659
 6451TIP3   OH219293   7.517   1.756   4.947
 6451TIP3    H119294   7.446   1.741   4.885
 6451TIP3    H219295   7.585   1.799   4.895
 6452TIP3   OH219296   7.436   5.439   3.404
 6452TIP3    H119297   7.468   5.426   3.315
 6452TIP3    H219298   7.342   5.457   3.393
 6453TIP3   OH219299   2.461   6.367   0.510
 6453TIP3    H119300   2.510   6.427   0.453
 6453TIP3    H219301   2.487   6.280   0.481
 6454TIP3   OH219302   8.132   0.913   0.628
 6454TIP3    H119303   8.142   0.960   0.711
 6454TIP3    H219304   8.222   0.894   0.601
 6455TIP3   OH219305   3.327   4.956   2.392
 6455TIP3    H119306   3.408   4.995   2.425
 6455TIP3    H219307   3.257   5.007   2.433
 6456TIP3   OH219308   7.629   3.288   2.731
 6456TIP3    H119309   7.664   3.238   2.806
 6456TIP3    H219310   7.623   3.223   2.661
 6457TIP3   OH219311   2.846   6.410   4.047
 6457TIP3    H119312   2.901   6.432   3.973
 6457TIP3    H219313   2.901   6.427   4.124
 6458TIP3   OH219314   1.018   3.328   1.320
 6458TIP3    H119315   0.959   3.255   1.302
 6458TIP3    H219316   0.968   3.406   1.294
 6459TIP3   OH219317   2.942   2.602   0.241
 6459TIP3    H119318   3.009   2.671   0.232
 6459TIP3    H219319   2.992   2.521   0.249
 6460TIP3   OH219320   4.626   0.236   1.865
 6460TIP3    H119321   4.645   0.236   1.959
 6460TIP3    H219322   4.573   0.158   1.852
 6461TIP3   OH219323   5.137   1.250   2.478
 6461TIP3    H119324   5.052   1.277   2.513
 6461TIP3    H219325   5.137   1.155   2.489
 6462TIP3   OH219326   2.948   7.746   3.739
 6462TIP3    H119327   3.007   7.820   3.752
 6462TIP3    H219328   2.969   7.686   3.811
 6463TIP3   OH219329   6.903   5.764   6.419
 6463TIP3    H119330   6.884   5.670   6.413
 6463TIP3    H219331   6.893   5.796   6.329
 6464TIP3   OH219332   5.768   5.093   6.779
 6464TIP3    H119333   5.739   5.092   6.870
 6464TIP3    H219334   5.794   5.184   6.764
 6465TIP3   OH219335   3.903   5.222   2.161
 6465TIP3    H119336   3.882   5.312   2.135
 6465TIP3    H219337   3.985   5.203   2.117
 6466TIP3   OH219338   6.101   7.310   5.307
 6466TIP3    H119339   6.084   7.275   5.220
 6466TIP3    H219340   6.165   7.250   5.346
 6467TIP3   OH219341   7.240   1.621   1.851
 6467TIP3    H119342   7.297   1.545   1.834
 6467TIP3    H219343   7.278   1.663   1.928
 6468TIP3   OH219344   6.439   4.569   3.862
 6468TIP3    H119345   6.405   4.555   3.773
 6468TIP3    H219346   6.411   4.491   3.910
 6469TIP3   OH219347   8.185   5.655   2.634
 6469TIP3    H119348   8.233   5.736   2.645
 6469TIP3    H219349   8.093   5.682   2.629
 6470TIP3   OH219350   0.352   3.140   2.960
 6470TIP3    H119351   0.348   3.133   2.865
 6470TIP3    H219352   0.291   3.074   2.992
 6471TIP3   OH219353   7.319   5.156   5.755
 6471TIP3    H119354   7.323   5.200   5.840
 6471TIP3    H219355   7.352   5.220   5.693
 6472TIP3   OH219356   2.890   3.848   5.436
 6472TIP3    H119357   2.826   3.904   5.482
 6472TIP3    H219358   2.969   3.902   5.433
 6473TIP3   OH219359   6.135   4.253   6.241
 6473TIP3    H119360   6.097   4.332   6.201
 6473TIP3    H219361   6.134   4.188   6.171
 6474TIP3   OH219362   6.528   5.429   3.666
 6474TIP3    H119363   6.476   5.374   3.724
 6474TIP3    H219364   6.600   5.374   3.637
 6475TIP3   OH219365   0.831   1.772   1.347
 6475TIP3    H119366   0.787   1.856   1.333
 6475TIP3    H219367   0.762   1.714   1.377
 6476TIP3   OH219368   6.610   4.210   3.740
 6476TIP3    H119369   6.515   4.200   3.735
 6476TIP3    H219370   6.635   4.163   3.820
 6477TIP3   OH219371   4.797   6.949   1.415
 6477TIP3    H119372   4.755   7.034   1.404
 6477TIP3    H219373   4.873   6.966   1.471
 6478TIP3   OH219374   0.329   4.857   2.630
 6478TIP3    H119375   0.404   4.839   2.686
 6478TIP3    H219376   0.361   4.922   2.567
 6479TIP3   OH219377   7.556   7.156   1.512
 6479TIP3    H119378   7.635   7.175   1.563
 6479TIP3    H219379   7.483   7.181   1.569
 6480TIP3   OH219380   2.334   2.904   1.207
 6480TIP3    H119381   2.423   2.923   1.178
 6480TIP3    H219382   2.324   2.956   1.286
 6481TIP3   OH219383   7.590   4.325   1.152
 6481TIP3    H119384   7.498   4.324   1.128
 6481TIP3    H219385   7.595   4.379   1.231
 6482TIP3   OH219386   4.305   7.108   6.296
 6482TIP3    H119387   4.399   7.127   6.287
 6482TIP3    H219388   4.262   7.177   6.246
 6483TIP3   OH219389   0.426   4.991   4.853
 6483TIP3    H119390   0.416   4.902   4.820
 6483TIP3    H219391   0.367   4.995   4.929
 6484TIP3   OH219392   2.334   7.803   5.394
 6484TIP3    H119393   2.250   7.759   5.411
 6484TIP3    H219394   2.378   7.747   5.330
 6485TIP3   OH219395   2.138   1.574   5.256
 6485TIP3    H119396   2.193   1.603   5.329
 6485TIP3    H219397   2.110   1.486   5.282
 6486TIP3   OH219398   6.614   6.251   0.021
 6486TIP3    H119399   6.591   6.160   0.004
 6486TIP3    H219400   6.631   6.255   0.116
 6487TIP3   OH219401   8.331   5.057   6.816
 6487TIP3    H119402   8.306   5.094   6.731
 6487TIP3    H219403   8.267   4.987   6.831
 6488TIP3   OH219404   4.813   0.072   6.009
 6488TIP3    H119405   4.755   0.007   5.968
 6488TIP3    H219406   4.754   0.138   6.046
 6489TIP3   OH219407   4.258   1.563   2.524
 6489TIP3    H119408   4.178   1.605   2.554
 6489TIP3    H219409   4.307   1.545   2.604
 6490TIP3   OH219410   4.557   1.431   4.449
 6490TIP3    H119411   4.591   1.394   4.531
 6490TIP3    H219412   4.490   1.493   4.477
 6491TIP3   OH219413   6.328   0.212   0.194
 6491TIP3    H119414   6.241   0.231   0.158
 6491TIP3    H219415   6.372   0.297   0.195
 6492TIP3   OH219416   7.212   7.863   6.354
 6492TIP3    H119417   7.175   7.799   6.292
 6492TIP3    H219418   7.250   7.809   6.424
 6493TIP3   OH219419   7.068   3.028   2.860
 6493TIP3    H119420   7.055   3.082   2.938
 6493TIP3    H219421   7.054   3.089   2.787
 6494TIP3   OH219422   2.038   2.765   0.644
 6494TIP3    H119423   1.968   2.824   0.673
 6494TIP3    H219424   2.080   2.737   0.725
 6495TIP3   OH219425   6.648   7.600   2.666
 6495TIP3    H119426   6.709   7.566   2.732
 6495TIP3    H219427   6.633   7.691   2.692
 6496TIP3   OH219428   4.999   5.856   2.959
 6496TIP3    H119429   4.913   5.854   3.000
 6496TIP3    H219430   5.060   5.837   3.030
 6497TIP3   OH219431   2.935   0.267   4.964
 6497TIP3    H119432   2.937   0.229   4.877
 6497TIP3    H219433   3.017   0.316   4.971
 6498TIP3   OH219434   3.495   4.500   4.295
 6498TIP3    H119435   3.461   4.450   4.221
 6498TIP3    H219436   3.444   4.581   4.294
 6499TIP3   OH219437   2.690   6.054   1.498
 6499TIP3    H119438   2.649   6.011   1.423
 6499TIP3    H219439   2.731   6.132   1.460
 6500TIP3   OH219440   1.778   4.406   6.588
 6500TIP3    H119441   1.719   4.426   6.660
 6500TIP3    H219442   1.852   4.465   6.600
 6501TIP3   OH219443   7.242   6.172   1.739
 6501TIP3    H119444   7.183   6.097   1.745
 6501TIP3    H219445   7.223   6.211   1.654
 6502TIP3   OH219446   2.795   7.782   5.814
 6502TIP3    H119447   2.716   7.753   5.860
 6502TIP3    H219448   2.834   7.701   5.779
 6503TIP3   OH219449   8.294   3.809   3.620
 6503TIP3    H119450   8.327   3.816   3.710
 6503TIP3    H219451   8.363   3.847   3.566
 6504TIP3   OH219452   7.952   4.737   3.674
 6504TIP3    H119453   7.880   4.684   3.641
 6504TIP3    H219454   7.967   4.705   3.763
 6505TIP3   OH219455   8.245   6.919   4.659
 6505TIP3    H119456   8.317   6.969   4.622
 6505TIP3    H219457   8.284   6.870   4.732
 6506TIP3   OH219458   3.428   3.843   5.886
 6506TIP3    H119459   3.520   3.856   5.909
 6506TIP3    H219460   3.402   3.925   5.843
 6507TIP3   OH219461   4.866   2.745   1.973
 6507TIP3    H119462   4.924   2.788   1.911
 6507TIP3    H219463   4.830   2.816   2.026
 6508TIP3   OH219464   6.131   1.225   3.220
 6508TIP3    H119465   6.195   1.245   3.288
 6508TIP3    H219466   6.129   1.304   3.166
 6509TIP3   OH219467   2.251   4.227   0.213
 6509TIP3    H119468   2.332   4.212   0.165
 6509TIP3    H219469   2.230   4.319   0.198
 6510TIP3   OH219470   7.024   6.458   1.795
 6510TIP3    H119471   6.930   6.465   1.779
 6510TIP3    H219472   7.053   6.389   1.735
 6511TIP3   OH219473   4.385   4.090   0.290
 6511TIP3    H119474   4.302   4.089   0.243
 6511TIP3    H219475   4.361   4.074   0.381
 6512TIP3   OH219476   7.150   4.304   3.042
 6512TIP3    H119477   7.127   4.330   2.952
 6512TIP3    H219478   7.088   4.235   3.064
 6513TIP3   OH219479   5.732   3.012   4.905
 6513TIP3    H119480   5.801   3.026   4.840
 6513TIP3    H219481   5.680   3.092   4.903
 6514TIP3   OH219482   6.195   0.295   3.070
 6514TIP3    H119483   6.253   0.223   3.045
 6514TIP3    H219484   6.107   0.259   3.064
 6515TIP3   OH219485   0.875   0.295   5.400
 6515TIP3    H119486   0.942   0.363   5.411
 6515TIP3    H219487   0.852   0.299   5.307
 6516TIP3   OH219488   0.798   6.658   6.021
 6516TIP3    H119489   0.888   6.652   5.990
 6516TIP3    H219490   0.785   6.579   6.074
 6517TIP3   OH219491   7.496   0.597   6.600
 6517TIP3    H119492   7.402   0.590   6.581
 6517TIP3    H219493   7.537   0.611   6.514
 6518TIP3   OH219494   6.164   2.689   0.780
 6518TIP3    H119495   6.206   2.604   0.768
 6518TIP3    H219496   6.092   2.671   0.840
 6519TIP3   OH219497   1.940   3.045   6.835
 6519TIP3    H119498   1.865   2.996   6.870
 6519TIP3    H219499   1.902   3.104   6.770
 6520TIP3   OH219500   3.324   6.013   2.365
 6520TIP3    H119501   3.267   5.943   2.397
 6520TIP3    H219502   3.353   5.983   2.279
 6521TIP3   OH219503   2.998   1.947   1.069
 6521TIP3    H119504   3.006   1.934   0.974
 6521TIP3    H219505   2.957   2.033   1.078
 6522TIP3   OH219506   4.399   7.485   4.054
 6522TIP3    H119507   4.465   7.460   3.989
 6522TIP3    H219508   4.340   7.410   4.058
 6523TIP3   OH219509   7.558   5.689   2.621
 6523TIP3    H119510   7.513   5.699   2.705
 6523TIP3    H219511   7.564   5.777   2.585
 6524TIP3   OH219512   8.400   6.771   2.451
 6524TIP3    H119513   8.452   6.825   2.391
 6524TIP3    H219514   8.393   6.824   2.531
 6525TIP3   OH219515   2.103   0.414   5.683
 6525TIP3    H119516   2.165   0.344   5.663
 6525TIP3    H219517   2.105   0.420   5.779
 6526TIP3   OH219518   1.668   3.582   3.278
 6526TIP3    H119519   1.654   3.673   3.304
 6526TIP3    H219520   1.601   3.566   3.212
 6527TIP3   OH219521   4.050   1.110   1.282
 6527TIP3    H119522   3.957   1.110   1.304
 6527TIP3    H219523   4.070   1.018   1.260
 6528TIP3   OH219524   4.747   2.373   6.149
 6528TIP3    H119525   4.730   2.432   6.076
 6528TIP3    H219526   4.825   2.323   6.122
 6529TIP3   OH219527   0.198   6.299   0.526
 6529TIP3    H119528   0.235   6.212   0.543
 6529TIP3    H219529   0.190   6.338   0.613
 6530TIP3   OH219530   5.254   5.665   5.886
 6530TIP3    H119531   5.348   5.658   5.866
 6530TIP3    H219532   5.244   5.622   5.971
 6531TIP3   OH219533   7.471   5.676   1.279
 6531TIP3    H119534   7.538   5.631   1.332
 6531TIP3    H219535   7.518   5.747   1.236
 6532TIP3   OH219536   4.249   7.291   3.702
 6532TIP3    H119537   4.169   7.269   3.748
 6532TIP3    H219538   4.253   7.229   3.629
 6533TIP3   OH219539   5.608   0.876   2.112
 6533TIP3    H119540   5.638   0.951   2.162
 6533TIP3    H219541   5.557   0.914   2.040
 6534TIP3   OH219542   8.192   5.084   0.027
 6534TIP3    H119543   8.233   5.125   0.103
 6534TIP3    H219544   8.264   5.073  -0.036
 6535TIP3   OH219545   2.367   1.510   2.196
 6535TIP3    H119546   2.311   1.549   2.129
 6535TIP3    H219547   2.405   1.586   2.242
 6536TIP3   OH219548   3.420   0.435   3.412
 6536TIP3    H119549   3.477   0.362   3.432
 6536TIP3    H219550   3.344   0.423   3.470
 6537TIP3   OH219551   5.911   1.127   0.229
 6537TIP3    H119552   5.851   1.076   0.174
 6537TIP3    H219553   5.854   1.180   0.284
 6538TIP3   OH219554   7.063   1.561   4.415
 6538TIP3    H119555   7.065   1.550   4.320
 6538TIP3    H219556   7.103   1.482   4.449
 6539TIP3   OH219557   4.605   7.688   2.204
 6539TIP3    H119558   4.556   7.760   2.245
 6539TIP3    H219559   4.649   7.645   2.277
 6540TIP3   OH219560   3.463   5.073   4.918
 6540TIP3    H119561   3.531   5.060   4.852
 6540TIP3    H219562   3.448   5.168   4.919
 6541TIP3   OH219563   0.672   4.782   1.060
 6541TIP3    H119564   0.685   4.858   1.118
 6541TIP3    H219565   0.587   4.747   1.086
 6542TIP3   OH219566   5.604   6.195   2.689
 6542TIP3    H119567   5.524   6.186   2.741
 6542TIP3    H219568   5.592   6.134   2.616
 6543TIP3   OH219569   0.076   7.133   1.398
 6543TIP3    H119570   0.105   7.195   1.465
 6543TIP3    H219571   0.144   7.066   1.397
 6544TIP3   OH219572   7.146   4.187   4.484
 6544TIP3    H119573   7.174   4.248   4.552
 6544TIP3    H219574   7.138   4.103   4.530
 6545TIP3   OH219575   5.544   2.629   5.977
 6545TIP3    H119576   5.539   2.721   5.950
 6545TIP3    H219577   5.527   2.579   5.898
 6546TIP3   OH219578   1.129   4.503   5.556
 6546TIP3    H119579   1.071   4.435   5.521
 6546TIP3    H219580   1.217   4.467   5.543
 6547TIP3   OH219581   2.842   2.461   0.827
 6547TIP3    H119582   2.837   2.553   0.801
 6547TIP3    H219583   2.750   2.434   0.838
 6548TIP3   OH219584   2.388   7.398   3.715
 6548TIP3    H119585   2.398   7.454   3.792
 6548TIP3    H219586   2.443   7.439   3.648
 6549TIP3   OH219587   3.888   4.350   2.624
 6549TIP3    H119588   3.881   4.275   2.683
 6549TIP3    H219589   3.964   4.331   2.569
 6550TIP3   OH219590   6.643   2.629   3.036
 6550TIP3    H119591   6.739   2.628   3.039
 6550TIP3    H219592   6.619   2.710   3.082
 6551TIP3   OH219593   3.633   4.434   3.738
 6551TIP3    H119594   3.546   4.415   3.774
 6551TIP3    H219595   3.684   4.355   3.756
 6552TIP3   OH219596   3.901   5.881   3.757
 6552TIP3    H119597   3.971   5.928   3.712
 6552TIP3    H219598   3.843   5.851   3.688
 6553TIP3   OH219599   1.833   0.012   6.533
 6553TIP3    H119600   1.839   0.104   6.508
 6553TIP3    H219601   1.857   0.010   6.625
 6554TIP3   OH219602   7.988   4.889   0.409
 6554TIP3    H119603   7.945   4.960   0.362
 6554TIP3    H219604   8.004   4.925   0.497
 6555TIP3   OH219605   5.245   6.959   5.356
 6555TIP3    H119606   5.293   6.947   5.275
 6555TIP3    H219607   5.153   6.965   5.329
 6556TIP3   OH219608   6.564   6.457   0.813
 6556TIP3    H119609   6.488   6.415   0.853
 6556TIP3    H219610   6.587   6.528   0.872
 6557TIP3   OH219611   7.089   6.288   6.428
 6557TIP3    H119612   7.149   6.270   6.356
 6557TIP3    H219613   7.103   6.381   6.447
 6558TIP3   OH219614   5.269   7.764   3.951
 6558TIP3    H119615   5.336   7.807   4.005
 6558TIP3    H219616   5.299   7.674   3.943
 6559TIP3   OH219617   1.617   1.279   2.133
 6559TIP3    H119618   1.706   1.250   2.152
 6559TIP3    H219619   1.582   1.308   2.217
 6560TIP3   OH219620   3.088   3.971   0.132
 6560TIP3    H119621   3.045   3.918   0.199
 6560TIP3    H219622   3.181   3.957   0.146
 6561TIP3   OH219623   0.410   6.188   1.908
 6561TIP3    H119624   0.431   6.280   1.894
 6561TIP3    H219625   0.334   6.189   1.967
 6562TIP3   OH219626   5.639   5.446   6.435
 6562TIP3    H119627   5.618   5.371   6.491
 6562TIP3    H219628   5.630   5.412   6.346
 6563TIP3   OH219629   0.894   2.176   4.170
 6563TIP3    H119630   0.919   2.255   4.122
 6563TIP3    H219631   0.915   2.104   4.110
 6564TIP3   OH219632   1.528   7.612   4.065
 6564TIP3    H119633   1.608   7.590   4.113
 6564TIP3    H219634   1.517   7.540   4.002
 6565TIP3   OH219635   2.773   1.506   6.175
 6565TIP3    H119636   2.776   1.474   6.085
 6565TIP3    H219637   2.865   1.511   6.202
 6566TIP3   OH219638   7.984   6.183   2.472
 6566TIP3    H119639   8.029   6.253   2.426
 6566TIP3    H219640   7.930   6.141   2.404
 6567TIP3   OH219641   5.155   4.208   1.779
 6567TIP3    H119642   5.103   4.285   1.756
 6567TIP3    H219643   5.092   4.149   1.822
 6568TIP3   OH219644   3.091   5.959   2.859
 6568TIP3    H119645   3.094   6.011   2.780
 6568TIP3    H219646   3.048   6.015   2.924
 6569TIP3   OH219647   1.556   7.372   4.398
 6569TIP3    H119648   1.476   7.424   4.399
 6569TIP3    H219649   1.543   7.307   4.467
 6570TIP3   OH219650   1.245   0.312   6.066
 6570TIP3    H119651   1.252   0.360   5.983
 6570TIP3    H219652   1.188   0.238   6.045
 6571TIP3   OH219653   1.986   6.143   0.641
 6571TIP3    H119654   2.016   6.054   0.654
 6571TIP3    H219655   2.042   6.196   0.697
 6572TIP3   OH219656   5.691   1.854   0.032
 6572TIP3    H119657   5.759   1.787   0.020
 6572TIP3    H219658   5.653   1.834   0.118
 6573TIP3   OH219659   2.716   4.786   0.987
 6573TIP3    H119660   2.637   4.747   1.025
 6573TIP3    H219661   2.698   4.789   0.893
 6574TIP3   OH219662   3.950   2.965   1.081
 6574TIP3    H119663   4.037   2.978   1.043
 6574TIP3    H219664   3.966   2.935   1.170
 6575TIP3   OH219665   2.721   7.069   0.101
 6575TIP3    H119666   2.721   7.163   0.119
 6575TIP3    H219667   2.693   7.029   0.183
 6576TIP3   OH219668   1.577   2.900   2.432
 6576TIP3    H119669   1.529   2.923   2.353
 6576TIP3    H219670   1.646   2.966   2.438
 6577TIP3   OH219671   8.342   7.163   0.031
 6577TIP3    H119672   8.355   7.256   0.011
 6577TIP3    H219673   8.254   7.158   0.068
 6578TIP3   OH219674   4.708   3.739   5.553
 6578TIP3    H119675   4.781   3.679   5.536
 6578TIP3    H219676   4.746   3.807   5.609
 6579TIP3   OH219677   4.585   2.740   5.128
 6579TIP3    H119678   4.587   2.674   5.059
 6579TIP3    H219679   4.559   2.820   5.083
 6580TIP3   OH219680   4.623   0.503   2.431
 6580TIP3    H119681   4.581   0.528   2.349
 6580TIP3    H219682   4.550   0.485   2.491
 6581TIP3   OH219683   3.721   0.571   2.821
 6581TIP3    H119684   3.801   0.521   2.837
 6581TIP3    H219685   3.669   0.560   2.900
 6582TIP3   OH219686   3.491   4.750   2.326
 6582TIP3    H119687   3.412   4.804   2.329
 6582TIP3    H219688   3.561   4.811   2.303
 6583TIP3   OH219689   1.516   6.520   5.538
 6583TIP3    H119690   1.570   6.599   5.539
 6583TIP3    H219691   1.544   6.472   5.460
 6584TIP3   OH219692   5.553   3.929   2.207
 6584TIP3    H119693   5.608   4.007   2.211
 6584TIP3    H219694   5.523   3.916   2.297
 6585TIP3   OH219695   3.820   5.507   2.825
 6585TIP3    H119696   3.910   5.537   2.833
 6585TIP3    H219697   3.824   5.433   2.765
 6586TIP3   OH219698   7.869   7.905   5.175
 6586TIP3    H119699   7.775   7.914   5.163
 6586TIP3    H219700   7.879   7.866   5.262
 6587TIP3   OH219701   7.005   2.831   3.276
 6587TIP3    H119702   7.005   2.915   3.229
 6587TIP3    H219703   6.973   2.768   3.213
 6588TIP3   OH219704   4.414   1.353   5.364
 6588TIP3    H119705   4.401   1.279   5.423
 6588TIP3    H219706   4.508   1.370   5.367
 6589TIP3   OH219707   4.148   3.592   2.493
 6589TIP3    H119708   4.089   3.660   2.525
 6589TIP3    H219709   4.095   3.539   2.434
 6590TIP3   OH219710   7.598   2.774   0.761
 6590TIP3    H119711   7.566   2.735   0.680
 6590TIP3    H219712   7.586   2.868   0.749
 6591TIP3   OH219713   6.193   5.292   0.148
 6591TIP3    H119714   6.202   5.359   0.081
 6591TIP3    H219715   6.100   5.268   0.145
 6592TIP3   OH219716   7.595   4.158   4.947
 6592TIP3    H119717   7.525   4.101   4.917
 6592TIP3    H219718   7.674   4.126   4.905
 6593TIP3   OH219719   4.514   3.342   1.176
 6593TIP3    H119720   4.489   3.316   1.264
 6593TIP3    H219721   4.467   3.283   1.118
 6594TIP3   OH219722   8.010   0.381   6.079
 6594TIP3    H119723   7.957   0.461   6.085
 6594TIP3    H219724   7.954   0.319   6.032
 6595TIP3   OH219725   6.925   2.239   6.898
 6595TIP3    H119726   7.009   2.260   6.940
 6595TIP3    H219727   6.949   2.218   6.808
 6596TIP3   OH219728   7.349   6.063   4.600
 6596TIP3    H119729   7.298   6.072   4.681
 6596TIP3    H219730   7.440   6.063   4.630
 6597TIP3   OH219731   4.771   3.514   3.528
 6597TIP3    H119732   4.723   3.454   3.470
 6597TIP3    H219733   4.736   3.495   3.616
 6598TIP3   OH219734   0.745   6.757   4.466
 6598TIP3    H119735   0.783   6.674   4.496
 6598TIP3    H219736   0.667   6.769   4.520
 6599TIP3   OH219737   6.127   5.899   1.382
 6599TIP3    H119738   6.160   5.834   1.320
 6599TIP3    H219739   6.066   5.952   1.331
 6600TIP3   OH219740   2.012   5.495   2.753
 6600TIP3    H119741   2.051   5.581   2.734
 6600TIP3    H219742   2.005   5.492   2.848
 6601TIP3   OH219743   4.530   4.631  -0.037
 6601TIP3    H119744   4.469   4.578   0.015
 6601TIP3    H219745   4.586   4.673   0.028
 6602TIP3   OH219746   2.649   1.154   6.482
 6602TIP3    H119747   2.683   1.125   6.398
 6602TIP3    H219748   2.567   1.106   6.493
 6603TIP3   OH219749   2.623   0.061   4.666
 6603TIP3    H119750   2.711   0.060   4.629
 6603TIP3    H219751   2.637   0.063   4.761
 6604TIP3   OH219752   0.763   1.076   0.117
 6604TIP3    H119753   0.733   1.166   0.109
 6604TIP3    H219754   0.834   1.068   0.054
 6605TIP3   OH219755   3.899   3.590   1.260
 6605TIP3    H119756   3.902   3.587   1.165
 6605TIP3    H219757   3.983   3.627   1.287
 6606TIP3   OH219758   0.146   0.141   0.088
 6606TIP3    H119759   0.137   0.152  -0.007
 6606TIP3    H219760   0.076   0.080   0.112
 6607TIP3   OH219761   5.431   2.736   6.394
 6607TIP3    H119762   5.343   2.744   6.358
 6607TIP3    H219763   5.484   2.796   6.342
 6608TIP3   OH219764   7.847   2.928   5.572
 6608TIP3    H119765   7.879   2.851   5.620
 6608TIP3    H219766   7.927   2.974   5.546
 6609TIP3   OH219767   0.884   5.044   4.821
 6609TIP3    H119768   0.934   5.085   4.892
 6609TIP3    H219769   0.849   4.963   4.861
 6610TIP3   OH219770   7.440   6.559   6.503
 6610TIP3    H119771   7.457   6.524   6.590
 6610TIP3    H219772   7.518   6.537   6.452
 6611TIP3   OH219773   3.555   0.490   2.604
 6611TIP3    H119774   3.624   0.509   2.668
 6611TIP3    H219775   3.475   0.481   2.656
 6612TIP3   OH219776   4.859   4.883   1.424
 6612TIP3    H119777   4.854   4.979   1.423
 6612TIP3    H219778   4.780   4.855   1.376
 6613TIP3   OH219779   6.564   1.660   3.645
 6613TIP3    H119780   6.490   1.714   3.617
 6613TIP3    H219781   6.542   1.572   3.615
 6614TIP3   OH219782   3.596   2.467   3.915
 6614TIP3    H119783   3.543   2.541   3.887
 6614TIP3    H219784   3.680   2.505   3.940
 6615TIP3   OH219785   0.286   3.438   5.518
 6615TIP3    H119786   0.339   3.496   5.572
 6615TIP3    H219787   0.301   3.467   5.428
 6616TIP3   OH219788   2.914   2.017   3.209
 6616TIP3    H119789   2.916   2.074   3.132
 6616TIP3    H219790   2.934   1.930   3.176
 6617TIP3   OH219791   7.708   6.505   5.084
 6617TIP3    H119792   7.716   6.589   5.129
 6617TIP3    H219793   7.653   6.452   5.143
 6618TIP3   OH219794   1.587   6.319   4.536
 6618TIP3    H119795   1.668   6.370   4.539
 6618TIP3    H219796   1.564   6.306   4.628
 6619TIP3   OH219797   1.470   6.901   6.531
 6619TIP3    H119798   1.389   6.913   6.581
 6619TIP3    H219799   1.484   6.806   6.531
 6620TIP3   OH219800   6.618   0.513   1.920
 6620TIP3    H119801   6.683   0.583   1.916
 6620TIP3    H219802   6.547   0.549   1.974
 6621TIP3   OH219803   7.518   6.263   5.558
 6621TIP3    H119804   7.486   6.312   5.635
 6621TIP3    H219805   7.613   6.273   5.561
 6622TIP3   OH219806   6.352   7.282   6.533
 6622TIP3    H119807   6.293   7.246   6.467
 6622TIP3    H219808   6.300   7.282   6.614
 6623TIP3   OH219809   8.195   3.826   5.391
 6623TIP3    H119810   8.226   3.916   5.384
 6623TIP3    H219811   8.103   3.830   5.365
 6624TIP3   OH219812   0.118   7.775   4.899
 6624TIP3    H119813   0.024   7.761   4.907
 6624TIP3    H219814   0.156   7.688   4.909
 6625TIP3   OH219815   1.666   1.332   5.770
 6625TIP3    H119816   1.615   1.254   5.748
 6625TIP3    H219817   1.656   1.389   5.694
 6626TIP3   OH219818   1.087   7.631   0.787
 6626TIP3    H119819   1.042   7.714   0.802
 6626TIP3    H219820   1.167   7.655   0.739
 6627TIP3   OH219821   3.650   4.128   5.874
 6627TIP3    H119822   3.612   4.107   5.959
 6627TIP3    H219823   3.605   4.208   5.847
 6628TIP3   OH219824   1.257   2.115   3.967
 6628TIP3    H119825   1.303   2.075   3.893
 6628TIP3    H219826   1.210   2.189   3.928
 6629TIP3   OH219827   5.939   1.216   6.747
 6629TIP3    H119828   6.018   1.213   6.801
 6629TIP3    H219829   5.879   1.273   6.796
 6630TIP3   OH219830   4.543   3.367   6.046
 6630TIP3    H119831   4.522   3.275   6.029
 6630TIP3    H219832   4.486   3.392   6.118
 6631TIP3   OH219833   0.244   5.506   1.153
 6631TIP3    H119834   0.199   5.562   1.216
 6631TIP3    H219835   0.242   5.556   1.071
 6632TIP3   OH219836   6.219   4.210   4.481
 6632TIP3    H119837   6.156   4.263   4.432
 6632TIP3    H219838   6.176   4.125   4.491
 6633TIP3   OH219839   6.881   3.652   6.076
 6633TIP3    H119840   6.974   3.655   6.098
 6633TIP3    H219841   6.875   3.588   6.005
 6634TIP3   OH219842   5.972   1.111   2.214
 6634TIP3    H119843   5.989   1.030   2.166
 6634TIP3    H219844   5.917   1.163   2.154
 6635TIP3   OH219845   1.262   4.934   4.563
 6635TIP3    H119846   1.349   4.929   4.522
 6635TIP3    H219847   1.261   4.862   4.626
 6636TIP3   OH219848   6.005   2.145   0.288
 6636TIP3    H119849   6.075   2.199   0.326
 6636TIP3    H219850   5.945   2.209   0.249
 6637TIP3   OH219851   8.059   0.866   2.431
 6637TIP3    H119852   8.102   0.855   2.516
 6637TIP3    H219853   8.006   0.787   2.420
 6638TIP3   OH219854   2.054   4.334   2.239
 6638TIP3    H119855   2.002   4.392   2.295
 6638TIP3    H219856   2.110   4.393   2.188
 6639TIP3   OH219857   5.780   1.442   0.044
 6639TIP3    H119858   5.821   1.525   0.070
 6639TIP3    H219859   5.762   1.397   0.127
 6640TIP3   OH219860   4.576   7.899   3.627
 6640TIP3    H119861   4.613   7.975   3.671
 6640TIP3    H219862   4.639   7.829   3.643
 6641TIP3   OH219863   1.961   2.145   0.358
 6641TIP3    H119864   1.903   2.163   0.431
 6641TIP3    H219865   1.910   2.166   0.280
 6642TIP3   OH219866   4.951   7.759   0.482
 6642TIP3    H119867   4.901   7.681   0.506
 6642TIP3    H219868   4.915   7.828   0.537
 6643TIP3   OH219869   7.452   7.320   5.180
 6643TIP3    H119870   7.463   7.379   5.106
 6643TIP3    H219871   7.358   7.303   5.185
 6644TIP3   OH219872   6.744   6.352   1.472
 6644TIP3    H119873   6.708   6.438   1.494
 6644TIP3    H219874   6.829   6.371   1.432
 6645TIP3   OH219875   0.636   5.841   2.591
 6645TIP3    H119876   0.729   5.825   2.577
 6645TIP3    H219877   0.596   5.825   2.505
 6646TIP3   OH219878   5.709   2.293   6.157
 6646TIP3    H119879   5.743   2.233   6.223
 6646TIP3    H219880   5.655   2.355   6.206
 6647TIP3   OH219881   5.012   4.371   6.339
 6647TIP3    H119882   5.051   4.301   6.286
 6647TIP3    H219883   5.007   4.334   6.427
 6648TIP3   OH219884   3.279   5.227   2.357
 6648TIP3    H119885   3.372   5.232   2.379
 6648TIP3    H219886   3.239   5.299   2.407
 6649TIP3   OH219887   0.369   0.732   6.011
 6649TIP3    H119888   0.413   0.793   5.952
 6649TIP3    H219889   0.423   0.654   6.010
 6650TIP3   OH219890   3.268   4.468   0.996
 6650TIP3    H119891   3.194   4.521   1.027
 6650TIP3    H219892   3.239   4.432   0.912
 6651TIP3   OH219893   6.081   5.936   2.002
 6651TIP3    H119894   6.019   6.002   2.035
 6651TIP3    H219895   6.032   5.854   2.004
 6652TIP3   OH219896   1.292   3.526   0.064
 6652TIP3    H119897   1.277   3.432   0.053
 6652TIP3    H219898   1.216   3.567   0.022
 6653TIP3   OH219899   4.520   4.286   1.417
 6653TIP3    H119900   4.504   4.195   1.394
 6653TIP3    H219901   4.432   4.325   1.421
 6654TIP3   OH219902   8.276   7.671   4.848
 6654TIP3    H119903   8.287   7.576   4.835
 6654TIP3    H219904   8.196   7.692   4.800
 6655TIP3   OH219905   2.115   3.022   0.198
 6655TIP3    H119906   2.036   3.070   0.226
 6655TIP3    H219907   2.084   2.964   0.128
 6656TIP3   OH219908   6.966   1.344   5.296
 6656TIP3    H119909   6.924   1.355   5.381
 6656TIP3    H219910   7.006   1.257   5.299
 6657TIP3   OH219911   3.324   1.001   3.097
 6657TIP3    H119912   3.280   1.029   3.177
 6657TIP3    H219913   3.297   1.066   3.031
 6658TIP3   OH219914   6.848   7.382   1.358
 6658TIP3    H119915   6.862   7.366   1.452
 6658TIP3    H219916   6.927   7.349   1.316
 6659TIP3   OH219917   8.198   6.249   6.152
 6659TIP3    H119918   8.189   6.155   6.137
 6659TIP3    H219919   8.109   6.279   6.170
 6660TIP3   OH219920   5.563   0.040   1.918
 6660TIP3    H119921   5.537  -0.053   1.916
 6660TIP3    H219922   5.621   0.047   1.994
 6661TIP3   OH219923   3.562   2.355   0.459
 6661TIP3    H119924   3.484   2.381   0.410
 6661TIP3    H219925   3.589   2.434   0.505
 6662TIP3   OH219926   1.463   7.256   6.489
 6662TIP3    H119927   1.471   7.301   6.405
 6662TIP3    H219928   1.450   7.326   6.553
 6663TIP3   OH219929   7.740   3.226   0.543
 6663TIP3    H119930   7.781   3.212   0.458
 6663TIP3    H219931   7.665   3.283   0.524
 6664TIP3   OH219932   5.183   2.463   2.524
 6664TIP3    H119933   5.233   2.524   2.578
 6664TIP3    H219934   5.246   2.397   2.496
 6665TIP3   OH219935   3.795   3.803   5.572
 6665TIP3    H119936   3.702   3.781   5.575
 6665TIP3    H219937   3.802   3.884   5.622
 6666TIP3   OH219938   4.534   7.132   2.654
 6666TIP3    H119939   4.569   7.096   2.573
 6666TIP3    H219940   4.468   7.069   2.682
 6667TIP3   OH219941   2.600   0.199   1.565
 6667TIP3    H119942   2.536   0.201   1.493
 6667TIP3    H219943   2.595   0.109   1.598
 6668TIP3   OH219944   3.343   0.084   3.203
 6668TIP3    H119945   3.359  -0.010   3.199
 6668TIP3    H219946   3.429   0.124   3.189
 6669TIP3   OH219947   1.053   3.401   4.601
 6669TIP3    H119948   1.063   3.410   4.506
 6669TIP3    H219949   1.128   3.349   4.628
 6670TIP3   OH219950   7.575   5.167   1.873
 6670TIP3    H119951   7.663   5.153   1.908
 6670TIP3    H219952   7.518   5.115   1.930
 6671TIP3   OH219953   2.407   4.871   5.527
 6671TIP3    H119954   2.414   4.818   5.607
 6671TIP3    H219955   2.396   4.808   5.457
 6672TIP3   OH219956   2.854   1.895   5.226
 6672TIP3    H119957   2.790   1.864   5.290
 6672TIP3    H219958   2.918   1.824   5.221
 6673TIP3   OH219959   4.301   6.631   5.397
 6673TIP3    H119960   4.383   6.623   5.446
 6673TIP3    H219961   4.242   6.567   5.437
 6674TIP3   OH219962   1.778   2.362   4.156
 6674TIP3    H119963   1.810   2.414   4.083
 6674TIP3    H219964   1.853   2.310   4.184
 6675TIP3   OH219965   3.596   7.653   1.597
 6675TIP3    H119966   3.540   7.645   1.674
 6675TIP3    H219967   3.671   7.597   1.616
 6676TIP3   OH219968   6.488   7.706   3.413
 6676TIP3    H119969   6.410   7.677   3.460
 6676TIP3    H219970   6.552   7.723   3.482
 6677TIP3   OH219971   6.265   5.967   2.819
 6677TIP3    H119972   6.189   6.017   2.788
 6677TIP3    H219973   6.327   6.034   2.847
 6678TIP3   OH219974   1.069   6.181   1.772
 6678TIP3    H119975   1.130   6.120   1.730
 6678TIP3    H219976   0.989   6.176   1.719
 6679TIP3   OH219977   5.095   7.218   4.995
 6679TIP3    H119978   5.144   7.251   5.071
 6679TIP3    H219979   5.158   7.165   4.947
 6680TIP3   OH219980   7.166   1.512   1.244
 6680TIP3    H119981   7.247   1.505   1.296
 6680TIP3    H219982   7.136   1.422   1.236
 6681TIP3   OH219983   0.683   1.992   3.200
 6681TIP3    H119984   0.628   2.064   3.230
 6681TIP3    H219985   0.622   1.933   3.154
 6682TIP3   OH219986   5.607   4.966   1.000
 6682TIP3    H119987   5.625   5.029   0.930
 6682TIP3    H219988   5.571   4.890   0.954
 6683TIP3   OH219989   4.344   0.334   0.172
 6683TIP3    H119990   4.384   0.285   0.244
 6683TIP3    H219991   4.348   0.274   0.097
 6684TIP3   OH219992   7.381   4.014   5.957
 6684TIP3    H119993   7.289   4.014   5.983
 6684TIP3    H219994   7.421   4.083   6.010
 6685TIP3   OH219995   7.881   3.508   2.893
 6685TIP3    H119996   7.801   3.495   2.945
 6685TIP3    H219997   7.886   3.602   2.880
 6686TIP3   OH219998   3.506   1.657  -0.004
 6686TIP3    H119999   3.538   1.661   0.086
 6686TIP3    H220000   3.415   1.685   0.001
 6687TIP3   OH220001   0.388   0.213   1.023
 6687TIP3    H120002   0.386   0.305   1.050
 6687TIP3    H220003   0.394   0.216   0.927
 6688TIP3   OH220004   4.522   1.139   2.597
 6688TIP3    H120005   4.556   1.168   2.512
 6688TIP3    H220006   4.440   1.187   2.609
 6689TIP3   OH220007   5.760   7.419   2.223
 6689TIP3    H120008   5.676   7.465   2.216
 6689TIP3    H220009   5.820   7.471   2.170
 6690TIP3   OH220010   4.277   7.546   2.310
 6690TIP3    H120011   4.344   7.478   2.314
 6690TIP3    H220012   4.282   7.590   2.394
 6691TIP3   OH220013   5.580   5.864   5.495
 6691TIP3    H120014   5.569   5.888   5.587
 6691TIP3    H220015   5.494   5.829   5.469
 6692TIP3   OH220016   2.000   6.212   3.768
 6692TIP3    H120017   1.942   6.287   3.754
 6692TIP3    H220018   2.088   6.249   3.765
 6693TIP3   OH220019   2.772   0.668   6.330
 6693TIP3    H120020   2.695   0.653   6.384
 6693TIP3    H220021   2.845   0.637   6.383
 6694TIP3   OH220022   3.081   0.875   0.792
 6694TIP3    H120023   2.993   0.839   0.799
 6694TIP3    H220024   3.107   0.859   0.701
 6695TIP3   OH220025   4.263   2.968   4.724
 6695TIP3    H120026   4.296   2.907   4.658
 6695TIP3    H220027   4.288   3.055   4.692
 6696TIP3   OH220028   4.948   1.927   4.461
 6696TIP3    H120029   4.953   1.850   4.403
 6696TIP3    H220030   4.964   1.891   4.548
 6697TIP3   OH220031   4.425   6.892   1.860
 6697TIP3    H120032   4.348   6.850   1.820
 6697TIP3    H220033   4.469   6.936   1.787
 6698TIP3   OH220034   6.655   7.005   0.113
 6698TIP3    H120035   6.675   7.097   0.093
 6698TIP3    H220036   6.721   6.980   0.178
 6699TIP3   OH220037   2.373   2.412   0.557
 6699TIP3    H120038   2.286   2.374   0.543
 6699TIP3    H220039   2.375   2.490   0.501
 6700TIP3   OH220040   2.029   2.400   3.517
 6700TIP3    H120041   2.052   2.394   3.424
 6700TIP3    H220042   2.076   2.478   3.547
 6701TIP3   OH220043   2.448   6.009   5.163
 6701TIP3    H120044   2.385   5.955   5.212
 6701TIP3    H220045   2.460   6.087   5.217
 6702TIP3   OH220046   5.806   2.253   2.781
 6702TIP3    H120047   5.848   2.332   2.815
 6702TIP3    H220048   5.791   2.198   2.857
 6703TIP3   OH220049   3.253   3.059   6.661
 6703TIP3    H120050   3.163   3.090   6.657
 6703TIP3    H220051   3.275   3.034   6.571
 6704TIP3   OH220052   6.255   6.646   5.592
 6704TIP3    H120053   6.348   6.645   5.614
 6704TIP3    H220054   6.254   6.661   5.497
 6705TIP3   OH220055  -0.024   1.384   2.503
 6705TIP3    H120056  -0.018   1.362   2.596
 6705TIP3    H220057   0.066   1.394   2.474
 6706TIP3   OH220058   7.099   3.168   5.247
 6706TIP3    H120059   7.155   3.184   5.323
 6706TIP3    H220060   7.067   3.254   5.222
 6707TIP3   OH220061   7.416   1.146   6.244
 6707TIP3    H120062   7.437   1.071   6.299
 6707TIP3    H220063   7.458   1.126   6.160
 6708TIP3   OH220064   5.881   4.429   0.818
 6708TIP3    H120065   5.918   4.341   0.811
 6708TIP3    H220066   5.922   4.465   0.897
 6709TIP3   OH220067   3.574   3.949   3.245
 6709TIP3    H120068   3.526   4.000   3.310
 6709TIP3    H220069   3.665   3.978   3.252
 6710TIP3   OH220070   6.365   3.784   1.643
 6710TIP3    H120071   6.334   3.717   1.704
 6710TIP3    H220072   6.358   3.744   1.557
 6711TIP3   OH220073   2.735   0.811   6.721
 6711TIP3    H120074   2.672   0.814   6.650
 6711TIP3    H220075   2.693   0.756   6.788
 6712TIP3   OH220076   5.405   4.903   3.149
 6712TIP3    H120077   5.380   4.818   3.113
 6712TIP3    H220078   5.454   4.882   3.229
 6713TIP3   OH220079   1.751   1.194   6.435
 6713TIP3    H120080   1.843   1.221   6.442
 6713TIP3    H220081   1.754   1.114   6.383
 6714TIP3   OH220082   3.938   5.116   4.943
 6714TIP3    H120083   3.904   5.195   4.901
 6714TIP3    H220084   3.860   5.069   4.971
 6715TIP3   OH220085   2.467   5.545   5.056
 6715TIP3    H120086   2.436   5.589   4.977
 6715TIP3    H220087   2.449   5.608   5.126
 6716TIP3   OH220088   4.326   5.528   2.835
 6716TIP3    H120089   4.362   5.607   2.793
 6716TIP3    H220090   4.372   5.456   2.793
 6717TIP3   OH220091   4.242   3.077   3.898
 6717TIP3    H120092   4.210   3.022   3.970
 6717TIP3    H220093   4.223   3.025   3.819
 6718TIP3   OH220094   7.034   5.712   1.884
 6718TIP3    H120095   7.099   5.648   1.915
 6718TIP3    H220096   6.969   5.659   1.838
 6719TIP3   OH220097   3.038   2.198   4.431
 6719TIP3    H120098   3.084   2.138   4.374
 6719TIP3    H220099   3.024   2.276   4.377
 6720TIP3   OH220100   4.667   2.678   2.799
 6720TIP3    H120101   4.653   2.650   2.889
 6720TIP3    H220102   4.754   2.719   2.800
 6721TIP3   OH220103   2.630   6.235   5.189
 6721TIP3    H120104   2.635   6.169   5.119
 6721TIP3    H220105   2.561   6.294   5.160
 6722TIP3   OH220106   2.735   4.505   1.545
 6722TIP3    H120107   2.699   4.548   1.622
 6722TIP3    H220108   2.660   4.489   1.488
 6723TIP3   OH220109   2.050   6.761   0.653
 6723TIP3    H120110   2.126   6.713   0.620
 6723TIP3    H220111   2.003   6.788   0.575
 6724TIP3   OH220112   8.057   0.450   0.544
 6724TIP3    H120113   8.032   0.542   0.542
 6724TIP3    H220114   8.116   0.444   0.619
 6725TIP3   OH220115   1.262   7.032   2.353
 6725TIP3    H120116   1.326   7.099   2.330
 6725TIP3    H220117   1.191   7.080   2.396
 6726TIP3   OH220118   3.043   7.905   3.399
 6726TIP3    H120119   3.105   7.912   3.327
 6726TIP3    H220120   3.094   7.922   3.478
 6727TIP3   OH220121   8.082   5.565   0.057
 6727TIP3    H120122   7.995   5.543   0.022
 6727TIP3    H220123   8.068   5.576   0.151
 6728TIP3   OH220124   6.566   7.446   3.259
 6728TIP3    H120125   6.564   7.534   3.221
 6728TIP3    H220126   6.568   7.461   3.354
 6729TIP3   OH220127   6.013   6.510   0.842
 6729TIP3    H120128   5.948   6.506   0.773
 6729TIP3    H220129   5.983   6.446   0.907
 6730TIP3   OH220130   0.178   2.624   6.744
 6730TIP3    H120131   0.126   2.676   6.682
 6730TIP3    H220132   0.241   2.577   6.689
 6731TIP3   OH220133   4.557   0.577   5.332
 6731TIP3    H120134   4.582   0.550   5.243
 6731TIP3    H220135   4.631   0.631   5.362
 6732TIP3   OH220136   1.403   0.524   5.066
 6732TIP3    H120137   1.323   0.576   5.065
 6732TIP3    H220138   1.384   0.449   5.010
 6733TIP3   OH220139   7.869   3.661   1.788
 6733TIP3    H120140   7.896   3.606   1.715
 6733TIP3    H220141   7.846   3.599   1.858
 6734TIP3   OH220142   5.613   1.512   3.734
 6734TIP3    H120143   5.546   1.534   3.669
 6734TIP3    H220144   5.694   1.547   3.697
 6735TIP3   OH220145   0.143   7.152   0.848
 6735TIP3    H120146   0.129   7.209   0.773
 6735TIP3    H220147   0.155   7.065   0.809
 6736TIP3   OH220148   2.997   1.104   2.043
 6736TIP3    H120149   3.088   1.083   2.063
 6736TIP3    H220150   2.946   1.039   2.092
 6737TIP3   OH220151   4.237   6.988   4.257
 6737TIP3    H120152   4.241   7.053   4.327
 6737TIP3    H220153   4.299   7.019   4.191
 6738TIP3   OH220154   0.756   1.329   6.095
 6738TIP3    H120155   0.733   1.413   6.135
 6738TIP3    H220156   0.850   1.335   6.078
 6739TIP3   OH220157   5.474   1.347   0.799
 6739TIP3    H120158   5.474   1.251   0.800
 6739TIP3    H220159   5.384   1.370   0.821
 6740TIP3   OH220160   8.395   0.226   0.760
 6740TIP3    H120161   8.466   0.234   0.696
 6740TIP3    H220162   8.393   0.133   0.782
 6741TIP3   OH220163   2.598   5.152   1.488
 6741TIP3    H120164   2.656   5.147   1.412
 6741TIP3    H220165   2.530   5.214   1.462
 6742TIP3   OH220166   1.540   1.817   5.686
 6742TIP3    H120167   1.531   1.911   5.703
 6742TIP3    H220168   1.629   1.807   5.653
 6743TIP3   OH220169   4.134   3.479   1.993
 6743TIP3    H120170   4.061   3.535   2.019
 6743TIP3    H220171   4.163   3.515   1.909
 6744TIP3   OH220172   6.225   2.282   1.303
 6744TIP3    H120173   6.313   2.243   1.299
 6744TIP3    H220174   6.235   2.357   1.362
 6745TIP3   OH220175   6.506   1.483   4.354
 6745TIP3    H120176   6.538   1.572   4.338
 6745TIP3    H220177   6.429   1.475   4.297
 6746TIP3   OH220178   2.268   6.237   6.722
 6746TIP3    H120179   2.226   6.319   6.694
 6746TIP3    H220180   2.317   6.262   6.801
 6747TIP3   OH220181   5.048   0.813   2.612
 6747TIP3    H120182   4.963   0.855   2.598
 6747TIP3    H220183   5.056   0.805   2.707
 6748TIP3   OH220184   6.972   3.107   1.907
 6748TIP3    H120185   7.032   3.181   1.894
 6748TIP3    H220186   6.930   3.125   1.991
 6749TIP3   OH220187   6.053   3.608   2.673
 6749TIP3    H120188   6.109   3.552   2.726
 6749TIP3    H220189   5.964   3.581   2.697
 6750TIP3   OH220190   3.962   0.482   2.898
 6750TIP3    H120191   4.041   0.428   2.904
 6750TIP3    H220192   3.978   0.540   2.824
 6751TIP3   OH220193   0.449   4.099   5.298
 6751TIP3    H120194   0.493   4.021   5.263
 6751TIP3    H220195   0.452   4.162   5.226
 6752TIP3   OH220196   6.826   3.469   0.060
 6752TIP3    H120197   6.777   3.544   0.026
 6752TIP3    H220198   6.758   3.411   0.096
 6753TIP3   OH220199   3.702   6.533   4.053
 6753TIP3    H120200   3.740   6.617   4.029
 6753TIP3    H220201   3.771   6.469   4.034
 6754TIP3   OH220202   4.752   6.313   4.059
 6754TIP3    H120203   4.746   6.378   4.129
 6754TIP3    H220204   4.662   6.287   4.042
 6755TIP3   OH220205   7.918   0.074   3.915
 6755TIP3    H120206   7.865   0.084   3.995
 6755TIP3    H220207   7.968  -0.006   3.930
 6756TIP3   OH220208   4.753   2.264   2.229
 6756TIP3    H120209   4.816   2.300   2.292
 6756TIP3    H220210   4.753   2.170   2.247
 6757TIP3   OH220211   2.097   0.378   5.309
 6757TIP3    H120212   2.148   0.307   5.349
 6757TIP3    H220213   2.113   0.369   5.215
 6758TIP3   OH220214   3.750   7.040   2.582
 6758TIP3    H120215   3.767   7.127   2.617
 6758TIP3    H220216   3.660   7.020   2.609
 6759TIP3   OH220217   6.919   5.610  -0.005
 6759TIP3    H120218   6.949   5.557   0.069
 6759TIP3    H220219   6.833   5.574  -0.027
 6760TIP3   OH220220   5.552   3.005   5.346
 6760TIP3    H120221   5.629   2.956   5.377
 6760TIP3    H220222   5.548   3.082   5.402
 6761TIP3   OH220223   3.107   4.688   4.948
 6761TIP3    H120224   3.030   4.700   5.004
 6761TIP3    H220225   3.113   4.594   4.934
 6762TIP3   OH220226   8.186   6.308   5.364
 6762TIP3    H120227   8.207   6.241   5.429
 6762TIP3    H220228   8.217   6.390   5.403
 6763TIP3   OH220229   7.911   6.821   4.821
 6763TIP3    H120230   7.954   6.753   4.769
 6763TIP3    H220231   7.822   6.789   4.834
 6764TIP3   OH220232   6.635   6.281   2.916
 6764TIP3    H120233   6.616   6.309   2.826
 6764TIP3    H220234   6.668   6.359   2.960
 6765TIP3   OH220235   2.119   3.921   1.719
 6765TIP3    H120236   2.114   3.890   1.629
 6765TIP3    H220237   2.145   3.845   1.770
 6766TIP3   OH220238   7.126   0.937   0.990
 6766TIP3    H120239   7.206   0.989   0.991
 6766TIP3    H220240   7.099   0.931   1.081
 6767TIP3   OH220241   0.948   3.877   0.673
 6767TIP3    H120242   0.875   3.830   0.634
 6767TIP3    H220243   0.919   3.968   0.676
 6768TIP3   OH220244   2.923   7.667   1.198
 6768TIP3    H120245   2.848   7.608   1.187
 6768TIP3    H220246   2.992   7.611   1.233
 6769TIP3   OH220247   4.925   4.332   4.194
 6769TIP3    H120248   4.917   4.428   4.192
 6769TIP3    H220249   5.020   4.317   4.195
 6770TIP3   OH220250   1.980   3.655   0.329
 6770TIP3    H120251   2.025   3.570   0.328
 6770TIP3    H220252   1.894   3.637   0.291
 6771TIP3   OH220253   1.106   2.759   6.497
 6771TIP3    H120254   1.157   2.702   6.554
 6771TIP3    H220255   1.015   2.745   6.523
 6772TIP3   OH220256   5.407   0.842   5.201
 6772TIP3    H120257   5.386   0.914   5.261
 6772TIP3    H220258   5.503   0.842   5.197
 6773TIP3   OH220259   2.934   3.649   3.764
 6773TIP3    H120260   2.958   3.708   3.836
 6773TIP3    H220261   2.865   3.593   3.802
 6774TIP3   OH220262   2.593   0.964   0.964
 6774TIP3    H120263   2.587   0.884   1.016
 6774TIP3    H220264   2.667   0.951   0.906
 6775TIP3   OH220265   1.703   4.511   3.149
 6775TIP3    H120266   1.722   4.575   3.081
 6775TIP3    H220267   1.667   4.563   3.221
 6776TIP3   OH220268   3.109   2.905   3.294
 6776TIP3    H120269   3.081   2.905   3.385
 6776TIP3    H220270   3.034   2.871   3.246
 6777TIP3   OH220271   0.482   4.658   0.828
 6777TIP3    H120272   0.551   4.701   0.878
 6777TIP3    H220273   0.437   4.602   0.891
 6778TIP3   OH220274   6.305   4.752   6.305
 6778TIP3    H120275   6.218   4.717   6.325
 6778TIP3    H220276   6.331   4.800   6.384
 6779TIP3   OH220277   7.270   4.987   3.948
 6779TIP3    H120278   7.274   5.079   3.973
 6779TIP3    H220279   7.205   4.948   4.006
 6780TIP3   OH220280   0.325   1.325   1.512
 6780TIP3    H120281   0.372   1.242   1.499
 6780TIP3    H220282   0.281   1.314   1.597
 6781TIP3   OH220283   4.668   6.047   4.457
 6781TIP3    H120284   4.640   6.104   4.385
 6781TIP3    H220285   4.762   6.059   4.463
 6782TIP3   OH220286   5.833   7.894   1.969
 6782TIP3    H120287   5.796   7.960   2.028
 6782TIP3    H220288   5.854   7.943   1.890
 6783TIP3   OH220289   2.415   5.129   5.042
 6783TIP3    H120290   2.411   5.188   5.117
 6783TIP3    H220291   2.494   5.077   5.057
 6784TIP3   OH220292   5.092   7.644   0.267
 6784TIP3    H120293   5.045   7.689   0.338
 6784TIP3    H220294   5.048   7.560   0.258
 6785TIP3   OH220295   0.373   0.315   1.785
 6785TIP3    H120296   0.327   0.395   1.762
 6785TIP3    H220297   0.461   0.327   1.750
 6786TIP3   OH220298   4.587   4.070   4.432
 6786TIP3    H120299   4.514   4.132   4.432
 6786TIP3    H220300   4.665   4.126   4.431
 6787TIP3   OH220301   7.729   1.262   1.416
 6787TIP3    H120302   7.749   1.195   1.352
 6787TIP3    H220303   7.741   1.345   1.369
 6788TIP3   OH220304   4.624   3.840   1.137
 6788TIP3    H120305   4.713   3.836   1.171
 6788TIP3    H220306   4.611   3.756   1.093
 6789TIP3   OH220307   1.782   1.364   0.143
 6789TIP3    H120308   1.799   1.375   0.237
 6789TIP3    H220309   1.867   1.343   0.105
 6790TIP3   OH220310   4.592   4.807   6.705
 6790TIP3    H120311   4.656   4.844   6.644
 6790TIP3    H220312   4.538   4.882   6.731
 6791TIP3   OH220313   6.480   4.835   3.362
 6791TIP3    H120314   6.538   4.787   3.303
 6791TIP3    H220315   6.536   4.860   3.436
 6792TIP3   OH220316   0.149   4.063   5.113
 6792TIP3    H120317   0.235   4.026   5.136
 6792TIP3    H220318   0.142   4.142   5.165
 6793TIP3   OH220319   4.817   2.508   5.911
 6793TIP3    H120320   4.911   2.492   5.896
 6793TIP3    H220321   4.774   2.475   5.832
 6794TIP3   OH220322   8.250   2.803   1.622
 6794TIP3    H120323   8.165   2.842   1.601
 6794TIP3    H220324   8.311   2.876   1.622
 6795TIP3   OH220325   0.873   5.124   1.546
 6795TIP3    H120326   0.909   5.195   1.599
 6795TIP3    H220327   0.783   5.116   1.576
 6796TIP3   OH220328   8.156   1.615   4.415
 6796TIP3    H120329   8.217   1.578   4.352
 6796TIP3    H220330   8.210   1.635   4.492
 6797TIP3   OH220331   5.400   6.969   5.124
 6797TIP3    H120332   5.406   7.051   5.076
 6797TIP3    H220333   5.459   6.909   5.078
 6798TIP3   OH220334   5.466   2.616   2.206
 6798TIP3    H120335   5.515   2.602   2.125
 6798TIP3    H220336   5.492   2.704   2.234
 6799TIP3   OH220337   2.501   0.021   0.623
 6799TIP3    H120338   2.485   0.083   0.695
 6799TIP3    H220339   2.525   0.076   0.549
 6800TIP3   OH220340   3.205   3.427   3.336
 6800TIP3    H120341   3.136   3.362   3.345
 6800TIP3    H220342   3.224   3.456   3.425
 6801TIP3   OH220343   4.245   1.505   0.811
 6801TIP3    H120344   4.150   1.494   0.818
 6801TIP3    H220345   4.280   1.454   0.883
 6802TIP3   OH220346   3.133   5.449   6.454
 6802TIP3    H120347   3.221   5.443   6.490
 6802TIP3    H220348   3.143   5.494   6.370
 6803TIP3   OH220349   7.307   6.931   1.710
 6803TIP3    H120350   7.242   7.002   1.714
 6803TIP3    H220351   7.261   6.854   1.744
 6804TIP3   OH220352   8.376   4.446   6.160
 6804TIP3    H120353   8.301   4.503   6.145
 6804TIP3    H220354   8.372   4.425   6.253
 6805TIP3   OH220355   6.155   3.768   6.015
 6805TIP3    H120356   6.103   3.795   6.091
 6805TIP3    H220357   6.097   3.780   5.940
 6806TIP3   OH220358   6.696   0.238   5.404
 6806TIP3    H120359   6.661   0.151   5.421
 6806TIP3    H220360   6.710   0.241   5.310
 6807TIP3   OH220361   1.677   4.351   5.721
 6807TIP3    H120362   1.769   4.325   5.722
 6807TIP3    H220363   1.679   4.445   5.738
 6808TIP3   OH220364   7.822   7.445   0.221
 6808TIP3    H120365   7.800   7.538   0.219
 6808TIP3    H220366   7.760   7.403   0.162
 6809TIP3   OH220367   3.309   0.870   3.405
 6809TIP3    H120368   3.256   0.936   3.361
 6809TIP3    H220369   3.348   0.916   3.479
 6810TIP3   OH220370   6.187   5.202   5.538
 6810TIP3    H120371   6.270   5.156   5.527
 6810TIP3    H220372   6.203   5.290   5.505
 6811TIP3   OH220373   5.552   2.280   3.763
 6811TIP3    H120374   5.478   2.222   3.781
 6811TIP3    H220375   5.556   2.286   3.667
 6812TIP3   OH220376   6.976   0.606   0.667
 6812TIP3    H120377   7.048   0.627   0.726
 6812TIP3    H220378   6.942   0.692   0.640
 6813TIP3   OH220379   5.363   7.135   4.579
 6813TIP3    H120380   5.358   7.138   4.483
 6813TIP3    H220381   5.429   7.200   4.602
 6814TIP3   OH220382   0.948   6.466   0.878
 6814TIP3    H120383   1.005   6.543   0.875
 6814TIP3    H220384   0.966   6.419   0.797
 6815TIP3   OH220385   4.977   6.149   4.113
 6815TIP3    H120386   4.920   6.072   4.104
 6815TIP3    H220387   4.926   6.221   4.076
 6816TIP3   OH220388   8.216   4.310   5.196
 6816TIP3    H120389   8.282   4.364   5.240
 6816TIP3    H220390   8.265   4.267   5.125
 6817TIP3   OH220391   8.333   7.753   6.027
 6817TIP3    H120392   8.247   7.739   6.067
 6817TIP3    H220393   8.358   7.841   6.054
 6818TIP3   OH220394   7.251   1.211   1.248
 6818TIP3    H120395   7.164   1.212   1.208
 6818TIP3    H220396   7.240   1.162   1.330
 6819TIP3   OH220397   5.032   0.583   3.474
 6819TIP3    H120398   4.978   0.638   3.530
 6819TIP3    H220399   5.122   0.599   3.505
 6820TIP3   OH220400   0.856   6.817   1.044
 6820TIP3    H120401   0.863   6.843   0.952
 6820TIP3    H220402   0.844   6.899   1.092
 6821TIP3   OH220403   1.988   1.475   5.624
 6821TIP3    H120404   1.948   1.554   5.587
 6821TIP3    H220405   2.030   1.505   5.705
 6822TIP3   OH220406   8.102   2.667   4.563
 6822TIP3    H120407   8.177   2.708   4.520
 6822TIP3    H220408   8.033   2.668   4.497
 6823TIP3   OH220409   0.518   7.767   5.694
 6823TIP3    H120410   0.494   7.860   5.694
 6823TIP3    H220411   0.525   7.744   5.787
 6824TIP3   OH220412   7.886   1.696   1.356
 6824TIP3    H120413   7.917   1.768   1.410
 6824TIP3    H220414   7.791   1.693   1.372
 6825TIP3   OH220415   1.927   0.833   1.212
 6825TIP3    H120416   1.964   0.912   1.173
 6825TIP3    H220417   1.832   0.841   1.197
 6826TIP3   OH220418   6.988   4.811   6.762
 6826TIP3    H120419   6.969   4.833   6.671
 6826TIP3    H220420   7.082   4.826   6.772
 6827TIP3   OH220421   6.495   0.670   0.887
 6827TIP3    H120422   6.573   0.616   0.874
 6827TIP3    H220423   6.424   0.619   0.848
 6828TIP3   OH220424   1.195   5.866   4.910
 6828TIP3    H120425   1.111   5.873   4.865
 6828TIP3    H220426   1.185   5.793   4.970
 6829TIP3   OH220427   0.881   6.760   1.865
 6829TIP3    H120428   0.807   6.801   1.821
 6829TIP3    H220429   0.934   6.723   1.794
 6830TIP3   OH220430   6.567   5.027   2.139
 6830TIP3    H120431   6.561   5.028   2.044
 6830TIP3    H220432   6.479   5.004   2.169
 6831TIP3   OH220433   7.122   6.556   6.492
 6831TIP3    H120434   7.203   6.582   6.448
 6831TIP3    H220435   7.107   6.624   6.557
 6832TIP3   OH220436   3.991   4.867   6.169
 6832TIP3    H120437   3.980   4.772   6.169
 6832TIP3    H220438   3.903   4.901   6.151
 6833TIP3   OH220439   5.969   1.028   6.117
 6833TIP3    H120440   5.897   1.042   6.179
 6833TIP3    H220441   6.048   1.055   6.164
 6834TIP3   OH220442   7.698   3.644   2.364
 6834TIP3    H120443   7.702   3.563   2.415
 6834TIP3    H220444   7.665   3.617   2.278
 6835TIP3   OH220445   2.615   7.284   5.168
 6835TIP3    H120446   2.699   7.286   5.122
 6835TIP3    H220447   2.635   7.242   5.252
 6836TIP3   OH220448   4.642   5.530   1.689
 6836TIP3    H120449   4.731   5.521   1.724
 6836TIP3    H220450   4.633   5.624   1.669
 6837TIP3   OH220451   2.433   2.241   4.265
 6837TIP3    H120452   2.402   2.278   4.183
 6837TIP3    H220453   2.402   2.303   4.332
 6838TIP3   OH220454   4.371   0.873   2.679
 6838TIP3    H120455   4.424   0.932   2.626
 6838TIP3    H220456   4.284   0.913   2.682
 6839TIP3   OH220457   4.757   0.643   4.951
 6839TIP3    H120458   4.763   0.718   5.010
 6839TIP3    H220459   4.665   0.639   4.926
 6840TIP3   OH220460   1.765   0.676   4.909
 6840TIP3    H120461   1.780   0.604   4.970
 6840TIP3    H220462   1.830   0.663   4.840
 6841TIP3   OH220463   8.062   5.038   1.744
 6841TIP3    H120464   7.975   5.026   1.784
 6841TIP3    H220465   8.100   4.951   1.742
 6842TIP3   OH220466   3.862   0.705   3.216
 6842TIP3    H120467   3.901   0.761   3.283
 6842TIP3    H220468   3.844   0.763   3.143
 6843TIP3   OH220469   2.390   7.621   4.518
 6843TIP3    H120470   2.384   7.527   4.534
 6843TIP3    H220471   2.354   7.632   4.430
 6844TIP3   OH220472   0.068   4.823   2.555
 6844TIP3    H120473   0.033   4.749   2.603
 6844TIP3    H220474   0.163   4.819   2.569
 6845TIP3   OH220475   1.840   1.485   2.126
 6845TIP3    H120476   1.875   1.502   2.039
 6845TIP3    H220477   1.886   1.406   2.155
 6846TIP3   OH220478   1.715   5.115   1.227
 6846TIP3    H120479   1.711   5.020   1.217
 6846TIP3    H220480   1.752   5.129   1.314
 6847TIP3   OH220481   8.293   1.629   2.474
 6847TIP3    H120482   8.358   1.676   2.526
 6847TIP3    H220483   8.316   1.537   2.485
 6848TIP3   OH220484   5.501   0.404   3.524
 6848TIP3    H120485   5.431   0.459   3.559
 6848TIP3    H220486   5.463   0.317   3.520
 6849TIP3   OH220487   3.091   5.269   4.935
 6849TIP3    H120488   3.096   5.364   4.928
 6849TIP3    H220489   3.113   5.250   5.026
 6850TIP3   OH220490   5.503   4.523   5.557
 6850TIP3    H120491   5.498   4.618   5.547
 6850TIP3    H220492   5.416   4.491   5.532
 6851TIP3   OH220493   6.208   1.243   0.466
 6851TIP3    H120494   6.201   1.276   0.376
 6851TIP3    H220495   6.295   1.268   0.494
 6852TIP3   OH220496   5.566   0.764   2.529
 6852TIP3    H120497   5.538   0.720   2.609
 6852TIP3    H220498   5.605   0.846   2.559
 6853TIP3   OH220499   7.400   0.450   4.475
 6853TIP3    H120500   7.386   0.410   4.561
 6853TIP3    H220501   7.312   0.469   4.444
 6854TIP3   OH220502   6.006   3.127   4.383
 6854TIP3    H120503   6.036   3.196   4.325
 6854TIP3    H220504   6.086   3.087   4.417
 6855TIP3   OH220505   1.928   1.524   1.876
 6855TIP3    H120506   1.853   1.563   1.832
 6855TIP3    H220507   1.981   1.487   1.805
 6856TIP3   OH220508   7.549   7.556   0.027
 6856TIP3    H120509   7.509   7.610   0.096
 6856TIP3    H220510   7.611   7.615  -0.016
 6857TIP3   OH220511   3.869   6.817   4.381
 6857TIP3    H120512   3.895   6.850   4.467
 6857TIP3    H220513   3.791   6.868   4.359
 6858TIP3   OH220514   5.277   0.166   0.863
 6858TIP3    H120515   5.331   0.235   0.824
 6858TIP3    H220516   5.270   0.190   0.956
 6859TIP3   OH220517   3.872   5.001   3.791
 6859TIP3    H120518   3.966   4.988   3.805
 6859TIP3    H220519   3.839   4.914   3.767
 6860TIP3   OH220520   4.962   3.366   0.073
 6860TIP3    H120521   4.877   3.323   0.081
 6860TIP3    H220522   4.965   3.397  -0.018
 6861TIP3   OH220523   1.026   7.675   2.095
 6861TIP3    H120524   0.962   7.614   2.132
 6861TIP3    H220525   1.028   7.653   2.001
 6862TIP3   OH220526   0.368   3.680   2.373
 6862TIP3    H120527   0.327   3.764   2.353
 6862TIP3    H220528   0.356   3.628   2.294
 6863TIP3   OH220529   5.601   4.193   1.417
 6863TIP3    H120530   5.609   4.195   1.512
 6863TIP3    H220531   5.685   4.159   1.386
 6864TIP3   OH220532   8.326   1.982   3.475
 6864TIP3    H120533   8.327   2.061   3.529
 6864TIP3    H220534   8.241   1.985   3.430
 6865TIP3   OH220535   7.297   4.474   3.752
 6865TIP3    H120536   7.298   4.514   3.665
 6865TIP3    H220537   7.204   4.467   3.774
 6866TIP3   OH220538   2.760   7.779   0.110
 6866TIP3    H120539   2.743   7.777   0.016
 6866TIP3    H220540   2.855   7.785   0.117
 6867TIP3   OH220541   6.620   2.801   1.054
 6867TIP3    H120542   6.644   2.736   1.120
 6867TIP3    H220543   6.524   2.804   1.059
 6868TIP3   OH220544   6.210   7.306   6.758
 6868TIP3    H120545   6.206   7.238   6.825
 6868TIP3    H220546   6.166   7.381   6.797
 6869TIP3   OH220547   4.504   4.403   5.553
 6869TIP3    H120548   4.495   4.308   5.547
 6869TIP3    H220549   4.450   4.428   5.628
 6870TIP3   OH220550   0.340   2.781   2.980
 6870TIP3    H120551   0.429   2.788   3.015
 6870TIP3    H220552   0.312   2.692   3.003
 6871TIP3   OH220553   7.838   3.234   4.138
 6871TIP3    H120554   7.926   3.246   4.101
 6871TIP3    H220555   7.850   3.249   4.232
 6872TIP3   OH220556   5.655   1.208   6.556
 6872TIP3    H120557   5.561   1.189   6.547
 6872TIP3    H220558   5.684   1.150   6.627
 6873TIP3   OH220559   4.004   3.260   0.450
 6873TIP3    H120560   4.085   3.261   0.399
 6873TIP3    H220561   3.935   3.244   0.387
 6874TIP3   OH220562   6.731   1.915   2.182
 6874TIP3    H120563   6.769   1.988   2.133
 6874TIP3    H220564   6.710   1.850   2.116
 6875TIP3   OH220565   0.608   3.717   4.344
 6875TIP3    H120566   0.613   3.811   4.325
 6875TIP3    H220567   0.691   3.697   4.388
 6876TIP3   OH220568   4.581   4.338   0.706
 6876TIP3    H120569   4.560   4.359   0.616
 6876TIP3    H220570   4.653   4.275   0.700
 6877TIP3   OH220571   5.937   3.713   5.427
 6877TIP3    H120572   5.869   3.676   5.370
 6877TIP3    H220573   5.910   3.803   5.442
 6878TIP3   OH220574   1.527   3.267   1.165
 6878TIP3    H120575   1.541   3.352   1.124
 6878TIP3    H220576   1.497   3.210   1.093
 6879TIP3   OH220577   6.770   6.523   3.960
 6879TIP3    H120578   6.681   6.552   3.940
 6879TIP3    H220579   6.826   6.593   3.927
 6880TIP3   OH220580   5.937   0.246   4.323
 6880TIP3    H120581   5.906   0.243   4.233
 6880TIP3    H220582   6.020   0.199   4.322
 6881TIP3   OH220583   3.234   4.864   3.093
 6881TIP3    H120584   3.316   4.876   3.140
 6881TIP3    H220585   3.254   4.799   3.026
 6882TIP3   OH220586   4.112   6.762   5.244
 6882TIP3    H120587   4.084   6.816   5.318
 6882TIP3    H220588   4.181   6.706   5.279
 6883TIP3   OH220589   6.998   5.148   2.140
 6883TIP3    H120590   6.905   5.129   2.125
 6883TIP3    H220591   7.003   5.163   2.235
 6884TIP3   OH220592   1.042   5.594   6.240
 6884TIP3    H120593   1.027   5.554   6.326
 6884TIP3    H220594   1.015   5.527   6.177
 6885TIP3   OH220595   6.310   0.476   3.449
 6885TIP3    H120596   6.403   0.468   3.428
 6885TIP3    H220597   6.309   0.506   3.540
 6886TIP3   OH220598   0.590   0.929   1.433
 6886TIP3    H120599   0.523   0.983   1.392
 6886TIP3    H220600   0.625   0.984   1.504
 6887TIP3   OH220601   8.136   3.063   0.874
 6887TIP3    H120602   8.132   2.995   0.941
 6887TIP3    H220603   8.061   3.046   0.817
 6888TIP3   OH220604   2.051   3.865   0.475
 6888TIP3    H120605   2.010   3.790   0.430
 6888TIP3    H220606   1.981   3.930   0.481
 6889TIP3   OH220607   2.733   3.005   5.894
 6889TIP3    H120608   2.791   3.075   5.864
 6889TIP3    H220609   2.645   3.038   5.875
 6890TIP3   OH220610   3.377   3.888   0.162
 6890TIP3    H120611   3.445   3.840   0.113
 6890TIP3    H220612   3.406   3.883   0.253
 6891TIP3   OH220613   1.058   5.715   2.025
 6891TIP3    H120614   1.113   5.793   2.030
 6891TIP3    H220615   0.973   5.747   1.994
 6892TIP3   OH220616   2.348   0.138   1.214
 6892TIP3    H120617   2.324   0.220   1.169
 6892TIP3    H220618   2.443   0.138   1.213
 6893TIP3   OH220619   0.439   7.557   1.431
 6893TIP3    H120620   0.443   7.468   1.399
 6893TIP3    H220621   0.482   7.554   1.517
 6894TIP3   OH220622   2.168   5.494   2.486
 6894TIP3    H120623   2.203   5.567   2.538
 6894TIP3    H220624   2.073   5.506   2.490
 6895TIP3   OH220625   6.557   4.881   5.231
 6895TIP3    H120626   6.473   4.848   5.264
 6895TIP3    H220627   6.622   4.847   5.291
 6896TIP3   OH220628   4.743   3.430   3.789
 6896TIP3    H120629   4.679   3.497   3.815
 6896TIP3    H220630   4.700   3.347   3.810
 6897TIP3   OH220631   6.862   2.045   6.235
 6897TIP3    H120632   6.768   2.033   6.218
 6897TIP3    H220633   6.883   2.126   6.189
 6898TIP3   OH220634   3.768   2.756   3.363
 6898TIP3    H120635   3.858   2.730   3.341
 6898TIP3    H220636   3.739   2.690   3.426
 6899TIP3   OH220637   8.419   3.040   5.382
 6899TIP3    H120638   8.381   3.124   5.357
 6899TIP3    H220639   8.416   3.040   5.477
 6900TIP3   OH220640   7.095   0.341   3.337
 6900TIP3    H120641   7.168   0.391   3.301
 6900TIP3    H220642   7.130   0.252   3.349
 6901TIP3   OH220643   0.348   4.474   2.829
 6901TIP3    H120644   0.284   4.404   2.837
 6901TIP3    H220645   0.350   4.494   2.735
 6902TIP3   OH220646   6.272   4.716   0.393
 6902TIP3    H120647   6.318   4.772   0.455
 6902TIP3    H220648   6.219   4.658   0.447
 6903TIP3   OH220649   6.159   1.957   1.954
 6903TIP3    H120650   6.213   1.921   2.025
 6903TIP3    H220651   6.069   1.947   1.985
 6904TIP3   OH220652   4.308   1.320   2.679
 6904TIP3    H120653   4.266   1.291   2.760
 6904TIP3    H220654   4.239   1.317   2.613
 6905TIP3   OH220655   5.860   1.532   0.644
 6905TIP3    H120656   5.926   1.514   0.711
 6905TIP3    H220657   5.787   1.572   0.693
 6906TIP3   OH220658   7.133   0.678   0.861
 6906TIP3    H120659   7.150   0.771   0.882
 6906TIP3    H220660   7.220   0.642   0.845
 6907TIP3   OH220661   2.843   4.050   0.560
 6907TIP3    H120662   2.782   3.996   0.510
 6907TIP3    H220663   2.811   4.140   0.548
 6908TIP3   OH220664   7.645   1.797   0.519
 6908TIP3    H120665   7.659   1.704   0.501
 6908TIP3    H220666   7.716   1.820   0.579
 6909TIP3   OH220667   3.005   6.051   1.840
 6909TIP3    H120668   3.032   5.962   1.863
 6909TIP3    H220669   2.949   6.078   1.913
 6910TIP3   OH220670   7.129   2.977   1.684
 6910TIP3    H120671   7.142   3.039   1.612
 6910TIP3    H220672   7.214   2.935   1.695
 6911TIP3   OH220673   1.410   7.849   2.293
 6911TIP3    H120674   1.431   7.830   2.201
 6911TIP3    H220675   1.466   7.923   2.315
 6912TIP3   OH220676   6.526   6.671   1.874
 6912TIP3    H120677   6.473   6.621   1.813
 6912TIP3    H220678   6.491   6.760   1.869
 6913TIP3   OH220679   2.712   6.438   4.377
 6913TIP3    H120680   2.783   6.496   4.405
 6913TIP3    H220681   2.699   6.458   4.285
 6914TIP3   OH220682   3.789   0.170   5.480
 6914TIP3    H120683   3.851   0.098   5.489
 6914TIP3    H220684   3.703   0.129   5.487
 6915TIP3   OH220685   7.213   0.979   3.036
 6915TIP3    H120686   7.160   1.051   3.004
 6915TIP3    H220687   7.162   0.941   3.108
 6916TIP3   OH220688   7.061   5.474   3.667
 6916TIP3    H120689   7.006   5.544   3.704
 6916TIP3    H220690   7.100   5.432   3.744
 6917TIP3   OH220691   8.203   1.886   5.817
 6917TIP3    H120692   8.111   1.884   5.788
 6917TIP3    H220693   8.254   1.883   5.736
 6918TIP3   OH220694   3.817   3.240   3.163
 6918TIP3    H120695   3.758   3.313   3.143
 6918TIP3    H220696   3.793   3.173   3.099
 6919TIP3   OH220697   2.357   2.410   6.478
 6919TIP3    H120698   2.267   2.393   6.452
 6919TIP3    H220699   2.373   2.350   6.550
 6920TIP3   OH220700   3.968   0.299   1.090
 6920TIP3    H120701   3.974   0.370   1.026
 6920TIP3    H220702   4.047   0.306   1.142
 6921TIP3   OH220703   4.855   5.568   1.201
 6921TIP3    H120704   4.844   5.525   1.286
 6921TIP3    H220705   4.768   5.567   1.162
 6922TIP3   OH220706   6.005   0.287   1.821
 6922TIP3    H120707   5.923   0.336   1.834
 6922TIP3    H220708   5.978   0.195   1.819
 6923TIP3   OH220709   1.161   7.859   2.570
 6923TIP3    H120710   1.154   7.916   2.493
 6923TIP3    H220711   1.248   7.876   2.605
 6924TIP3   OH220712   7.473   1.345   1.158
 6924TIP3    H120713   7.465   1.393   1.241
 6924TIP3    H220714   7.386   1.307   1.145
 6925TIP3   OH220715   1.361   1.254   0.967
 6925TIP3    H120716   1.409   1.172   0.953
 6925TIP3    H220717   1.408   1.297   1.038
 6926TIP3   OH220718   3.531   6.431   4.242
 6926TIP3    H120719   3.568   6.342   4.240
 6926TIP3    H220720   3.552   6.468   4.157
 6927TIP3   OH220721   0.549   5.158   6.332
 6927TIP3    H120722   0.617   5.184   6.271
 6927TIP3    H220723   0.505   5.240   6.355
 6928TIP3   OH220724   5.583   3.952   1.924
 6928TIP3    H120725   5.584   3.877   1.865
 6928TIP3    H220726   5.549   3.918   2.006
 6929TIP3   OH220727   8.304   0.913   5.122
 6929TIP3    H120728   8.310   0.852   5.195
 6929TIP3    H220729   8.222   0.890   5.079
 6930TIP3   OH220730   4.795   7.825   0.220
 6930TIP3    H120731   4.813   7.790   0.133
 6930TIP3    H220732   4.879   7.819   0.267
 6931TIP3   OH220733  -0.015   0.898   6.347
 6931TIP3    H120734   0.046   0.843   6.397
 6931TIP3    H220735   0.017   0.987   6.360
 6932TIP3   OH220736   7.571   1.439   5.030
 6932TIP3    H120737   7.505   1.460   4.964
 6932TIP3    H220738   7.542   1.356   5.068
 6933TIP3   OH220739   8.124   5.870   0.038
 6933TIP3    H120740   8.170   5.946   0.073
 6933TIP3    H220741   8.172   5.794   0.072
 6934TIP3   OH220742   3.212   6.883   2.071
 6934TIP3    H120743   3.262   6.927   2.001
 6934TIP3    H220744   3.252   6.796   2.077
 6935TIP3   OH220745   0.495   0.761   1.665
 6935TIP3    H120746   0.558   0.805   1.607
 6935TIP3    H220747   0.546   0.738   1.742
 6936TIP3   OH220748   8.269   1.253   3.505
 6936TIP3    H120749   8.268   1.209   3.590
 6936TIP3    H220750   8.276   1.346   3.527
 6937TIP3   OH220751   7.185   1.952   1.303
 6937TIP3    H120752   7.184   1.888   1.232
 6937TIP3    H220753   7.277   1.956   1.330
 6938TIP3   OH220754   7.314   7.021   3.553
 6938TIP3    H120755   7.385   6.983   3.604
 6938TIP3    H220756   7.239   7.022   3.613
 6939TIP3   OH220757   2.343   3.119   4.478
 6939TIP3    H120758   2.387   3.056   4.536
 6939TIP3    H220759   2.411   3.149   4.418
 6940TIP3   OH220760   1.028   5.524   3.751
 6940TIP3    H120761   1.075   5.485   3.824
 6940TIP3    H220762   0.963   5.582   3.792
 6941TIP3   OH220763   3.516   1.682   4.010
 6941TIP3    H120764   3.421   1.669   4.016
 6941TIP3    H220765   3.537   1.663   3.919
 6942TIP3   OH220766   4.185   5.196   5.823
 6942TIP3    H120767   4.268   5.151   5.807
 6942TIP3    H220768   4.119   5.128   5.811
 6943TIP3   OH220769  -0.065   5.750   0.778
 6943TIP3    H120770  -0.062   5.845   0.770
 6943TIP3    H220771  -0.023   5.718   0.699
 6944TIP3   OH220772   7.145   4.718   2.207
 6944TIP3    H120773   7.194   4.646   2.167
 6944TIP3    H220774   7.080   4.742   2.141
 6945TIP3   OH220775   5.735   6.076   0.550
 6945TIP3    H120776   5.828   6.084   0.529
 6945TIP3    H220777   5.690   6.115   0.475
 6946TIP3   OH220778   3.931   6.207   0.122
 6946TIP3    H120779   3.962   6.284   0.169
 6946TIP3    H220780   3.909   6.239   0.035
 6947TIP3   OH220781   7.719   1.617   2.413
 6947TIP3    H120782   7.700   1.555   2.343
 6947TIP3    H220783   7.811   1.600   2.436
 6948TIP3   OH220784   0.783   5.014   1.247
 6948TIP3    H120785   0.872   4.992   1.218
 6948TIP3    H220786   0.759   5.090   1.194
 6949TIP3   OH220787   3.606   5.440   6.172
 6949TIP3    H120788   3.666   5.457   6.245
 6949TIP3    H220789   3.602   5.523   6.124
 6950TIP3   OH220790   5.389   3.322   5.040
 6950TIP3    H120791   5.353   3.255   4.981
 6950TIP3    H220792   5.482   3.324   5.020
 6951TIP3   OH220793   7.436   1.687   6.270
 6951TIP3    H120794   7.357   1.681   6.216
 6951TIP3    H220795   7.471   1.598   6.272
 6952TIP3   OH220796   6.607   3.274   3.417
 6952TIP3    H120797   6.585   3.296   3.508
 6952TIP3    H220798   6.615   3.178   3.417
 6953TIP3   OH220799   2.945   2.425   4.271
 6953TIP3    H120800   2.852   2.411   4.291
 6953TIP3    H220801   2.963   2.515   4.299
 6954TIP3   OH220802   0.274  -0.027   4.464
 6954TIP3    H120803   0.274   0.056   4.512
 6954TIP3    H220804   0.258  -0.002   4.373
 6955TIP3   OH220805   3.514   7.788   0.906
 6955TIP3    H120806   3.570   7.847   0.956
 6955TIP3    H220807   3.575   7.734   0.856
 6956TIP3   OH220808   7.477   7.669   0.729
 6956TIP3    H120809   7.554   7.683   0.674
 6956TIP3    H220810   7.403   7.678   0.669
 6957TIP3   OH220811   2.063   4.730   0.820
 6957TIP3    H120812   1.988   4.744   0.762
 6957TIP3    H220813   2.090   4.640   0.804
 6958TIP3   OH220814   4.368   6.281   1.426
 6958TIP3    H120815   4.277   6.283   1.397
 6958TIP3    H220816   4.368   6.326   1.510
 6959TIP3   OH220817   6.733   1.615   0.598
 6959TIP3    H120818   6.781   1.602   0.680
 6959TIP3    H220819   6.776   1.556   0.535
 6960TIP3   OH220820   6.156   4.317   3.860
 6960TIP3    H120821   6.215   4.367   3.802
 6960TIP3    H220822   6.069   4.351   3.840
 6961TIP3   OH220823   4.471   1.499   6.013
 6961TIP3    H120824   4.377   1.517   6.021
 6961TIP3    H220825   4.484   1.418   6.061
 6962TIP3   OH220826   3.864   6.486   6.680
 6962TIP3    H120827   3.894   6.565   6.635
 6962TIP3    H220828   3.845   6.424   6.610
 6963TIP3   OH220829   5.988   3.816   5.796
 6963TIP3    H120830   5.931   3.877   5.843
 6963TIP3    H220831   5.940   3.796   5.716
 6964TIP3   OH220832   7.793   5.109   4.050
 6964TIP3    H120833   7.796   5.080   3.959
 6964TIP3    H220834   7.876   5.081   4.088
 6965TIP3   OH220835   1.597   5.438   6.131
 6965TIP3    H120836   1.511   5.403   6.153
 6965TIP3    H220837   1.580   5.531   6.112
 6966TIP3   OH220838   0.359   3.415   1.795
 6966TIP3    H120839   0.362   3.336   1.849
 6966TIP3    H220840   0.382   3.384   1.707
 6967TIP3   OH220841   1.674   5.236   4.078
 6967TIP3    H120842   1.718   5.302   4.131
 6967TIP3    H220843   1.726   5.230   3.999
 6968TIP3   OH220844   5.316   6.432   2.672
 6968TIP3    H120845   5.247   6.413   2.736
 6968TIP3    H220846   5.305   6.365   2.604
 6969TIP3   OH220847   2.897   7.764   0.428
 6969TIP3    H120848   2.960   7.743   0.498
 6969TIP3    H220849   2.814   7.728   0.459
 6970TIP3   OH220850   3.612   2.366   5.837
 6970TIP3    H120851   3.693   2.385   5.885
 6970TIP3    H220852   3.612   2.271   5.828
 6971TIP3   OH220853   3.591   6.678   6.444
 6971TIP3    H120854   3.613   6.588   6.468
 6971TIP3    H220855   3.646   6.732   6.500
 6972TIP3   OH220856   4.572   5.933   6.081
 6972TIP3    H120857   4.609   5.889   6.157
 6972TIP3    H220858   4.575   5.868   6.011
 6973TIP3   OH220859   8.150   5.549   1.606
 6973TIP3    H120860   8.165   5.595   1.524
 6973TIP3    H220861   8.088   5.480   1.584
 6974TIP3   OH220862   0.602   7.015   6.502
 6974TIP3    H120863   0.579   6.943   6.560
 6974TIP3    H220864   0.552   6.998   6.422
 6975TIP3   OH220865   3.855   5.663   6.403
 6975TIP3    H120866   3.878   5.580   6.363
 6975TIP3    H220867   3.769   5.648   6.443
 6976TIP3   OH220868   8.053   7.801   1.048
 6976TIP3    H120869   8.067   7.876   0.990
 6976TIP3    H220870   8.009   7.837   1.124
 6977TIP3   OH220871   1.591   0.614   3.393
 6977TIP3    H120872   1.676   0.647   3.363
 6977TIP3    H220873   1.536   0.615   3.314
 6978TIP3   OH220874   1.593   0.216   4.314
 6978TIP3    H120875   1.526   0.231   4.380
 6978TIP3    H220876   1.594   0.296   4.261
 6979TIP3   OH220877   5.267   7.615   4.823
 6979TIP3    H120878   5.349   7.663   4.807
 6979TIP3    H220879   5.199   7.682   4.815
 6980TIP3   OH220880   5.402   5.424   2.389
 6980TIP3    H120881   5.324   5.387   2.348
 6980TIP3    H220882   5.370   5.494   2.445
 6981TIP3   OH220883   6.052   7.720   3.545
 6981TIP3    H120884   6.128   7.661   3.545
 6981TIP3    H220885   6.047   7.753   3.456
 6982TIP3   OH220886   4.986   0.967   1.445
 6982TIP3    H120887   4.931   0.898   1.410
 6982TIP3    H220888   4.948   1.048   1.412
 6983TIP3   OH220889   5.055   3.138   2.506
 6983TIP3    H120890   5.053   3.226   2.469
 6983TIP3    H220891   4.965   3.107   2.498
 6984TIP3   OH220892   8.214   1.320   3.844
 6984TIP3    H120893   8.269   1.398   3.830
 6984TIP3    H220894   8.248   1.281   3.924
 6985TIP3   OH220895   2.755   5.587   5.182
 6985TIP3    H120896   2.834   5.539   5.155
 6985TIP3    H220897   2.785   5.677   5.193
 6986TIP3   OH220898   2.507   2.383   1.286
 6986TIP3    H120899   2.429   2.374   1.231
 6986TIP3    H220900   2.487   2.458   1.343
 6987TIP3   OH220901   1.973   6.569   0.845
 6987TIP3    H120902   1.989   6.625   0.769
 6987TIP3    H220903   2.059   6.558   0.885
 6988TIP3   OH220904   3.099   2.068   1.384
 6988TIP3    H120905   3.190   2.083   1.358
 6988TIP3    H220906   3.049   2.135   1.338
 6989TIP3   OH220907   1.804   1.064   6.790
 6989TIP3    H120908   1.878   1.040   6.735
 6989TIP3    H220909   1.840   1.125   6.854
 6990TIP3   OH220910   5.357   1.055   5.352
 6990TIP3    H120911   5.391   1.145   5.344
 6990TIP3    H220912   5.403   1.018   5.427
 6991TIP3   OH220913   3.241   4.793   2.694
 6991TIP3    H120914   3.159   4.838   2.711
 6991TIP3    H220915   3.217   4.717   2.642
 6992TIP3   OH220916   0.442   6.670   3.087
 6992TIP3    H120917   0.442   6.586   3.041
 6992TIP3    H220918   0.349   6.686   3.105
 6993TIP3   OH220919   6.292   5.853   1.817
 6993TIP3    H120920   6.235   5.895   1.881
 6993TIP3    H220921   6.361   5.916   1.801
 6994TIP3   OH220922   8.210   2.799   1.019
 6994TIP3    H120923   8.209   2.711   0.981
 6994TIP3    H220924   8.287   2.841   0.981
 6995TIP3   OH220925   7.086   1.860   2.639
 6995TIP3    H120926   7.153   1.929   2.640
 6995TIP3    H220927   7.044   1.869   2.553
 6996TIP3   OH220928   6.334   2.895   3.476
 6996TIP3    H120929   6.325   2.982   3.516
 6996TIP3    H220930   6.309   2.834   3.546
 6997TIP3   OH220931   0.666   1.967   0.965
 6997TIP3    H120932   0.589   1.918   0.938
 6997TIP3    H220933   0.634   2.057   0.978
 6998TIP3   OH220934   1.087   3.304   3.542
 6998TIP3    H120935   1.145   3.365   3.589
 6998TIP3    H220936   1.091   3.333   3.451
 6999TIP3   OH220937   0.681   2.989   0.343
 6999TIP3    H120938   0.586   3.002   0.349
 6999TIP3    H220939   0.692   2.926   0.272
 7000TIP3   OH220940   5.549   6.044   5.011
 7000TIP3    H120941   5.559   5.951   4.988
 7000TIP3    H220942   5.624   6.063   5.068
 7001TIP3   OH220943   2.136   7.726   0.866
 7001TIP3    H120944   2.162   7.738   0.958
 7001TIP3    H220945   2.186   7.792   0.818
 7002TIP3   OH220946   3.493   0.607   5.226
 7002TIP3    H120947   3.544   0.623   5.306
 7002TIP3    H220948   3.407   0.578   5.257
 7003TIP3   OH220949   7.741   0.075   6.436
 7003TIP3    H120950   7.737   0.072   6.532
 7003TIP3    H220951   7.700   0.158   6.413
 7004TIP3   OH220952   3.790   7.398   1.996
 7004TIP3    H120953   3.695   7.394   1.985
 7004TIP3    H220954   3.820   7.460   1.930
 7005TIP3   OH220955   3.297   6.662   2.827
 7005TIP3    H120956   3.271   6.590   2.770
 7005TIP3    H220957   3.215   6.707   2.848
 7006TIP3   OH220958   5.477   2.200   6.074
 7006TIP3    H120959   5.415   2.270   6.055
 7006TIP3    H220960   5.562   2.245   6.084
 7007TIP3   OH220961   6.102   2.345   4.755
 7007TIP3    H120962   6.124   2.424   4.705
 7007TIP3    H220963   6.097   2.374   4.846
 7008TIP3   OH220964   0.115   3.657   4.857
 7008TIP3    H120965   0.169   3.722   4.813
 7008TIP3    H220966   0.071   3.610   4.786
 7009TIP3   OH220967   6.957   6.393   2.464
 7009TIP3    H120968   6.944   6.359   2.552
 7009TIP3    H220969   6.946   6.488   2.473
 7010TIP3   OH220970   3.647   0.245   5.736
 7010TIP3    H120971   3.612   0.230   5.648
 7010TIP3    H220972   3.736   0.276   5.721
 7011TIP3   OH220973   7.760   5.766   6.508
 7011TIP3    H120974   7.743   5.766   6.603
 7011TIP3    H220975   7.679   5.732   6.470
 7012TIP3   OH220976   2.786   5.332   0.661
 7012TIP3    H120977   2.806   5.275   0.735
 7012TIP3    H220978   2.855   5.313   0.597
 7013TIP3   OH220979   1.491   1.414   3.550
 7013TIP3    H120980   1.534   1.464   3.619
 7013TIP3    H220981   1.485   1.476   3.476
 7014TIP3   OH220982   7.342   1.668   4.492
 7014TIP3    H120983   7.390   1.591   4.522
 7014TIP3    H220984   7.252   1.638   4.484
 7015TIP3   OH220985   7.657   2.233   5.391
 7015TIP3    H120986   7.564   2.219   5.372
 7015TIP3    H220987   7.689   2.286   5.318
 7016TIP3   OH220988   1.536   6.385   0.658
 7016TIP3    H120989   1.457   6.388   0.604
 7016TIP3    H220990   1.601   6.342   0.602
 7017TIP3   OH220991   5.399   4.718   1.061
 7017TIP3    H120992   5.465   4.662   1.102
 7017TIP3    H220993   5.319   4.666   1.063
 7018TIP3   OH220994   1.456   5.415   1.769
 7018TIP3    H120995   1.374   5.367   1.782
 7018TIP3    H220996   1.475   5.453   1.855
 7019TIP3   OH220997   4.905   7.034   3.814
 7019TIP3    H120998   4.913   7.001   3.725
 7019TIP3    H220999   4.858   7.117   3.805
 7020TIP3   OH221000   3.294   3.015   4.484
 7020TIP3    H121001   3.371   3.070   4.469
 7020TIP3    H221002   3.292   3.001   4.578
 7021TIP3   OH221003   1.863   1.226   1.564
 7021TIP3    H121004   1.861   1.188   1.477
 7021TIP3    H221005   1.788   1.286   1.566
 7022TIP3   OH221006   2.842   2.470   5.267
 7022TIP3    H121007   2.897   2.414   5.213
 7022TIP3    H221008   2.780   2.409   5.308
 7023TIP3   OH221009   1.064   5.663   5.964
 7023TIP3    H121010   1.059   5.641   6.057
 7023TIP3    H221011   1.014   5.594   5.921
 7024TIP3   OH221012   3.520   3.304   2.276
 7024TIP3    H121013   3.495   3.213   2.287
 7024TIP3    H221014   3.448   3.344   2.228
 7025TIP3   OH221015   0.543   5.535   6.704
 7025TIP3    H121016   0.547   5.456   6.759
 7025TIP3    H221017   0.602   5.516   6.631
 7026TIP3   OH221018   1.863   3.668   1.370
 7026TIP3    H121019   1.868   3.762   1.352
 7026TIP3    H221020   1.774   3.644   1.347
 7027TIP3   OH221021   5.717   6.735   5.794
 7027TIP3    H121022   5.724   6.826   5.766
 7027TIP3    H221023   5.738   6.736   5.887
 7028TIP3   OH221024   5.427   4.388   1.338
 7028TIP3    H121025   5.458   4.299   1.356
 7028TIP3    H221026   5.369   4.378   1.263
 7029TIP3   OH221027   0.415   0.038   5.345
 7029TIP3    H121028   0.417   0.041   5.249
 7029TIP3    H221029   0.360  -0.038   5.366
 7030TIP3   OH221030   3.720   5.789   3.583
 7030TIP3    H121031   3.687   5.869   3.542
 7030TIP3    H221032   3.641   5.744   3.614
 7031TIP3   OH221033   6.703   1.526   1.226
 7031TIP3    H121034   6.732   1.447   1.180
 7031TIP3    H221035   6.676   1.585   1.157
 7032TIP3   OH221036   2.398   1.143   4.189
 7032TIP3    H121037   2.401   1.205   4.262
 7032TIP3    H221038   2.318   1.166   4.142
 7033TIP3   OH221039   0.314   3.834   6.556
 7033TIP3    H121040   0.286   3.867   6.470
 7033TIP3    H221041   0.237   3.789   6.590
 7034TIP3   OH221042   8.270   5.004   2.692
 7034TIP3    H121043   8.176   4.991   2.681
 7034TIP3    H221044   8.310   4.935   2.639
 7035TIP3   OH221045   6.957   0.295   1.425
 7035TIP3    H121046   6.966   0.209   1.382
 7035TIP3    H221047   6.942   0.356   1.352
 7036TIP3   OH221048   6.476   7.110   6.291
 7036TIP3    H121049   6.421   7.058   6.350
 7036TIP3    H221050   6.417   7.137   6.221
 7037TIP3   OH221051   8.400   2.957   6.723
 7037TIP3    H121052   8.377   3.019   6.792
 7037TIP3    H221053   8.328   2.964   6.660
 7038TIP3   OH221054   6.800   1.190   6.016
 7038TIP3    H121055   6.764   1.126   5.954
 7038TIP3    H221056   6.822   1.138   6.093
 7039TIP3   OH221057   8.221   7.903   3.993
 7039TIP3    H121058   8.310   7.889   3.960
 7039TIP3    H221059   8.227   7.886   4.087
 7040TIP3   OH221060   1.220   2.541   6.288
 7040TIP3    H121061   1.301   2.527   6.336
 7040TIP3    H221062   1.187   2.625   6.321
 7041TIP3   OH221063   1.683   2.581   1.390
 7041TIP3    H121064   1.756   2.535   1.431
 7041TIP3    H221065   1.704   2.674   1.399
 7042TIP3   OH221066   1.534   1.877   6.084
 7042TIP3    H121067   1.459   1.899   6.029
 7042TIP3    H221068   1.585   1.958   6.088
 7043TIP3   OH221069   0.958   2.449   0.538
 7043TIP3    H121070   0.996   2.423   0.622
 7043TIP3    H221071   1.033   2.467   0.482
 7044TIP3   OH221072   0.096   3.967   0.367
 7044TIP3    H121073   0.009   4.004   0.381
 7044TIP3    H221074   0.082   3.872   0.364
 7045TIP3   OH221075   0.976   0.177   2.941
 7045TIP3    H121076   0.922   0.207   3.015
 7045TIP3    H221077   0.996   0.257   2.893
 7046TIP3   OH221078   7.680   7.402   3.053
 7046TIP3    H121079   7.587   7.406   3.073
 7046TIP3    H221080   7.710   7.322   3.096
 7047TIP3   OH221081   2.922   0.097   4.736
 7047TIP3    H121082   3.010   0.090   4.699
 7047TIP3    H221083   2.913   0.017   4.788
 7048TIP3   OH221084   5.530   2.892   5.849
 7048TIP3    H121085   5.472   2.876   5.775
 7048TIP3    H221086   5.481   2.952   5.905
 7049TIP3   OH221087   7.651   2.599   1.339
 7049TIP3    H121088   7.727   2.649   1.307
 7049TIP3    H221089   7.677   2.570   1.426
 7050TIP3   OH221090   1.507   6.135   4.347
 7050TIP3    H121091   1.523   6.229   4.356
 7050TIP3    H221092   1.581   6.104   4.294
 7051TIP3   OH221093   2.631   4.364   2.736
 7051TIP3    H121094   2.719   4.353   2.772
 7051TIP3    H221095   2.593   4.276   2.737
 7052TIP3   OH221096   2.082   1.360   3.692
 7052TIP3    H121097   2.150   1.421   3.666
 7052TIP3    H221098   2.000   1.405   3.673
 7053TIP3   OH221099   6.347   6.884   4.473
 7053TIP3    H121100   6.313   6.795   4.463
 7053TIP3    H221101   6.434   6.881   4.433
 7054TIP3   OH221102   1.689   2.759   0.545
 7054TIP3    H121103   1.646   2.709   0.475
 7054TIP3    H221104   1.719   2.692   0.606
 7055TIP3   OH221105   6.860   3.321   6.611
 7055TIP3    H121106   6.884   3.236   6.648
 7055TIP3    H221107   6.858   3.380   6.686
 7056TIP3   OH221108   2.791   6.262   4.851
 7056TIP3    H121109   2.826   6.207   4.921
 7056TIP3    H221110   2.754   6.338   4.897
 7057TIP3   OH221111   7.687   1.238   0.588
 7057TIP3    H121112   7.662   1.191   0.509
 7057TIP3    H221113   7.780   1.218   0.600
 7058TIP3   OH221114   1.554   5.416   5.537
 7058TIP3    H121115   1.607   5.435   5.614
 7058TIP3    H221116   1.501   5.495   5.524
 7059TIP3   OH221117   3.693   2.557   3.531
 7059TIP3    H121118   3.764   2.530   3.589
 7059TIP3    H221119   3.629   2.486   3.537
 7060TIP3   OH221120   2.396   1.845   6.215
 7060TIP3    H121121   2.439   1.874   6.295
 7060TIP3    H221122   2.433   1.759   6.197
 7061TIP3   OH221123   3.800   4.269   4.232
 7061TIP3    H121124   3.711   4.239   4.215
 7061TIP3    H221125   3.852   4.188   4.238
 7062TIP3   OH221126   3.684   3.481   6.438
 7062TIP3    H121127   3.627   3.538   6.489
 7062TIP3    H221128   3.625   3.414   6.403
 7063TIP3   OH221129   1.755   2.605   0.764
 7063TIP3    H121130   1.778   2.593   0.856
 7063TIP3    H221131   1.787   2.525   0.721
 7064TIP3   OH221132   3.572   2.939   4.222
 7064TIP3    H121133   3.618   2.880   4.281
 7064TIP3    H221134   3.639   3.001   4.194
 7065TIP3   OH221135   2.983   3.509   4.413
 7065TIP3    H121136   3.052   3.575   4.416
 7065TIP3    H221137   3.026   3.431   4.378
 7066TIP3   OH221138   2.292   0.805   3.778
 7066TIP3    H121139   2.360   0.746   3.745
 7066TIP3    H221140   2.300   0.884   3.723
 7067TIP3   OH221141   1.330   3.083   3.313
 7067TIP3    H121142   1.340   3.151   3.248
 7067TIP3    H221143   1.406   3.092   3.370
 7068TIP3   OH221144   3.756   1.051   1.721
 7068TIP3    H121145   3.739   0.960   1.747
 7068TIP3    H221146   3.845   1.068   1.752
 7069TIP3   OH221147   2.088   2.027   3.444
 7069TIP3    H121148   2.068   2.071   3.526
 7069TIP3    H221149   2.183   2.022   3.442
 7070TIP3   OH221150   1.560   4.461   0.593
 7070TIP3    H121151   1.568   4.526   0.522
 7070TIP3    H221152   1.639   4.407   0.585
 7071TIP3   OH221153   7.864   0.301   0.815
 7071TIP3    H121154   7.858   0.225   0.873
 7071TIP3    H221155   7.842   0.375   0.870
 7072TIP3   OH221156   8.245   3.316   6.181
 7072TIP3    H121157   8.194   3.394   6.159
 7072TIP3    H221158   8.183   3.244   6.175
 7073TIP3   OH221159   0.339   6.741   4.217
 7073TIP3    H121160   0.316   6.667   4.273
 7073TIP3    H221161   0.285   6.730   4.138
 7074TIP3   OH221162   3.942   0.400   0.707
 7074TIP3    H121163   3.977   0.380   0.620
 7074TIP3    H221164   3.990   0.478   0.734
 7075TIP3   OH221165   2.781   3.706   4.404
 7075TIP3    H121166   2.769   3.694   4.310
 7075TIP3    H221167   2.855   3.650   4.427
 7076TIP3   OH221168   6.710   7.633   0.509
 7076TIP3    H121169   6.645   7.588   0.456
 7076TIP3    H221170   6.785   7.573   0.510
 7077TIP3   OH221171   7.323   4.393   0.900
 7077TIP3    H121172   7.330   4.317   0.957
 7077TIP3    H221173   7.402   4.444   0.917
 7078TIP3   OH221174   5.189   2.340   3.489
 7078TIP3    H121175   5.236   2.258   3.473
 7078TIP3    H221176   5.202   2.391   3.409
 7079TIP3   OH221177   7.079   1.043   2.632
 7079TIP3    H121178   7.048   0.957   2.658
 7079TIP3    H221179   7.156   1.058   2.685
 7080TIP3   OH221180   2.310   1.593   6.677
 7080TIP3    H121181   2.347   1.607   6.765
 7080TIP3    H221182   2.321   1.499   6.662
 7081TIP3   OH221183   4.776   7.005   2.798
 7081TIP3    H121184   4.713   7.075   2.785
 7081TIP3    H221185   4.729   6.925   2.774
 7082TIP3   OH221186   0.838   0.788   1.361
 7082TIP3    H121187   0.760   0.810   1.411
 7082TIP3    H221188   0.831   0.694   1.346
 7083TIP3   OH221189   5.635   6.139   4.442
 7083TIP3    H121190   5.709   6.107   4.494
 7083TIP3    H221191   5.664   6.130   4.351
 7084TIP3   OH221192   7.975   0.571   1.240
 7084TIP3    H121193   7.955   0.633   1.310
 7084TIP3    H221194   8.067   0.547   1.256
 7085TIP3   OH221195   5.639   2.820   1.346
 7085TIP3    H121196   5.644   2.776   1.432
 7085TIP3    H221197   5.553   2.795   1.312
 7086TIP3   OH221198   0.730   6.204   6.242
 7086TIP3    H121199   0.704   6.113   6.260
 7086TIP3    H221200   0.754   6.204   6.150
 7087TIP3   OH221201   6.462   5.614   4.098
 7087TIP3    H121202   6.501   5.700   4.110
 7087TIP3    H221203   6.379   5.618   4.145
 7088TIP3   OH221204   0.917   7.358   2.649
 7088TIP3    H121205   0.980   7.306   2.699
 7088TIP3    H221206   0.961   7.442   2.634
 7089TIP3   OH221207   6.858   3.976   0.936
 7089TIP3    H121208   6.824   3.901   0.887
 7089TIP3    H221209   6.919   4.018   0.876
 7090TIP3   OH221210   5.993   2.661   1.752
 7090TIP3    H121211   5.918   2.621   1.708
 7090TIP3    H221212   5.963   2.748   1.777
 7091TIP3   OH221213   3.624   5.019   0.221
 7091TIP3    H121214   3.625   5.076   0.298
 7091TIP3    H221215   3.672   5.067   0.154
 7092TIP3   OH221216   3.799   3.134   1.769
 7092TIP3    H121217   3.893   3.116   1.764
 7092TIP3    H221218   3.793   3.223   1.802
 7093TIP3   OH221219   2.786   4.391   5.012
 7093TIP3    H121220   2.772   4.458   4.945
 7093TIP3    H221221   2.763   4.434   5.094
 7094TIP3   OH221222   7.413   7.256   1.728
 7094TIP3    H121223   7.335   7.307   1.706
 7094TIP3    H221224   7.415   7.255   1.824
 7095TIP3   OH221225   7.428   1.139   0.052
 7095TIP3    H121226   7.497   1.088   0.008
 7095TIP3    H221227   7.360   1.074   0.072
 7096TIP3   OH221228   4.924   0.270   4.518
 7096TIP3    H121229   4.831   0.266   4.495
 7096TIP3    H221230   4.962   0.330   4.453
 7097TIP3   OH221231   3.198   6.171   4.585
 7097TIP3    H121232   3.282   6.127   4.596
 7097TIP3    H221233   3.160   6.173   4.673
 7098TIP3   OH221234   0.050   6.632   6.059
 7098TIP3    H121235   0.080   6.722   6.061
 7098TIP3    H221236   0.079   6.595   6.142
 7099TIP3   OH221237   5.036   0.021   2.696
 7099TIP3    H121238   5.122   0.060   2.712
 7099TIP3    H221239   4.974   0.084   2.733
 7100TIP3   OH221240   2.069   3.704   6.830
 7100TIP3    H121241   2.093   3.612   6.817
 7100TIP3    H221242   2.020   3.727   6.751
 7101TIP3   OH221243   4.040   5.956   1.655
 7101TIP3    H121244   4.084   5.899   1.592
 7101TIP3    H221245   3.947   5.948   1.634
 7102TIP3   OH221246   7.183   4.760   1.353
 7102TIP3    H121247   7.124   4.834   1.340
 7102TIP3    H221248   7.258   4.796   1.399
 7103TIP3   OH221249   0.479   5.884   1.796
 7103TIP3    H121250   0.435   5.938   1.863
 7103TIP3    H221251   0.418   5.883   1.723
 7104TIP3   OH221252   7.717   5.488   6.636
 7104TIP3    H121253   7.786   5.534   6.683
 7104TIP3    H221254   7.691   5.417   6.695
 7105TIP3   OH221255   0.338   4.878   5.670
 7105TIP3    H121256   0.312   4.961   5.710
 7105TIP3    H221257   0.433   4.875   5.681
 7106TIP3   OH221258   1.415   3.025   4.906
 7106TIP3    H121259   1.476   2.981   4.966
 7106TIP3    H221260   1.328   2.996   4.936
 7107TIP3   OH221261   7.372   1.796   3.394
 7107TIP3    H121262   7.439   1.844   3.443
 7107TIP3    H221263   7.366   1.712   3.439
 7108TIP3   OH221264   2.904   2.647   3.875
 7108TIP3    H121265   2.931   2.568   3.828
 7108TIP3    H221266   2.980   2.671   3.927
 7109TIP3   OH221267   6.795   6.240   3.874
 7109TIP3    H121268   6.867   6.217   3.932
 7109TIP3    H221269   6.784   6.335   3.884
 7110TIP3   OH221270   4.114   4.538   3.222
 7110TIP3    H121271   4.144   4.456   3.181
 7110TIP3    H221272   4.168   4.606   3.183
 7111TIP3   OH221273   1.893   3.383   0.596
 7111TIP3    H121274   1.884   3.479   0.596
 7111TIP3    H221275   1.812   3.351   0.558
 7112TIP3   OH221276   2.373   6.998   0.715
 7112TIP3    H121277   2.283   7.028   0.724
 7112TIP3    H221278   2.414   7.021   0.798
 7113TIP3   OH221279   3.466   0.596   2.093
 7113TIP3    H121280   3.399   0.538   2.131
 7113TIP3    H221281   3.539   0.591   2.154
 7114TIP3   OH221282   5.235   7.191   2.153
 7114TIP3    H121283   5.298   7.217   2.086
 7114TIP3    H221284   5.150   7.198   2.110
 7115TIP3   OH221285   1.864   7.484   2.574
 7115TIP3    H121286   1.954   7.453   2.561
 7115TIP3    H221287   1.852   7.551   2.507
 7116TIP3   OH221288  -0.018   4.685   2.040
 7116TIP3    H121289  -0.005   4.724   2.126
 7116TIP3    H221290   0.051   4.724   1.985
 7117TIP3   OH221291   0.979   5.855   3.978
 7117TIP3    H121292   0.982   5.945   4.012
 7117TIP3    H221293   0.886   5.835   3.972
 7118TIP3   OH221294   2.737   1.921   5.909
 7118TIP3    H121295   2.660   1.871   5.882
 7118TIP3    H221296   2.810   1.876   5.865
 7119TIP3   OH221297   3.371   2.385   1.462
 7119TIP3    H121298   3.458   2.348   1.455
 7119TIP3    H221299   3.374   2.438   1.542
 7120TIP3   OH221300   0.307   5.563   1.588
 7120TIP3    H121301   0.289   5.652   1.618
 7120TIP3    H221302   0.243   5.548   1.518
 7121TIP3   OH221303   7.176   6.248   6.179
 7121TIP3    H121304   7.219   6.332   6.194
 7121TIP3    H221305   7.085   6.270   6.164
 7122TIP3   OH221306   3.576   6.393   4.596
 7122TIP3    H121307   3.522   6.462   4.557
 7122TIP3    H221308   3.564   6.318   4.538
 7123TIP3   OH221309   4.281   3.551   0.669
 7123TIP3    H121310   4.377   3.546   0.667
 7123TIP3    H221311   4.256   3.547   0.577
 7124TIP3   OH221312   0.183   0.908   4.702
 7124TIP3    H121313   0.254   0.861   4.744
 7124TIP3    H221314   0.122   0.928   4.773
 7125TIP3   OH221315   1.604   2.363   1.233
 7125TIP3    H121316   1.588   2.394   1.144
 7125TIP3    H221317   1.612   2.442   1.285
 7126TIP3   OH221318   0.926  -0.009   0.451
 7126TIP3    H121319   0.833  -0.008   0.473
 7126TIP3    H221320   0.963  -0.077   0.507
 7127TIP3   OH221321   6.389   1.896   6.821
 7127TIP3    H121322   6.480   1.923   6.808
 7127TIP3    H221323   6.354   1.959   6.883
 7128TIP3   OH221324   2.269   4.459   2.899
 7128TIP3    H121325   2.186   4.414   2.916
 7128TIP3    H221326   2.296   4.427   2.813
 7129TIP3   OH221327   1.062   3.620   1.471
 7129TIP3    H121328   0.983   3.588   1.516
 7129TIP3    H221329   1.028   3.671   1.397
 7130TIP3   OH221330   0.600   0.926   3.788
 7130TIP3    H121331   0.560   0.985   3.724
 7130TIP3    H221332   0.678   0.973   3.819
 7131TIP3   OH221333   1.085   1.936   4.432
 7131TIP3    H121334   1.016   1.943   4.498
 7131TIP3    H221335   1.044   1.888   4.360
 7132TIP3   OH221336   1.900   7.174   4.325
 7132TIP3    H121337   1.979   7.181   4.270
 7132TIP3    H221338   1.911   7.242   4.391
 7133TIP3   OH221339   7.696   3.971   0.889
 7133TIP3    H121340   7.652   3.992   0.971
 7133TIP3    H221341   7.789   3.968   0.912
 7134TIP3   OH221342   2.636   3.667   0.496
 7134TIP3    H121343   2.658   3.601   0.561
 7134TIP3    H221344   2.604   3.618   0.421
 7135TIP3   OH221345   1.863   2.545   5.807
 7135TIP3    H121346   1.833   2.471   5.754
 7135TIP3    H221347   1.794   2.558   5.871
 7136TIP3   OH221348   2.667   4.923   5.589
 7136TIP3    H121349   2.715   4.840   5.589
 7136TIP3    H221350   2.575   4.898   5.588
 7137TIP3   OH221351   0.622   3.774   1.331
 7137TIP3    H121352   0.669   3.856   1.320
 7137TIP3    H221353   0.535   3.800   1.362
 7138TIP3   OH221354   4.835   6.654   2.201
 7138TIP3    H121355   4.844   6.743   2.236
 7138TIP3    H221356   4.823   6.599   2.278
 7139TIP3   OH221357   4.885   2.902   3.282
 7139TIP3    H121358   4.867   2.945   3.198
 7139TIP3    H221359   4.845   2.815   3.273
 7140TIP3   OH221360   0.136   2.112   3.337
 7140TIP3    H121361   0.204   2.087   3.401
 7140TIP3    H221362   0.059   2.063   3.364
 7141TIP3   OH221363   0.841   1.122   0.858
 7141TIP3    H121364   0.878   1.062   0.793
 7141TIP3    H221365   0.913   1.140   0.918
 7142TIP3   OH221366   1.800   1.260   3.560
 7142TIP3    H121367   1.726   1.205   3.586
 7142TIP3    H221368   1.872   1.198   3.544
 7143TIP3   OH221369   7.504   4.607   2.330
 7143TIP3    H121370   7.493   4.526   2.280
 7143TIP3    H221371   7.466   4.588   2.416
 7144TIP3   OH221372   3.431   7.389   6.376
 7144TIP3    H121373   3.344   7.404   6.336
 7144TIP3    H221374   3.458   7.304   6.342
 7145TIP3   OH221375   1.295   6.510   6.760
 7145TIP3    H121376   1.342   6.469   6.832
 7145TIP3    H221377   1.331   6.599   6.756
 7146TIP3   OH221378   4.249   7.729   1.970
 7146TIP3    H121379   4.227   7.784   1.895
 7146TIP3    H221380   4.171   7.731   2.026
 7147TIP3   OH221381   8.377   2.387   2.859
 7147TIP3    H121382   8.351   2.330   2.932
 7147TIP3    H221383   8.305   2.381   2.797
 7148TIP3   OH221384   7.186   6.887   4.080
 7148TIP3    H121385   7.131   6.885   4.158
 7148TIP3    H221386   7.138   6.942   4.019
 7149TIP3   OH221387   4.938   6.765   6.360
 7149TIP3    H121388   5.006   6.792   6.298
 7149TIP3    H221389   4.878   6.711   6.307
 7150TIP3   OH221390   7.550   0.518   3.752
 7150TIP3    H121391   7.464   0.541   3.787
 7150TIP3    H221392   7.610   0.579   3.795
 7151TIP3   OH221393   5.992   3.951   1.817
 7151TIP3    H121394   6.043   4.017   1.770
 7151TIP3    H221395   5.927   4.002   1.866
 7152TIP3   OH221396   0.700   5.143   4.613
 7152TIP3    H121397   0.665   5.190   4.688
 7152TIP3    H221398   0.748   5.069   4.651
 7153TIP3   OH221399   3.553   0.221   4.363
 7153TIP3    H121400   3.514   0.184   4.284
 7153TIP3    H221401   3.495   0.294   4.387
 7154TIP3   OH221402   0.992   1.574   4.243
 7154TIP3    H121403   0.962   1.658   4.210
 7154TIP3    H221404   0.961   1.510   4.179
 7155TIP3   OH221405   3.540   2.134   4.787
 7155TIP3    H121406   3.493   2.216   4.771
 7155TIP3    H221407   3.522   2.081   4.709
 7156TIP3   OH221408   6.188   5.157   4.073
 7156TIP3    H121409   6.231   5.240   4.055
 7156TIP3    H221410   6.257   5.101   4.108
 7157TIP3   OH221411   1.177   4.819   3.008
 7157TIP3    H121412   1.180   4.876   2.931
 7157TIP3    H221413   1.225   4.867   3.075
 7158TIP3   OH221414   4.661   3.584   2.699
 7158TIP3    H121415   4.673   3.516   2.633
 7158TIP3    H221416   4.566   3.587   2.714
 7159TIP3   OH221417   7.865   5.642   3.214
 7159TIP3    H121418   7.876   5.635   3.308
 7159TIP3    H221419   7.945   5.605   3.177
 7160TIP3   OH221420   1.105   3.494   5.549
 7160TIP3    H121421   1.021   3.533   5.523
 7160TIP3    H221422   1.138   3.454   5.469
 7161TIP3   OH221423   1.105   4.743   1.661
 7161TIP3    H121424   1.135   4.687   1.589
 7161TIP3    H221425   1.184   4.760   1.713
 7162TIP3   OH221426   4.791   1.517   6.183
 7162TIP3    H121427   4.873   1.563   6.200
 7162TIP3    H221428   4.724   1.585   6.189
 7163TIP3   OH221429   4.107   6.003   3.626
 7163TIP3    H121430   4.201   6.017   3.615
 7163TIP3    H221431   4.067   6.070   3.571
 7164TIP3   OH221432   6.370   1.715   6.349
 7164TIP3    H121433   6.404   1.625   6.347
 7164TIP3    H221434   6.343   1.729   6.440
 7165TIP3   OH221435   1.981   7.659   1.866
 7165TIP3    H121436   2.056   7.647   1.808
 7165TIP3    H221437   2.015   7.711   1.939
 7166TIP3   OH221438   4.971   6.135   6.113
 7166TIP3    H121439   4.895   6.181   6.078
 7166TIP3    H221440   4.952   6.043   6.098
 7167TIP3   OH221441   4.814   5.732   4.402
 7167TIP3    H121442   4.727   5.745   4.441
 7167TIP3    H221443   4.874   5.774   4.463
 7168TIP3   OH221444   6.748   5.476   0.837
 7168TIP3    H121445   6.781   5.402   0.787
 7168TIP3    H221446   6.770   5.553   0.784
 7169TIP3   OH221447   3.260   6.913   1.116
 7169TIP3    H121448   3.316   6.982   1.152
 7169TIP3    H221449   3.184   6.910   1.174
 7170TIP3   OH221450   0.844   7.578   2.886
 7170TIP3    H121451   0.804   7.600   2.802
 7170TIP3    H221452   0.938   7.577   2.868
 7171TIP3   OH221453   2.438   4.373   3.099
 7171TIP3    H121454   2.384   4.393   3.176
 7171TIP3    H221455   2.383   4.398   3.025
 7172TIP3   OH221456   3.316   5.596   6.040
 7172TIP3    H121457   3.411   5.591   6.051
 7172TIP3    H221458   3.304   5.652   5.963
 7173TIP3   OH221459   3.639   4.917   3.451
 7173TIP3    H121460   3.549   4.894   3.431
 7173TIP3    H221461   3.664   4.857   3.522
 7174TIP3   OH221462   5.759   6.151   5.755
 7174TIP3    H121463   5.696   6.217   5.784
 7174TIP3    H221464   5.842   6.198   5.749
 7175TIP3   OH221465   7.865   2.794   5.874
 7175TIP3    H121466   7.903   2.712   5.841
 7175TIP3    H221467   7.776   2.771   5.897
 7176TIP3   OH221468   3.143   5.344   0.263
 7176TIP3    H121469   3.152   5.437   0.241
 7176TIP3    H221470   3.117   5.303   0.180
 7177TIP3   OH221471   2.494   6.374   2.673
 7177TIP3    H121472   2.474   6.352   2.582
 7177TIP3    H221473   2.567   6.317   2.697
 7178TIP3   OH221474   0.699   6.938   2.694
 7178TIP3    H121475   0.758   6.987   2.751
 7178TIP3    H221476   0.655   6.876   2.752
 7179TIP3   OH221477   8.308   7.815   2.254
 7179TIP3    H121478   8.359   7.734   2.255
 7179TIP3    H221479   8.371   7.883   2.280
 7180TIP3   OH221480   5.756   6.603   6.632
 7180TIP3    H121481   5.836   6.572   6.675
 7180TIP3    H221482   5.685   6.575   6.690
 7181TIP3   OH221483   6.326   4.894   4.723
 7181TIP3    H121484   6.302   4.915   4.633
 7181TIP3    H221485   6.265   4.824   4.748
 7182TIP3   OH221486   2.955   1.552   6.500
 7182TIP3    H121487   2.892   1.619   6.474
 7182TIP3    H221488   2.924   1.522   6.586
 7183TIP3   OH221489   5.849   4.945   5.814
 7183TIP3    H121490   5.772   4.924   5.867
 7183TIP3    H221491   5.813   4.982   5.733
 7184TIP3   OH221492   5.949   2.436   4.166
 7184TIP3    H121493   5.894   2.396   4.098
 7184TIP3    H221494   5.992   2.362   4.208
 7185TIP3   OH221495   0.281   0.988   2.026
 7185TIP3    H121496   0.200   0.979   2.076
 7185TIP3    H221497   0.303   1.081   2.032
 7186TIP3   OH221498   7.783   2.789   1.199
 7186TIP3    H121499   7.795   2.876   1.239
 7186TIP3    H221500   7.696   2.791   1.161
 7187TIP3   OH221501   1.025   3.754   5.056
 7187TIP3    H121502   1.050   3.843   5.081
 7187TIP3    H221503   0.934   3.762   5.028
 7188TIP3   OH221504   7.138   1.599   3.379
 7188TIP3    H121505   7.172   1.635   3.297
 7188TIP3    H221506   7.139   1.504   3.366
 7189TIP3   OH221507   6.736   5.381   2.571
 7189TIP3    H121508   6.755   5.469   2.538
 7189TIP3    H221509   6.816   5.354   2.616
 7190TIP3   OH221510   2.203   2.025   0.115
 7190TIP3    H121511   2.215   1.978   0.197
 7190TIP3    H221512   2.143   2.096   0.137
 7191TIP3   OH221513   5.799   7.946   4.157
 7191TIP3    H121514   5.768   7.856   4.148
 7191TIP3    H221515   5.852   7.961   4.078
 7192TIP3   OH221516   7.445   7.392   3.294
 7192TIP3    H121517   7.426   7.298   3.289
 7192TIP3    H221518   7.536   7.396   3.322
 7193TIP3   OH221519   6.772   2.478   3.981
 7193TIP3    H121520   6.847   2.504   3.928
 7193TIP3    H221521   6.797   2.394   4.019
 7194TIP3   OH221522   6.868   6.142   6.371
 7194TIP3    H121523   6.943   6.196   6.397
 7194TIP3    H221524   6.874   6.064   6.426
 7195TIP3   OH221525   0.809   1.243   1.820
 7195TIP3    H121526   0.843   1.274   1.736
 7195TIP3    H221527   0.885   1.200   1.861
 7196TIP3   OH221528   0.213   3.316   0.264
 7196TIP3    H121529   0.196   3.309   0.170
 7196TIP3    H221530   0.256   3.401   0.274
 7197TIP3   OH221531   4.913   2.389   0.781
 7197TIP3    H121532   4.923   2.480   0.809
 7197TIP3    H221533   4.889   2.342   0.861
 7198TIP3   OH221534   7.987   2.568   3.558
 7198TIP3    H121535   8.065   2.623   3.571
 7198TIP3    H221536   7.944   2.567   3.644
 7199TIP3   OH221537   0.813   1.100   5.921
 7199TIP3    H121538   0.777   1.135   6.003
 7199TIP3    H221539   0.907   1.094   5.937
 7200TIP3   OH221540   7.032   4.557   1.211
 7200TIP3    H121541   7.102   4.495   1.233
 7200TIP3    H221542   7.076   4.643   1.213
 7201TIP3   OH221543   1.876   6.126   2.625
 7201TIP3    H121544   1.961   6.119   2.668
 7201TIP3    H221545   1.828   6.048   2.655
 7202TIP3   OH221546   6.632   3.093   1.139
 7202TIP3    H121547   6.662   3.033   1.070
 7202TIP3    H221548   6.585   3.162   1.092
 7203TIP3   OH221549   4.316   3.605   1.050
 7203TIP3    H121550   4.395   3.605   0.995
 7203TIP3    H221551   4.349   3.602   1.140
 7204TIP3   OH221552   1.769   5.438   0.515
 7204TIP3    H121553   1.716   5.502   0.467
 7204TIP3    H221554   1.809   5.489   0.586
 7205TIP3   OH221555   7.067   2.473   0.124
 7205TIP3    H121556   7.076   2.378   0.133
 7205TIP3    H221557   7.154   2.503   0.100
 7206TIP3   OH221558   5.730   4.994   3.254
 7206TIP3    H121559   5.693   4.922   3.202
 7206TIP3    H221560   5.739   5.066   3.191
 7207TIP3   OH221561   1.036   0.579   4.157
 7207TIP3    H121562   0.949   0.614   4.177
 7207TIP3    H221563   1.020   0.505   4.099
 7208TIP3   OH221564   2.135   2.183   3.687
 7208TIP3    H121565   2.094   2.196   3.773
 7208TIP3    H221566   2.103   2.256   3.634
 7209TIP3   OH221567   2.908   3.481   5.835
 7209TIP3    H121568   2.994   3.439   5.839
 7209TIP3    H221569   2.892   3.494   5.742
 7210TIP3   OH221570   1.291   1.057   0.407
 7210TIP3    H121571   1.290   1.125   0.340
 7210TIP3    H221572   1.379   1.062   0.445
 7211TIP3   OH221573   6.910   6.995   2.541
 7211TIP3    H121574   6.854   7.057   2.587
 7211TIP3    H221575   6.915   7.029   2.452
 7212TIP3   OH221576   1.041   1.105   1.927
 7212TIP3    H121577   1.099   1.079   1.855
 7212TIP3    H221578   1.069   1.193   1.949
 7213TIP3   OH221579   1.250   6.412   0.860
 7213TIP3    H121580   1.206   6.352   0.799
 7213TIP3    H221581   1.342   6.410   0.833
 7214TIP3   OH221582   0.254   4.896   3.057
 7214TIP3    H121583   0.318   4.947   3.007
 7214TIP3    H221584   0.234   4.822   3.001
 7215TIP3   OH221585   2.425   1.990   2.418
 7215TIP3    H121586   2.448   2.075   2.379
 7215TIP3    H221587   2.352   2.011   2.477
 7216TIP3   OH221588   0.883   2.730   5.097
 7216TIP3    H121589   0.845   2.790   5.033
 7216TIP3    H221590   0.810   2.674   5.124
 7217TIP3   OH221591   5.042   3.573   3.468
 7217TIP3    H121592   4.981   3.526   3.524
 7217TIP3    H221593   5.023   3.665   3.483
 7218TIP3   OH221594   2.065   5.190   5.304
 7218TIP3    H121595   2.047   5.113   5.357
 7218TIP3    H221596   2.095   5.155   5.220
 7219TIP3   OH221597   3.319   5.941   2.119
 7219TIP3    H121598   3.237   5.904   2.088
 7219TIP3    H221599   3.350   5.996   2.047
 7220TIP3   OH221600   2.992   1.850   2.209
 7220TIP3    H121601   2.961   1.779   2.152
 7220TIP3    H221602   3.061   1.809   2.261
 7221TIP3   OH221603   2.918   1.144   3.601
 7221TIP3    H121604   2.860   1.072   3.626
 7221TIP3    H221605   3.006   1.106   3.603
 7222TIP3   OH221606   2.885   7.897   3.036
 7222TIP3    H121607   2.847   7.829   3.092
 7222TIP3    H221608   2.875   7.863   2.947
 7223TIP3   OH221609   2.506   4.638   1.104
 7223TIP3    H121610   2.510   4.562   1.046
 7223TIP3    H221611   2.446   4.611   1.174
 7224TIP3   OH221612   1.717   7.900   4.621
 7224TIP3    H121613   1.700   7.934   4.709
 7224TIP3    H221614   1.646   7.934   4.567
 7225TIP3   OH221615   7.533   4.879   4.729
 7225TIP3    H121616   7.501   4.844   4.646
 7225TIP3    H221617   7.460   4.929   4.763
 7226TIP3   OH221618   5.868   6.116   2.021
 7226TIP3    H121619   5.820   6.034   2.031
 7226TIP3    H221620   5.802   6.184   2.030
 7227TIP3   OH221621   6.199   5.923   6.595
 7227TIP3    H121622   6.185   5.891   6.506
 7227TIP3    H221623   6.112   5.924   6.634
 7228TIP3   OH221624   3.941   1.462   4.077
 7228TIP3    H121625   4.006   1.479   4.145
 7228TIP3    H221626   3.877   1.533   4.086
 7229TIP3   OH221627   6.026   7.810   3.299
 7229TIP3    H121628   6.070   7.850   3.224
 7229TIP3    H221629   5.934   7.805   3.273
 7230TIP3   OH221630   0.088   5.621   3.081
 7230TIP3    H121631   0.142   5.561   3.030
 7230TIP3    H221632   0.075   5.576   3.165
 7231TIP3   OH221633   1.799   6.414   5.052
 7231TIP3    H121634   1.884   6.433   5.011
 7231TIP3    H221635   1.739   6.477   5.012
 7232TIP3   OH221636   1.513   1.538   4.447
 7232TIP3    H121637   1.473   1.527   4.533
 7232TIP3    H221638   1.444   1.573   4.392
 7233TIP3   OH221639   2.724   7.680   1.943
 7233TIP3    H121640   2.785   7.652   2.012
 7233TIP3    H221641   2.637   7.667   1.982
 7234TIP3   OH221642   3.418   6.528   5.853
 7234TIP3    H121643   3.491   6.467   5.842
 7234TIP3    H221644   3.430   6.592   5.782
 7235TIP3   OH221645   5.926   4.106   3.768
 7235TIP3    H121646   5.913   4.200   3.783
 7235TIP3    H221647   6.001   4.084   3.823
 7236TIP3   OH221648   0.904   4.930   1.738
 7236TIP3    H121649   0.886   4.989   1.665
 7236TIP3    H221650   0.970   4.870   1.705
 7237TIP3   OH221651   4.919   0.363   2.964
 7237TIP3    H121652   4.849   0.299   2.968
 7237TIP3    H221653   4.966   0.353   3.047
 7238TIP3   OH221654   6.088   4.823   1.918
 7238TIP3    H121655   6.082   4.899   1.976
 7238TIP3    H221656   6.007   4.774   1.933
 7239TIP3   OH221657   2.593   5.101   2.854
 7239TIP3    H121658   2.579   5.011   2.882
 7239TIP3    H221659   2.593   5.153   2.935
 7240TIP3   OH221660   0.919   5.814   6.305
 7240TIP3    H121661   0.834   5.771   6.300
 7240TIP3    H221662   0.982   5.744   6.289
 7241TIP3   OH221663   8.273   2.183   0.207
 7241TIP3    H121664   8.272   2.104   0.261
 7241TIP3    H221665   8.211   2.163   0.136
 7242TIP3   OH221666   3.597   6.410   6.518
 7242TIP3    H121667   3.670   6.349   6.530
 7242TIP3    H221668   3.519   6.355   6.522
 7243TIP3   OH221669   0.631   3.836   0.041
 7243TIP3    H121670   0.556   3.851   0.098
 7243TIP3    H221671   0.681   3.917   0.044
 7244TIP3   OH221672   0.123   0.663   5.760
 7244TIP3    H121673   0.092   0.753   5.753
 7244TIP3    H221674   0.188   0.655   5.690
 7245TIP3   OH221675   1.236   0.011   2.183
 7245TIP3    H121676   1.317   0.005   2.132
 7245TIP3    H221677   1.214   0.104   2.183
 7246TIP3   OH221678   6.310   0.620   3.704
 7246TIP3    H121679   6.340   0.556   3.768
 7246TIP3    H221680   6.220   0.639   3.730
 7247TIP3   OH221681   4.901   1.191   1.311
 7247TIP3    H121682   4.826   1.206   1.368
 7247TIP3    H221683   4.976   1.224   1.360
 7248TIP3   OH221684   4.976   2.551   5.183
 7248TIP3    H121685   5.039   2.540   5.112
 7248TIP3    H221686   4.942   2.640   5.170
 7249TIP3   OH221687   6.742   3.464   6.355
 7249TIP3    H121688   6.723   3.370   6.356
 7249TIP3    H221689   6.694   3.497   6.278
 7250TIP3   OH221690   4.548   2.294   2.051
 7250TIP3    H121691   4.625   2.280   2.107
 7250TIP3    H221692   4.502   2.210   2.053
 7251TIP3   OH221693   7.061   4.824   0.027
 7251TIP3    H121694   7.113   4.822   0.107
 7251TIP3    H221695   7.105   4.887  -0.029
 7252TIP3   OH221696   3.956   6.167   3.454
 7252TIP3    H121697   4.000   6.211   3.380
 7252TIP3    H221698   3.888   6.114   3.414
 7253TIP3   OH221699   4.203   2.060   3.542
 7253TIP3    H121700   4.281   2.098   3.584
 7253TIP3    H221701   4.229   1.970   3.522
 7254TIP3   OH221702   6.607   2.890   2.655
 7254TIP3    H121703   6.590   2.805   2.616
 7254TIP3    H221704   6.520   2.922   2.682
 7255TIP3   OH221705   1.544   4.621   0.375
 7255TIP3    H121706   1.468   4.670   0.343
 7255TIP3    H221707   1.598   4.608   0.298
 7256TIP3   OH221708   8.396   0.306   1.783
 7256TIP3    H121709   8.447   0.225   1.782
 7256TIP3    H221710   8.355   0.310   1.697
 7257TIP3   OH221711   5.325   0.975   2.728
 7257TIP3    H121712   5.377   0.902   2.763
 7257TIP3    H221713   5.371   0.999   2.647
 7258TIP3   OH221714   0.407   1.452   1.942
 7258TIP3    H121715   0.498   1.443   1.912
 7258TIP3    H221716   0.355   1.415   1.871
 7259TIP3   OH221717   0.965   1.764   1.031
 7259TIP3    H121718   0.990   1.813   0.953
 7259TIP3    H221719   0.877   1.731   1.011
 7260TIP3   OH221720   7.051   1.240   0.634
 7260TIP3    H121721   7.013   1.248   0.721
 7260TIP3    H221722   7.003   1.304   0.581
 7261TIP3   OH221723   0.321   7.445   3.288
 7261TIP3    H121724   0.306   7.536   3.313
 7261TIP3    H221725   0.234   7.410   3.271
 7262TIP3   OH221726   0.880   6.111   1.980
 7262TIP3    H121727   0.954   6.164   1.950
 7262TIP3    H221728   0.919   6.029   2.008
 7263TIP3   OH221729   0.185   0.492   0.386
 7263TIP3    H121730   0.187   0.557   0.457
 7263TIP3    H221731   0.255   0.519   0.327
 7264TIP3   OH221732   6.928   0.893   0.504
 7264TIP3    H121733   6.989   0.945   0.452
 7264TIP3    H221734   6.857   0.872   0.443
 7265TIP3   OH221735   4.966   4.984   1.904
 7265TIP3    H121736   4.971   4.927   1.827
 7265TIP3    H221737   4.882   5.029   1.895
 7266TIP3   OH221738   3.928   3.118   0.698
 7266TIP3    H121739   3.941   3.203   0.741
 7266TIP3    H221740   3.963   3.130   0.610
 7267TIP3   OH221741   6.493   6.985   3.461
 7267TIP3    H121742   6.488   7.071   3.504
 7267TIP3    H221743   6.493   6.922   3.533
 7268TIP3   OH221744   3.863   7.321   4.588
 7268TIP3    H121745   3.825   7.409   4.593
 7268TIP3    H221746   3.899   7.306   4.675
 7269TIP3   OH221747   1.418   2.274   5.761
 7269TIP3    H121748   1.443   2.252   5.851
 7269TIP3    H221749   1.322   2.275   5.762
 7270TIP3   OH221750   6.106   3.153   4.920
 7270TIP3    H121751   6.129   3.100   4.996
 7270TIP3    H221752   6.040   3.214   4.953
 7271TIP3   OH221753   4.625   3.072   5.259
 7271TIP3    H121754   4.571   3.016   5.315
 7271TIP3    H221755   4.712   3.034   5.264
 7272TIP3   OH221756   4.038   6.300   2.413
 7272TIP3    H121757   4.107   6.237   2.431
 7272TIP3    H221758   4.067   6.345   2.334
 7273TIP3   OH221759   2.332   6.813   2.710
 7273TIP3    H121760   2.284   6.738   2.745
 7273TIP3    H221761   2.265   6.880   2.696
 7274TIP3   OH221762   0.676   3.749   6.411
 7274TIP3    H121763   0.590   3.716   6.387
 7274TIP3    H221764   0.731   3.733   6.334
 7275TIP3   OH221765   1.042   0.357   3.962
 7275TIP3    H121766   0.982   0.361   3.888
 7275TIP3    H221767   1.085   0.272   3.953
 7276TIP3   OH221768   1.536   5.382   3.422
 7276TIP3    H121769   1.609   5.376   3.484
 7276TIP3    H221770   1.577   5.411   3.340
 7277TIP3   OH221771   2.136   0.411   3.496
 7277TIP3    H121772   2.105   0.501   3.496
 7277TIP3    H221773   2.111   0.377   3.410
 7278TIP3   OH221774   6.073   0.328   4.927
 7278TIP3    H121775   6.032   0.262   4.871
 7278TIP3    H221776   6.061   0.410   4.880
 7279TIP3   OH221777   3.238   4.659   4.084
 7279TIP3    H121778   3.269   4.637   3.997
 7279TIP3    H221779   3.221   4.753   4.081
 7280TIP3   OH221780   6.823   2.112   2.000
 7280TIP3    H121781   6.917   2.091   1.994
 7280TIP3    H221782   6.799   2.140   1.912
 7281TIP3   OH221783   1.366   1.892   5.359
 7281TIP3    H121784   1.282   1.856   5.388
 7281TIP3    H221785   1.407   1.819   5.312
 7282TIP3   OH221786   5.578   1.807   0.987
 7282TIP3    H121787   5.610   1.720   1.010
 7282TIP3    H221788   5.484   1.797   0.978
 7283TIP3   OH221789   0.544   5.743   5.121
 7283TIP3    H121790   0.530   5.740   5.027
 7283TIP3    H221791   0.555   5.652   5.147
 7284TIP3   OH221792   4.509   2.503   0.249
 7284TIP3    H121793   4.542   2.414   0.253
 7284TIP3    H221794   4.524   2.539   0.337
 7285TIP3   OH221795   1.387   3.161   2.873
 7285TIP3    H121796   1.298   3.165   2.908
 7285TIP3    H221797   1.442   3.147   2.950
 7286TIP3   OH221798   8.369   2.737   4.218
 7286TIP3    H121799   8.318   2.697   4.147
 7286TIP3    H221800   8.399   2.663   4.271
 7287TIP3   OH221801   3.633   3.044   3.031
 7287TIP3    H121802   3.562   3.029   3.094
 7287TIP3    H221803   3.664   2.956   3.010
 7288TIP3   OH221804   5.467   6.788   1.783
 7288TIP3    H121805   5.555   6.801   1.747
 7288TIP3    H221806   5.432   6.714   1.734
 7289TIP3   OH221807   4.171   4.893   5.254
 7289TIP3    H121808   4.080   4.898   5.285
 7289TIP3    H221809   4.175   4.811   5.206
 7290TIP3   OH221810   2.560   1.552   3.237
 7290TIP3    H121811   2.617   1.505   3.298
 7290TIP3    H221812   2.608   1.632   3.216
 7291TIP3   OH221813   4.045   1.683   4.580
 7291TIP3    H121814   4.140   1.675   4.579
 7291TIP3    H221815   4.029   1.772   4.613
 7292TIP3   OH221816   4.286   5.745   6.546
 7292TIP3    H121817   4.305   5.744   6.640
 7292TIP3    H221818   4.369   5.772   6.506
 7293TIP3   OH221819   4.466   3.210   0.880
 7293TIP3    H121820   4.485   3.133   0.825
 7293TIP3    H221821   4.545   3.263   0.874
 7294TIP3   OH221822   7.297   2.087   0.667
 7294TIP3    H121823   7.348   2.026   0.613
 7294TIP3    H221824   7.361   2.154   0.694
 7295TIP3   OH221825   3.741   2.142   0.173
 7295TIP3    H121826   3.741   2.238   0.167
 7295TIP3    H221827   3.717   2.112   0.085
 7296TIP3   OH221828   6.933   2.584   3.577
 7296TIP3    H121829   6.954   2.677   3.589
 7296TIP3    H221830   6.949   2.545   3.663
 7297TIP3   OH221831   1.711   0.751   4.024
 7297TIP3    H121832   1.759   0.702   3.958
 7297TIP3    H221833   1.619   0.741   3.999
 7298TIP3   OH221834   6.266   4.179   5.189
 7298TIP3    H121835   6.330   4.108   5.196
 7298TIP3    H221836   6.280   4.231   5.268
 7299TIP3   OH221837   4.697   7.734   5.977
 7299TIP3    H121838   4.673   7.770   5.891
 7299TIP3    H221839   4.729   7.809   6.026
 7300TIP3   OH221840   2.425   2.300   2.981
 7300TIP3    H121841   2.512   2.329   3.009
 7300TIP3    H221842   2.441   2.252   2.900
 7301TIP3   OH221843   5.127   0.979   4.937
 7301TIP3    H121844   5.088   0.902   4.894
 7301TIP3    H221845   5.113   1.050   4.875
 7302TIP3   OH221846   1.686   3.905   5.565
 7302TIP3    H121847   1.703   3.980   5.508
 7302TIP3    H221848   1.746   3.837   5.534
 7303TIP3   OH221849   5.488   6.479   3.476
 7303TIP3    H121850   5.542   6.475   3.397
 7303TIP3    H221851   5.486   6.572   3.498
 7304TIP3   OH221852   1.135   7.229   3.642
 7304TIP3    H121853   1.193   7.169   3.594
 7304TIP3    H221854   1.097   7.285   3.575
 7305TIP3   OH221855   5.804   4.217   5.091
 7305TIP3    H121856   5.818   4.229   5.185
 7305TIP3    H221857   5.880   4.258   5.050
 7306TIP3   OH221858   0.075   1.979   6.712
 7306TIP3    H121859   0.087   1.990   6.806
 7306TIP3    H221860  -0.007   2.025   6.692
 7307TIP3   OH221861   6.270   4.582   1.888
 7307TIP3    H121862   6.222   4.533   1.820
 7307TIP3    H221863   6.203   4.632   1.933
 7308TIP3   OH221864   4.615   0.346   0.791
 7308TIP3    H121865   4.531   0.388   0.772
 7308TIP3    H221866   4.623   0.276   0.726
 7309TIP3   OH221867   2.410   4.536   0.027
 7309TIP3    H121868   2.400   4.621   0.070
 7309TIP3    H221869   2.500   4.509   0.047
 7310TIP3   OH221870   8.375   1.991   5.109
 7310TIP3    H121871   8.417   2.073   5.135
 7310TIP3    H221872   8.338   1.956   5.190
 7311TIP3   OH221873   4.979   6.655   5.175
 7311TIP3    H121874   5.063   6.609   5.170
 7311TIP3    H221875   4.996   6.739   5.132
 7312TIP3   OH221876   0.110   1.571   1.769
 7312TIP3    H121877   0.017   1.581   1.786
 7312TIP3    H221878   0.130   1.638   1.704
 7313TIP3   OH221879   2.782   1.100   4.468
 7313TIP3    H121880   2.755   1.191   4.460
 7313TIP3    H221881   2.819   1.093   4.556
 7314TIP3   OH221882   7.434   0.097   0.999
 7314TIP3    H121883   7.466   0.169   1.053
 7314TIP3    H221884   7.374   0.049   1.056
 7315TIP3   OH221885   0.888   6.391   2.072
 7315TIP3    H121886   0.965   6.412   2.020
 7315TIP3    H221887   0.846   6.476   2.087
 7316TIP3   OH221888   6.349   5.383   6.694
 7316TIP3    H121889   6.313   5.464   6.730
 7316TIP3    H221890   6.401   5.347   6.766
 7317TIP3   OH221891   6.796   7.634   5.347
 7317TIP3    H121892   6.707   7.668   5.337
 7317TIP3    H221893   6.799   7.605   5.438
 7318TIP3   OH221894   1.993   5.410   4.475
 7318TIP3    H121895   2.011   5.406   4.569
 7318TIP3    H221896   2.012   5.501   4.451
 7319TIP3   OH221897   0.781   7.685   5.595
 7319TIP3    H121898   0.688   7.698   5.613
 7319TIP3    H221899   0.809   7.766   5.552
 7320TIP3   OH221900   3.830   5.451   0.699
 7320TIP3    H121901   3.865   5.498   0.624
 7320TIP3    H221902   3.834   5.513   0.771
 7321TIP3   OH221903   7.430   6.692   1.907
 7321TIP3    H121904   7.340   6.723   1.907
 7321TIP3    H221905   7.480   6.762   1.950
 7322TIP3   OH221906   1.606   3.899   3.287
 7322TIP3    H121907   1.583   3.894   3.195
 7322TIP3    H221908   1.661   3.977   3.294
 7323TIP3   OH221909   3.415   4.716   5.888
 7323TIP3    H121910   3.409   4.789   5.949
 7323TIP3    H221911   3.438   4.757   5.804
 7324TIP3   OH221912   8.416   3.993   4.575
 7324TIP3    H121913   8.330   3.962   4.548
 7324TIP3    H221914   8.409   4.004   4.670
 7325TIP3   OH221915   7.232   3.014   2.312
 7325TIP3    H121916   7.241   2.966   2.395
 7325TIP3    H221917   7.263   3.102   2.333
 7326TIP3   OH221918   4.147   3.758   0.803
 7326TIP3    H121919   4.203   3.698   0.754
 7326TIP3    H221920   4.205   3.801   0.866
 7327TIP3   OH221921   3.094   2.787   6.396
 7327TIP3    H121922   3.106   2.788   6.301
 7327TIP3    H221923   3.147   2.860   6.428
 7328TIP3   OH221924   2.056   1.369   1.028
 7328TIP3    H121925   2.030   1.413   1.109
 7328TIP3    H221926   2.067   1.440   0.965
 7329TIP3   OH221927   0.467   5.485   5.567
 7329TIP3    H121928   0.534   5.418   5.550
 7329TIP3    H221929   0.503   5.538   5.638
 7330TIP3   OH221930   0.665   3.317   1.329
 7330TIP3    H121931   0.658   3.222   1.339
 7330TIP3    H221932   0.713   3.328   1.247
 7331TIP3   OH221933   4.224   1.702   6.482
 7331TIP3    H121934   4.147   1.708   6.538
 7331TIP3    H221935   4.246   1.609   6.481
 7332TIP3   OH221936   6.606   3.784   0.628
 7332TIP3    H121937   6.671   3.805   0.695
 7332TIP3    H221938   6.649   3.718   0.573
 7333TIP3   OH221939   0.369   4.728   3.556
 7333TIP3    H121940   0.456   4.766   3.539
 7333TIP3    H221941   0.383   4.667   3.628
 7334TIP3   OH221942   0.202   4.543   5.556
 7334TIP3    H121943   0.201   4.544   5.652
 7334TIP3    H221944   0.191   4.634   5.531
 7335TIP3   OH221945   2.567   4.686   5.098
 7335TIP3    H121946   2.582   4.778   5.118
 7335TIP3    H221947   2.560   4.682   5.003
 7336TIP3   OH221948   4.823   5.864   2.408
 7336TIP3    H121949   4.894   5.843   2.347
 7336TIP3    H221950   4.819   5.960   2.408
 7337TIP3   OH221951   0.415   7.859   1.773
 7337TIP3    H121952   0.391   7.801   1.845
 7337TIP3    H221953   0.332   7.887   1.736
 7338TIP3   OH221954   2.991   1.526   2.777
 7338TIP3    H121955   3.083   1.536   2.803
 7338TIP3    H221956   2.950   1.483   2.851
 7339TIP3   OH221957   5.513   0.377   5.281
 7339TIP3    H121958   5.431   0.420   5.257
 7339TIP3    H221959   5.485   0.304   5.337
 7340TIP3   OH221960   5.649   6.447   1.023
 7340TIP3    H121961   5.633   6.363   1.066
 7340TIP3    H221962   5.696   6.499   1.087
 7341TIP3   OH221963   3.724  -0.023   5.117
 7341TIP3    H121964   3.735   0.068   5.144
 7341TIP3    H221965   3.745  -0.023   5.023
 7342TIP3   OH221966   7.181   0.074   4.920
 7342TIP3    H121967   7.269   0.044   4.897
 7342TIP3    H221968   7.151   0.123   4.844
 7343TIP3   OH221969   1.127   2.009   2.371
 7343TIP3    H121970   1.117   1.919   2.339
 7343TIP3    H221971   1.115   2.063   2.293
 7344TIP3   OH221972   5.932   7.184   3.701
 7344TIP3    H121973   5.837   7.193   3.706
 7344TIP3    H221974   5.961   7.183   3.792
 7345TIP3   OH221975   1.084   3.070   4.451
 7345TIP3    H121976   1.093   3.151   4.401
 7345TIP3    H221977   1.147   3.080   4.523
 7346TIP3   OH221978   2.338   4.744   2.290
 7346TIP3    H121979   2.413   4.802   2.274
 7346TIP3    H221980   2.338   4.731   2.384
 7347TIP3   OH221981   3.764   2.751   5.174
 7347TIP3    H121982   3.738   2.805   5.100
 7347TIP3    H221983   3.719   2.789   5.250
 7348TIP3   OH221984   3.723   1.804   6.139
 7348TIP3    H121985   3.653   1.840   6.085
 7348TIP3    H221986   3.723   1.859   6.218
 7349TIP3   OH221987   6.284   7.324   3.374
 7349TIP3    H121988   6.194   7.357   3.366
 7349TIP3    H221989   6.327   7.354   3.294
 7350TIP3   OH221990   1.993   3.470   6.424
 7350TIP3    H121991   2.032   3.383   6.422
 7350TIP3    H221992   1.911   3.458   6.472
 7351TIP3   OH221993   5.641   3.770   4.120
 7351TIP3    H121994   5.674   3.825   4.192
 7351TIP3    H221995   5.632   3.830   4.046
 7352TIP3   OH221996   1.562   1.461   1.915
 7352TIP3    H121997   1.582   1.404   1.989
 7352TIP3    H221998   1.643   1.510   1.900
 7353TIP3   OH221999   0.072   2.705   5.113
 7353TIP3    H122000   0.086   2.796   5.087
 7353TIP3    H222001  -0.002   2.709   5.173
 7354TIP3   OH222002   2.925   6.265   1.100
 7354TIP3    H122003   2.911   6.230   1.189
 7354TIP3    H222004   2.845   6.243   1.053
 7355TIP3   OH222005   7.265   5.891   5.423
 7355TIP3    H122006   7.177   5.922   5.443
 7355TIP3    H222007   7.263   5.797   5.443
 7356TIP3   OH222008   2.968   0.518   1.747
 7356TIP3    H122009   2.913   0.443   1.727
 7356TIP3    H222010   3.041   0.512   1.686
 7357TIP3   OH222011   2.871   0.670   4.475
 7357TIP3    H122012   2.780   0.674   4.504
 7357TIP3    H222013   2.919   0.721   4.539
 7358TIP3   OH222014   1.761   0.131   5.930
 7358TIP3    H122015   1.796   0.191   5.996
 7358TIP3    H222016   1.807   0.155   5.849
 7359TIP3   OH222017   1.687   5.758   5.353
 7359TIP3    H122018   1.644   5.696   5.293
 7359TIP3    H222019   1.762   5.791   5.303
 7360TIP3   OH222020   8.048   6.117   0.806
 7360TIP3    H122021   8.046   6.178   0.732
 7360TIP3    H222022   7.962   6.074   0.804
 7361TIP3   OH222023   1.515   1.264   6.072
 7361TIP3    H122024   1.423   1.278   6.049
 7361TIP3    H222025   1.565   1.309   6.004
 7362TIP3   OH222026   1.446   5.169   5.566
 7362TIP3    H122027   1.480   5.139   5.650
 7362TIP3    H222028   1.500   5.246   5.544
 7363TIP3   OH222029   5.480   4.469   3.654
 7363TIP3    H122030   5.478   4.432   3.566
 7363TIP3    H222031   5.391   4.500   3.670
 7364TIP3   OH222032   4.475   7.364   2.216
 7364TIP3    H122033   4.467   7.288   2.157
 7364TIP3    H222034   4.444   7.438   2.164
 7365TIP3   OH222035   2.309   1.217   0.043
 7365TIP3    H122036   2.220   1.246   0.064
 7365TIP3    H222037   2.309   1.208  -0.052
 7366TIP3   OH222038   2.719   3.883   5.172
 7366TIP3    H122039   2.640   3.925   5.206
 7366TIP3    H222040   2.778   3.879   5.248
 7367TIP3   OH222041   1.735   2.383   0.156
 7367TIP3    H122042   1.808   2.442   0.137
 7367TIP3    H222043   1.660   2.423   0.113
 7368TIP3   OH222044   4.083   3.736   2.764
 7368TIP3    H122045   3.989   3.719   2.769
 7368TIP3    H222046   4.095   3.819   2.811
 7369TIP3   OH222047   2.127   7.757   2.479
 7369TIP3    H122048   2.202   7.764   2.419
 7369TIP3    H222049   2.157   7.798   2.560
 7370TIP3   OH222050   0.932   0.874   4.901
 7370TIP3    H122051   0.877   0.838   4.970
 7370TIP3    H222052   0.987   0.801   4.873
 7371TIP3   OH222053   0.699   2.357   3.625
 7371TIP3    H122054   0.763   2.334   3.693
 7371TIP3    H222055   0.696   2.453   3.628
 7372TIP3   OH222056   0.656   3.644   2.241
 7372TIP3    H122057   0.683   3.589   2.314
 7372TIP3    H222058   0.575   3.685   2.270
 7373TIP3   OH222059   2.077   6.719   6.783
 7373TIP3    H122060   2.020   6.687   6.853
 7373TIP3    H222061   2.021   6.775   6.730
 7374TIP3   OH222062   3.883   7.095   3.108
 7374TIP3    H122063   3.797   7.054   3.097
 7374TIP3    H222064   3.887   7.162   3.040
 7375TIP3   OH222065   8.365   2.101   1.298
 7375TIP3    H122066   8.394   2.042   1.367
 7375TIP3    H222067   8.331   2.044   1.230
 7376TIP3   OH222068   4.934   7.335   5.864
 7376TIP3    H122069   5.002   7.375   5.810
 7376TIP3    H222070   4.949   7.241   5.858
 7377TIP3   OH222071   8.094   7.337   0.938
 7377TIP3    H122072   8.131   7.299   1.018
 7377TIP3    H222073   8.021   7.280   0.915
 7378TIP3   OH222074   4.981   7.953   1.304
 7378TIP3    H122075   5.033   7.873   1.316
 7378TIP3    H222076   5.043   8.024   1.319
 7379TIP3   OH222077   6.717   2.699   1.292
 7379TIP3    H122078   6.707   2.674   1.383
 7379TIP3    H222079   6.774   2.776   1.294
 7380TIP3   OH222080   7.046   2.524   2.449
 7380TIP3    H122081   7.047   2.617   2.473
 7380TIP3    H222082   7.019   2.524   2.357
 7381TIP3   OH222083   7.395   2.496   4.333
 7381TIP3    H122084   7.337   2.422   4.347
 7381TIP3    H222085   7.357   2.543   4.259
 7382TIP3   OH222086   1.992   0.662   3.820
 7382TIP3    H122087   2.045   0.735   3.787
 7382TIP3    H222088   1.920   0.655   3.757
 7383TIP3   OH222089   8.126   4.753   4.920
 7383TIP3    H122090   8.213   4.712   4.921
 7383TIP3    H222091   8.130   4.819   4.989
 7384TIP3   OH222092   1.893   4.058   0.907
 7384TIP3    H122093   1.958   4.005   0.861
 7384TIP3    H222094   1.831   3.994   0.943
 7385TIP3   OH222095   6.399   5.837   3.425
 7385TIP3    H122096   6.485   5.816   3.388
 7385TIP3    H222097   6.374   5.758   3.473
 7386TIP3   OH222098   7.170   4.790   1.733
 7386TIP3    H122099   7.101   4.855   1.738
 7386TIP3    H222100   7.246   4.832   1.775
 7387TIP3   OH222101   6.282   7.721   3.008
 7387TIP3    H122102   6.330   7.792   3.051
 7387TIP3    H222103   6.246   7.761   2.929
 7388TIP3   OH222104   5.074   0.292   4.979
 7388TIP3    H122105   5.074   0.242   4.897
 7388TIP3    H222106   5.009   0.249   5.034
 7389TIP3   OH222107   1.476   1.351   2.401
 7389TIP3    H122108   1.403   1.361   2.461
 7389TIP3    H222109   1.517   1.438   2.398
 7390TIP3   OH222110   1.851   7.187   2.992
 7390TIP3    H122111   1.888   7.154   2.910
 7390TIP3    H222112   1.757   7.185   2.979
 7391TIP3   OH222113   6.509   0.008   0.341
 7391TIP3    H122114   6.456   0.088   0.339
 7391TIP3    H222115   6.484  -0.040   0.262
 7392TIP3   OH222116   7.205   6.796   3.708
 7392TIP3    H122117   7.158   6.712   3.700
 7392TIP3    H222118   7.297   6.771   3.716
 7393TIP3   OH222119   3.213   1.272   2.678
 7393TIP3    H122120   3.163   1.337   2.628
 7393TIP3    H222121   3.202   1.191   2.630
 7394TIP3   OH222122   2.329   1.272   1.532
 7394TIP3    H122123   2.375   1.288   1.614
 7394TIP3    H222124   2.386   1.212   1.483
 7395TIP3   OH222125   0.975   5.244   5.422
 7395TIP3    H122126   1.023   5.161   5.416
 7395TIP3    H222127   0.908   5.238   5.354
 7396TIP3   OH222128   2.526   4.797   2.940
 7396TIP3    H122129   2.565   4.752   2.864
 7396TIP3    H222130   2.432   4.800   2.920
 7397TIP3   OH222131   4.587   3.812   6.508
 7397TIP3    H122132   4.605   3.906   6.514
 7397TIP3    H222133   4.659   3.778   6.454
 7398TIP3   OH222134   3.566   6.153   0.163
 7398TIP3    H122135   3.478   6.190   0.169
 7398TIP3    H222136   3.608   6.203   0.094
 7399TIP3   OH222137   0.868   2.007   6.637
 7399TIP3    H122138   0.944   1.968   6.680
 7399TIP3    H222139   0.811   1.933   6.617
 7400TIP3   OH222140   7.400   4.389   0.644
 7400TIP3    H122141   7.372   4.402   0.735
 7400TIP3    H222142   7.459   4.313   0.649
 7401TIP3   OH222143   0.356   5.051   1.404
 7401TIP3    H122144   0.345   5.143   1.381
 7401TIP3    H222145   0.380   5.052   1.497
 7402TIP3   OH222146   5.685   0.204   3.351
 7402TIP3    H122147   5.609   0.196   3.409
 7402TIP3    H222148   5.743   0.132   3.377
 7403TIP3   OH222149   5.824   2.949   3.287
 7403TIP3    H122150   5.902   2.927   3.338
 7403TIP3    H222151   5.788   3.026   3.332
 7404TIP3   OH222152   7.534   4.718   5.721
 7404TIP3    H122153   7.458   4.673   5.686
 7404TIP3    H222154   7.500   4.800   5.756
 7405TIP3   OH222155   4.542   0.236   5.840
 7405TIP3    H122156   4.481   0.308   5.854
 7405TIP3    H222157   4.623   0.277   5.811
 7406TIP3   OH222158   1.714   4.578   1.887
 7406TIP3    H122159   1.802   4.608   1.864
 7406TIP3    H222160   1.659   4.656   1.882
 7407TIP3   OH222161   3.833   7.679   2.739
 7407TIP3    H122162   3.878   7.698   2.657
 7407TIP3    H222163   3.903   7.676   2.805
 7408TIP3   OH222164   3.443   5.671   2.025
 7408TIP3    H122165   3.393   5.733   1.970
 7408TIP3    H222166   3.467   5.601   1.965
 7409TIP3   OH222167   2.482   3.780   4.403
 7409TIP3    H122168   2.393   3.779   4.437
 7409TIP3    H222169   2.533   3.824   4.471
 7410TIP3   OH222170   1.394   4.662   1.165
 7410TIP3    H122171   1.397   4.731   1.231
 7410TIP3    H222172   1.468   4.605   1.186
 7411TIP3   OH222173   4.783   0.237   6.408
 7411TIP3    H122174   4.718   0.210   6.472
 7411TIP3    H222175   4.734   0.252   6.327
 7412TIP3   OH222176   0.944   3.783   1.280
 7412TIP3    H122177   1.029   3.802   1.240
 7412TIP3    H222178   0.895   3.864   1.272
 7413TIP3   OH222179   0.092   3.685   0.370
 7413TIP3    H122180   0.006   3.676   0.329
 7413TIP3    H222181   0.107   3.601   0.413
 7414TIP3   OH222182   3.141   5.352   1.998
 7414TIP3    H122183   3.155   5.424   1.937
 7414TIP3    H222184   3.224   5.343   2.044
 7415TIP3   OH222185   0.689   6.689   3.485
 7415TIP3    H122186   0.742   6.765   3.509
 7415TIP3    H222187   0.692   6.686   3.389
 7416TIP3   OH222188   5.082   0.367   0.723
 7416TIP3    H122189   5.004   0.317   0.745
 7416TIP3    H222190   5.153   0.321   0.767
 7417TIP3   OH222191   0.171   3.482   1.388
 7417TIP3    H122192   0.132   3.562   1.425
 7417TIP3    H222193   0.265   3.500   1.387
 7418TIP3   OH222194   0.677   1.991   1.286
 7418TIP3    H122195   0.622   2.050   1.337
 7418TIP3    H222196   0.630   1.981   1.203
 7419TIP3   OH222197   8.188   1.222   2.391
 7419TIP3    H122198   8.249   1.292   2.413
 7419TIP3    H222199   8.163   1.239   2.301
 7420TIP3   OH222200   5.345   7.573   4.331
 7420TIP3    H122201   5.427   7.574   4.379
 7420TIP3    H222202   5.366   7.532   4.247
 7421TIP3   OH222203   4.175   3.608   3.469
 7421TIP3    H122204   4.251   3.652   3.507
 7421TIP3    H222205   4.186   3.516   3.491
 7422TIP3   OH222206   6.913   0.038   2.907
 7422TIP3    H122207   6.820   0.036   2.931
 7422TIP3    H222208   6.937   0.131   2.913
 7423TIP3   OH222209   0.071   7.186   4.907
 7423TIP3    H122210   0.071   7.205   5.001
 7423TIP3    H222211   0.073   7.272   4.866
 7424TIP3   OH222212   1.062   3.711   0.268
 7424TIP3    H122213   1.011   3.640   0.230
 7424TIP3    H222214   1.046   3.787   0.212
 7425TIP3   OH222215   8.262   6.929   0.277
 7425TIP3    H122216   8.270   6.880   0.195
 7425TIP3    H222217   8.295   6.868   0.344
 7426TIP3   OH222218   6.894   0.041   2.455
 7426TIP3    H122219   6.848   0.124   2.462
 7426TIP3    H222220   6.949   0.038   2.533
 7427TIP3   OH222221   6.069   1.276   6.004
 7427TIP3    H122222   6.097   1.234   5.922
 7427TIP3    H222223   6.012   1.211   6.045
 7428TIP3   OH222224   0.144   5.921   3.641
 7428TIP3    H122225   0.069   5.980   3.646
 7428TIP3    H222226   0.182   5.924   3.729
 7429TIP3   OH222227   3.497   6.384   1.410
 7429TIP3    H122228   3.482   6.348   1.323
 7429TIP3    H222229   3.536   6.470   1.394
 7430TIP3   OH222230   1.275   7.327   1.843
 7430TIP3    H122231   1.248   7.268   1.914
 7430TIP3    H222232   1.368   7.342   1.859
 7431TIP3   OH222233   8.270   7.597   3.470
 7431TIP3    H122234   8.241   7.687   3.485
 7431TIP3    H222235   8.318   7.601   3.387
 7432TIP3   OH222236   0.389   1.986   0.428
 7432TIP3    H122237   0.408   2.076   0.401
 7432TIP3    H222238   0.293   1.981   0.429
 7433TIP3   OH222239   1.866   6.042   1.111
 7433TIP3    H122240   1.832   6.131   1.121
 7433TIP3    H222241   1.787   5.988   1.098
 7434TIP3   OH222242   4.306   6.411   1.661
 7434TIP3    H122243   4.318   6.474   1.732
 7434TIP3    H222244   4.251   6.342   1.698
 7435TIP3   OH222245   1.299   1.721   4.055
 7435TIP3    H122246   1.270   1.665   4.128
 7435TIP3    H222247   1.394   1.727   4.066
 7436TIP3   OH222248   2.075   3.707   4.727
 7436TIP3    H122249   2.023   3.678   4.802
 7436TIP3    H222250   2.079   3.631   4.669
 7437TIP3   OH222251   7.341   1.020   6.627
 7437TIP3    H122252   7.407   0.992   6.691
 7437TIP3    H222253   7.357   0.966   6.550
 7438TIP3   OH222254   2.808   1.816   4.351
 7438TIP3    H122255   2.901   1.796   4.338
 7438TIP3    H222256   2.783   1.864   4.272
 7439TIP3   OH222257   6.308   4.157   4.034
 7439TIP3    H122258   6.312   4.212   4.112
 7439TIP3    H222259   6.267   4.212   3.968
 7440TIP3   OH222260   2.872   5.812   0.381
 7440TIP3    H122261   2.869   5.770   0.295
 7440TIP3    H222262   2.804   5.768   0.431
 7441TIP3   OH222263   2.557   1.904   6.434
 7441TIP3    H122264   2.618   1.831   6.446
 7441TIP3    H222265   2.612   1.977   6.407
 7442TIP3   OH222266   3.076   7.125   0.986
 7442TIP3    H122267   3.119   7.048   0.948
 7442TIP3    H222268   3.018   7.089   1.053
 7443TIP3   OH222269   8.229   7.648   2.603
 7443TIP3    H122270   8.139   7.662   2.634
 7443TIP3    H222271   8.229   7.559   2.569
 7444TIP3   OH222272   0.577   6.002   4.300
 7444TIP3    H122273   0.642   5.953   4.350
 7444TIP3    H222274   0.501   6.006   4.357
 7445TIP3   OH222275   5.595   0.112   4.386
 7445TIP3    H122276   5.532   0.040   4.393
 7445TIP3    H222277   5.574   0.152   4.301
 7446TIP3   OH222278   0.362   4.313   1.979
 7446TIP3    H122279   0.296   4.362   1.929
 7446TIP3    H222280   0.433   4.298   1.917
 7447TIP3   OH222281   1.895   2.735   6.387
 7447TIP3    H122282   1.821   2.795   6.376
 7447TIP3    H222283   1.972   2.787   6.365
 7448TIP3   OH222284   3.406   1.288   1.747
 7448TIP3    H122285   3.412   1.217   1.811
 7448TIP3    H222286   3.399   1.244   1.663
 7449TIP3   OH222287   6.301   5.576   0.843
 7449TIP3    H122288   6.347   5.523   0.908
 7449TIP3    H222289   6.244   5.633   0.894
 7450TIP3   OH222290   6.676   3.215   2.624
 7450TIP3    H122291   6.593   3.262   2.627
 7450TIP3    H222292   6.691   3.185   2.714
 7451TIP3   OH222293   0.481   1.403   4.944
 7451TIP3    H122294   0.436   1.439   4.868
 7451TIP3    H222295   0.426   1.426   5.019
 7452TIP3   OH222296   7.516   0.632   3.097
 7452TIP3    H122297   7.586   0.578   3.061
 7452TIP3    H222298   7.553   0.721   3.099
 7453TIP3   OH222299   0.392   7.734   6.738
 7453TIP3    H122300   0.382   7.640   6.749
 7453TIP3    H222301   0.486   7.749   6.742
 7454TIP3   OH222302   0.046   4.416   5.891
 7454TIP3    H122303   0.038   4.409   5.986
 7454TIP3    H222304   0.104   4.491   5.878
 7455TIP3   OH222305   1.563   7.376   1.819
 7455TIP3    H122306   1.537   7.408   1.733
 7455TIP3    H222307   1.578   7.455   1.871
 7456TIP3   OH222308   1.008   1.430   4.510
 7456TIP3    H122309   0.921   1.421   4.548
 7456TIP3    H222310   1.000   1.500   4.445
 7457TIP3   OH222311   4.555   3.846   0.206
 7457TIP3    H122312   4.476   3.869   0.254
 7457TIP3    H222313   4.617   3.915   0.227
 7458TIP3   OH222314   7.515   6.503   1.687
 7458TIP3    H122315   7.563   6.426   1.720
 7458TIP3    H222316   7.486   6.548   1.766
 7459TIP3   OH222317   3.254   2.565   2.682
 7459TIP3    H122318   3.238   2.659   2.672
 7459TIP3    H222319   3.178   2.534   2.731
 7460TIP3   OH222320   8.264   7.305   2.790
 7460TIP3    H122321   8.228   7.223   2.823
 7460TIP3    H222322   8.254   7.299   2.695
 7461TIP3   OH222323   2.061   6.923   1.982
 7461TIP3    H122324   2.073   6.970   2.064
 7461TIP3    H222325   2.068   6.991   1.915
 7462TIP3   OH222326   3.109   4.625   2.912
 7462TIP3    H122327   3.014   4.634   2.903
 7462TIP3    H222328   3.144   4.651   2.827
 7463TIP3   OH222329   0.619   4.371   3.651
 7463TIP3    H122330   0.672   4.445   3.680
 7463TIP3    H222331   0.529   4.404   3.651
 7464TIP3   OH222332   2.012   0.047   2.154
 7464TIP3    H122333   2.044   0.136   2.142
 7464TIP3    H222334   1.918   0.056   2.168
 7465TIP3   OH222335   7.428   0.702   4.765
 7465TIP3    H122336   7.372   0.726   4.839
 7465TIP3    H222337   7.375   0.642   4.712
 7466TIP3   OH222338   4.595   4.731   2.096
 7466TIP3    H122339   4.633   4.671   2.032
 7466TIP3    H222340   4.650   4.721   2.174
 7467TIP3   OH222341   3.491   1.514   6.517
 7467TIP3    H122342   3.481   1.455   6.592
 7467TIP3    H222343   3.482   1.457   6.441
 7468TIP3   OH222344   1.182   1.328   1.989
 7468TIP3    H122345   1.174   1.382   1.911
 7468TIP3    H222346   1.256   1.271   1.970
 7469TIP3   OH222347   6.957   1.218   3.276
 7469TIP3    H122348   7.051   1.237   3.269
 7469TIP3    H222349   6.915   1.294   3.234
 7470TIP3   OH222350   2.704   1.649   6.402
 7470TIP3    H122351   2.693   1.598   6.322
 7470TIP3    H222352   2.656   1.601   6.469
 7471TIP3   OH222353   7.179   2.565   2.184
 7471TIP3    H122354   7.188   2.592   2.092
 7471TIP3    H222355   7.264   2.525   2.205
 7472TIP3   OH222356   7.883   4.014   2.842
 7472TIP3    H122357   7.923   4.095   2.811
 7472TIP3    H222358   7.891   4.019   2.937
 7473TIP3   OH222359   0.543   2.414   4.369
 7473TIP3    H122360   0.539   2.362   4.289
 7473TIP3    H222361   0.469   2.382   4.421
 7474TIP3   OH222362   3.867   0.570   4.393
 7474TIP3    H122363   3.798   0.550   4.456
 7474TIP3    H222364   3.825   0.625   4.327
 7475TIP3   OH222365   0.044   1.472   0.827
 7475TIP3    H122366   0.107   1.403   0.849
 7475TIP3    H222367   0.096   1.541   0.788
 7476TIP3   OH222368   2.233   7.419   0.455
 7476TIP3    H122369   2.170   7.346   0.454
 7476TIP3    H222370   2.179   7.497   0.439
 7477TIP3   OH222371   3.326   5.210   2.935
 7477TIP3    H122372   3.420   5.213   2.916
 7477TIP3    H222373   3.319   5.167   3.020
 7478TIP3   OH222374   0.618   3.712   3.559
 7478TIP3    H122375   0.669   3.636   3.531
 7478TIP3    H222376   0.540   3.711   3.504
 7479TIP3   OH222377   0.172   1.820   2.280
 7479TIP3    H122378   0.267   1.817   2.269
 7479TIP3    H222379   0.157   1.793   2.370
 7480TIP3   OH222380   0.151   6.157   2.012
 7480TIP3    H122381   0.144   6.095   2.085
 7480TIP3    H222382   0.119   6.240   2.049
 7481TIP3   OH222383   2.839   0.302   4.489
 7481TIP3    H122384   2.813   0.305   4.582
 7481TIP3    H222385   2.765   0.341   4.443
 7482TIP3   OH222386   1.155   3.378   2.017
 7482TIP3    H122387   1.131   3.459   1.973
 7482TIP3    H222388   1.127   3.309   1.958
 7483TIP3   OH222389   7.365   6.416   4.072
 7483TIP3    H122390   7.456   6.394   4.053
 7483TIP3    H222391   7.315   6.377   4.001
 7484TIP3   OH222392   7.495   6.352   4.480
 7484TIP3    H122393   7.425   6.377   4.541
 7484TIP3    H222394   7.512   6.432   4.430
 7485TIP3   OH222395   5.493   5.119   0.553
 7485TIP3    H122396   5.432   5.187   0.523
 7485TIP3    H222397   5.448   5.037   0.533
 7486TIP3   OH222398   1.645   1.302   6.655
 7486TIP3    H122399   1.680   1.239   6.592
 7486TIP3    H222400   1.642   1.385   6.608
 7487TIP3   OH222401   4.766   5.021   4.927
 7487TIP3    H122402   4.834   5.086   4.907
 7487TIP3    H222403   4.723   5.055   5.005
 7488TIP3   OH222404   1.170   1.896   6.235
 7488TIP3    H122405   1.224   1.895   6.156
 7488TIP3    H222406   1.083   1.869   6.205
 7489TIP3   OH222407   7.194   0.194   4.222
 7489TIP3    H122408   7.198   0.267   4.161
 7489TIP3    H222409   7.171   0.118   4.168
 7490TIP3   OH222410   7.803   3.130   1.678
 7490TIP3    H122411   7.757   3.050   1.702
 7490TIP3    H222412   7.734   3.192   1.656
 7491TIP3   OH222413   8.183   2.300   1.141
 7491TIP3    H122414   8.250   2.233   1.158
 7491TIP3    H222415   8.218   2.379   1.182
 7492TIP3   OH222416   4.346   2.994   4.200
 7492TIP3    H122417   4.387   2.922   4.151
 7492TIP3    H222418   4.416   3.059   4.209
 7493TIP3   OH222419   2.125   2.868   3.372
 7493TIP3    H122420   2.034   2.885   3.397
 7493TIP3    H222421   2.129   2.892   3.279
 7494TIP3   OH222422   0.201   6.229   3.707
 7494TIP3    H122423   0.252   6.175   3.646
 7494TIP3    H222424   0.256   6.306   3.721
 7495TIP3   OH222425   6.906   6.579   6.324
 7495TIP3    H122426   6.988   6.576   6.373
 7495TIP3    H222427   6.842   6.613   6.387
 7496TIP3   OH222428   1.921   5.574   3.434
 7496TIP3    H122429   1.855   5.523   3.480
 7496TIP3    H222430   1.873   5.648   3.396
 7497TIP3   OH222431   4.825   1.536   3.013
 7497TIP3    H122432   4.907   1.508   3.055
 7497TIP3    H222433   4.758   1.519   3.078
 7498TIP3   OH222434   6.876   5.181   0.133
 7498TIP3    H122435   6.800   5.125   0.153
 7498TIP3    H222436   6.867   5.201   0.040
 7499TIP3   OH222437   1.486   6.980   6.273
 7499TIP3    H122438   1.414   6.941   6.223
 7499TIP3    H222439   1.464   6.961   6.365
 7500TIP3   OH222440   2.145   3.210   4.229
 7500TIP3    H122441   2.229   3.255   4.223
 7500TIP3    H222442   2.150   3.161   4.311
 7501TIP3   OH222443   3.309   1.942   3.499
 7501TIP3    H122444   3.374   1.890   3.451
 7501TIP3    H222445   3.346   1.952   3.587
 7502TIP3   OH222446   7.384   7.763   4.565
 7502TIP3    H122447   7.452   7.762   4.498
 7502TIP3    H222448   7.333   7.841   4.546
 7503TIP3   OH222449   1.694   4.197   0.329
 7503TIP3    H122450   1.676   4.150   0.247
 7503TIP3    H222451   1.662   4.286   0.313
 7504TIP3   OH222452   6.290   2.920   0.891
 7504TIP3    H122453   6.305   2.886   0.979
 7504TIP3    H222454   6.269   2.843   0.839
 7505TIP3   OH222455   5.134   3.370   6.468
 7505TIP3    H122456   5.083   3.289   6.465
 7505TIP3    H222457   5.216   3.346   6.511
 7506TIP3   OH222458   5.438   1.192   0.467
 7506TIP3    H122459   5.481   1.259   0.521
 7506TIP3    H222460   5.490   1.114   0.481
 7507TIP3   OH222461   6.354   2.752   5.675
 7507TIP3    H122462   6.340   2.842   5.703
 7507TIP3    H222463   6.370   2.703   5.756
 7508TIP3   OH222464   7.779   7.039   3.917
 7508TIP3    H122465   7.795   7.058   4.009
 7508TIP3    H222466   7.727   6.958   3.917
 7509TIP3   OH222467   2.284   0.210   6.651
 7509TIP3    H122468   2.291   0.123   6.609
 7509TIP3    H222469   2.370   0.250   6.636
 7510TIP3   OH222470   2.623   4.377   1.337
 7510TIP3    H122471   2.595   4.314   1.403
 7510TIP3    H222472   2.608   4.332   1.253
 7511TIP3   OH222473   7.048   6.601   5.515
 7511TIP3    H122474   6.997   6.676   5.486
 7511TIP3    H222475   7.066   6.618   5.607
 7512TIP3   OH222476   4.001   2.406   5.866
 7512TIP3    H122477   4.067   2.354   5.913
 7512TIP3    H222478   4.043   2.491   5.853
 7513TIP3   OH222479   2.482   2.911   6.790
 7513TIP3    H122480   2.398   2.942   6.824
 7513TIP3    H222481   2.463   2.824   6.754
 7514TIP3   OH222482   5.655   1.676   3.971
 7514TIP3    H122483   5.733   1.652   4.021
 7514TIP3    H222484   5.643   1.604   3.909
 7515TIP3   OH222485   2.927   4.408   0.313
 7515TIP3    H122486   2.910   4.503   0.316
 7515TIP3    H222487   2.867   4.371   0.376
 7516TIP3   OH222488   7.010   6.218   4.520
 7516TIP3    H122489   6.960   6.137   4.514
 7516TIP3    H222490   7.018   6.248   4.430
 7517TIP3   OH222491   3.022   2.669   5.311
 7517TIP3    H122492   2.965   2.592   5.321
 7517TIP3    H222493   3.011   2.696   5.220
 7518TIP3   OH222494   6.067   0.663   3.400
 7518TIP3    H122495   5.974   0.683   3.389
 7518TIP3    H222496   6.098   0.727   3.464
 7519TIP3   OH222497   0.214   2.250   1.309
 7519TIP3    H122498   0.122   2.230   1.292
 7519TIP3    H222499   0.232   2.207   1.393
 7520TIP3   OH222500   6.563   2.375   5.456
 7520TIP3    H122501   6.597   2.299   5.504
 7520TIP3    H222502   6.591   2.450   5.509
 7521TIP3   OH222503   0.967   6.811   5.729
 7521TIP3    H122504   1.052   6.831   5.691
 7521TIP3    H222505   0.984   6.809   5.824
 7522TIP3   OH222506   4.525   5.680   0.755
 7522TIP3    H122507   4.516   5.747   0.824
 7522TIP3    H222508   4.448   5.625   0.766
 7523TIP3   OH222509   5.993   2.893   5.846
 7523TIP3    H122510   5.929   2.829   5.815
 7523TIP3    H222511   5.985   2.967   5.787
 7524TIP3   OH222512   4.750   4.959   5.581
 7524TIP3    H122513   4.768   4.900   5.507
 7524TIP3    H222514   4.818   4.937   5.645
 7525TIP3   OH222515   5.013   2.641   2.321
 7525TIP3    H122516   5.024   2.554   2.359
 7525TIP3    H222517   5.072   2.642   2.246
 7526TIP3   OH222518   1.880   3.304   2.972
 7526TIP3    H122519   1.936   3.376   2.943
 7526TIP3    H222520   1.849   3.331   3.059
 7527TIP3   OH222521   3.335   4.343   3.698
 7527TIP3    H122522   3.375   4.300   3.622
 7527TIP3    H222523   3.245   4.311   3.698
 7528TIP3   OH222524   0.067   2.191   3.806
 7528TIP3    H122525   0.150   2.145   3.793
 7528TIP3    H222526   0.092   2.279   3.834
 7529TIP3   OH222527   7.085   4.779   5.584
 7529TIP3    H122528   7.061   4.872   5.581
 7529TIP3    H222529   7.120   4.761   5.497
 7530TIP3   OH222530   2.468   2.094   0.204
 7530TIP3    H122531   2.471   2.190   0.207
 7530TIP3    H222532   2.383   2.075   0.164
 7531TIP3   OH222533   1.165   4.539   3.647
 7531TIP3    H122534   1.230   4.498   3.590
 7531TIP3    H222535   1.194   4.630   3.655
 7532TIP3   OH222536   7.637   7.480   4.867
 7532TIP3    H122537   7.543   7.489   4.884
 7532TIP3    H222538   7.673   7.447   4.949
 7533TIP3   OH222539   7.186   4.279   5.292
 7533TIP3    H122540   7.131   4.226   5.349
 7533TIP3    H222541   7.276   4.250   5.311
 7534TIP3   OH222542   1.122   2.073   2.062
 7534TIP3    H122543   1.210   2.110   2.063
 7534TIP3    H222544   1.064   2.148   2.074
 7535TIP3   OH222545   1.782   2.281   3.557
 7535TIP3    H122546   1.860   2.326   3.590
 7535TIP3    H222547   1.806   2.256   3.467
 7536TIP3   OH222548   2.861   3.254   4.816
 7536TIP3    H122549   2.857   3.242   4.911
 7536TIP3    H222550   2.787   3.205   4.782
 7537TIP3   OH222551   0.183   7.891   1.621
 7537TIP3    H122552   0.143   7.978   1.628
 7537TIP3    H222553   0.114   7.830   1.647
 7538TIP3   OH222554   4.237   6.173   1.756
 7538TIP3    H122555   4.142   6.180   1.762
 7538TIP3    H222556   4.252   6.097   1.701
 7539TIP3   OH222557   2.843   3.273   3.641
 7539TIP3    H122558   2.863   3.350   3.587
 7539TIP3    H222559   2.891   3.288   3.722
 7540TIP3   OH222560   7.052   4.537   6.859
 7540TIP3    H122561   7.009   4.615   6.826
 7540TIP3    H222562   7.031   4.468   6.796
 7541TIP3   OH222563   2.493   4.387   2.500
 7541TIP3    H122564   2.531   4.380   2.587
 7541TIP3    H222565   2.552   4.447   2.453
 7542TIP3   OH222566   5.149   6.816   2.976
 7542TIP3    H122567   5.057   6.793   2.963
 7542TIP3    H222568   5.183   6.745   3.032
 7543TIP3   OH222569   1.787   0.349   6.091
 7543TIP3    H122570   1.810   0.429   6.045
 7543TIP3    H222571   1.692   0.351   6.098
 7544TIP3   OH222572   2.366   6.960   5.022
 7544TIP3    H122573   2.359   7.050   5.053
 7544TIP3    H222574   2.283   6.944   4.978
 7545TIP3   OH222575   4.028   6.461   1.777
 7545TIP3    H122576   4.050   6.487   1.687
 7545TIP3    H222577   4.005   6.369   1.770
 7546TIP3   OH222578   7.236   0.107   2.884
 7546TIP3    H122579   7.282   0.125   2.965
 7546TIP3    H222580   7.233   0.191   2.838
 7547TIP3   OH222581   4.730   2.735   6.069
 7547TIP3    H122582   4.654   2.764   6.018
 7547TIP3    H222583   4.762   2.658   6.021
 7548TIP3   OH222584   6.316   7.839   1.176
 7548TIP3    H122585   6.226   7.829   1.146
 7548TIP3    H222586   6.352   7.909   1.122
 7549TIP3   OH222587   6.720   0.894   1.188
 7549TIP3    H122588   6.657   0.822   1.194
 7549TIP3    H222589   6.778   0.881   1.263
 7550TIP3   OH222590   2.756   1.661   2.300
 7550TIP3    H122591   2.829   1.626   2.248
 7550TIP3    H222592   2.778   1.637   2.390
 7551TIP3   OH222593   2.947   6.714   2.387
 7551TIP3    H122594   2.936   6.806   2.364
 7551TIP3    H222595   2.909   6.666   2.314
 7552TIP3   OH222596   0.283   5.746   2.480
 7552TIP3    H122597   0.361   5.699   2.451
 7552TIP3    H222598   0.291   5.750   2.575
 7553TIP3   OH222599   6.299   0.656   6.489
 7553TIP3    H122600   6.319   0.715   6.561
 7553TIP3    H222601   6.211   0.622   6.509
 7554TIP3   OH222602   0.379   5.275   2.803
 7554TIP3    H122603   0.405   5.184   2.814
 7554TIP3    H222604   0.397   5.295   2.711
 7555TIP3   OH222605   1.508   6.194   3.316
 7555TIP3    H122606   1.443   6.144   3.364
 7555TIP3    H222607   1.587   6.189   3.371
 7556TIP3   OH222608   5.684   5.073   4.317
 7556TIP3    H122609   5.747   5.063   4.245
 7556TIP3    H222610   5.736   5.065   4.396
 7557TIP3   OH222611   4.500   0.210   1.169
 7557TIP3    H122612   4.533   0.129   1.206
 7557TIP3    H222613   4.576   0.250   1.127
 7558TIP3   OH222614   2.263   3.747   2.275
 7558TIP3    H122615   2.295   3.836   2.258
 7558TIP3    H222616   2.231   3.750   2.365
 7559TIP3   OH222617   3.227   7.454   0.545
 7559TIP3    H122618   3.268   7.368   0.554
 7559TIP3    H222619   3.135   7.435   0.527
 7560TIP3   OH222620   8.385   5.878   4.253
 7560TIP3    H122621   8.355   5.822   4.182
 7560TIP3    H222622   8.465   5.919   4.220
 7561TIP3   OH222623   2.414   1.458   4.971
 7561TIP3    H122624   2.384   1.423   5.055
 7561TIP3    H222625   2.468   1.534   4.994
 7562TIP3   OH222626   0.389   5.064   0.154
 7562TIP3    H122627   0.401   4.971   0.136
 7562TIP3    H222628   0.294   5.075   0.162
 7563TIP3   OH222629   7.327   3.973   3.846
 7563TIP3    H122630   7.345   3.879   3.845
 7563TIP3    H222631   7.297   3.990   3.935
 7564TIP3   OH222632   2.708   3.719   4.132
 7564TIP3    H122633   2.745   3.667   4.060
 7564TIP3    H222634   2.617   3.734   4.106
 7565TIP3   OH222635   3.704   5.083   4.009
 7565TIP3    H122636   3.766   5.063   3.938
 7565TIP3    H222637   3.759   5.087   4.087
 7566TIP3   OH222638   7.693   2.736   2.868
 7566TIP3    H122639   7.775   2.770   2.904
 7566TIP3    H222640   7.720   2.670   2.805
 7567TIP3   OH222641   6.612   0.956   6.743
 7567TIP3    H122642   6.621   1.032   6.801
 7567TIP3    H222643   6.629   0.881   6.799
 7568TIP3   OH222644   0.446   7.367   4.847
 7568TIP3    H122645   0.422   7.440   4.904
 7568TIP3    H222646   0.485   7.302   4.906
 7569TIP3   OH222647   0.470   5.787   0.024
 7569TIP3    H122648   0.562   5.808   0.006
 7569TIP3    H222649   0.463   5.790   0.119
 7570TIP3   OH222650   6.904   3.341   5.472
 7570TIP3    H122651   6.940   3.315   5.556
 7570TIP3    H222652   6.810   3.324   5.480
 7571TIP3   OH222653   5.306   2.988   2.440
 7571TIP3    H122654   5.394   2.954   2.457
 7571TIP3    H222655   5.287   3.046   2.513
 7572TIP3   OH222656   6.475   0.779   4.776
 7572TIP3    H122657   6.404   0.728   4.737
 7572TIP3    H222658   6.530   0.714   4.819
 7573TIP3   OH222659   7.678   6.422   0.141
 7573TIP3    H122660   7.724   6.499   0.107
 7573TIP3    H222661   7.586   6.438   0.122
 7574TIP3   OH222662   7.119   1.078   0.427
 7574TIP3    H122663   7.120   1.049   0.518
 7574TIP3    H222664   7.074   1.163   0.429
 7575TIP3   OH222665   5.302   5.592   4.225
 7575TIP3    H122666   5.341   5.550   4.148
 7575TIP3    H222667   5.209   5.571   4.219
 7576TIP3   OH222668   2.911   6.553   4.919
 7576TIP3    H122669   2.926   6.551   4.824
 7576TIP3    H222670   2.818   6.573   4.928
 7577TIP3   OH222671   2.877   5.532   2.448
 7577TIP3    H122672   2.822   5.459   2.479
 7577TIP3    H222673   2.853   5.605   2.505
 7578TIP3   OH222674   3.516   1.310   1.146
 7578TIP3    H122675   3.550   1.369   1.079
 7578TIP3    H222676   3.455   1.253   1.100
 7579TIP3   OH222677   0.187   1.684   0.746
 7579TIP3    H122678   0.239   1.764   0.753
 7579TIP3    H222679   0.210   1.648   0.660
 7580TIP3   OH222680   2.171   6.605   2.922
 7580TIP3    H122681   2.119   6.682   2.899
 7580TIP3    H222682   2.184   6.559   2.839
 7581TIP3   OH222683   6.939   3.848   1.181
 7581TIP3    H122684   6.933   3.878   1.090
 7581TIP3    H222685   6.849   3.831   1.207
 7582TIP3   OH222686   1.932   1.671   1.507
 7582TIP3    H122687   2.023   1.687   1.532
 7582TIP3    H222688   1.937   1.642   1.416
 7583TIP3   OH222689   1.729   0.923   5.270
 7583TIP3    H122690   1.725   0.990   5.338
 7583TIP3    H222691   1.637   0.898   5.256
 7584TIP3   OH222692   2.875   5.468   1.734
 7584TIP3    H122693   2.969   5.458   1.746
 7584TIP3    H222694   2.843   5.379   1.717
 7585TIP3   OH222695   7.353   2.525   1.337
 7585TIP3    H122696   7.354   2.439   1.379
 7585TIP3    H222697   7.444   2.540   1.311
 7586TIP3   OH222698   0.863   1.163   4.899
 7586TIP3    H122699   0.868   1.068   4.902
 7586TIP3    H222700   0.786   1.185   4.953
 7587TIP3   OH222701   8.312   1.553   1.497
 7587TIP3    H122702   8.401   1.569   1.465
 7587TIP3    H222703   8.262   1.630   1.470
 7588TIP3   OH222704   4.684   5.968   3.697
 7588TIP3    H122705   4.764   5.935   3.657
 7588TIP3    H222706   4.676   6.058   3.665
 7589TIP3   OH222707   5.847   4.056   3.510
 7589TIP3    H122708   5.924   4.065   3.455
 7589TIP3    H222709   5.879   4.072   3.599
 7590TIP3   OH222710   0.599   1.954   2.603
 7590TIP3    H122711   0.592   1.996   2.689
 7590TIP3    H222712   0.688   1.974   2.574
 7591TIP3   OH222713   6.479   6.097   4.400
 7591TIP3    H122714   6.544   6.127   4.337
 7591TIP3    H222715   6.482   6.001   4.395
 7592TIP3   OH222716   1.459   1.645   1.091
 7592TIP3    H122717   1.481   1.651   1.183
 7592TIP3    H222718   1.374   1.689   1.083
 7593TIP3   OH222719   7.802   2.521   6.421
 7593TIP3    H122720   7.846   2.606   6.415
 7593TIP3    H222721   7.800   2.502   6.514
 7594TIP3   OH222722   3.090   4.019   6.333
 7594TIP3    H122723   3.075   4.053   6.245
 7594TIP3    H222724   3.050   4.085   6.391
 7595TIP3   OH222725   7.310   5.734   3.508
 7595TIP3    H122726   7.249   5.672   3.470
 7595TIP3    H222727   7.257   5.788   3.566
 7596TIP3   OH222728   7.736   7.517   2.487
 7596TIP3    H122729   7.811   7.576   2.478
 7596TIP3    H222730   7.676   7.545   2.418
 7597TIP3   OH222731   2.805   0.324   6.548
 7597TIP3    H122732   2.837   0.365   6.468
 7597TIP3    H222733   2.883   0.284   6.587
 7598TIP3   OH222734   5.464   5.431   2.740
 7598TIP3    H122735   5.510   5.511   2.713
 7598TIP3    H222736   5.532   5.364   2.741
 7599TIP3   OH222737   5.396   5.976   0.802
 7599TIP3    H122738   5.481   6.019   0.818
 7599TIP3    H222739   5.418   5.884   0.790
 7600TIP3   OH222740   1.462   6.320   4.814
 7600TIP3    H122741   1.388   6.260   4.823
 7600TIP3    H222742   1.516   6.303   4.891
 7601TIP3   OH222743   7.096   4.830   5.882
 7601TIP3    H122744   7.085   4.909   5.935
 7601TIP3    H222745   7.017   4.825   5.829
 7602TIP3   OH222746   8.153   7.821   5.732
 7602TIP3    H122747   8.128   7.907   5.767
 7602TIP3    H222748   8.070   7.780   5.709
 7603TIP3   OH222749   4.840   2.073   5.471
 7603TIP3    H122750   4.760   2.104   5.513
 7603TIP3    H222751   4.908   2.084   5.538
 7604TIP3   OH222752   7.359   2.410   5.219
 7604TIP3    H122753   7.270   2.388   5.245
 7604TIP3    H222754   7.371   2.369   5.134
 7605TIP3   OH222755   3.186   2.887   2.132
 7605TIP3    H122756   3.223   2.973   2.153
 7605TIP3    H222757   3.092   2.904   2.123
 7606TIP3   OH222758   6.166   4.452   1.017
 7606TIP3    H122759   6.146   4.392   1.090
 7606TIP3    H222760   6.235   4.407   0.968
 7607TIP3   OH222761   4.030   4.721   4.606
 7607TIP3    H122762   4.054   4.773   4.530
 7607TIP3    H222763   4.109   4.671   4.627
 7608TIP3   OH222764   0.118   5.576   4.083
 7608TIP3    H122765   0.184   5.645   4.086
 7608TIP3    H222766   0.044   5.611   4.132
 7609TIP3   OH222767   4.480   4.637   4.108
 7609TIP3    H122768   4.452   4.614   4.019
 7609TIP3    H222769   4.563   4.683   4.096
 7610TIP3   OH222770   7.876   7.178   0.880
 7610TIP3    H122771   7.810   7.203   0.815
 7610TIP3    H222772   7.835   7.197   0.964
 7611TIP3   OH222773   7.518   5.641   5.703
 7611TIP3    H122774   7.537   5.658   5.795
 7611TIP3    H222775   7.479   5.723   5.670
 7612TIP3   OH222776   6.748   4.855   0.711
 7612TIP3    H122777   6.677   4.857   0.647
 7612TIP3    H222778   6.774   4.763   0.715
 7613TIP3   OH222779   8.380   6.274   6.373
 7613TIP3    H122780   8.378   6.190   6.418
 7613TIP3    H222781   8.313   6.266   6.305
 7614TIP3   OH222782   5.201   1.419   1.846
 7614TIP3    H122783   5.287   1.394   1.813
 7614TIP3    H222784   5.201   1.515   1.844
 7615TIP3   OH222785   3.716   6.657   1.566
 7615TIP3    H122786   3.628   6.621   1.571
 7615TIP3    H222787   3.772   6.580   1.558
 7616TIP3   OH222788   1.566   2.592   6.825
 7616TIP3    H122789   1.471   2.601   6.815
 7616TIP3    H222790   1.577   2.551   6.911
 7617TIP3   OH222791   4.442   7.382   2.664
 7617TIP3    H122792   4.424   7.382   2.758
 7617TIP3    H222793   4.501   7.307   2.652
 7618TIP3   OH222794   7.395   2.241   5.022
 7618TIP3    H122795   7.456   2.167   5.026
 7618TIP3    H222796   7.366   2.243   4.931
 7619TIP3   OH222797   2.015   2.384   2.839
 7619TIP3    H122798   1.965   2.362   2.761
 7619TIP3    H222799   1.956   2.438   2.892
 7620TIP3   OH222800   5.854   0.988   0.494
 7620TIP3    H122801   5.845   0.999   0.400
 7620TIP3    H222802   5.947   1.005   0.511
 7621TIP3   OH222803   5.816   2.650   4.305
 7621TIP3    H122804   5.884   2.584   4.293
 7621TIP3    H222805   5.809   2.661   4.400
 7622TIP3   OH222806   1.026   2.479   0.098
 7622TIP3    H122807   1.043   2.510   0.009
 7622TIP3    H222808   0.981   2.395   0.086
 7623TIP3   OH222809   0.806   0.012   3.141
 7623TIP3    H122810   0.844   0.043   3.223
 7623TIP3    H222811   0.732   0.071   3.126
 7624TIP3   OH222812   1.396   6.883   4.682
 7624TIP3    H122813   1.346   6.868   4.762
 7624TIP3    H222814   1.361   6.966   4.648
 7625TIP3   OH222815   0.474   7.042   5.868
 7625TIP3    H122816   0.545   7.012   5.810
 7625TIP3    H222817   0.460   6.968   5.928
 7626TIP3   OH222818   0.213   1.308   5.420
 7626TIP3    H122819   0.207   1.311   5.324
 7626TIP3    H222820   0.141   1.252   5.447
 7627TIP3   OH222821   1.892   7.823   0.984
 7627TIP3    H122822   1.882   7.733   1.015
 7627TIP3    H222823   1.940   7.814   0.902
 7628TIP3   OH222824   5.749   6.996   5.697
 7628TIP3    H122825   5.813   7.057   5.659
 7628TIP3    H222826   5.692   7.052   5.749
 7629TIP3   OH222827   1.796   0.555   5.932
 7629TIP3    H122828   1.881   0.555   5.889
 7629TIP3    H222829   1.800   0.628   5.994
 7630TIP3   OH222830   4.315   3.443   5.552
 7630TIP3    H122831   4.302   3.517   5.611
 7630TIP3    H222832   4.392   3.467   5.500
 7631TIP3   OH222833   1.902   5.653   5.121
 7631TIP3    H122834   1.935   5.606   5.197
 7631TIP3    H222835   1.977   5.703   5.089
 7632TIP3   OH222836   3.991   0.886   2.014
 7632TIP3    H122837   3.998   0.892   2.110
 7632TIP3    H222838   3.898   0.868   1.998
 7633TIP3   OH222839   2.130   7.189   1.055
 7633TIP3    H122840   2.071   7.119   1.025
 7633TIP3    H222841   2.177   7.216   0.976
 7634TIP3   OH222842   1.145   2.926   2.936
 7634TIP3    H122843   1.160   2.863   2.865
 7634TIP3    H222844   1.184   2.884   3.013
 7635TIP3   OH222845   5.775   7.062   2.507
 7635TIP3    H122846   5.849   7.092   2.454
 7635TIP3    H222847   5.700   7.066   2.447
 7636TIP3   OH222848   2.529   3.735   5.920
 7636TIP3    H122849   2.503   3.698   5.835
 7636TIP3    H222850   2.512   3.665   5.982
 7637TIP3   OH222851   5.631   7.567   6.160
 7637TIP3    H122852   5.541   7.582   6.131
 7637TIP3    H222853   5.648   7.639   6.221
 7638TIP3   OH222854   8.443   5.600   1.369
 7638TIP3    H122855   8.428   5.511   1.402
 7638TIP3    H222856   8.355   5.639   1.365
 7639TIP3   OH222857   3.097   5.180   2.789
 7639TIP3    H122858   3.179   5.172   2.838
 7639TIP3    H222859   3.092   5.273   2.766
 7640TIP3   OH222860   0.401   7.596   0.853
 7640TIP3    H122861   0.330   7.656   0.829
 7640TIP3    H222862   0.418   7.616   0.945
 7641TIP3   OH222863   5.456   6.687   5.803
 7641TIP3    H122864   5.412   6.771   5.816
 7641TIP3    H222865   5.549   6.710   5.799
 7642TIP3   OH222866   4.028   6.594   4.375
 7642TIP3    H122867   3.959   6.661   4.377
 7642TIP3    H222868   3.999   6.527   4.436
 7643TIP3   OH222869   2.490   3.142   5.843
 7643TIP3    H122870   2.508   3.184   5.759
 7643TIP3    H222871   2.395   3.127   5.841
 7644TIP3   OH222872   5.454   0.916   3.393
 7644TIP3    H122873   5.522   0.971   3.433
 7644TIP3    H222874   5.451   0.945   3.302
 7645TIP3   OH222875   2.287   5.470   3.779
 7645TIP3    H122876   2.211   5.464   3.837
 7645TIP3    H222877   2.348   5.526   3.826
 7646TIP3   OH222878   6.555   2.747   6.443
 7646TIP3    H122879   6.480   2.690   6.460
 7646TIP3    H222880   6.537   2.825   6.496
 7647TIP3   OH222881   7.293   4.268   5.681
 7647TIP3    H122882   7.318   4.230   5.596
 7647TIP3    H222883   7.231   4.337   5.658
 7648TIP3   OH222884   2.622   1.586   4.356
 7648TIP3    H122885   2.703   1.635   4.370
 7648TIP3    H222886   2.592   1.613   4.269
 7649TIP3   OH222887   6.581   6.526   6.509
 7649TIP3    H122888   6.617   6.437   6.506
 7649TIP3    H222889   6.540   6.538   6.424
 7650TIP3   OH222890   8.181   5.970   1.377
 7650TIP3    H122891   8.147   6.035   1.439
 7650TIP3    H222892   8.264   5.942   1.415
 7651TIP3   OH222893   6.340   7.588   4.204
 7651TIP3    H122894   6.310   7.520   4.264
 7651TIP3    H222895   6.269   7.598   4.141
 7652TIP3   OH222896   8.062   1.874   3.939
 7652TIP3    H122897   8.028   1.954   3.979
 7652TIP3    H222898   8.101   1.826   4.012
 7653TIP3   OH222899   8.228   3.745   1.632
 7653TIP3    H122900   8.315   3.719   1.600
 7653TIP3    H222901   8.220   3.701   1.717
 7654TIP3   OH222902   4.188   1.049   3.462
 7654TIP3    H122903   4.257   1.000   3.508
 7654TIP3    H222904   4.218   1.140   3.466
 7655TIP3   OH222905   3.030   1.809   2.628
 7655TIP3    H122906   2.961   1.769   2.681
 7655TIP3    H222907   3.089   1.850   2.691
 7656TIP3   OH222908   4.065   4.672   2.188
 7656TIP3    H122909   4.137   4.615   2.217
 7656TIP3    H222910   4.088   4.758   2.222
 7657TIP3   OH222911   5.791   5.534   1.343
 7657TIP3    H122912   5.739   5.600   1.389
 7657TIP3    H222913   5.749   5.526   1.257
 7658TIP3   OH222914   4.474   0.568   0.679
 7658TIP3    H122915   4.412   0.546   0.609
 7658TIP3    H222916   4.464   0.662   0.692
 7659TIP3   OH222917   2.113   6.253   1.943
 7659TIP3    H122918   2.101   6.328   1.885
 7659TIP3    H222919   2.206   6.255   1.966
 7660TIP3   OH222920   0.148   3.202   5.960
 7660TIP3    H122921   0.160   3.294   5.935
 7660TIP3    H222922   0.054   3.186   5.952
 7661TIP3   OH222923   1.076   4.766   5.480
 7661TIP3    H122924   1.068   4.674   5.504
 7661TIP3    H222925   1.124   4.805   5.553
 7662TIP3   OH222926   4.921   5.451   5.872
 7662TIP3    H122927   4.867   5.414   5.803
 7662TIP3    H222928   5.000   5.396   5.874
 7663TIP3   OH222929   6.000   5.047   2.460
 7663TIP3    H122930   6.009   4.956   2.431
 7663TIP3    H222931   6.088   5.072   2.487
 7664TIP3   OH222932   0.860   2.913   2.199
 7664TIP3    H122933   0.874   2.822   2.172
 7664TIP3    H222934   0.815   2.953   2.124
 7665TIP3   OH222935   4.334   5.081   1.283
 7665TIP3    H122936   4.260   5.021   1.292
 7665TIP3    H222937   4.364   5.068   1.193
 7666TIP3   OH222938   1.386   3.236   5.296
 7666TIP3    H122939   1.461   3.209   5.244
 7666TIP3    H222940   1.415   3.229   5.386
 7667TIP3   OH222941   2.152   3.990   3.908
 7667TIP3    H122942   2.216   3.979   3.979
 7667TIP3    H222943   2.188   4.061   3.854
 7668TIP3   OH222944   2.167   4.517   3.347
 7668TIP3    H122945   2.079   4.539   3.314
 7668TIP3    H222946   2.226   4.571   3.295
 7669TIP3   OH222947   6.161   6.744   0.158
 7669TIP3    H122948   6.119   6.725   0.242
 7669TIP3    H222949   6.110   6.817   0.122
 7670TIP3   OH222950   0.510   0.957   2.771
 7670TIP3    H122951   0.585   1.009   2.798
 7670TIP3    H222952   0.519   0.875   2.820
 7671TIP3   OH222953   7.033   0.536   4.766
 7671TIP3    H122954   7.064   0.446   4.758
 7671TIP3    H222955   6.956   0.540   4.709
 7672TIP3   OH222956   6.113   5.824   6.369
 7672TIP3    H122957   6.121   5.775   6.287
 7672TIP3    H222958   6.035   5.879   6.357
 7673TIP3   OH222959   3.904   0.166   4.226
 7673TIP3    H122960   3.846   0.145   4.299
 7673TIP3    H222961   3.938   0.253   4.246
 7674TIP3   OH222962   3.430   1.519   1.557
 7674TIP3    H122963   3.454   1.498   1.648
 7674TIP3    H222964   3.354   1.576   1.564
 7675TIP3   OH222965   7.767   4.198   2.310
 7675TIP3    H122966   7.733   4.202   2.221
 7675TIP3    H222967   7.858   4.171   2.300
 7676TIP3   OH222968   7.889   6.053   4.366
 7676TIP3    H122969   7.887   6.089   4.455
 7676TIP3    H222970   7.980   6.059   4.340
 7677TIP3   OH222971   4.933   4.569   5.609
 7677TIP3    H122972   4.888   4.485   5.594
 7677TIP3    H222973   4.900   4.627   5.540
 7678TIP3   OH222974   6.302   1.380   0.007
 7678TIP3    H122975   6.381   1.435   0.008
 7678TIP3    H222976   6.280   1.369   0.100
 7679TIP3   OH222977   5.733   1.145   6.293
 7679TIP3    H122978   5.693   1.220   6.249
 7679TIP3    H222979   5.713   1.158   6.385
 7680TIP3   OH222980   7.420   0.903   6.383
 7680TIP3    H122981   7.453   0.816   6.358
 7680TIP3    H222982   7.335   0.909   6.339
 7681TIP3   OH222983   4.289   6.876   1.236
 7681TIP3    H122984   4.289   6.782   1.256
 7681TIP3    H222985   4.358   6.913   1.291
 7682TIP3   OH222986   5.656   3.480   1.667
 7682TIP3    H122987   5.584   3.472   1.729
 7682TIP3    H222988   5.688   3.390   1.657
 7683TIP3   OH222989   7.562   7.733   5.734
 7683TIP3    H122990   7.592   7.807   5.787
 7683TIP3    H222991   7.540   7.665   5.798
 7684TIP3   OH222992   4.313   7.641   2.566
 7684TIP3    H122993   4.382   7.706   2.553
 7684TIP3    H222994   4.358   7.564   2.600
 7685TIP3   OH222995   3.195   1.474   4.718
 7685TIP3    H122996   3.155   1.485   4.804
 7685TIP3    H222997   3.121   1.455   4.660
 7686TIP3   OH222998   6.128   1.027   4.577
 7686TIP3    H122999   6.224   1.026   4.577
 7686TIP3    H223000   6.103   0.957   4.517
 7687TIP3   OH223001   5.018   3.053   4.331
 7687TIP3    H123002   5.069   2.997   4.273
 7687TIP3    H223003   5.038   3.142   4.301
 7688TIP3   OH223004   5.209   1.461   6.272
 7688TIP3    H123005   5.194   1.495   6.184
 7688TIP3    H223006   5.226   1.538   6.326
 7689TIP3   OH223007   5.127   3.322   4.206
 7689TIP3    H123008   5.052   3.370   4.172
 7689TIP3    H223009   5.200   3.347   4.150
 7690TIP3   OH223010   1.068   4.728   2.087
 7690TIP3    H123011   0.990   4.784   2.081
 7690TIP3    H223012   1.106   4.750   2.172
 7691TIP3   OH223013   3.490   0.028   5.882
 7691TIP3    H123014   3.558   0.082   5.842
 7691TIP3    H223015   3.443   0.088   5.940
 7692TIP3   OH223016   0.845   5.528   5.852
 7692TIP3    H123017   0.758   5.532   5.813
 7692TIP3    H223018   0.871   5.437   5.841
 7693TIP3   OH223019   7.985   1.989   5.164
 7693TIP3    H123020   7.963   1.925   5.096
 7693TIP3    H223021   7.937   1.959   5.242
 7694TIP3   OH223022   0.409   6.128   0.381
 7694TIP3    H123023   0.389   6.201   0.322
 7694TIP3    H223024   0.463   6.166   0.449
 7695TIP3   OH223025   3.631   0.320   1.999
 7695TIP3    H123026   3.662   0.285   1.916
 7695TIP3    H223027   3.684   0.398   2.013
 7696TIP3   OH223028   6.472   5.398   5.033
 7696TIP3    H123029   6.399   5.348   4.995
 7696TIP3    H223030   6.524   5.333   5.080
 7697TIP3   OH223031   6.326   7.438   5.881
 7697TIP3    H123032   6.247   7.411   5.928
 7697TIP3    H223033   6.398   7.401   5.932
 7698TIP3   OH223034   3.140   3.368   5.890
 7698TIP3    H123035   3.207   3.433   5.913
 7698TIP3    H223036   3.185   3.306   5.833
 7699TIP3   OH223037   8.331   7.417   6.334
 7699TIP3    H123038   8.307   7.504   6.366
 7699TIP3    H223039   8.382   7.433   6.255
 7700TIP3   OH223040   4.443   1.565   4.838
 7700TIP3    H123041   4.354   1.595   4.857
 7700TIP3    H223042   4.489   1.569   4.922
 7701TIP3   OH223043   4.533   5.893   4.838
 7701TIP3    H123044   4.439   5.895   4.857
 7701TIP3    H223045   4.573   5.936   4.914
 7702TIP3   OH223046   6.027   0.757   6.500
 7702TIP3    H123047   6.026   0.851   6.485
 7702TIP3    H223048   6.016   0.747   6.595
 7703TIP3   OH223049   6.232   4.612   4.263
 7703TIP3    H123050   6.305   4.647   4.313
 7703TIP3    H223051   6.227   4.666   4.185
 7704TIP3   OH223052   1.101   4.277   0.861
 7704TIP3    H123053   1.112   4.234   0.946
 7704TIP3    H223054   1.172   4.341   0.858
 7705TIP3   OH223055   6.824   0.624   4.582
 7705TIP3    H123056   6.856   0.549   4.531
 7705TIP3    H223057   6.760   0.586   4.642
 7706TIP3   OH223058   5.709   0.950   4.385
 7706TIP3    H123059   5.721   1.013   4.456
 7706TIP3    H223060   5.742   0.867   4.420
 7707TIP3   OH223061   7.677   4.930   3.105
 7707TIP3    H123062   7.621   4.906   3.032
 7707TIP3    H223063   7.714   4.847   3.136
 7708TIP3   OH223064   4.643   2.109   0.999
 7708TIP3    H123065   4.713   2.174   0.995
 7708TIP3    H223066   4.685   2.031   1.034
 7709TIP3   OH223067   5.271   7.305   0.364
 7709TIP3    H123068   5.334   7.235   0.379
 7709TIP3    H223069   5.294   7.339   0.277
 7710TIP3   OH223070   4.173   0.108   2.733
 7710TIP3    H123071   4.163   0.118   2.828
 7710TIP3    H223072   4.128   0.184   2.697
 7711TIP3   OH223073   7.243   4.643   2.802
 7711TIP3    H123074   7.321   4.622   2.751
 7711TIP3    H223075   7.211   4.725   2.763
 7712TIP3   OH223076   0.469   2.193   3.023
 7712TIP3    H123077   0.561   2.216   3.030
 7712TIP3    H223078   0.457   2.171   2.930
 7713TIP3   OH223079   0.071   3.388   2.320
 7713TIP3    H123080   0.056   3.473   2.279
 7713TIP3    H223081   0.162   3.391   2.350
 7714TIP3   OH223082   6.842   4.673   1.588
 7714TIP3    H123083   6.851   4.748   1.647
 7714TIP3    H223084   6.873   4.598   1.639
 7715TIP3   OH223085   4.137   7.793   4.412
 7715TIP3    H123086   4.214   7.757   4.456
 7715TIP3    H223087   4.076   7.719   4.404
 7716TIP3   OH223088   1.441   2.516   2.425
 7716TIP3    H123089   1.453   2.487   2.334
 7716TIP3    H223090   1.373   2.583   2.420
 7717TIP3   OH223091   0.530   5.161   5.169
 7717TIP3    H123092   0.451   5.203   5.136
 7717TIP3    H223093   0.499   5.085   5.218
 7718TIP3   OH223094   0.218   7.065   3.773
 7718TIP3    H123095   0.246   6.974   3.780
 7718TIP3    H223096   0.221   7.098   3.863
 7719TIP3   OH223097   7.053  -0.011   2.684
 7719TIP3    H123098   7.010   0.008   2.767
 7719TIP3    H223099   7.146   0.007   2.701
 7720TIP3   OH223100   2.849   0.774   1.440
 7720TIP3    H123101   2.821   0.850   1.390
 7720TIP3    H223102   2.768   0.736   1.474
 7721TIP3   OH223103   6.782   2.444   4.339
 7721TIP3    H123104   6.876   2.454   4.320
 7721TIP3    H223105   6.752   2.380   4.275
 7722TIP3   OH223106   3.533   2.429   4.355
 7722TIP3    H123107   3.446   2.462   4.335
 7722TIP3    H223108   3.591   2.471   4.291
 7723TIP3   OH223109   0.104   5.071   5.471
 7723TIP3    H123110   0.199   5.066   5.462
 7723TIP3    H223111   0.084   5.020   5.549
 7724TIP3   OH223112   0.685   7.620   4.805
 7724TIP3    H123113   0.719   7.542   4.761
 7724TIP3    H223114   0.629   7.662   4.740
 7725TIP3   OH223115   4.593   7.502   4.716
 7725TIP3    H123116   4.599   7.407   4.726
 7725TIP3    H223117   4.683   7.531   4.701
 7726TIP3   OH223118   1.457   5.578   5.279
 7726TIP3    H123119   1.467   5.491   5.241
 7726TIP3    H223120   1.425   5.562   5.368
 7727TIP3   OH223121   6.736   0.286   2.526
 7727TIP3    H123122   6.723   0.320   2.614
 7727TIP3    H223123   6.667   0.326   2.474
 7728TIP3   OH223124   6.465   7.668   6.353
 7728TIP3    H123125   6.487   7.610   6.425
 7728TIP3    H223126   6.497   7.623   6.275
 7729TIP3   OH223127   3.282   3.723   0.460
 7729TIP3    H123128   3.346   3.793   0.445
 7729TIP3    H223129   3.198   3.768   0.461
 7730TIP3   OH223130   8.297   3.845   6.696
 7730TIP3    H123131   8.352   3.787   6.644
 7730TIP3    H223132   8.209   3.806   6.691
 7731TIP3   OH223133   5.963   6.026   1.602
 7731TIP3    H123134   5.984   5.984   1.518
 7731TIP3    H223135   5.922   5.956   1.653
 7732TIP3   OH223136   3.183   6.187   0.983
 7732TIP3    H123137   3.101   6.237   0.985
 7732TIP3    H223138   3.229   6.212   1.063
 7733TIP3   OH223139   5.573   2.404   4.798
 7733TIP3    H123140   5.554   2.314   4.771
 7733TIP3    H223141   5.616   2.443   4.722
 7734TIP3   OH223142   5.690   6.771   2.317
 7734TIP3    H123143   5.760   6.763   2.381
 7734TIP3    H223144   5.632   6.838   2.352
 7735TIP3   OH223145   1.951   6.881   5.957
 7735TIP3    H123146   1.880   6.900   6.019
 7735TIP3    H223147   1.921   6.918   5.874
 7736TIP3   OH223148   8.138   0.411   1.042
 7736TIP3    H123149   8.230   0.437   1.051
 7736TIP3    H223150   8.094   0.488   1.008
 7737TIP3   OH223151   2.931   4.821   3.143
 7737TIP3    H123152   2.907   4.763   3.071
 7737TIP3    H223153   3.025   4.806   3.156
 7738TIP3   OH223154   4.988   7.765   6.332
 7738TIP3    H123155   4.984   7.857   6.358
 7738TIP3    H223156   5.021   7.766   6.242
 7739TIP3   OH223157   5.761   7.778   2.734
 7739TIP3    H123158   5.687   7.752   2.789
 7739TIP3    H223159   5.827   7.710   2.748
 7740TIP3   OH223160   5.193   3.462   1.015
 7740TIP3    H123161   5.210   3.452   0.921
 7740TIP3    H223162   5.262   3.521   1.046
 7741TIP3   OH223163   3.478   5.013   5.766
 7741TIP3    H123164   3.490   5.093   5.816
 7741TIP3    H223165   3.463   5.042   5.676
 7742TIP3   OH223166   5.572   5.933   6.075
 7742TIP3    H123167   5.666   5.917   6.069
 7742TIP3    H223168   5.560   6.018   6.033
 7743TIP3   OH223169   1.416   5.020   6.197
 7743TIP3    H123170   1.498   5.069   6.196
 7743TIP3    H223171   1.443   4.929   6.204
 7744TIP3   OH223172   1.784   0.381   1.445
 7744TIP3    H123173   1.775   0.471   1.416
 7744TIP3    H223174   1.876   0.372   1.468
 7745TIP3   OH223175   3.466   1.891   6.045
 7745TIP3    H123176   3.397   1.887   6.112
 7745TIP3    H223177   3.420   1.915   5.964
 7746TIP3   OH223178   0.368   0.492   4.734
 7746TIP3    H123179   0.337   0.479   4.644
 7746TIP3    H223180   0.289   0.517   4.783
 7747TIP3   OH223181   1.296   0.101   2.736
 7747TIP3    H123182   1.223   0.107   2.674
 7747TIP3    H223183   1.370   0.142   2.691
 7748TIP3   OH223184   3.434   6.029   4.538
 7748TIP3    H123185   3.436   5.937   4.512
 7748TIP3    H223186   3.490   6.033   4.616
 7749TIP3   OH223187   1.816   3.258   2.700
 7749TIP3    H123188   1.851   3.179   2.740
 7749TIP3    H223189   1.737   3.278   2.750
 7750TIP3   OH223190   6.649   2.670   4.128
 7750TIP3    H123191   6.711   2.666   4.201
 7750TIP3    H223192   6.688   2.614   4.061
 7751TIP3   OH223193   2.423   2.900   4.987
 7751TIP3    H123194   2.475   2.969   5.028
 7751TIP3    H223195   2.487   2.836   4.957
 7752TIP3   OH223196   1.322   4.950   3.207
 7752TIP3    H123197   1.393   4.984   3.261
 7752TIP3    H223198   1.244   4.997   3.236
 7753TIP3   OH223199   4.110   0.494   6.241
 7753TIP3    H123200   4.056   0.569   6.263
 7753TIP3    H223201   4.077   0.423   6.297
 7754TIP3   OH223202   7.377   4.664   6.077
 7754TIP3    H123203   7.291   4.641   6.043
 7754TIP3    H223204   7.433   4.592   6.051
 7755TIP3   OH223205   5.059   0.483   4.771
 7755TIP3    H123206   5.140   0.530   4.750
 7755TIP3    H223207   5.087   0.407   4.821
 7756TIP3   OH223208   4.141   3.332   0.701
 7756TIP3    H123209   4.108   3.335   0.612
 7756TIP3    H223210   4.176   3.420   0.717
 7757TIP3   OH223211   2.423   4.601   1.614
 7757TIP3    H123212   2.496   4.660   1.597
 7757TIP3    H223213   2.392   4.576   1.527
 7758TIP3   OH223214   6.071   1.678   4.302
 7758TIP3    H123215   6.154   1.649   4.264
 7758TIP3    H223216   6.085   1.675   4.396
 7759TIP3   OH223217   7.523   5.997   5.431
 7759TIP3    H123218   7.439   5.955   5.410
 7759TIP3    H223219   7.504   6.090   5.433
 7760TIP3   OH223220   3.396   0.747   0.767
 7760TIP3    H123221   3.412   0.796   0.848
 7760TIP3    H223222   3.348   0.808   0.711
 7761TIP3   OH223223   6.823   6.366   0.720
 7761TIP3    H123224   6.766   6.348   0.645
 7761TIP3    H223225   6.764   6.399   0.788
 7762TIP3   OH223226   6.976   1.725   3.568
 7762TIP3    H123227   6.964   1.672   3.646
 7762TIP3    H223228   7.054   1.689   3.526
 7763TIP3   OH223229   4.093   1.137   5.542
 7763TIP3    H123230   4.139   1.178   5.615
 7763TIP3    H223231   4.056   1.057   5.580
 7764TIP3   OH223232   4.211   1.264   4.079
 7764TIP3    H123233   4.276   1.196   4.100
 7764TIP3    H223234   4.127   1.217   4.076
 7765TIP3   OH223235   2.806   7.420   1.157
 7765TIP3    H123236   2.722   7.386   1.186
 7765TIP3    H223237   2.864   7.409   1.233
 7766TIP3   OH223238   5.970   3.487   0.606
 7766TIP3    H123239   6.004   3.463   0.692
 7766TIP3    H223240   5.900   3.424   0.590
 7767TIP3   OH223241   3.712   5.979   0.805
 7767TIP3    H123242   3.703   6.004   0.897
 7767TIP3    H223243   3.639   6.022   0.761
 7768TIP3   OH223244   6.174   1.653   2.842
 7768TIP3    H123245   6.172   1.581   2.779
 7768TIP3    H223246   6.089   1.696   2.832
 7769TIP3   OH223247   6.767   1.381   3.529
 7769TIP3    H123248   6.739   1.406   3.441
 7769TIP3    H223249   6.685   1.371   3.577
 7770TIP3   OH223250   4.782   2.485   4.531
 7770TIP3    H123251   4.796   2.430   4.454
 7770TIP3    H223252   4.696   2.524   4.516
 7771TIP3   OH223253   0.157   3.872   2.134
 7771TIP3    H123254   0.185   3.904   2.048
 7771TIP3    H223255   0.229   3.895   2.193
 7772TIP3   OH223256   0.397   3.737   3.396
 7772TIP3    H123257   0.422   3.769   3.310
 7772TIP3    H223258   0.355   3.812   3.438
 7773TIP3   OH223259   7.683   0.224   4.632
 7773TIP3    H123260   7.703   0.261   4.718
 7773TIP3    H223261   7.742   0.268   4.572
 7774TIP3   OH223262   6.731   2.874   4.364
 7774TIP3    H123263   6.715   2.968   4.367
 7774TIP3    H223264   6.823   2.866   4.338
 7775TIP3   OH223265   6.347   0.721   1.438
 7775TIP3    H123266   6.343   0.710   1.533
 7775TIP3    H223267   6.259   0.701   1.408
 7776TIP3   OH223268   7.785   1.587   2.814
 7776TIP3    H123269   7.839   1.606   2.891
 7776TIP3    H223270   7.733   1.511   2.839
 7777TIP3   OH223271   5.384   4.659   2.388
 7777TIP3    H123272   5.348   4.571   2.397
 7777TIP3    H223273   5.337   4.711   2.453
 7778TIP3   OH223274   1.465   7.508   1.254
 7778TIP3    H123275   1.374   7.514   1.283
 7778TIP3    H223276   1.462   7.450   1.178
 7779TIP3   OH223277   6.565   6.336   3.665
 7779TIP3    H123278   6.560   6.398   3.592
 7779TIP3    H223279   6.506   6.265   3.640
 7780TIP3   OH223280   5.263   2.334   0.396
 7780TIP3    H123281   5.193   2.397   0.413
 7780TIP3    H223282   5.226   2.274   0.331
 7781TIP3   OH223283   5.306   1.582   4.709
 7781TIP3    H123284   5.273   1.652   4.766
 7781TIP3    H223285   5.366   1.627   4.649
 7782TIP3   OH223286   1.264   4.358   2.963
 7782TIP3    H123287   1.232   4.448   2.972
 7782TIP3    H223288   1.346   4.356   3.011
 7783TIP3   OH223289   3.192   5.486   1.753
 7783TIP3    H123290   3.284   5.462   1.753
 7783TIP3    H223291   3.189   5.570   1.705
 7784TIP3   OH223292   0.391   1.088   4.838
 7784TIP3    H123293   0.300   1.106   4.813
 7784TIP3    H223294   0.405   1.140   4.916
 7785TIP3   OH223295   7.304   3.566   0.882
 7785TIP3    H123296   7.249   3.498   0.843
 7785TIP3    H223297   7.290   3.556   0.976
 7786TIP3   OH223298   3.466   4.520   0.263
 7786TIP3    H123299   3.538   4.525   0.200
 7786TIP3    H223300   3.507   4.488   0.344
 7787TIP3   OH223301   3.636   3.911   4.380
 7787TIP3    H123302   3.630   3.832   4.434
 7787TIP3    H223303   3.617   3.983   4.440
 7788TIP3   OH223304   6.726   1.779   2.415
 7788TIP3    H123305   6.815   1.745   2.424
 7788TIP3    H223306   6.729   1.837   2.339
 7789TIP3   OH223307   5.855   1.894   0.313
 7789TIP3    H123308   5.902   1.975   0.292
 7789TIP3    H223309   5.804   1.917   0.391
 7790TIP3   OH223310   4.178   2.979   0.338
 7790TIP3    H123311   4.205   2.967   0.429
 7790TIP3    H223312   4.220   3.060   0.311
 7791TIP3   OH223313   8.160   5.653   5.633
 7791TIP3    H123314   8.139   5.573   5.584
 7791TIP3    H223315   8.144   5.724   5.571
 7792TIP3   OH223316   1.765   6.217   5.271
 7792TIP3    H123317   1.780   6.248   5.360
 7792TIP3    H223318   1.755   6.297   5.219
 7793TIP3   OH223319   5.477   3.358   3.657
 7793TIP3    H123320   5.384   3.375   3.645
 7793TIP3    H223321   5.494   3.281   3.604
 7794TIP3   OH223322   3.514   2.637   4.771
 7794TIP3    H123323   3.478   2.588   4.845
 7794TIP3    H223324   3.447   2.629   4.702
 7795TIP3   OH223325   5.432   6.959   5.629
 7795TIP3    H123326   5.396   6.945   5.542
 7795TIP3    H223327   5.524   6.933   5.622
 7796TIP3   OH223328   1.529   0.126   2.598
 7796TIP3    H123329   1.566   0.095   2.515
 7796TIP3    H223330   1.555   0.218   2.603
 7797TIP3   OH223331   6.670   3.146   4.346
 7797TIP3    H123332   6.591   3.097   4.325
 7797TIP3    H223333   6.641   3.214   4.407
 7798TIP3   OH223334   5.887   3.354   5.439
 7798TIP3    H123335   5.831   3.315   5.372
 7798TIP3    H223336   5.976   3.346   5.404
 7799TIP3   OH223337   7.855   0.458   4.546
 7799TIP3    H123338   7.841   0.502   4.463
 7799TIP3    H223339   7.886   0.526   4.606
 7800TIP3   OH223340   7.667   7.476   6.691
 7800TIP3    H123341   7.634   7.561   6.721
 7800TIP3    H223342   7.590   7.419   6.691
 7801TIP3   OH223343   4.919   5.726   5.803
 7801TIP3    H123344   4.831   5.737   5.839
 7801TIP3    H223345   4.944   5.637   5.827
 7802TIP3   OH223346   1.973   4.961   3.045
 7802TIP3    H123347   2.050   4.989   2.994
 7802TIP3    H223348   1.971   5.021   3.119
 7803TIP3   OH223349   6.266   2.674   4.006
 7803TIP3    H123350   6.196   2.617   3.975
 7803TIP3    H223351   6.342   2.616   4.013
 7804TIP3   OH223352   2.093   7.871   5.722
 7804TIP3    H123353   2.043   7.841   5.646
 7804TIP3    H223354   2.092   7.966   5.716
 7805TIP3   OH223355   5.183   5.808   5.354
 7805TIP3    H123356   5.108   5.818   5.295
 7805TIP3    H223357   5.146   5.821   5.442
 7806TIP3   OH223358   6.484   1.705   0.431
 7806TIP3    H123359   6.448   1.785   0.469
 7806TIP3    H223360   6.552   1.677   0.493
 7807TIP3   OH223361   7.428   2.919   3.511
 7807TIP3    H123362   7.495   2.899   3.445
 7807TIP3    H223363   7.458   3.001   3.550
 7808TIP3   OH223364   3.514   2.779   2.686
 7808TIP3    H123365   3.527   2.715   2.756
 7808TIP3    H223366   3.598   2.825   2.681
 7809TIP3   OH223367   7.336   6.325   2.774
 7809TIP3    H123368   7.395   6.355   2.705
 7809TIP3    H223369   7.296   6.404   2.808
 7810TIP3   OH223370   6.831   0.379   4.452
 7810TIP3    H123371   6.850   0.298   4.499
 7810TIP3    H223372   6.853   0.359   4.361
 7811TIP3   OH223373   0.307   7.196   3.411
 7811TIP3    H123374   0.355   7.189   3.328
 7811TIP3    H223375   0.247   7.269   3.398
 7812TIP3   OH223376   7.095   6.965   1.214
 7812TIP3    H123377   7.070   7.020   1.287
 7812TIP3    H223378   7.064   6.878   1.237
 7813TIP3   OH223379   4.394   6.581   1.856
 7813TIP3    H123380   4.316   6.626   1.887
 7813TIP3    H223381   4.460   6.599   1.923
 7814TIP3   OH223382   1.971   6.674   4.951
 7814TIP3    H123383   1.931   6.642   4.870
 7814TIP3    H223384   1.915   6.746   4.979
 7815TIP3   OH223385   0.559   6.464   3.591
 7815TIP3    H123386   0.572   6.542   3.538
 7815TIP3    H223387   0.635   6.460   3.649
 7816TIP3   OH223388   4.019   0.257   6.396
 7816TIP3    H123389   3.970   0.232   6.474
 7816TIP3    H223390   4.109   0.229   6.414
 7817TIP3   OH223391   8.350   1.102   1.112
 7817TIP3    H123392   8.437   1.063   1.121
 7817TIP3    H223393   8.361   1.192   1.144
 7818TIP3   OH223394   5.664   7.410   5.487
 7818TIP3    H123395   5.597   7.470   5.520
 7818TIP3    H223396   5.670   7.430   5.394
 7819TIP3   OH223397   6.165   4.442   1.676
 7819TIP3    H123398   6.170   4.498   1.599
 7819TIP3    H223399   6.125   4.361   1.645
 7820TIP3   OH223400   5.095   5.521   1.472
 7820TIP3    H123401   5.018   5.525   1.529
 7820TIP3    H223402   5.143   5.601   1.492
 7821TIP3   OH223403   3.993   7.223   1.269
 7821TIP3    H123404   3.924   7.232   1.203
 7821TIP3    H223405   4.055   7.162   1.232
 7822TIP3   OH223406   4.939   0.623   1.517
 7822TIP3    H123407   5.028   0.658   1.509
 7822TIP3    H223408   4.944   0.561   1.589
 7823TIP3   OH223409   8.339   1.140   0.232
 7823TIP3    H123410   8.262   1.093   0.200
 7823TIP3    H223411   8.334   1.226   0.188
 7824TIP3   OH223412   6.590   7.186   1.401
 7824TIP3    H123413   6.587   7.269   1.449
 7824TIP3    H223414   6.538   7.202   1.322
 7825TIP3   OH223415   7.645   7.650   0.356
 7825TIP3    H123416   7.714   7.717   0.355
 7825TIP3    H223417   7.580   7.682   0.294
 7826TIP3   OH223418   4.772   3.996   1.850
 7826TIP3    H123419   4.688   3.951   1.864
 7826TIP3    H223420   4.804   3.960   1.767
 7827TIP3   OH223421   0.642   3.409   3.293
 7827TIP3    H123422   0.572   3.397   3.357
 7827TIP3    H223423   0.600   3.450   3.218
 7828TIP3   OH223424   3.426   7.241   3.929
 7828TIP3    H123425   3.495   7.292   3.971
 7828TIP3    H223426   3.401   7.176   3.994
 7829TIP3   OH223427   3.317   3.528   1.021
 7829TIP3    H123428   3.385   3.594   1.029
 7829TIP3    H223429   3.245   3.572   0.975
 7830TIP3   OH223430   3.566   6.679   0.765
 7830TIP3    H123431   3.488   6.672   0.820
 7830TIP3    H223432   3.557   6.607   0.702
 7831TIP3   OH223433   6.503   6.475   3.889
 7831TIP3    H123434   6.531   6.436   3.806
 7831TIP3    H223435   6.430   6.533   3.865
 7832TIP3   OH223436   5.148   6.998   0.749
 7832TIP3    H123437   5.066   6.957   0.720
 7832TIP3    H223438   5.215   6.954   0.698
 7833TIP3   OH223439   2.697   0.578   3.229
 7833TIP3    H123440   2.615   0.627   3.240
 7833TIP3    H223441   2.735   0.575   3.317
 7834TIP3   OH223442   1.135   2.704   5.189
 7834TIP3    H123443   1.167   2.761   5.259
 7834TIP3    H223444   1.045   2.732   5.173
 7835TIP3   OH223445   3.792   3.136   3.433
 7835TIP3    H123446   3.786   3.176   3.346
 7835TIP3    H223447   3.703   3.108   3.452
 7836TIP3   OH223448   5.405   7.021   1.648
 7836TIP3    H123449   5.457   6.978   1.716
 7836TIP3    H223450   5.471   7.066   1.594
 7837TIP3   OH223451   2.355   5.397   3.486
 7837TIP3    H123452   2.323   5.422   3.573
 7837TIP3    H223453   2.450   5.397   3.495
 7838TIP3   OH223454   3.661   2.942   5.913
 7838TIP3    H123455   3.579   2.948   5.962
 7838TIP3    H223456   3.687   2.850   5.920
 7839TIP3   OH223457   7.195   0.924   4.641
 7839TIP3    H123458   7.150   0.995   4.595
 7839TIP3    H223459   7.135   0.849   4.633
 7840TIP3   OH223460   5.747   0.435   5.414
 7840TIP3    H123461   5.754   0.357   5.469
 7840TIP3    H223462   5.683   0.412   5.347
 7841TIP3   OH223463   0.397   0.673   2.995
 7841TIP3    H123464   0.373   0.584   2.969
 7841TIP3    H223465   0.486   0.684   2.962
 7842TIP3   OH223466   2.669   5.332   3.593
 7842TIP3    H123467   2.679   5.414   3.642
 7842TIP3    H223468   2.685   5.357   3.502
 7843TIP3   OH223469   1.453   5.785   2.175
 7843TIP3    H123470   1.477   5.815   2.087
 7843TIP3    H223471   1.476   5.858   2.232
 7844TIP3   OH223472   3.705   5.182   3.419
 7844TIP3    H123473   3.695   5.087   3.406
 7844TIP3    H223474   3.718   5.192   3.513
 7845TIP3   OH223475   1.293   3.348   0.604
 7845TIP3    H123476   1.199   3.351   0.624
 7845TIP3    H223477   1.298   3.360   0.509
 7846TIP3   OH223478   2.545   2.441   4.824
 7846TIP3    H123479   2.605   2.451   4.899
 7846TIP3    H223480   2.562   2.517   4.770
 7847TIP3   OH223481   2.489   5.573   4.181
 7847TIP3    H123482   2.418   5.570   4.245
 7847TIP3    H223483   2.527   5.660   4.192
 7848TIP3   OH223484   5.030   0.579   6.756
 7848TIP3    H123485   5.063   0.669   6.766
 7848TIP3    H223486   5.017   0.549   6.846
 7849TIP3   OH223487   6.652   0.428   4.730
 7849TIP3    H123488   6.699   0.353   4.767
 7849TIP3    H223489   6.561   0.397   4.721
 7850TIP3   OH223490   6.826   4.525   2.974
 7850TIP3    H123491   6.867   4.587   2.914
 7850TIP3    H223492   6.747   4.495   2.927
 7851TIP3   OH223493   5.189   6.926   3.900
 7851TIP3    H123494   5.167   6.838   3.868
 7851TIP3    H223495   5.105   6.972   3.902
 7852TIP3   OH223496   0.947   0.190   4.474
 7852TIP3    H123497   0.949   0.219   4.383
 7852TIP3    H223498   0.973   0.098   4.471
 7853TIP3   OH223499   4.065   2.391   0.759
 7853TIP3    H123500   4.036   2.481   0.769
 7853TIP3    H223501   4.045   2.350   0.843
 7854TIP3   OH223502   5.760   2.884   6.554
 7854TIP3    H123503   5.675   2.912   6.588
 7854TIP3    H223504   5.780   2.804   6.602
 7855TIP3   OH223505   4.843   2.077   1.520
 7855TIP3    H123506   4.844   2.021   1.597
 7855TIP3    H223507   4.836   2.166   1.556
 7856TIP3   OH223508   0.390   6.466   2.161
 7856TIP3    H123509   0.359   6.384   2.199
 7856TIP3    H223510   0.318   6.528   2.176
 7857TIP3   OH223511   1.716   3.106   3.314
 7857TIP3    H123512   1.724   3.064   3.400
 7857TIP3    H223513   1.640   3.163   3.322
 7858TIP3   OH223514   4.933   5.181   6.173
 7858TIP3    H123515   5.008   5.200   6.117
 7858TIP3    H223516   4.888   5.265   6.181
 7859TIP3   OH223517   4.524   2.284   3.303
 7859TIP3    H123518   4.534   2.200   3.258
 7859TIP3    H223519   4.433   2.309   3.286
 7860TIP3   OH223520   3.334   6.749   5.695
 7860TIP3    H123521   3.316   6.669   5.645
 7860TIP3    H223522   3.324   6.819   5.630
 7861TIP3   OH223523   4.503   0.608   2.684
 7861TIP3    H123524   4.435   0.672   2.662
 7861TIP3    H223525   4.541   0.641   2.766
 7862TIP3   OH223526   2.331   7.794   5.792
 7862TIP3    H123527   2.296   7.784   5.880
 7862TIP3    H223528   2.255   7.808   5.737
 7863TIP3   OH223529   0.541   1.874   1.521
 7863TIP3    H123530   0.499   1.880   1.435
 7863TIP3    H223531   0.630   1.906   1.507
 7864TIP3   OH223532   8.168   4.843   1.426
 7864TIP3    H123533   8.081   4.825   1.461
 7864TIP3    H223534   8.161   4.825   1.332
 7865TIP3   OH223535   3.475   6.166   6.610
 7865TIP3    H123536   3.513   6.144   6.695
 7865TIP3    H223537   3.384   6.190   6.631
 7866TIP3   OH223538   5.780   4.333   6.156
 7866TIP3    H123539   5.809   4.282   6.080
 7866TIP3    H223540   5.712   4.391   6.121
 7867TIP3   OH223541   3.251   1.719   2.022
 7867TIP3    H123542   3.195   1.647   1.993
 7867TIP3    H223543   3.274   1.766   1.941
 7868TIP3   OH223544   3.099   7.402   2.098
 7868TIP3    H123545   3.173   7.341   2.112
 7868TIP3    H223546   3.030   7.347   2.062
 7869TIP3   OH223547   2.937   2.991   3.974
 7869TIP3    H123548   2.873   2.946   4.030
 7869TIP3    H223549   3.013   3.004   4.031
 7870TIP3   OH223550   2.819   5.876   4.808
 7870TIP3    H123551   2.790   5.908   4.894
 7870TIP3    H223552   2.751   5.903   4.747
 7871TIP3   OH223553   7.889   7.735   5.685
 7871TIP3    H123554   7.804   7.778   5.694
 7871TIP3    H223555   7.889   7.668   5.753
 7872TIP3   OH223556   0.223   1.488   6.816
 7872TIP3    H123557   0.309   1.478   6.775
 7872TIP3    H223558   0.191   1.398   6.828
 7873TIP3   OH223559   6.639   4.694   0.238
 7873TIP3    H123560   6.644   4.739   0.154
 7873TIP3    H223561   6.727   4.659   0.252
 7874TIP3   OH223562   2.365   1.696   2.918
 7874TIP3    H123563   2.345   1.615   2.870
 7874TIP3    H223564   2.319   1.685   3.002
 7875TIP3   OH223565   7.196   3.095   6.390
 7875TIP3    H123566   7.203   3.146   6.471
 7875TIP3    H223567   7.124   3.137   6.342
 7876TIP3   OH223568   0.969   4.197   4.203
 7876TIP3    H123569   0.878   4.214   4.230
 7876TIP3    H223570   0.992   4.273   4.149
 7877TIP3   OH223571   4.828   5.513   3.334
 7877TIP3    H123572   4.744   5.468   3.342
 7877TIP3    H223573   4.808   5.603   3.361
 7878TIP3   OH223574   1.408   6.300   5.272
 7878TIP3    H123575   1.361   6.292   5.355
 7878TIP3    H223576   1.392   6.217   5.227
 7879TIP3   OH223577   3.355   5.687   6.657
 7879TIP3    H123578   3.316   5.651   6.737
 7879TIP3    H223579   3.297   5.759   6.632
 7880TIP3   OH223580   3.989   1.436   0.873
 7880TIP3    H123581   4.015   1.355   0.916
 7880TIP3    H223582   3.906   1.416   0.830
 7881TIP3   OH223583   3.504   7.454   3.346
 7881TIP3    H123584   3.443   7.384   3.366
 7881TIP3    H223585   3.576   7.441   3.407
 7882TIP3   OH223586   0.165   0.624   6.164
 7882TIP3    H123587   0.234   0.652   6.104
 7882TIP3    H223588   0.209   0.603   6.246
 7883TIP3   OH223589   5.898   2.420   6.340
 7883TIP3    H123590   5.921   2.374   6.259
 7883TIP3    H223591   5.826   2.478   6.316
 7884TIP3   OH223592   3.287   4.256   6.417
 7884TIP3    H123593   3.328   4.319   6.357
 7884TIP3    H223594   3.321   4.171   6.390
 7885TIP3   OH223595   7.151   1.327   4.498
 7885TIP3    H123596   7.244   1.303   4.505
 7885TIP3    H223597   7.104   1.247   4.522
 7886TIP3   OH223598   2.389   7.487   0.171
 7886TIP3    H123599   2.379   7.506   0.264
 7886TIP3    H223600   2.393   7.573   0.130
 7887TIP3   OH223601   6.312   2.883   3.817
 7887TIP3    H123602   6.220   2.908   3.813
 7887TIP3    H223603   6.319   2.828   3.895
 7888TIP3   OH223604   7.859   5.461   5.152
 7888TIP3    H123605   7.829   5.502   5.072
 7888TIP3    H223606   7.781   5.420   5.190
 7889TIP3   OH223607   7.705   0.303   1.231
 7889TIP3    H123608   7.632   0.316   1.292
 7889TIP3    H223609   7.667   0.322   1.145
 7890TIP3   OH223610   5.151   6.364   6.772
 7890TIP3    H123611   5.090   6.379   6.700
 7890TIP3    H223612   5.178   6.452   6.800
 7891TIP3   OH223613   2.939   2.361   3.289
 7891TIP3    H123614   2.991   2.291   3.328
 7891TIP3    H223615   2.905   2.410   3.363
 7892TIP3   OH223616   2.397   5.331   5.218
 7892TIP3    H123617   2.397   5.352   5.311
 7892TIP3    H223618   2.445   5.403   5.176
 7893TIP3   OH223619   0.675   0.654   2.363
 7893TIP3    H123620   0.724   0.614   2.292
 7893TIP3    H223621   0.613   0.712   2.320
 7894TIP3   OH223622   6.995   4.207   2.025
 7894TIP3    H123623   7.063   4.238   2.085
 7894TIP3    H223624   6.970   4.121   2.060
 7895TIP3   OH223625   2.354   0.261   3.340
 7895TIP3    H123626   2.279   0.303   3.384
 7895TIP3    H223627   2.348   0.169   3.365
 7896TIP3   OH223628   8.197   5.173   4.611
 7896TIP3    H123629   8.290   5.185   4.590
 7896TIP3    H223630   8.160   5.261   4.607
 7897TIP3   OH223631   6.641   0.761   5.685
 7897TIP3    H123632   6.575   0.692   5.678
 7897TIP3    H223633   6.617   0.824   5.617
 7898TIP3   OH223634   7.062   5.709   0.551
 7898TIP3    H123635   7.044   5.749   0.636
 7898TIP3    H223636   6.994   5.745   0.493
 7899TIP3   OH223637   6.017   4.990   6.471
 7899TIP3    H123638   5.956   5.002   6.398
 7899TIP3    H223639   6.029   4.896   6.476
 7900TIP3   OH223640   1.177   7.128   5.561
 7900TIP3    H123641   1.127   7.135   5.480
 7900TIP3    H223642   1.223   7.045   5.554
 7901TIP3   OH223643   1.320   5.405   1.526
 7901TIP3    H123644   1.280   5.486   1.493
 7901TIP3    H223645   1.337   5.423   1.619
 7902TIP3   OH223646   0.572   0.267   0.029
 7902TIP3    H123647   0.599   0.359   0.026
 7902TIP3    H223648   0.513   0.257  -0.045
 7903TIP3   OH223649   5.132   3.858   1.767
 7903TIP3    H123650   5.096   3.772   1.787
 7903TIP3    H223651   5.137   3.860   1.671
 7904TIP3   OH223652   0.423   1.262   4.476
 7904TIP3    H123653   0.472   1.333   4.433
 7904TIP3    H223654   0.491   1.203   4.508
 7905TIP3   OH223655   0.205   7.834   2.550
 7905TIP3    H123656   0.212   7.763   2.613
 7905TIP3    H223657   0.115   7.866   2.559
 7906TIP3   OH223658   8.335   7.878   3.030
 7906TIP3    H123659   8.355   7.926   2.949
 7906TIP3    H223660   8.372   7.933   3.099
 7907TIP3   OH223661   4.704   5.752   3.409
 7907TIP3    H123662   4.621   5.729   3.451
 7907TIP3    H223663   4.679   5.776   3.320
 7908TIP3   OH223664   1.180   6.997   4.842
 7908TIP3    H123665   1.142   7.046   4.914
 7908TIP3    H223666   1.180   6.906   4.872
 7909TIP3   OH223667   3.770   1.118   1.377
 7909TIP3    H123668   3.714   1.066   1.435
 7909TIP3    H223669   3.760   1.208   1.409
 7910TIP3   OH223670   0.235   6.495   2.484
 7910TIP3    H123671   0.291   6.571   2.474
 7910TIP3    H223672   0.201   6.479   2.396
 7911TIP3   OH223673   2.252   5.458   2.223
 7911TIP3    H123674   2.227   5.456   2.315
 7911TIP3    H223675   2.182   5.411   2.177
 7912TIP3   OH223676   5.160   5.916   5.861
 7912TIP3    H123677   5.073   5.890   5.893
 7912TIP3    H223678   5.214   5.837   5.870
 7913TIP3   OH223679   6.282   4.239   1.410
 7913TIP3    H123680   6.312   4.173   1.473
 7913TIP3    H223681   6.286   4.196   1.325
 7914TIP3   OH223682   0.242   5.313   1.385
 7914TIP3    H123683   0.147   5.313   1.398
 7914TIP3    H223684   0.256   5.376   1.314
 7915TIP3   OH223685   0.286   2.436   5.586
 7915TIP3    H123686   0.205   2.481   5.563
 7915TIP3    H223687   0.342   2.504   5.622
 7916TIP3   OH223688   0.688   4.732   0.421
 7916TIP3    H123689   0.721   4.685   0.497
 7916TIP3    H223690   0.764   4.742   0.363
 7917TIP3   OH223691   7.421   1.933   0.469
 7917TIP3    H123692   7.423   1.972   0.382
 7917TIP3    H223693   7.504   1.886   0.477
 7918TIP3   OH223694   4.734   4.200   6.386
 7918TIP3    H123695   4.673   4.255   6.336
 7918TIP3    H223696   4.756   4.129   6.326
 7919TIP3   OH223697   6.354   2.038   1.110
 7919TIP3    H123698   6.406   2.084   1.176
 7919TIP3    H223699   6.411   1.969   1.078
 7920TIP3   OH223700   4.428   2.518   4.914
 7920TIP3    H123701   4.372   2.487   4.842
 7920TIP3    H223702   4.489   2.578   4.871
 7921TIP3   OH223703   8.058   4.846   4.660
 7921TIP3    H123704   7.973   4.887   4.646
 7921TIP3    H223705   8.070   4.847   4.755
 7922TIP3   OH223706   7.973   2.418   6.182
 7922TIP3    H123707   7.903   2.479   6.203
 7922TIP3    H223708   7.961   2.345   6.242
 7923TIP3   OH223709   6.779   3.073   4.756
 7923TIP3    H123710   6.715   3.078   4.827
 7923TIP3    H223711   6.727   3.054   4.678
 7924TIP3   OH223712   3.852   4.648   1.559
 7924TIP3    H123713   3.778   4.642   1.499
 7924TIP3    H223714   3.823   4.710   1.626
 7925TIP3   OH223715   1.450   5.540   2.020
 7925TIP3    H123716   1.393   5.474   2.061
 7925TIP3    H223717   1.455   5.610   2.086
 7926TIP3   OH223718   2.051   2.381   4.516
 7926TIP3    H123719   2.007   2.396   4.599
 7926TIP3    H223720   2.079   2.289   4.520
 7927TIP3   OH223721   1.076   3.381   0.331
 7927TIP3    H123722   1.129   3.329   0.271
 7927TIP3    H223723   1.013   3.426   0.275
 7928TIP3   OH223724   7.846   0.796   5.611
 7928TIP3    H123725   7.881   0.853   5.679
 7928TIP3    H223726   7.843   0.850   5.533
 7929TIP3   OH223727   0.358   3.352   2.355
 7929TIP3    H123728   0.400   3.437   2.345
 7929TIP3    H223729   0.384   3.303   2.276
 7930TIP3   OH223730   1.794   7.145   2.641
 7930TIP3    H123731   1.871   7.090   2.653
 7930TIP3    H223732   1.742   7.099   2.574
 7931TIP3   OH223733   2.519   7.529   2.857
 7931TIP3    H123734   2.517   7.438   2.888
 7931TIP3    H223735   2.507   7.582   2.935
 7932TIP3   OH223736   5.322   3.457   2.163
 7932TIP3    H123737   5.289   3.502   2.241
 7932TIP3    H223738   5.305   3.364   2.179
 7933TIP3   OH223739   1.315   5.059   2.122
 7933TIP3    H123740   1.390   5.113   2.147
 7933TIP3    H223741   1.354   4.976   2.093
 7934TIP3   OH223742   3.764   1.730   4.735
 7934TIP3    H123743   3.850   1.770   4.740
 7934TIP3    H223744   3.738   1.739   4.644
 7935TIP3   OH223745   7.303   2.539   1.665
 7935TIP3    H123746   7.356   2.619   1.670
 7935TIP3    H223747   7.264   2.541   1.578
 7936TIP3   OH223748   5.642   2.638   0.820
 7936TIP3    H123749   5.664   2.640   0.913
 7936TIP3    H223750   5.548   2.623   0.817
 7937TIP3   OH223751   3.641   0.815   1.191
 7937TIP3    H123752   3.672   0.725   1.190
 7937TIP3    H223753   3.567   0.815   1.252
 7938TIP3   OH223754   4.668   6.078   1.097
 7938TIP3    H123755   4.695   6.026   1.021
 7938TIP3    H223756   4.717   6.040   1.170
 7939TIP3   OH223757   1.803   2.264   2.327
 7939TIP3    H123758   1.781   2.333   2.264
 7939TIP3    H223759   1.888   2.291   2.363
 7940TIP3   OH223760   1.587   1.585   0.320
 7940TIP3    H123761   1.501   1.558   0.289
 7940TIP3    H223762   1.608   1.522   0.389
 7941TIP3   OH223763   3.982   6.070   1.057
 7941TIP3    H123764   3.990   6.050   0.964
 7941TIP3    H223765   3.894   6.107   1.067
 7942TIP3   OH223766   0.521   3.595   4.900
 7942TIP3    H123767   0.480   3.516   4.934
 7942TIP3    H223768   0.609   3.567   4.875
 7943TIP3   OH223769   1.036   4.860   3.848
 7943TIP3    H123770   1.001   4.922   3.784
 7943TIP3    H223771   1.109   4.907   3.889
 7944TIP3   OH223772   5.553   7.446   3.698
 7944TIP3    H123773   5.637   7.411   3.668
 7944TIP3    H223774   5.554   7.538   3.671
 7945TIP3   OH223775   4.342   6.116   5.614
 7945TIP3    H123776   4.325   6.068   5.533
 7945TIP3    H223777   4.297   6.066   5.682
 7946TIP3   OH223778   7.327   4.224   4.270
 7946TIP3    H123779   7.265   4.206   4.341
 7946TIP3    H223780   7.411   4.239   4.314
 7947TIP3   OH223781   2.062   0.664   3.055
 7947TIP3    H123782   2.111   0.592   3.096
 7947TIP3    H223783   2.109   0.743   3.082
 7948TIP3   OH223784   2.989   6.541   4.662
 7948TIP3    H123785   2.965   6.583   4.579
 7948TIP3    H223786   3.054   6.600   4.700
 7949TIP3   OH223787   4.610   3.196   3.846
 7949TIP3    H123788   4.576   3.135   3.780
 7949TIP3    H223789   4.672   3.143   3.897
 7950TIP3   OH223790   5.467   3.019   2.899
 7950TIP3    H123791   5.530   2.982   2.961
 7950TIP3    H223792   5.389   3.038   2.951
 7951TIP3   OH223793   1.182   0.429   3.043
 7951TIP3    H123794   1.173   0.475   2.960
 7951TIP3    H223795   1.167   0.337   3.022
 7952TIP3   OH223796   3.509   4.885   1.753
 7952TIP3    H123797   3.483   4.971   1.785
 7952TIP3    H223798   3.432   4.830   1.765
 7953TIP3   OH223799   8.153   2.816   5.066
 7953TIP3    H123800   8.152   2.723   5.090
 7953TIP3    H223801   8.128   2.816   4.973
 7954TIP3   OH223802   0.385   2.476   6.613
 7954TIP3    H123803   0.428   2.390   6.614
 7954TIP3    H223804   0.427   2.523   6.542
 7955TIP3   OH223805   6.884   4.287   3.347
 7955TIP3    H123806   6.926   4.213   3.304
 7955TIP3    H223807   6.799   4.296   3.304
 7956TIP3   OH223808   4.168   4.120   4.582
 7956TIP3    H123809   4.077   4.092   4.586
 7956TIP3    H223810   4.164   4.210   4.548
 7957TIP3   OH223811   3.918   7.203   5.752
 7957TIP3    H123812   3.993   7.144   5.761
 7957TIP3    H223813   3.860   7.161   5.689
 7958TIP3   OH223814   1.559   0.516   1.634
 7958TIP3    H123815   1.610   0.533   1.554
 7958TIP3    H223816   1.486   0.463   1.605
 7959TIP3   OH223817   4.245   2.522   2.244
 7959TIP3    H123818   4.256   2.473   2.162
 7959TIP3    H223819   4.243   2.454   2.312
 7960TIP3   OH223820   1.641   6.893   1.181
 7960TIP3    H123821   1.670   6.950   1.252
 7960TIP3    H223822   1.722   6.854   1.147
 7961TIP3   OH223823   7.560   4.245   0.395
 7961TIP3    H123824   7.537   4.290   0.313
 7961TIP3    H223825   7.483   4.191   0.414
 7962TIP3   OH223826   5.846   0.203   3.110
 7962TIP3    H123827   5.809   0.228   3.195
 7962TIP3    H223828   5.795   0.126   3.084
 7963TIP3   OH223829   7.864   7.070   2.227
 7963TIP3    H123830   7.865   7.044   2.319
 7963TIP3    H223831   7.803   7.009   2.185
 7964TIP3   OH223832   1.571   1.701   4.120
 7964TIP3    H123833   1.585   1.613   4.156
 7964TIP3    H223834   1.657   1.729   4.091
 7965TIP3   OH223835   5.452   1.001   6.379
 7965TIP3    H123836   5.387   1.048   6.431
 7965TIP3    H223837   5.474   0.925   6.432
 7966TIP3   OH223838   4.117   1.993   2.454
 7966TIP3    H123839   4.066   2.072   2.473
 7966TIP3    H223840   4.076   1.925   2.507
 7967TIP3   OH223841   5.859   1.133   4.550
 7967TIP3    H123842   5.854   1.190   4.473
 7967TIP3    H223843   5.950   1.105   4.553
 7968TIP3   OH223844   1.676   1.328   3.286
 7968TIP3    H123845   1.588   1.354   3.259
 7968TIP3    H223846   1.710   1.404   3.334
 7969TIP3   OH223847   3.492   0.281   6.290
 7969TIP3    H123848   3.512   0.250   6.378
 7969TIP3    H223849   3.577   0.296   6.249
 7970TIP3   OH223850   5.170   4.290   0.376
 7970TIP3    H123851   5.166   4.350   0.302
 7970TIP3    H223852   5.256   4.307   0.416
 7971TIP3   OH223853   3.475   6.665   1.302
 7971TIP3    H123854   3.485   6.715   1.383
 7971TIP3    H223855   3.520   6.718   1.235
 7972TIP3   OH223856   0.134   4.919   6.012
 7972TIP3    H123857   0.162   4.878   6.094
 7972TIP3    H223858   0.148   5.013   6.027
 7973TIP3   OH223859   3.628   4.426   0.802
 7973TIP3    H123860   3.626   4.411   0.708
 7973TIP3    H223861   3.699   4.370   0.834
 7974TIP3   OH223862   6.142   6.571   6.509
 7974TIP3    H123863   6.206   6.512   6.549
 7974TIP3    H223864   6.190   6.654   6.498
 7975TIP3   OH223865   1.907   0.802   6.418
 7975TIP3    H123866   1.944   0.807   6.330
 7975TIP3    H223867   1.813   0.794   6.403
 7976TIP3   OH223868   3.788   6.539   1.108
 7976TIP3    H123869   3.773   6.488   1.028
 7976TIP3    H223870   3.739   6.620   1.095
 7977TIP3   OH223871   0.194   0.735   4.448
 7977TIP3    H123872   0.276   0.742   4.497
 7977TIP3    H223873   0.140   0.806   4.482
 7978TIP3   OH223874   0.414   5.619   6.357
 7978TIP3    H123875   0.361   5.653   6.429
 7978TIP3    H223876   0.373   5.654   6.278
 7979TIP3   OH223877   7.456   3.956   1.206
 7979TIP3    H123878   7.424   4.005   1.282
 7979TIP3    H223879   7.546   3.933   1.229
 7980TIP3   OH223880   3.408   1.950   4.342
 7980TIP3    H123881   3.397   1.972   4.435
 7980TIP3    H223882   3.390   1.857   4.337
 7981TIP3   OH223883   5.233   1.707   0.678
 7981TIP3    H123884   5.213   1.799   0.662
 7981TIP3    H223885   5.263   1.673   0.593
 7982TIP3   OH223886   4.427   1.454   4.190
 7982TIP3    H123887   4.437   1.367   4.151
 7982TIP3    H223888   4.470   1.447   4.275
 7983TIP3   OH223889   3.295   5.819   0.744
 7983TIP3    H123890   3.353   5.881   0.788
 7983TIP3    H223891   3.222   5.873   0.713
 7984TIP3   OH223892   1.237   6.039   4.252
 7984TIP3    H123893   1.263   5.996   4.171
 7984TIP3    H223894   1.320   6.061   4.295
 7985TIP3   OH223895   2.594   3.469   3.424
 7985TIP3    H123896   2.530   3.404   3.394
 7985TIP3    H223897   2.565   3.551   3.384
 7986TIP3   OH223898   0.900   4.408   1.006
 7986TIP3    H123899   0.964   4.354   0.959
 7986TIP3    H223900   0.900   4.491   0.958
 7987TIP3   OH223901   0.781   0.226   1.229
 7987TIP3    H123902   0.799   0.148   1.282
 7987TIP3    H223903   0.843   0.221   1.156
 7988TIP3   OH223904   4.218   4.289   4.110
 7988TIP3    H123905   4.214   4.221   4.177
 7988TIP3    H223906   4.310   4.316   4.109
 7989TIP3   OH223907   2.813   5.055   0.273
 7989TIP3    H123908   2.746   4.992   0.244
 7989TIP3    H223909   2.894   5.022   0.235
 7990TIP3   OH223910   3.166   0.699   2.933
 7990TIP3    H123911   3.098   0.750   2.890
 7990TIP3    H223912   3.119   0.645   2.997
 7991TIP3   OH223913   5.855   1.294   5.282
 7991TIP3    H123914   5.897   1.291   5.196
 7991TIP3    H223915   5.843   1.202   5.306
 7992TIP3   OH223916   4.224   1.414   1.865
 7992TIP3    H123917   4.148   1.413   1.807
 7992TIP3    H223918   4.247   1.322   1.877
 7993TIP3   OH223919   7.306   3.229   2.688
 7993TIP3    H123920   7.276   3.318   2.708
 7993TIP3    H223921   7.370   3.240   2.617
 7994TIP3   OH223922   7.419   1.584   0.345
 7994TIP3    H123923   7.387   1.651   0.404
 7994TIP3    H223924   7.394   1.615   0.258
 7995TIP3   OH223925   7.582   5.297   2.863
 7995TIP3    H123926   7.622   5.308   2.777
 7995TIP3    H223927   7.623   5.364   2.917
 7996TIP3   OH223928   5.221   3.832   4.675
 7996TIP3    H123929   5.151   3.782   4.717
 7996TIP3    H223930   5.221   3.801   4.584
 7997TIP3   OH223931   0.615   7.075   5.189
 7997TIP3    H123932   0.571   7.028   5.259
 7997TIP3    H223933   0.546   7.095   5.126
 7998TIP3   OH223934   0.650   2.965   2.837
 7998TIP3    H123935   0.738   2.993   2.861
 7998TIP3    H223936   0.626   2.902   2.905
 7999TIP3   OH223937   2.955   3.354   3.890
 7999TIP3    H123938   2.872   3.402   3.896
 7999TIP3    H223939   2.966   3.314   3.976
 8000TIP3   OH223940   6.674   2.366   1.317
 8000TIP3    H123941   6.763   2.351   1.288
 8000TIP3    H223942   6.674   2.455   1.351
 8001TIP3   OH223943   3.814   0.278   0.189
 8001TIP3    H123944   3.810   0.345   0.257
 8001TIP3    H223945   3.903   0.285   0.154
 8002TIP3   OH223946   2.066   5.732   1.272
 8002TIP3    H123947   2.033   5.719   1.183
 8002TIP3    H223948   1.996   5.697   1.328
 8003TIP3   OH223949   0.849   1.488   3.741
 8003TIP3    H123950   0.877   1.573   3.773
 8003TIP3    H223951   0.849   1.497   3.645
 8004TIP3   OH223952   6.039   2.856   3.415
 8004TIP3    H123953   6.101   2.791   3.384
 8004TIP3    H223954   6.093   2.930   3.443
 8005TIP3   OH223955   2.693   7.262   5.476
 8005TIP3    H123956   2.615   7.310   5.503
 8005TIP3    H223957   2.762   7.329   5.471
 8006TIP3   OH223958   7.914   2.190   5.473
 8006TIP3    H123959   7.947   2.107   5.439
 8006TIP3    H223960   7.821   2.190   5.449
 8007TIP3   OH223961   3.625   4.523   2.865
 8007TIP3    H123962   3.671   4.595   2.821
 8007TIP3    H223963   3.589   4.563   2.944
 8008TIP3   OH223964   2.339   6.481   4.828
 8008TIP3    H123965   2.320   6.573   4.811
 8008TIP3    H223966   2.366   6.445   4.743
 8009TIP3   OH223967   2.894   2.199   2.654
 8009TIP3    H123968   2.925   2.130   2.595
 8009TIP3    H223969   2.945   2.276   2.629
 8010TIP3   OH223970   8.111   5.966   1.068
 8010TIP3    H123971   8.103   5.901   0.998
 8010TIP3    H223972   8.114   5.914   1.148
 8011TIP3   OH223973   6.743   3.998   0.072
 8011TIP3    H123974   6.658   3.963   0.045
 8011TIP3    H223975   6.734   4.013   0.166
 8012TIP3   OH223976   3.249   2.851   2.647
 8012TIP3    H123977   3.344   2.850   2.660
 8012TIP3    H223978   3.217   2.916   2.711
 8013TIP3   OH223979   3.719   2.467   6.109
 8013TIP3    H123980   3.641   2.510   6.145
 8013TIP3    H223981   3.745   2.406   6.178
 8014TIP3   OH223982   1.374   3.895   4.374
 8014TIP3    H123983   1.419   3.839   4.312
 8014TIP3    H223984   1.326   3.958   4.320
 8015TIP3   OH223985   0.859   0.202   0.970
 8015TIP3    H123986   0.825   0.174   0.886
 8015TIP3    H223987   0.823   0.289   0.984
 8016TIP3   OH223988   2.863   7.411   1.445
 8016TIP3    H123989   2.949   7.453   1.445
 8016TIP3    H223990   2.819   7.446   1.522
 8017TIP3   OH223991   5.174   3.259   1.189
 8017TIP3    H123992   5.185   3.318   1.114
 8017TIP3    H223993   5.255   3.209   1.192
 8018TIP3   OH223994   6.312   5.544   3.556
 8018TIP3    H123995   6.396   5.531   3.600
 8018TIP3    H223996   6.247   5.534   3.626
 8019TIP3   OH223997   0.874   3.519   1.193
 8019TIP3    H123998   0.875   3.615   1.200
 8019TIP3    H223999   0.802   3.501   1.132
 8020TIP3   OH224000   2.587   6.801   3.340
 8020TIP3    H124001   2.631   6.877   3.301
 8020TIP3    H224002   2.568   6.828   3.430
 8021TIP3   OH224003   1.296   0.291   4.925
 8021TIP3    H124004   1.250   0.228   4.982
 8021TIP3    H224005   1.226   0.336   4.878
 8022TIP3   OH224006   3.891   3.894   1.085
 8022TIP3    H124007   3.842   3.838   1.026
 8022TIP3    H224008   3.982   3.888   1.054
 8023TIP3   OH224009   0.846   0.532   3.055
 8023TIP3    H124010   0.940   0.524   3.036
 8023TIP3    H224011   0.841   0.531   3.150
 8024TIP3   OH224012   6.487   5.751   4.803
 8024TIP3    H124013   6.469   5.727   4.894
 8024TIP3    H224014   6.556   5.691   4.776
 8025TIP3   OH224015   3.522   7.341   1.156
 8025TIP3    H124016   3.569   7.374   1.232
 8025TIP3    H224017   3.579   7.363   1.082
 8026TIP3   OH224018   8.127   6.760   3.232
 8026TIP3    H124019   8.160   6.705   3.302
 8026TIP3    H224020   8.120   6.847   3.271
 8027TIP3   OH224021   1.048   0.051   0.219
 8027TIP3    H124022   0.988   0.063   0.292
 8027TIP3    H224023   1.004   0.091   0.144
 8028TIP3   OH224024   4.603   3.135   4.331
 8028TIP3    H124025   4.634   3.110   4.244
 8028TIP3    H224026   4.652   3.215   4.351
 8029TIP3   OH224027   7.340   6.194   1.304
 8029TIP3    H124028   7.349   6.274   1.356
 8029TIP3    H224029   7.362   6.124   1.365
 8030TIP3   OH224030   3.983   7.244   2.671
 8030TIP3    H124031   3.999   7.295   2.592
 8030TIP3    H224032   4.050   7.175   2.670
 8031TIP3   OH224033   0.115   0.468   1.980
 8031TIP3    H124034   0.155   0.534   1.923
 8031TIP3    H224035   0.086   0.399   1.920
 8032TIP3   OH224036   4.634   6.566   2.839
 8032TIP3    H124037   4.709   6.510   2.858
 8032TIP3    H224038   4.562   6.505   2.822
 8033TIP3   OH224039   5.636   0.636   5.595
 8033TIP3    H124040   5.673   0.588   5.521
 8033TIP3    H224041   5.621   0.569   5.662
 8034TIP3   OH224042   0.886   6.544   0.462
 8034TIP3    H124043   0.914   6.624   0.504
 8034TIP3    H224044   0.923   6.548   0.374
 8035TIP3   OH224045   2.077   3.394   6.800
 8035TIP3    H124046   2.147   3.351   6.751
 8035TIP3    H224047   2.081   3.355   6.887
 8036TIP3   OH224048   5.215   1.455   0.248
 8036TIP3    H124049   5.179   1.367   0.260
 8036TIP3    H224050   5.295   1.442   0.197
 8037TIP3   OH224051   7.789   4.655   5.746
 8037TIP3    H124052   7.695   4.662   5.732
 8037TIP3    H224053   7.817   4.745   5.764
 8038TIP3   OH224054   3.103   4.203   3.751
 8038TIP3    H124055   3.025   4.249   3.720
 8038TIP3    H224056   3.095   4.115   3.715
 8039TIP3   OH224057   7.718   4.632   6.771
 8039TIP3    H124058   7.680   4.719   6.761
 8039TIP3    H224059   7.645   4.577   6.800
 8040TIP3   OH224060   5.693   5.087   6.220
 8040TIP3    H124061   5.687   5.010   6.277
 8040TIP3    H224062   5.775   5.076   6.173
 8041TIP3   OH224063   5.752   5.065   4.881
 8041TIP3    H124064   5.766   5.116   4.961
 8041TIP3    H224065   5.749   4.974   4.912
 8042TIP3   OH224066   5.137   5.871   3.779
 8042TIP3    H124067   5.113   5.809   3.848
 8042TIP3    H224068   5.064   5.868   3.717
 8043TIP3   OH224069   1.026   1.028   5.254
 8043TIP3    H124070   0.958   0.994   5.312
 8043TIP3    H224071   1.085   1.076   5.312
 8044TIP3   OH224072   7.078   6.438   4.818
 8044TIP3    H124073   6.983   6.426   4.808
 8044TIP3    H224074   7.087   6.490   4.897
 8045TIP3   OH224075   7.023   2.141   1.040
 8045TIP3    H124076   6.963   2.117   1.110
 8045TIP3    H224077   7.044   2.058   0.996
 8046TIP3   OH224078   0.670   5.302   4.012
 8046TIP3    H124079   0.631   5.216   4.026
 8046TIP3    H224080   0.715   5.294   3.928
 8047TIP3   OH224081   6.988   5.455   1.443
 8047TIP3    H124082   7.077   5.482   1.466
 8047TIP3    H224083   6.956   5.410   1.521
 8048TIP3   OH224084   0.934   7.045   6.268
 8048TIP3    H124085   0.867   7.109   6.292
 8048TIP3    H224086   0.885   6.973   6.228
 8049TIP3   OH224087   1.989   1.632   2.989
 8049TIP3    H124088   2.021   1.554   3.033
 8049TIP3    H224089   1.990   1.700   3.057
 8050TIP3   OH224090   5.202   6.673   1.065
 8050TIP3    H124091   5.277   6.732   1.074
 8050TIP3    H224092   5.218   6.625   0.984
 8051TIP3   OH224093   1.781   7.339   3.719
 8051TIP3    H124094   1.736   7.320   3.637
 8051TIP3    H224095   1.747   7.423   3.747
 8052TIP3   OH224096   6.718   7.765   0.046
 8052TIP3    H124097   6.762   7.850   0.044
 8052TIP3    H224098   6.687   7.755   0.136
 8053TIP3   OH224099   2.113   4.970   0.475
 8053TIP3    H124100   2.120   4.914   0.397
 8053TIP3    H224101   2.056   5.042   0.448
 8054TIP3   OH224102   3.642   3.377   0.653
 8054TIP3    H124103   3.715   3.375   0.716
 8054TIP3    H224104   3.682   3.353   0.569
 8055TIP3   OH224105   6.723   4.178   1.651
 8055TIP3    H124106   6.693   4.095   1.686
 8055TIP3    H224107   6.657   4.242   1.679
 8056TIP3   OH224108   3.991   4.958   0.526
 8056TIP3    H124109   3.929   4.930   0.593
 8056TIP3    H224110   4.023   5.043   0.556
 8057TIP3   OH224111   1.883   7.710   2.393
 8057TIP3    H124112   1.891   7.639   2.330
 8057TIP3    H224113   1.972   7.723   2.425
 8058TIP3   OH224114   5.730   5.212   2.289
 8058TIP3    H124115   5.790   5.260   2.346
 8058TIP3    H224116   5.669   5.169   2.348
 8059TIP3   OH224117   3.819   4.646   0.429
 8059TIP3    H124118   3.906   4.661   0.466
 8059TIP3    H224119   3.811   4.711   0.359
 8060TIP3   OH224120   0.494   6.204   3.542
 8060TIP3    H124121   0.514   6.288   3.583
 8060TIP3    H224122   0.456   6.228   3.457
 8061TIP3   OH224123   3.514   6.897   4.483
 8061TIP3    H124124   3.566   6.957   4.429
 8061TIP3    H224125   3.489   6.826   4.423
 8062TIP3   OH224126   0.893   0.599   5.979
 8062TIP3    H124127   0.847   0.674   6.016
 8062TIP3    H224128   0.979   0.634   5.953
 8063TIP3   OH224129   4.686   4.826   0.152
 8063TIP3    H124130   4.770   4.853   0.188
 8063TIP3    H224131   4.683   4.868   0.066
 8064TIP3   OH224132   2.845   6.883   4.340
 8064TIP3    H124133   2.931   6.919   4.360
 8064TIP3    H224134   2.788   6.960   4.333
 8065TIP3   OH224135   7.579   1.362   1.951
 8065TIP3    H124136   7.612   1.282   1.992
 8065TIP3    H224137   7.589   1.429   2.018
 8066TIP3   OH224138   6.391   2.995   2.847
 8066TIP3    H124139   6.322   2.930   2.855
 8066TIP3    H224140   6.414   3.017   2.937
 8067TIP3   OH224141   6.030   6.086   2.767
 8067TIP3    H124142   5.946   6.042   2.780
 8067TIP3    H224143   6.006   6.173   2.735
 8068TIP3   OH224144   2.586   1.357   2.687
 8068TIP3    H124145   2.527   1.293   2.646
 8068TIP3    H224146   2.529   1.431   2.707
 8069TIP3   OH224147   4.577   1.817   1.878
 8069TIP3    H124148   4.596   1.860   1.795
 8069TIP3    H224149   4.515   1.747   1.856
 8070TIP3   OH224150   6.809   4.826   1.279
 8070TIP3    H124151   6.761   4.902   1.244
 8070TIP3    H224152   6.894   4.862   1.303
 8071TIP3   OH224153   2.115   4.706   3.742
 8071TIP3    H124154   2.165   4.663   3.811
 8071TIP3    H224155   2.161   4.789   3.727
 8072TIP3   OH224156   0.938   2.342   1.035
 8072TIP3    H124157   1.003   2.339   1.105
 8072TIP3    H224158   0.856   2.319   1.077
 8073TIP3   OH224159   8.165   0.615   4.468
 8073TIP3    H124160   8.199   0.701   4.445
 8073TIP3    H224161   8.071   0.629   4.480
 8074TIP3   OH224162   7.981   6.202   0.200
 8074TIP3    H124163   8.032   6.272   0.160
 8074TIP3    H224164   7.903   6.194   0.146
 8075TIP3   OH224165   7.767   1.533   4.323
 8075TIP3    H124166   7.676   1.555   4.306
 8075TIP3    H224167   7.801   1.503   4.239
 8076TIP3   OH224168   5.462   3.234   6.286
 8076TIP3    H124169   5.527   3.179   6.328
 8076TIP3    H224170   5.511   3.281   6.218
 8077TIP3   OH224171   1.072   4.441   2.054
 8077TIP3    H124172   1.053   4.529   2.087
 8077TIP3    H224173   1.157   4.449   2.011
 8078TIP3   OH224174   7.395   0.813   6.832
 8078TIP3    H124175   7.309   0.830   6.794
 8078TIP3    H224176   7.407   0.718   6.823
 8079TIP3   OH224177   7.689   3.096   2.296
 8079TIP3    H124178   7.727   3.036   2.361
 8079TIP3    H224179   7.761   3.151   2.267
 8080TIP3   OH224180   4.390   4.916   0.344
 8080TIP3    H124181   4.350   4.858   0.409
 8080TIP3    H224182   4.337   4.904   0.266
 8081TIP3   OH224183   0.625   1.723   6.114
 8081TIP3    H124184   0.667   1.692   6.034
 8081TIP3    H224185   0.633   1.818   6.110
 8082TIP3   OH224186   0.108   6.396   1.477
 8082TIP3    H124187   0.145   6.309   1.483
 8082TIP3    H224188   0.021   6.383   1.439
 8083TIP3   OH224189   5.255   2.566   5.300
 8083TIP3    H124190   5.200   2.636   5.265
 8083TIP3    H224191   5.271   2.507   5.226
 8084TIP3   OH224192   7.408   5.109   3.561
 8084TIP3    H124193   7.377   5.154   3.640
 8084TIP3    H224194   7.399   5.173   3.491
 8085TIP3   OH224195   3.354   1.332   5.055
 8085TIP3    H124196   3.347   1.292   5.141
 8085TIP3    H224197   3.441   1.305   5.023
 8086TIP3   OH224198   6.444   4.316   4.615
 8086TIP3    H124199   6.430   4.408   4.638
 8086TIP3    H224200   6.358   4.284   4.587
 8087TIP3   OH224201   6.993   6.593   2.775
 8087TIP3    H124202   7.069   6.568   2.827
 8087TIP3    H224203   6.918   6.556   2.822
 8088TIP3   OH224204   2.592   7.060   4.876
 8088TIP3    H124205   2.649   7.015   4.937
 8088TIP3    H224206   2.505   7.056   4.917
 8089TIP3   OH224207   1.094   0.662   5.016
 8089TIP3    H124208   1.017   0.626   5.060
 8089TIP3    H224209   1.093   0.622   4.929
 8090TIP3   OH224210   6.823   1.952   3.332
 8090TIP3    H124211   6.791   1.863   3.340
 8090TIP3    H224212   6.745   2.006   3.322
 8091TIP3   OH224213   7.662   5.921   2.909
 8091TIP3    H124214   7.617   5.914   2.994
 8091TIP3    H224215   7.625   5.999   2.868
 8092TIP3   OH224216   7.380   4.336   6.683
 8092TIP3    H124217   7.455   4.288   6.649
 8092TIP3    H224218   7.319   4.268   6.714
 8093TIP3   OH224219   4.823   7.513   3.125
 8093TIP3    H124220   4.909   7.547   3.149
 8093TIP3    H224221   4.826   7.421   3.151
 8094TIP3   OH224222   4.845   6.612   5.831
 8094TIP3    H124223   4.779   6.608   5.901
 8094TIP3    H224224   4.850   6.705   5.808
 8095TIP3   OH224225   2.740   5.031   5.339
 8095TIP3    H124226   2.708   4.993   5.421
 8095TIP3    H224227   2.733   5.126   5.353
 8096TIP3   OH224228   7.618   4.750   1.704
 8096TIP3    H124229   7.691   4.757   1.643
 8096TIP3    H224230   7.542   4.779   1.654
 8097TIP3   OH224231   6.894   3.961   6.383
 8097TIP3    H124232   6.871   3.973   6.291
 8097TIP3    H224233   6.880   3.868   6.399
 8098TIP3   OH224234   5.965   5.074   3.017
 8098TIP3    H124235   6.013   5.144   2.974
 8098TIP3    H224236   5.873   5.099   3.009
 8099TIP3   OH224237   2.338   3.203   5.462
 8099TIP3    H124238   2.358   3.240   5.376
 8099TIP3    H224239   2.400   3.130   5.471
 8100TIP3   OH224240   6.632   3.279   6.151
 8100TIP3    H124241   6.591   3.361   6.121
 8100TIP3    H224242   6.563   3.214   6.143
 8101TIP3   OH224243   0.634   4.574   6.227
 8101TIP3    H124244   0.606   4.625   6.303
 8101TIP3    H224245   0.677   4.498   6.264
 8102TIP3   OH224246   5.615   7.372   4.267
 8102TIP3    H124247   5.607   7.329   4.353
 8102TIP3    H224248   5.619   7.465   4.287
 8103TIP3   OH224249   2.295   4.495   2.628
 8103TIP3    H124250   2.272   4.588   2.624
 8103TIP3    H224251   2.375   4.488   2.576
 8104TIP3   OH224252   0.706   2.109   0.005
 8104TIP3    H124253   0.727   2.034   0.060
 8104TIP3    H224254   0.626   2.145   0.044
 8105TIP3   OH224255   0.681   1.156   5.677
 8105TIP3    H124256   0.740   1.222   5.640
 8105TIP3    H224257   0.717   1.137   5.764
 8106TIP3   OH224258   7.411   1.071   4.778
 8106TIP3    H124259   7.344   1.010   4.748
 8106TIP3    H224260   7.372   1.158   4.769
 8107TIP3   OH224261   8.072   1.742   4.862
 8107TIP3    H124262   8.164   1.749   4.889
 8107TIP3    H224263   8.040   1.833   4.861
 8108TIP3   OH224264   1.510   3.219   0.708
 8108TIP3    H124265   1.533   3.132   0.676
 8108TIP3    H224266   1.460   3.259   0.637
 8109TIP3   OH224267   3.608   5.802   1.121
 8109TIP3    H124268   3.581   5.890   1.096
 8109TIP3    H224269   3.697   5.814   1.155
 8110TIP3   OH224270   5.300   1.681   3.140
 8110TIP3    H124271   5.221   1.712   3.096
 8110TIP3    H224272   5.347   1.631   3.073
 8111TIP3   OH224273   4.906   1.877   5.274
 8111TIP3    H124274   4.997   1.876   5.245
 8111TIP3    H224275   4.908   1.926   5.356
 8112TIP3   OH224276   1.281   0.495   3.314
 8112TIP3    H124277   1.215   0.464   3.252
 8112TIP3    H224278   1.343   0.545   3.261
 8113TIP3   OH224279   0.565   3.001   3.140
 8113TIP3    H124280   0.519   3.030   3.219
 8113TIP3    H224281   0.557   3.075   3.079
 8114TIP3   OH224282   6.109   3.543   5.073
 8114TIP3    H124283   6.078   3.571   4.987
 8114TIP3    H224284   6.196   3.507   5.056
 8115TIP3   OH224285   6.150   5.203   3.293
 8115TIP3    H124286   6.204   5.168   3.364
 8115TIP3    H224287   6.172   5.296   3.289
 8116TIP3   OH224288   1.102   7.785   5.365
 8116TIP3    H124289   1.064   7.704   5.398
 8116TIP3    H224290   1.038   7.817   5.301
 8117TIP3   OH224291   1.574   7.673   2.485
 8117TIP3    H124292   1.537   7.676   2.573
 8117TIP3    H224293   1.561   7.761   2.451
 8118TIP3   OH224294   5.285   2.827   2.724
 8118TIP3    H124295   5.222   2.844   2.655
 8118TIP3    H224296   5.318   2.913   2.748
 8119TIP3   OH224297   7.459   2.477   2.206
 8119TIP3    H124298   7.482   2.545   2.142
 8119TIP3    H224299   7.443   2.524   2.287
 8120TIP3   OH224300   7.190   6.207   4.949
 8120TIP3    H124301   7.120   6.177   5.007
 8120TIP3    H224302   7.150   6.277   4.897
 8121TIP3   OH224303   2.486   7.734   1.230
 8121TIP3    H124304   2.518   7.682   1.157
 8121TIP3    H224305   2.504   7.680   1.307
 8122TIP3   OH224306   4.991   1.697   6.090
 8122TIP3    H124307   5.080   1.662   6.090
 8122TIP3    H224308   5.003   1.791   6.100
 8123TIP3   OH224309   5.842   1.645   3.620
 8123TIP3    H124310   5.879   1.561   3.592
 8123TIP3    H224311   5.892   1.710   3.572
 8124TIP3   OH224312   1.718   6.016   4.082
 8124TIP3    H124313   1.783   5.963   4.037
 8124TIP3    H224314   1.712   6.097   4.030
 8125TIP3   OH224315   2.576   6.805   6.179
 8125TIP3    H124316   2.633   6.756   6.121
 8125TIP3    H224317   2.517   6.853   6.121
 8126TIP3   OH224318   6.282   3.253   0.469
 8126TIP3    H124319   6.231   3.334   0.462
 8126TIP3    H224320   6.238   3.192   0.410
 8127TIP3   OH224321   3.255   6.026   5.964
 8127TIP3    H124322   3.279   5.935   5.948
 8127TIP3    H224323   3.278   6.041   6.055
 8128TIP3   OH224324   2.919   6.803   1.632
 8128TIP3    H124325   3.003   6.760   1.647
 8128TIP3    H224326   2.942   6.887   1.593
 8129TIP3   OH224327   1.325   1.761   3.163
 8129TIP3    H124328   1.410   1.786   3.127
 8129TIP3    H224329   1.261   1.803   3.106
 8130TIP3   OH224330   2.064   3.555   3.867
 8130TIP3    H124331   1.995   3.620   3.851
 8130TIP3    H224332   2.017   3.478   3.898
 8131TIP3   OH224333   8.125   4.702   0.222
 8131TIP3    H124334   8.116   4.610   0.249
 8131TIP3    H224335   8.074   4.751   0.286
 8132TIP3   OH224336   7.563   5.474   4.755
 8132TIP3    H124337   7.532   5.415   4.686
 8132TIP3    H224338   7.536   5.561   4.725
 8133TIP3   OH224339   4.795   7.039   0.416
 8133TIP3    H124340   4.754   6.952   0.418
 8133TIP3    H224341   4.887   7.022   0.435
 8134TIP3   OH224342   7.051   7.247   2.306
 8134TIP3    H124343   6.958   7.234   2.288
 8134TIP3    H224344   7.062   7.342   2.309
 8135TIP3   OH224345   3.749   5.567   5.697
 8135TIP3    H124346   3.813   5.561   5.768
 8135TIP3    H224347   3.677   5.619   5.733
 8136TIP3   OH224348   2.968   6.099   1.298
 8136TIP3    H124349   3.062   6.118   1.302
 8136TIP3    H224350   2.961   6.029   1.233
 8137TIP3   OH224351   7.011   0.976   1.606
 8137TIP3    H124352   7.021   0.881   1.618
 8137TIP3    H224353   6.920   0.987   1.579
 8138TIP3   OH224354   3.066   3.785   0.868
 8138TIP3    H124355   3.160   3.799   0.874
 8138TIP3    H224356   3.051   3.759   0.777
 8139TIP3   OH224357   4.263   1.374   5.698
 8139TIP3    H124358   4.187   1.345   5.749
 8139TIP3    H224359   4.337   1.328   5.736
 8140TIP3   OH224360   0.105   4.123   3.973
 8140TIP3    H124361   0.191   4.136   3.931
 8140TIP3    H224362   0.080   4.034   3.948
 8141TIP3   OH224363   3.553   1.768   2.547
 8141TIP3    H124364   3.468   1.739   2.581
 8141TIP3    H224365   3.564   1.857   2.581
 8142TIP3   OH224366   2.940   4.091   5.178
 8142TIP3    H124367   2.947   4.131   5.091
 8142TIP3    H224368   2.859   4.127   5.214
 8143TIP3   OH224369   3.222   3.279   3.923
 8143TIP3    H124370   3.270   3.361   3.922
 8143TIP3    H224371   3.140   3.299   3.878
 8144TIP3   OH224372   7.966   1.925   1.193
 8144TIP3    H124373   7.934   1.838   1.218
 8144TIP3    H224374   7.997   1.913   1.103
 8145TIP3   OH224375   7.940   2.938   1.376
 8145TIP3    H124376   7.976   2.919   1.462
 8145TIP3    H224377   8.014   2.929   1.316
 8146TIP3   OH224378   5.711   3.379   3.924
 8146TIP3    H124379   5.723   3.287   3.944
 8146TIP3    H224380   5.799   3.417   3.929
 8147TIP3   OH224381   8.227   2.545   0.958
 8147TIP3    H124382   8.310   2.520   0.918
 8147TIP3    H224383   8.244   2.542   1.052
 8148TIP3   OH224384   4.272   7.503   4.386
 8148TIP3    H124385   4.314   7.480   4.469
 8148TIP3    H224386   4.339   7.551   4.338
 8149TIP3   OH224387   0.010   0.235   2.641
 8149TIP3    H124388   0.089   0.188   2.614
 8149TIP3    H224389   0.006   0.310   2.582
 8150TIP3   OH224390   6.526   0.845   1.810
 8150TIP3    H124391   6.459   0.790   1.771
 8150TIP3    H224392   6.547   0.910   1.743
 8151TIP3   OH224393   7.609   5.368   1.685
 8151TIP3    H124394   7.637   5.450   1.724
 8151TIP3    H224395   7.587   5.312   1.759
 8152TIP3   OH224396   2.839   4.534   5.299
 8152TIP3    H124397   2.929   4.505   5.284
 8152TIP3    H224398   2.845   4.590   5.376
 8153TIP3   OH224399   7.326   5.148   4.407
 8153TIP3    H124400   7.255   5.118   4.464
 8153TIP3    H224401   7.389   5.076   4.408
 8154TIP3   OH224402   1.613   4.092   0.095
 8154TIP3    H124403   1.602   3.998   0.083
 8154TIP3    H224404   1.592   4.130   0.010
 8155TIP3   OH224405   1.297   3.731   4.902
 8155TIP3    H124406   1.236   3.709   4.973
 8155TIP3    H224407   1.380   3.749   4.947
 8156TIP3   OH224408   7.827   5.135   2.024
 8156TIP3    H124409   7.916   5.099   2.032
 8156TIP3    H224410   7.808   5.171   2.111
 8157TIP3   OH224411   1.282   5.805   5.732
 8157TIP3    H124412   1.315   5.890   5.704
 8157TIP3    H224413   1.233   5.772   5.657
 8158TIP3   OH224414   4.451   2.168   2.548
 8158TIP3    H124415   4.526   2.108   2.542
 8158TIP3    H224416   4.464   2.214   2.631
 8159TIP3   OH224417   6.870   7.431   6.503
 8159TIP3    H124418   6.951   7.405   6.459
 8159TIP3    H224419   6.803   7.423   6.435
 8160TIP3   OH224420   4.343   0.651   3.512
 8160TIP3    H124421   4.386   0.722   3.560
 8160TIP3    H224422   4.250   0.668   3.522
 8161TIP3   OH224423   4.249   2.355   3.274
 8161TIP3    H124424   4.158   2.378   3.292
 8161TIP3    H224425   4.274   2.410   3.200
 8162TIP3   OH224426   3.710   2.177   2.456
 8162TIP3    H124427   3.641   2.119   2.422
 8162TIP3    H224428   3.678   2.265   2.437
 8163TIP3   OH224429   0.561   1.719   5.427
 8163TIP3    H124430   0.507   1.783   5.381
 8163TIP3    H224431   0.631   1.698   5.365
 8164TIP3   OH224432   5.235   5.288   4.791
 8164TIP3    H124433   5.278   5.351   4.733
 8164TIP3    H224434   5.302   5.266   4.856
 8165TIP3   OH224435   2.833   7.212   3.382
 8165TIP3    H124436   2.788   7.214   3.467
 8165TIP3    H224437   2.785   7.148   3.330
 8166TIP3   OH224438   2.641   5.035   2.587
 8166TIP3    H124439   2.632   5.046   2.681
 8166TIP3    H224440   2.735   5.043   2.570
 8167TIP3   OH224441   6.666   7.610   1.902
 8167TIP3    H124442   6.572   7.621   1.915
 8167TIP3    H224443   6.697   7.573   1.985
 8168TIP3   OH224444   0.540   4.920   5.957
 8168TIP3    H124445   0.554   4.976   5.881
 8168TIP3    H224446   0.472   4.965   6.007
 8169TIP3   OH224447   6.762   6.200   1.948
 8169TIP3    H124448   6.743   6.219   1.856
 8169TIP3    H224449   6.796   6.282   1.984
 8170TIP3   OH224450   8.399   1.504   3.859
 8170TIP3    H124451   8.454   1.458   3.923
 8170TIP3    H224452   8.443   1.487   3.775
 8171TIP3   OH224453   5.209   6.388   5.766
 8171TIP3    H124454   5.121   6.419   5.746
 8171TIP3    H224455   5.234   6.437   5.845
 8172TIP3   OH224456   4.003   1.822   0.047
 8172TIP3    H124457   4.088   1.781   0.030
 8172TIP3    H224458   3.957   1.818  -0.037
 8173TIP3   OH224459   2.139   4.435   6.403
 8173TIP3    H124460   2.129   4.356   6.456
 8173TIP3    H224461   2.093   4.503   6.452
 8174TIP3   OH224462   1.031   1.609   5.802
 8174TIP3    H124463   0.999   1.651   5.722
 8174TIP3    H224464   1.125   1.626   5.802
 8175TIP3   OH224465   8.071   5.017   2.064
 8175TIP3    H124466   8.053   4.923   2.068
 8175TIP3    H224467   8.150   5.025   2.012
 8176TIP3   OH224468   4.631   4.502   2.659
 8176TIP3    H124469   4.582   4.469   2.734
 8176TIP3    H224470   4.722   4.486   2.681
 8177TIP3   OH224471   7.181   0.783   5.262
 8177TIP3    H124472   7.164   0.691   5.244
 8177TIP3    H224473   7.232   0.814   5.187
 8178TIP3   OH224474   7.499   3.839   0.515
 8178TIP3    H124475   7.431   3.772   0.520
 8178TIP3    H224476   7.546   3.820   0.434
 8179TIP3   OH224477   0.736   0.356   0.398
 8179TIP3    H124478   0.646   0.324   0.398
 8179TIP3    H224479   0.727   0.451   0.385
 8180TIP3   OH224480   4.943   3.355   5.482
 8180TIP3    H124481   4.891   3.404   5.546
 8180TIP3    H224482   4.895   3.363   5.400
 8181TIP3   OH224483   6.533   0.954   3.015
 8181TIP3    H124484   6.492   0.999   3.089
 8181TIP3    H224485   6.471   0.884   2.993
 8182TIP3   OH224486   0.236   4.031   1.678
 8182TIP3    H124487   0.147   4.045   1.647
 8182TIP3    H224488   0.273   4.119   1.682
 8183TIP3   OH224489   7.404   4.303   3.932
 8183TIP3    H124490   7.384   4.341   3.847
 8183TIP3    H224491   7.479   4.246   3.917
 8184TIP3   OH224492   2.890   4.709   5.087
 8184TIP3    H124493   2.809   4.711   5.036
 8184TIP3    H224494   2.875   4.641   5.152
 8185TIP3   OH224495   3.872   5.470   3.675
 8185TIP3    H124496   3.861   5.509   3.588
 8185TIP3    H224497   3.904   5.542   3.729
 8186TIP3   OH224498   3.577   1.215   4.658
 8186TIP3    H124499   3.593   1.297   4.703
 8186TIP3    H224500   3.610   1.229   4.569
 8187TIP3   OH224501   3.072   2.381   1.873
 8187TIP3    H124502   3.048   2.328   1.797
 8187TIP3    H224503   3.104   2.463   1.837
 8188TIP3   OH224504   4.739   3.858   2.275
 8188TIP3    H124505   4.713   3.788   2.214
 8188TIP3    H224506   4.717   3.823   2.361
 8189TIP3   OH224507   3.927   2.177   5.704
 8189TIP3    H124508   3.957   2.244   5.766
 8189TIP3    H224509   3.901   2.227   5.626
 8190TIP3   OH224510   3.646   5.257   5.852
 8190TIP3    H124511   3.574   5.319   5.861
 8190TIP3    H224512   3.689   5.283   5.771
 8191TIP3   OH224513   5.205   1.812   0.261
 8191TIP3    H124514   5.127   1.758   0.268
 8191TIP3    H224515   5.185   1.890   0.313
 8192TIP3   OH224516   0.358   5.264   0.505
 8192TIP3    H124517   0.421   5.256   0.577
 8192TIP3    H224518   0.287   5.317   0.541
 8193TIP3   OH224519   5.014   7.560   3.612
 8193TIP3    H124520   5.088   7.508   3.643
 8193TIP3    H224521   5.035   7.650   3.637
 8194TIP3   OH224522   7.644   2.331   2.481
 8194TIP3    H124523   7.561   2.301   2.518
 8194TIP3    H224524   7.684   2.252   2.445
 8195TIP3   OH224525   0.787   4.469   4.913
 8195TIP3    H124526   0.752   4.458   5.001
 8195TIP3    H224527   0.755   4.555   4.885
 8196TIP3   OH224528   4.315   6.343   3.686
 8196TIP3    H124529   4.325   6.438   3.679
 8196TIP3    H224530   4.272   6.329   3.770
 8197TIP3   OH224531   3.153   3.535   1.374
 8197TIP3    H124532   3.098   3.541   1.296
 8197TIP3    H224533   3.225   3.597   1.358
 8198TIP3   OH224534   4.950   7.706   0.797
 8198TIP3    H124535   4.867   7.751   0.780
 8198TIP3    H224536   4.939   7.666   0.883
 8199TIP3   OH224537   4.268   7.133   3.463
 8199TIP3    H124538   4.199   7.088   3.415
 8199TIP3    H224539   4.331   7.161   3.396
 8200TIP3   OH224540   6.522   3.844   6.632
 8200TIP3    H124541   6.605   3.829   6.675
 8200TIP3    H224542   6.516   3.940   6.625
 8201TIP3   OH224543   0.930   4.164   0.670
 8201TIP3    H124544   0.865   4.227   0.700
 8201TIP3    H224545   1.010   4.188   0.716
 8202TIP3   OH224546   0.306   7.893   4.538
 8202TIP3    H124547   0.285   7.800   4.540
 8202TIP3    H224548   0.238   7.932   4.483
 8203TIP3   OH224549   1.816   6.132   2.339
 8203TIP3    H124550   1.811   6.160   2.430
 8203TIP3    H224551   1.855   6.207   2.293
 8204TIP3   OH224552   2.658   6.038   2.507
 8204TIP3    H124553   2.693   6.067   2.423
 8204TIP3    H224554   2.603   5.962   2.485
 8205TIP3   OH224555   3.063   2.625   3.365
 8205TIP3    H124556   3.025   2.564   3.302
 8205TIP3    H224557   2.995   2.692   3.378
 8206TIP3   OH224558   7.179   4.014   2.094
 8206TIP3    H124559   7.218   4.086   2.144
 8206TIP3    H224560   7.105   3.985   2.147
 8207TIP3   OH224561   8.271   6.134   5.552
 8207TIP3    H124562   8.333   6.097   5.489
 8207TIP3    H224563   8.229   6.058   5.592
 8208TIP3   OH224564   6.969   0.363   1.988
 8208TIP3    H124565   6.914   0.418   2.043
 8208TIP3    H224566   6.944   0.385   1.899
 8209TIP3   OH224567   3.768   0.025   4.854
 8209TIP3    H124568   3.824   0.102   4.842
 8209TIP3    H224569   3.803  -0.040   4.794
 8210TIP3   OH224570   3.641   6.184   4.311
 8210TIP3    H124571   3.659   6.128   4.386
 8210TIP3    H224572   3.581   6.134   4.256
 8211TIP3   OH224573   0.472   0.431   6.038
 8211TIP3    H124574   0.456   0.348   6.083
 8211TIP3    H224575   0.519   0.484   6.102
 8212TIP3   OH224576   6.094   2.514   5.254
 8212TIP3    H124577   6.186   2.541   5.255
 8212TIP3    H224578   6.080   2.473   5.340
 8213TIP3   OH224579   1.321   4.497   3.438
 8213TIP3    H124580   1.347   4.526   3.350
 8213TIP3    H224581   1.403   4.472   3.480
 8214TIP3   OH224582   8.210   0.201   4.875
 8214TIP3    H124583   8.242   0.116   4.844
 8214TIP3    H224584   8.143   0.226   4.812
 8215TIP3   OH224585   6.530   1.704   4.692
 8215TIP3    H124586   6.489   1.617   4.686
 8215TIP3    H224587   6.508   1.746   4.609
 8216TIP3   OH224588   0.122   3.189   3.412
 8216TIP3    H124589   0.045   3.181   3.468
 8216TIP3    H224590   0.118   3.278   3.378
 8217TIP3   OH224591   0.216   6.020   4.195
 8217TIP3    H124592   0.280   6.019   4.124
 8217TIP3    H224593   0.252   6.081   4.259
 8218TIP3   OH224594   4.493   5.981   1.825
 8218TIP3    H124595   4.451   5.992   1.740
 8218TIP3    H224596   4.438   5.917   1.870
 8219TIP3   OH224597   4.074   0.818   1.223
 8219TIP3    H124598   4.127   0.748   1.263
 8219TIP3    H224599   4.014   0.771   1.164
 8220TIP3   OH224600   2.042   4.003   5.611
 8220TIP3    H124601   2.094   4.038   5.683
 8220TIP3    H224602   2.097   3.935   5.572
 8221TIP3   OH224603   3.262   7.452   0.225
 8221TIP3    H124604   3.191   7.434   0.287
 8221TIP3    H224605   3.275   7.547   0.229
 8222TIP3   OH224606   6.369   6.742   3.359
 8222TIP3    H124607   6.425   6.802   3.408
 8222TIP3    H224608   6.364   6.781   3.272
 8223TIP3   OH224609   2.225   0.695   5.223
 8223TIP3    H124610   2.180   0.737   5.297
 8223TIP3    H224611   2.181   0.731   5.145
 8224TIP3   OH224612   8.113   0.866   6.736
 8224TIP3    H124613   8.138   0.775   6.724
 8224TIP3    H224614   8.145   0.911   6.658
 8225TIP3   OH224615   1.701   2.194   0.368
 8225TIP3    H124616   1.695   2.260   0.300
 8225TIP3    H224617   1.630   2.215   0.429
 8226TIP3   OH224618   0.787   1.111   1.272
 8226TIP3    H124619   0.745   1.142   1.192
 8226TIP3    H224620   0.772   1.016   1.272
 8227TIP3   OH224621   5.118   3.963   3.191
 8227TIP3    H124622   5.131   3.988   3.099
 8227TIP3    H224623   5.118   3.867   3.189
 8228TIP3   OH224624   5.780   6.401   4.871
 8228TIP3    H124625   5.770   6.357   4.956
 8228TIP3    H224626   5.757   6.492   4.889
 8229TIP3   OH224627   4.652   6.529   4.715
 8229TIP3    H124628   4.700   6.592   4.661
 8229TIP3    H224629   4.717   6.498   4.779
 8230TIP3   OH224630   7.465   6.618   0.088
 8230TIP3    H124631   7.475   6.667   0.006
 8230TIP3    H224632   7.428   6.681   0.149
 8231TIP3   OH224633   1.424   7.204   5.405
 8231TIP3    H124634   1.482   7.185   5.479
 8231TIP3    H224635   1.371   7.278   5.435
 8232TIP3   OH224636   5.610   1.237   3.675
 8232TIP3    H124637   5.595   1.230   3.580
 8232TIP3    H224638   5.617   1.331   3.691
 8233TIP3   OH224639   4.115   0.180   3.913
 8233TIP3    H124640   4.144   0.161   4.002
 8233TIP3    H224641   4.185   0.234   3.876
 8234TIP3   OH224642   6.492   1.198   2.269
 8234TIP3    H124643   6.499   1.270   2.331
 8234TIP3    H224644   6.402   1.204   2.235
 8235TIP3   OH224645   5.596   7.248   5.215
 8235TIP3    H124646   5.635   7.332   5.239
 8235TIP3    H224647   5.663   7.184   5.238
 8236TIP3   OH224648   6.990   6.438   1.321
 8236TIP3    H124649   6.978   6.512   1.261
 8236TIP3    H224650   6.990   6.361   1.264
 8237TIP3   OH224651   5.255   0.063   3.255
 8237TIP3    H124652   5.189  -0.006   3.254
 8237TIP3    H224653   5.303   0.050   3.173
 8238TIP3   OH224654   6.994   1.926   4.926
 8238TIP3    H124655   7.080   1.969   4.925
 8238TIP3    H224656   7.014   1.833   4.937
 8239TIP3   OH224657   8.067   5.513   2.968
 8239TIP3    H124658   8.145   5.518   2.913
 8239TIP3    H224659   8.017   5.592   2.947
 8240TIP3   OH224660   0.709   4.336   0.460
 8240TIP3    H124661   0.692   4.338   0.554
 8240TIP3    H224662   0.712   4.428   0.434
 8241TIP3   OH224663   7.036   7.430   2.891
 8241TIP3    H124664   6.959   7.376   2.909
 8241TIP3    H224665   7.046   7.484   2.970
 8242TIP3   OH224666   6.381   2.461   4.903
 8242TIP3    H124667   6.425   2.425   4.980
 8242TIP3    H224668   6.387   2.391   4.837
 8243TIP3   OH224669   0.015   2.626   3.093
 8243TIP3    H124670   0.074   2.597   3.023
 8243TIP3    H224671  -0.067   2.648   3.048
 8244TIP3   OH224672   2.254   4.124   4.668
 8244TIP3    H124673   2.198   4.198   4.692
 8244TIP3    H224674   2.263   4.074   4.750
 8245TIP3   OH224675   6.166   1.778   0.349
 8245TIP3    H124676   6.214   1.852   0.311
 8245TIP3    H224677   6.074   1.800   0.335
 8246TIP3   OH224678   1.851   6.718   1.099
 8246TIP3    H124679   1.805   6.644   1.060
 8246TIP3    H224680   1.916   6.744   1.034
 8247TIP3   OH224681   2.642   3.196   4.488
 8247TIP3    H124682   2.702   3.158   4.424
 8247TIP3    H224683   2.666   3.289   4.490
 8248TIP3   OH224684   8.328   1.712   6.753
 8248TIP3    H124685   8.383   1.782   6.719
 8248TIP3    H224686   8.239   1.749   6.753
 8249TIP3   OH224687   2.768   4.040   2.265
 8249TIP3    H124688   2.722   4.123   2.280
 8249TIP3    H224689   2.840   4.062   2.207
 8250TIP3   OH224690   7.040   7.854   1.776
 8250TIP3    H124691   7.089   7.773   1.765
 8250TIP3    H224692   7.052   7.901   1.693
 8251TIP3   OH224693   3.157   1.419   0.205
 8251TIP3    H124694   3.239   1.418   0.254
 8251TIP3    H224695   3.111   1.497   0.237
 8252TIP3   OH224696   6.696   2.046   0.336
 8252TIP3    H124697   6.648   2.010   0.261
 8252TIP3    H224698   6.741   1.971   0.375
 8253TIP3   OH224699   3.976   5.992   5.670
 8253TIP3    H124700   3.933   5.919   5.625
 8253TIP3    H224701   3.936   6.070   5.633
 8254TIP3   OH224702   1.981   3.842   6.175
 8254TIP3    H124703   1.935   3.765   6.142
 8254TIP3    H224704   2.045   3.806   6.237
 8255TIP3   OH224705   7.857   7.561   1.108
 8255TIP3    H124706   7.915   7.503   1.156
 8255TIP3    H224707   7.855   7.642   1.160
 8256TIP3   OH224708   6.635   1.680   2.669
 8256TIP3    H124709   6.676   1.693   2.584
 8256TIP3    H224710   6.563   1.619   2.653
 8257TIP3   OH224711   4.327   5.859   1.106
 8257TIP3    H124712   4.338   5.872   1.012
 8257TIP3    H224713   4.341   5.946   1.144
 8258TIP3   OH224714   4.758   0.523   4.584
 8258TIP3    H124715   4.762   0.604   4.533
 8258TIP3    H224716   4.845   0.515   4.624
 8259TIP3   OH224717   7.415   7.509   6.231
 8259TIP3    H124718   7.393   7.580   6.171
 8259TIP3    H224719   7.492   7.467   6.192
 8260TIP3   OH224720   4.828   3.017   3.029
 8260TIP3    H124721   4.829   2.982   2.940
 8260TIP3    H224722   4.760   3.085   3.027
 8261TIP3   OH224723   7.838   0.562   5.815
 8261TIP3    H124724   7.920   0.583   5.862
 8261TIP3    H224725   7.829   0.632   5.751
 8262TIP3   OH224726   1.692   5.819   0.520
 8262TIP3    H124727   1.655   5.738   0.485
 8262TIP3    H224728   1.700   5.876   0.444
 8263TIP3   OH224729   1.794   6.398   6.220
 8263TIP3    H124730   1.876   6.447   6.214
 8263TIP3    H224731   1.804   6.343   6.298
 8264TIP3   OH224732   8.311   7.889   5.491
 8264TIP3    H124733   8.277   7.827   5.555
 8264TIP3    H224734   8.389   7.926   5.533
 8265TIP3   OH224735   1.252   4.165   5.924
 8265TIP3    H124736   1.256   4.101   5.853
 8265TIP3    H224737   1.329   4.220   5.910
 8266TIP3   OH224738   5.253   4.359   1.111
 8266TIP3    H124739   5.278   4.267   1.101
 8266TIP3    H224740   5.191   4.375   1.039
 8267TIP3   OH224741   8.030   4.483   4.275
 8267TIP3    H124742   8.004   4.575   4.272
 8267TIP3    H224743   8.037   4.457   4.184
 8268TIP3   OH224744   6.215   6.837   4.719
 8268TIP3    H124745   6.227   6.742   4.716
 8268TIP3    H224746   6.275   6.870   4.652
 8269TIP3   OH224747   6.760   1.040   1.533
 8269TIP3    H124748   6.701   0.966   1.517
 8269TIP3    H224749   6.703   1.117   1.532
 8270TIP3   OH224750   2.229   7.576   4.310
 8270TIP3    H124751   2.194   7.524   4.383
 8270TIP3    H224752   2.153   7.591   4.253
 8271TIP3   OH224753   3.275   4.439   4.686
 8271TIP3    H124754   3.224   4.387   4.749
 8271TIP3    H224755   3.288   4.380   4.612
 8272TIP3   OH224756   2.333   4.606   1.327
 8272TIP3    H124757   2.244   4.641   1.321
 8272TIP3    H224758   2.323   4.511   1.323
 8273TIP3   OH224759   0.634   2.126   4.249
 8273TIP3    H124760   0.724   2.153   4.230
 8273TIP3    H224761   0.587   2.143   4.167
 8274TIP3   OH224762   1.720   2.498   4.389
 8274TIP3    H124763   1.780   2.571   4.370
 8274TIP3    H224764   1.716   2.449   4.307
 8275TIP3   OH224765   7.372   4.495   2.562
 8275TIP3    H124766   7.397   4.405   2.580
 8275TIP3    H224767   7.277   4.493   2.550
 8276TIP3   OH224768   0.574   6.253   4.147
 8276TIP3    H124769   0.544   6.324   4.203
 8276TIP3    H224770   0.571   6.175   4.202
 8277TIP3   OH224771   2.112   2.737   1.183
 8277TIP3    H124772   2.035   2.791   1.164
 8277TIP3    H224773   2.186   2.798   1.179
 8278TIP3   OH224774   7.125   0.425   2.213
 8278TIP3    H124775   7.072   0.414   2.134
 8278TIP3    H224776   7.151   0.337   2.238
 8279TIP3   OH224777   2.624   3.519   4.731
 8279TIP3    H124778   2.538   3.508   4.692
 8279TIP3    H224779   2.682   3.466   4.676
 8280TIP3   OH224780   7.166   5.525   5.920
 8280TIP3    H124781   7.220   5.565   5.852
 8280TIP3    H224782   7.212   5.444   5.943
 8281TIP3   OH224783   3.129   3.999   4.350
 8281TIP3    H124784   3.045   3.987   4.306
 8281TIP3    H224785   3.194   3.964   4.290
 8282TIP3   OH224786   0.296   0.480   3.380
 8282TIP3    H124787   0.236   0.544   3.341
 8282TIP3    H224788   0.383   0.509   3.352
 8283TIP3   OH224789   3.606   7.583   0.284
 8283TIP3    H124790   3.553   7.600   0.362
 8283TIP3    H224791   3.593   7.660   0.229
 8284TIP3   OH224792   4.737   2.361   5.685
 8284TIP3    H124793   4.702   2.275   5.707
 8284TIP3    H224794   4.830   2.346   5.669
 8285TIP3   OH224795   7.053   7.962   3.866
 8285TIP3    H124796   7.081   7.877   3.900
 8285TIP3    H224797   7.135   8.008   3.847
 8286TIP3   OH224798   8.048   5.177   2.291
 8286TIP3    H124799   7.977   5.240   2.275
 8286TIP3    H224800   8.047   5.121   2.213
 8287TIP3   OH224801   2.356   6.732   2.452
 8287TIP3    H124802   2.352   6.768   2.541
 8287TIP3    H224803   2.448   6.709   2.440
 8288TIP3   OH224804   1.313   1.564   0.243
 8288TIP3    H124805   1.232   1.526   0.279
 8288TIP3    H224806   1.289   1.654   0.220
 8289TIP3   OH224807   1.741   7.566   4.243
 8289TIP3    H124808   1.828   7.548   4.280
 8289TIP3    H224809   1.682   7.511   4.294
 8290TIP3   OH224810   1.681   4.575   4.837
 8290TIP3    H124811   1.694   4.653   4.890
 8290TIP3    H224812   1.586   4.562   4.834
 8291TIP3   OH224813   4.578   2.565   2.178
 8291TIP3    H124814   4.578   2.499   2.109
 8291TIP3    H224815   4.502   2.620   2.160
 8292TIP3   OH224816   4.233   5.976   4.150
 8292TIP3    H124817   4.203   5.885   4.149
 8292TIP3    H224818   4.191   6.016   4.073
 8293TIP3   OH224819   7.928   2.921   2.837
 8293TIP3    H124820   7.986   2.916   2.761
 8293TIP3    H224821   7.978   2.968   2.904
 8294TIP3   OH224822   8.168   4.861   6.597
 8294TIP3    H124823   8.148   4.806   6.673
 8294TIP3    H224824   8.128   4.945   6.619
 8295TIP3   OH224825   2.822   1.203   5.963
 8295TIP3    H124826   2.727   1.197   5.977
 8295TIP3    H224827   2.858   1.226   6.049
 8296TIP3   OH224828   5.417   3.467   1.837
 8296TIP3    H124829   5.362   3.495   1.764
 8296TIP3    H224830   5.371   3.498   1.915
 8297TIP3   OH224831   0.639   3.932   0.752
 8297TIP3    H124832   0.561   3.877   0.756
 8297TIP3    H224833   0.618   4.000   0.687
 8298TIP3   OH224834   1.282   2.763   2.371
 8298TIP3    H124835   1.309   2.819   2.298
 8298TIP3    H224836   1.193   2.791   2.391
 8299TIP3   OH224837   6.238   3.095   5.152
 8299TIP3    H124838   6.235   3.182   5.192
 8299TIP3    H224839   6.302   3.047   5.205
 8300TIP3   OH224840   2.625   3.634   1.942
 8300TIP3    H124841   2.552   3.601   1.890
 8300TIP3    H224842   2.665   3.702   1.887
 8301TIP3   OH224843   3.420   7.179   6.206
 8301TIP3    H124844   3.354   7.125   6.249
 8301TIP3    H224845   3.496   7.122   6.197
 8302TIP3   OH224846   1.417   1.164   1.994
 8302TIP3    H124847   1.404   1.105   2.068
 8302TIP3    H224848   1.480   1.228   2.026
 8303TIP3   OH224849   4.432   4.411   2.831
 8303TIP3    H124850   4.461   4.360   2.906
 8303TIP3    H224851   4.361   4.465   2.864
 8304TIP3   OH224852   5.036   1.321   5.285
 8304TIP3    H124853   4.986   1.254   5.331
 8304TIP3    H224854   5.102   1.273   5.236
 8305TIP3   OH224855   8.193   2.265   1.710
 8305TIP3    H124856   8.276   2.278   1.757
 8305TIP3    H224857   8.197   2.328   1.638
 8306TIP3   OH224858   1.583   7.134   5.632
 8306TIP3    H124859   1.544   7.212   5.672
 8306TIP3    H224860   1.559   7.062   5.690
 8307TIP3   OH224861   5.472   3.893   3.751
 8307TIP3    H124862   5.531   3.924   3.819
 8307TIP3    H224863   5.470   3.798   3.761
 8308TIP3   OH224864   1.430   4.718   0.897
 8308TIP3    H124865   1.402   4.807   0.918
 8308TIP3    H224866   1.427   4.672   0.981
 8309TIP3   OH224867   3.255   4.096   6.657
 8309TIP3    H124868   3.268   4.165   6.592
 8309TIP3    H224869   3.161   4.079   6.656
 8310TIP3   OH224870   1.402   6.796   2.458
 8310TIP3    H124871   1.469   6.859   2.484
 8310TIP3    H224872   1.448   6.712   2.454
 8311TIP3   OH224873   1.189   0.294   2.279
 8311TIP3    H124874   1.142   0.351   2.218
 8311TIP3    H224875   1.151   0.315   2.365
 8312TIP3   OH224876   8.002   7.366   1.276
 8312TIP3    H124877   7.967   7.319   1.351
 8312TIP3    H224878   8.095   7.345   1.275
 8313TIP3   OH224879   8.341   6.775   0.518
 8313TIP3    H124880   8.287   6.703   0.552
 8313TIP3    H224881   8.394   6.734   0.449
 8314TIP3   OH224882   3.419   5.408   6.425
 8314TIP3    H124883   3.510   5.380   6.436
 8314TIP3    H224884   3.417   5.449   6.339
 8315TIP3   OH224885   4.795   2.211   6.633
 8315TIP3    H124886   4.792   2.173   6.546
 8315TIP3    H224887   4.710   2.191   6.671
 8316TIP3   OH224888   2.336   0.968   2.697
 8316TIP3    H124889   2.431   0.972   2.686
 8316TIP3    H224890   2.308   1.059   2.701
 8317TIP3   OH224891   3.720   6.097   1.867
 8317TIP3    H124892   3.694   6.087   1.776
 8317TIP3    H224893   3.649   6.057   1.917
 8318TIP3   OH224894   3.843   6.681   4.802
 8318TIP3    H124895   3.748   6.674   4.803
 8318TIP3    H224896   3.873   6.605   4.852
 8319TIP3   OH224897   2.081   1.526   3.339
 8319TIP3    H124898   2.083   1.432   3.322
 8319TIP3    H224899   1.993   1.543   3.371
 8320TIP3   OH224900   3.289   2.234   4.268
 8320TIP3    H124901   3.269   2.321   4.233
 8320TIP3    H224902   3.355   2.199   4.207
 8321TIP3   OH224903   1.519   2.351   4.050
 8321TIP3    H124904   1.541   2.281   3.989
 8321TIP3    H224905   1.582   2.342   4.121
 8322TIP3   OH224906   1.765   0.336   3.156
 8322TIP3    H124907   1.678   0.302   3.177
 8322TIP3    H224908   1.823   0.259   3.161
 8323TIP3   OH224909   7.750   3.387   1.115
 8323TIP3    H124910   7.828   3.336   1.090
 8323TIP3    H224911   7.747   3.458   1.052
 8324TIP3   OH224912   1.647   5.223   0.396
 8324TIP3    H124913   1.686   5.299   0.441
 8324TIP3    H224914   1.675   5.148   0.448
 8325TIP3   OH224915   7.682   0.453   6.731
 8325TIP3    H124916   7.630   0.495   6.662
 8325TIP3    H224917   7.759   0.418   6.685
 8326TIP3   OH224918   6.126   0.991   0.500
 8326TIP3    H124919   6.136   1.085   0.485
 8326TIP3    H224920   6.212   0.954   0.482
 8327TIP3   OH224921   4.841   0.897   1.730
 8327TIP3    H124922   4.903   0.923   1.662
 8327TIP3    H224923   4.756   0.929   1.699
 8328TIP3   OH224924   0.622   7.187   5.554
 8328TIP3    H124925   0.676   7.109   5.541
 8328TIP3    H224926   0.653   7.224   5.636
 8329TIP3   OH224927   0.573   5.366   3.241
 8329TIP3    H124928   0.598   5.447   3.286
 8329TIP3    H224929   0.596   5.381   3.150
 8330TIP3   OH224930   7.407   5.524   3.691
 8330TIP3    H124931   7.367   5.566   3.615
 8330TIP3    H224932   7.457   5.594   3.733
 8331TIP3   OH224933   7.921   2.649   4.824
 8331TIP3    H124934   7.952   2.614   4.908
 8331TIP3    H224935   7.993   2.633   4.763
 8332TIP3   OH224936   5.203   4.836   3.912
 8332TIP3    H124937   5.277   4.855   3.854
 8332TIP3    H224938   5.185   4.918   3.957
 8333TIP3   OH224939   2.063   5.975   4.146
 8333TIP3    H124940   2.156   5.972   4.122
 8333TIP3    H224941   2.018   5.993   4.063
 8334TIP3   OH224942   7.492   7.505   2.588
 8334TIP3    H124943   7.490   7.596   2.619
 8334TIP3    H224944   7.579   7.495   2.549
 8335TIP3   OH224945   0.000   4.626   4.942
 8335TIP3    H124946   0.071   4.652   4.884
 8335TIP3    H224947   0.036   4.553   4.993
 8336TIP3   OH224948   2.429   0.508   5.291
 8336TIP3    H124949   2.489   0.566   5.245
 8336TIP3    H224950   2.345   0.553   5.289
 8337TIP3   OH224951   7.898   6.959   2.499
 8337TIP3    H124952   7.944   6.919   2.572
 8337TIP3    H224953   7.860   6.886   2.451
 8338TIP3   OH224954   4.862   3.222   2.698
 8338TIP3    H124955   4.840   3.284   2.629
 8338TIP3    H224956   4.807   3.248   2.772
 8339TIP3   OH224957   6.843   2.038   5.131
 8339TIP3    H124958   6.834   2.032   5.035
 8339TIP3    H224959   6.828   2.130   5.150
 8340TIP3   OH224960   5.622   5.499   1.864
 8340TIP3    H124961   5.692   5.481   1.926
 8340TIP3    H224962   5.551   5.439   1.889
 8341TIP3   OH224963   6.842   0.167   0.468
 8341TIP3    H124964   6.933   0.172   0.496
 8341TIP3    H224965   6.809   0.087   0.508
 8342TIP3   OH224966   6.325   1.572   5.446
 8342TIP3    H124967   6.298   1.572   5.537
 8342TIP3    H224968   6.421   1.576   5.450
 8343TIP3   OH224969   7.715   7.721   4.744
 8343TIP3    H124970   7.696   7.688   4.656
 8343TIP3    H224971   7.699   7.645   4.801
 8344TIP3   OH224972   1.405   4.865   5.160
 8344TIP3    H124973   1.347   4.902   5.093
 8344TIP3    H224974   1.348   4.813   5.215
 8345TIP3   OH224975   5.088   1.791   2.976
 8345TIP3    H124976   5.095   1.876   2.934
 8345TIP3    H224977   5.031   1.806   3.052
 8346TIP3   OH224978   8.316   0.413   3.525
 8346TIP3    H124979   8.388   0.450   3.576
 8346TIP3    H224980   8.288   0.337   3.574
 8347TIP3   OH224981   0.710   3.591   2.924
 8347TIP3    H124982   0.739   3.514   2.875
 8347TIP3    H224983   0.791   3.638   2.945
 8348TIP3   OH224984   6.838   6.054   3.670
 8348TIP3    H124985   6.783   5.976   3.666
 8348TIP3    H224986   6.821   6.091   3.757
 8349TIP3   OH224987   6.979   7.652   6.681
 8349TIP3    H124988   6.937   7.596   6.617
 8349TIP3    H224989   7.073   7.643   6.663
 8350TIP3   OH224990   2.865   6.974   2.363
 8350TIP3    H124991   2.898   7.040   2.301
 8350TIP3    H224992   2.858   7.021   2.446
 8351TIP3   OH224993   7.221   5.476   3.063
 8351TIP3    H124994   7.132   5.465   3.031
 8351TIP3    H224995   7.221   5.560   3.108
 8352TIP3   OH224996   7.004   0.738   6.413
 8352TIP3    H124997   6.957   0.655   6.410
 8352TIP3    H224998   6.940   0.800   6.447
 8353TIP3   OH224999   3.567   3.294   6.128
 8353TIP3    H125000   3.490   3.336   6.167
 8353TIP3    H225001   3.531   3.233   6.063
 8354TIP3   OH225002   7.516   1.117   1.510
 8354TIP3    H125003   7.567   1.187   1.468
 8354TIP3    H225004   7.439   1.162   1.547
 8355TIP3   OH225005   3.798   6.274   5.583
 8355TIP3    H125006   3.871   6.292   5.523
 8355TIP3    H225007   3.731   6.337   5.558
 8356TIP3   OH225008   2.377   6.200   1.617
 8356TIP3    H125009   2.429   6.140   1.669
 8356TIP3    H225010   2.296   6.151   1.598
 8357TIP3   OH225011   5.272   2.062   3.135
 8357TIP3    H125012   5.230   2.031   3.055
 8357TIP3    H225013   5.363   2.080   3.109
 8358TIP3   OH225014   2.620   0.619   1.502
 8358TIP3    H125015   2.531   0.624   1.468
 8358TIP3    H225016   2.657   0.540   1.462
 8359TIP3   OH225017   8.394   5.852   6.224
 8359TIP3    H125018   8.460   5.871   6.158
 8359TIP3    H225019   8.317   5.903   6.197
 8360TIP3   OH225020   1.846   6.775   3.504
 8360TIP3    H125021   1.873   6.809   3.590
 8360TIP3    H225022   1.927   6.770   3.453
 8361TIP3   OH225023   6.802   4.560   5.196
 8361TIP3    H125024   6.779   4.477   5.154
 8361TIP3    H225025   6.717   4.601   5.215
 8362TIP3   OH225026   4.888   5.619   6.831
 8362TIP3    H125027   4.944   5.685   6.790
 8362TIP3    H225028   4.920   5.612   6.921
 8363TIP3   OH225029   4.328   6.610   3.629
 8363TIP3    H125030   4.311   6.678   3.564
 8363TIP3    H225031   4.406   6.641   3.675
 8364TIP3   OH225032   4.920   2.112   1.244
 8364TIP3    H125033   4.935   2.031   1.195
 8364TIP3    H225034   4.880   2.083   1.326
 8365TIP3   OH225035   1.811   4.877   0.251
 8365TIP3    H125036   1.817   4.970   0.230
 8365TIP3    H225037   1.785   4.836   0.169
 8366TIP3   OH225038   4.890   5.240   4.215
 8366TIP3    H125039   4.875   5.208   4.304
 8366TIP3    H225040   4.892   5.335   4.224
 8367TIP3   OH225041   8.151   5.360   5.642
 8367TIP3    H125042   8.127   5.274   5.605
 8367TIP3    H225043   8.245   5.353   5.658
 8368TIP3   OH225044   5.563   5.538   0.756
 8368TIP3    H125045   5.622   5.494   0.695
 8368TIP3    H225046   5.540   5.472   0.821
 8369TIP3   OH225047   2.992   4.235   4.595
 8369TIP3    H125048   3.009   4.161   4.653
 8369TIP3    H225049   2.977   4.309   4.655
 8370TIP3   OH225050   1.615   2.170   2.493
 8370TIP3    H125051   1.589   2.086   2.455
 8370TIP3    H225052   1.678   2.205   2.429
 8371TIP3   OH225053   1.013   2.348   1.345
 8371TIP3    H125054   1.011   2.261   1.384
 8371TIP3    H225055   1.106   2.363   1.325
 8372TIP3   OH225056   4.723   1.872   1.054
 8372TIP3    H125057   4.782   1.800   1.078
 8372TIP3    H225058   4.682   1.843   0.972
 8373TIP3   OH225059   1.566   7.262   0.211
 8373TIP3    H125060   1.639   7.208   0.184
 8373TIP3    H225061   1.559   7.330   0.144
 8374TIP3   OH225062   2.270   4.007   0.851
 8374TIP3    H125063   2.327   3.979   0.780
 8374TIP3    H225064   2.213   3.931   0.867
 8375TIP3   OH225065   7.895   1.918   4.554
 8375TIP3    H125066   7.969   1.928   4.615
 8375TIP3    H225067   7.923   1.848   4.495
 8376TIP3   OH225068   1.097   5.791   5.528
 8376TIP3    H125069   1.130   5.858   5.468
 8376TIP3    H225070   1.095   5.711   5.476
 8377TIP3   OH225071   6.933   2.781   4.155
 8377TIP3    H125072   6.882   2.809   4.078
 8377TIP3    H225073   6.999   2.850   4.166
 8378TIP3   OH225074   0.880   1.727   5.569
 8378TIP3    H125075   0.930   1.757   5.494
 8378TIP3    H225076   0.816   1.797   5.585
 8379TIP3   OH225077   7.313   2.542   5.935
 8379TIP3    H125078   7.319   2.636   5.953
 8379TIP3    H225079   7.404   2.513   5.926
 8380TIP3   OH225080   7.709   1.006   6.414
 8380TIP3    H125081   7.768   0.947   6.462
 8380TIP3    H225082   7.625   0.959   6.411
 8381TIP3   OH225083   7.525   7.262   6.123
 8381TIP3    H125084   7.585   7.242   6.195
 8381TIP3    H225085   7.442   7.221   6.148
 8382TIP3   OH225086   5.981   0.103   6.182
 8382TIP3    H125087   5.989   0.119   6.275
 8382TIP3    H225088   6.037   0.026   6.166
 8383TIP3   OH225089   1.718   6.171   0.597
 8383TIP3    H125090   1.698   6.078   0.603
 8383TIP3    H225091   1.803   6.181   0.640
 8384TIP3   OH225092   6.706   7.604   3.935
 8384TIP3    H125093   6.731   7.696   3.944
 8384TIP3    H225094   6.633   7.592   3.996
 8385TIP3   OH225095   2.954   4.924   1.697
 8385TIP3    H125096   2.956   4.932   1.601
 8385TIP3    H225097   3.001   5.002   1.728
 8386TIP3   OH225098   4.335   2.210   3.946
 8386TIP3    H125099   4.288   2.139   3.989
 8386TIP3    H225100   4.339   2.184   3.854
 8387TIP3   OH225101   6.779   6.460   2.037
 8387TIP3    H125102   6.855   6.513   2.061
 8387TIP3    H225103   6.751   6.495   1.952
 8388TIP3   OH225104   7.450   0.321   4.098
 8388TIP3    H125105   7.496   0.315   4.182
 8388TIP3    H225106   7.467   0.236   4.056
 8389TIP3   OH225107   3.397   1.647   4.681
 8389TIP3    H125108   3.469   1.621   4.739
 8389TIP3    H225109   3.331   1.579   4.692
 8390TIP3   OH225110   7.283  -0.021   2.313
 8390TIP3    H125111   7.214   0.016   2.258
 8390TIP3    H225112   7.322   0.055   2.356
 8391TIP3   OH225113   1.027   0.401   2.056
 8391TIP3    H125114   1.095   0.357   2.004
 8391TIP3    H225115   0.971   0.330   2.087
 8392TIP3   OH225116   2.523   3.870   6.573
 8392TIP3    H125117   2.486   3.788   6.540
 8392TIP3    H225118   2.595   3.842   6.630
 8393TIP3   OH225119   1.941   4.745   1.137
 8393TIP3    H125120   1.851   4.751   1.105
 8393TIP3    H225121   1.979   4.830   1.118
 8394TIP3   OH225122   2.122   4.429   5.217
 8394TIP3    H125123   2.140   4.446   5.124
 8394TIP3    H225124   2.203   4.451   5.262
 8395TIP3   OH225125   4.750   0.059   1.210
 8395TIP3    H125126   4.770  -0.007   1.143
 8395TIP3    H225127   4.759   0.143   1.165
 8396TIP3   OH225128   7.224   6.509   2.973
 8396TIP3    H125129   7.297   6.568   2.992
 8396TIP3    H225130   7.184   6.493   3.058
 8397TIP3   OH225131   1.786   4.027   2.798
 8397TIP3    H125132   1.769   3.941   2.759
 8397TIP3    H225133   1.808   4.083   2.723
 8398TIP3   OH225134   4.563   2.965   4.634
 8398TIP3    H125135   4.624   2.982   4.563
 8398TIP3    H225136   4.480   3.003   4.605
 8399TIP3   OH225137   5.876   1.995   4.430
 8399TIP3    H125138   5.842   1.941   4.359
 8399TIP3    H225139   5.823   2.075   4.426
 8400TIP3   OH225140   6.192   4.715   3.303
 8400TIP3    H125141   6.280   4.749   3.319
 8400TIP3    H225142   6.170   4.748   3.215
 8401TIP3   OH225143   7.762   6.809   0.935
 8401TIP3    H125144   7.742   6.789   0.843
 8401TIP3    H225145   7.700   6.757   0.985
 8402TIP3   OH225146   1.223   5.598   0.466
 8402TIP3    H125147   1.219   5.692   0.485
 8402TIP3    H225148   1.308   5.585   0.426
 8403TIP3   OH225149   1.212   6.886   1.890
 8403TIP3    H125150   1.151   6.954   1.862
 8403TIP3    H225151   1.221   6.829   1.814
 8404TIP3   OH225152   1.637   2.589   3.689
 8404TIP3    H125153   1.615   2.629   3.773
 8404TIP3    H225154   1.730   2.610   3.676
 8405TIP3   OH225155   4.153   4.527   5.393
 8405TIP3    H125156   4.109   4.554   5.474
 8405TIP3    H225157   4.206   4.452   5.419
 8406TIP3   OH225158   6.357   6.610   6.750
 8406TIP3    H125159   6.452   6.615   6.742
 8406TIP3    H225160   6.334   6.688   6.801
 8407TIP3   OH225161   7.608   6.316   4.809
 8407TIP3    H125162   7.595   6.284   4.898
 8407TIP3    H225163   7.536   6.377   4.794
 8408TIP3   OH225164   8.187   1.374   2.147
 8408TIP3    H125165   8.169   1.467   2.131
 8408TIP3    H225166   8.177   1.332   2.062
 8409TIP3   OH225167   0.374   4.284   4.289
 8409TIP3    H125168   0.377   4.219   4.359
 8409TIP3    H225169   0.289   4.327   4.300
 8410TIP3   OH225170   1.696   2.171   2.078
 8410TIP3    H125171   1.724   2.168   2.169
 8410TIP3    H225172   1.717   2.260   2.049
 8411TIP3   OH225173   7.177   1.896   2.940
 8411TIP3    H125174   7.109   1.936   2.995
 8411TIP3    H225175   7.129   1.840   2.879
 8412TIP3   OH225176   5.535   0.089   6.456
 8412TIP3    H125177   5.599   0.155   6.429
 8412TIP3    H225178   5.462   0.099   6.394
 8413TIP3   OH225179   4.073   2.488   6.505
 8413TIP3    H125180   4.082   2.448   6.419
 8413TIP3    H225181   4.059   2.413   6.564
 8414TIP3   OH225182   1.191   2.259   4.527
 8414TIP3    H125183   1.216   2.240   4.617
 8414TIP3    H225184   1.216   2.182   4.477
 8415TIP3   OH225185   1.192   3.750   5.913
 8415TIP3    H125186   1.279   3.789   5.925
 8415TIP3    H225187   1.196   3.669   5.965
 8416TIP3   OH225188   2.095   1.156   6.419
 8416TIP3    H125189   2.078   1.250   6.410
 8416TIP3    H225190   2.134   1.130   6.336
 8417TIP3   OH225191   3.286   1.276   2.033
 8417TIP3    H125192   3.359   1.330   2.063
 8417TIP3    H225193   3.229   1.337   1.985
 8418TIP3   OH225194   5.801   2.071   1.734
 8418TIP3    H125195   5.759   1.996   1.692
 8418TIP3    H225196   5.894   2.048   1.738
 8419TIP3   OH225197   7.970   2.191   1.282
 8419TIP3    H125198   7.971   2.108   1.234
 8419TIP3    H225199   8.054   2.231   1.262
 8420TIP3   OH225200   0.782   5.402   4.530
 8420TIP3    H125201   0.786   5.377   4.438
 8420TIP3    H225202   0.738   5.328   4.572
 8421TIP3   OH225203   7.103   6.730   0.648
 8421TIP3    H125204   7.073   6.821   0.644
 8421TIP3    H225205   7.139   6.720   0.736
 8422TIP3   OH225206   5.220   3.899   0.708
 8422TIP3    H125207   5.308   3.887   0.745
 8422TIP3    H225208   5.192   3.811   0.684
 8423TIP3   OH225209   3.441   0.138   4.120
 8423TIP3    H125210   3.360   0.177   4.087
 8423TIP3    H225211   3.509   0.168   4.060
 8424TIP3   OH225212   7.924   5.290   4.316
 8424TIP3    H125213   7.930   5.234   4.239
 8424TIP3    H225214   7.870   5.240   4.378
 8425TIP3   OH225215   5.812   5.675   2.293
 8425TIP3    H125216   5.866   5.601   2.264
 8425TIP3    H225217   5.738   5.635   2.338
 8426TIP3   OH225218   6.130   7.245   0.705
 8426TIP3    H125219   6.037   7.268   0.701
 8426TIP3    H225220   6.136   7.162   0.657
 8427TIP3   OH225221   0.827   6.733   1.356
 8427TIP3    H125222   0.756   6.674   1.382
 8427TIP3    H225223   0.827   6.729   1.260
 8428TIP3   OH225224   4.607   7.714   0.615
 8428TIP3    H125225   4.606   7.759   0.531
 8428TIP3    H225226   4.649   7.776   0.675
 8429TIP3   OH225227   7.777   0.478   3.377
 8429TIP3    H125228   7.707   0.544   3.379
 8429TIP3    H225229   7.777   0.441   3.465
 8430TIP3   OH225230   0.241   7.269   2.964
 8430TIP3    H125231   0.243   7.182   2.923
 8430TIP3    H225232   0.152   7.277   2.999
 8431TIP3   OH225233  -0.015   3.600   2.573
 8431TIP3    H125234  -0.011   3.628   2.481
 8431TIP3    H225235   0.074   3.615   2.606
 8432TIP3   OH225236   4.822   1.852   5.019
 8432TIP3    H125237   4.870   1.874   5.099
 8432TIP3    H225238   4.743   1.906   5.022
 8433TIP3   OH225239   0.081   1.506   0.225
 8433TIP3    H125240   0.169   1.481   0.197
 8433TIP3    H225241   0.024   1.474   0.156
 8434TIP3   OH225242   6.223   3.468   3.026
 8434TIP3    H125243   6.264   3.421   3.098
 8434TIP3    H225244   6.133   3.482   3.054
 8435TIP3   OH225245   4.468   6.930   0.075
 8435TIP3    H125246   4.425   6.875   0.141
 8435TIP3    H225247   4.447   6.888  -0.009
 8436TIP3   OH225248   0.848   0.157   0.031
 8436TIP3    H125249   0.807   0.182  -0.052
 8436TIP3    H225250   0.776   0.121   0.083
 8437TIP3   OH225251   3.062   0.226   6.630
 8437TIP3    H125252   3.130   0.275   6.675
 8437TIP3    H225253   3.107   0.151   6.592
 8438TIP3   OH225254   3.079   5.229   6.117
 8438TIP3    H125255   3.057   5.247   6.025
 8438TIP3    H225256   3.175   5.225   6.118
 8439TIP3   OH225257   1.156   0.125   6.328
 8439TIP3    H125258   1.197   0.050   6.370
 8439TIP3    H225259   1.228   0.170   6.283
 8440TIP3   OH225260   4.344   5.190   0.979
 8440TIP3    H125261   4.428   5.148   0.995
 8440TIP3    H225262   4.307   5.142   0.905
 8441TIP3   OH225263   3.878   3.684   3.163
 8441TIP3    H125264   3.963   3.640   3.157
 8441TIP3    H225265   3.849   3.668   3.252
 8442TIP3   OH225266   6.313   6.671   3.825
 8442TIP3    H125267   6.287   6.745   3.880
 8442TIP3    H225268   6.238   6.657   3.767
 8443TIP3   OH225269   6.969   3.611   6.571
 8443TIP3    H125270   6.888   3.652   6.540
 8443TIP3    H225271   6.948   3.518   6.576
 8444TIP3   OH225272   8.256   4.424   1.927
 8444TIP3    H125273   8.287   4.498   1.981
 8444TIP3    H225274   8.161   4.435   1.925
 8445TIP3   OH225275   0.062   2.908   5.630
 8445TIP3    H125276   0.019   2.970   5.688
 8445TIP3    H225277   0.135   2.874   5.681
 8446TIP3   OH225278   4.127   2.323   1.568
 8446TIP3    H125279   4.131   2.285   1.655
 8446TIP3    H225280   4.217   2.348   1.547
 8447TIP3   OH225281   8.373   5.584   0.506
 8447TIP3    H125282   8.383   5.537   0.589
 8447TIP3    H225283   8.283   5.568   0.480
 8448TIP3   OH225284   2.422   0.819   3.486
 8448TIP3    H125285   2.442   0.735   3.527
 8448TIP3    H225286   2.432   0.803   3.392
 8449TIP3   OH225287   8.150   5.060   3.088
 8449TIP3    H125288   8.243   5.057   3.067
 8449TIP3    H225289   8.138   5.142   3.135
 8450TIP3   OH225290   1.140   4.455   5.860
 8450TIP3    H125291   1.225   4.418   5.836
 8450TIP3    H225292   1.161   4.543   5.893
 8451TIP3   OH225293   6.027   5.690   2.457
 8451TIP3    H125294   6.047   5.782   2.475
 8451TIP3    H225295   5.953   5.692   2.396
 8452TIP3   OH225296   7.790   4.281   3.314
 8452TIP3    H125297   7.783   4.296   3.219
 8452TIP3    H225298   7.868   4.330   3.340
 8453TIP3   OH225299   5.560   4.190   0.430
 8453TIP3    H125300   5.592   4.223   0.514
 8453TIP3    H225301   5.472   4.159   0.449
 8454TIP3   OH225302   3.430   5.467   0.426
 8454TIP3    H125303   3.337   5.490   0.419
 8454TIP3    H225304   3.473   5.523   0.362
 8455TIP3   OH225305   4.969   4.951   5.173
 8455TIP3    H125306   4.959   4.873   5.118
 8455TIP3    H225307   4.881   4.989   5.176
 8456TIP3   OH225308   6.131   0.726   6.785
 8456TIP3    H125309   6.193   0.797   6.766
 8456TIP3    H225310   6.069   0.764   6.847
 8457TIP3   OH225311   8.273   2.792   5.367
 8457TIP3    H125312   8.309   2.881   5.359
 8457TIP3    H225313   8.211   2.799   5.440
 8458TIP3   OH225314   0.182   4.464   5.065
 8458TIP3    H125315   0.209   4.380   5.028
 8458TIP3    H225316   0.250   4.485   5.130
 8459TIP3   OH225317   0.152   5.015   2.795
 8459TIP3    H125318   0.153   4.957   2.870
 8459TIP3    H225319   0.227   4.986   2.742
 8460TIP3   OH225320   4.494   6.627   1.563
 8460TIP3    H125321   4.448   6.546   1.541
 8460TIP3    H225322   4.440   6.666   1.632
 8461TIP3   OH225323   2.417   0.490   0.893
 8461TIP3    H125324   2.491   0.436   0.920
 8461TIP3    H225325   2.356   0.428   0.853
 8462TIP3   OH225326   1.912   5.010   6.471
 8462TIP3    H125327   1.974   4.966   6.413
 8462TIP3    H225328   1.826   4.984   6.438
 8463TIP3   OH225329   0.300   0.479   6.784
 8463TIP3    H125330   0.387   0.508   6.814
 8463TIP3    H225331   0.249   0.560   6.777
 8464TIP3   OH225332   5.079   6.595   2.414
 8464TIP3    H125333   5.129   6.674   2.395
 8464TIP3    H225334   5.137   6.523   2.387
 8465TIP3   OH225335   3.271   5.810   5.123
 8465TIP3    H125336   3.180   5.783   5.130
 8465TIP3    H225337   3.273   5.897   5.164
 8466TIP3   OH225338   1.373   1.804   2.513
 8466TIP3    H125339   1.295   1.784   2.462
 8466TIP3    H225340   1.391   1.724   2.563
 8467TIP3   OH225341   3.420   7.243   3.035
 8467TIP3    H125342   3.481   7.174   3.059
 8467TIP3    H225343   3.384   7.273   3.119
 8468TIP3   OH225344   8.200   7.682   2.001
 8468TIP3    H125345   8.211   7.726   2.085
 8468TIP3    H225346   8.265   7.723   1.944
 8469TIP3   OH225347   4.563   6.618   4.008
 8469TIP3    H125348   4.656   6.596   4.015
 8469TIP3    H225349   4.526   6.591   4.092
 8470TIP3   OH225350   5.026   2.091   0.813
 8470TIP3    H125351   4.953   2.104   0.752
 8470TIP3    H225352   5.020   2.165   0.874
 8471TIP3   OH225353   4.258   1.770   5.189
 8471TIP3    H125354   4.172   1.753   5.151
 8471TIP3    H225355   4.258   1.863   5.211
 8472TIP3   OH225356   6.194   1.797   4.548
 8472TIP3    H125357   6.151   1.777   4.632
 8472TIP3    H225358   6.164   1.885   4.527
 8473TIP3   OH225359   5.915   6.457   5.981
 8473TIP3    H125360   5.976   6.510   6.033
 8473TIP3    H225361   5.935   6.481   5.891
 8474TIP3   OH225362   5.184   2.819   3.088
 8474TIP3    H125363   5.144   2.772   3.015
 8474TIP3    H225364   5.160   2.910   3.074
 8475TIP3   OH225365   5.240   4.888   6.745
 8475TIP3    H125366   5.279   4.938   6.673
 8475TIP3    H225367   5.314   4.866   6.802
 8476TIP3   OH225368   1.589   5.698   1.141
 8476TIP3    H125369   1.607   5.766   1.075
 8476TIP3    H225370   1.628   5.619   1.105
 8477TIP3   OH225371   3.490   2.312   3.552
 8477TIP3    H125372   3.546   2.289   3.626
 8477TIP3    H225373   3.540   2.285   3.475
 8478TIP3   OH225374   7.830   0.215   2.201
 8478TIP3    H125375   7.812   0.233   2.293
 8478TIP3    H225376   7.922   0.242   2.188
 8479TIP3   OH225377   0.633   2.146   4.524
 8479TIP3    H125378   0.622   2.238   4.547
 8479TIP3    H225379   0.634   2.145   4.428
 8480TIP3   OH225380   7.246   3.254   6.628
 8480TIP3    H125381   7.224   3.347   6.628
 8480TIP3    H225382   7.335   3.250   6.663
 8481TIP3   OH225383   7.894   7.477   2.875
 8481TIP3    H125384   7.827   7.464   2.942
 8481TIP3    H225385   7.852   7.533   2.810
 8482TIP3   OH225386   0.342   6.782   3.769
 8482TIP3    H125387   0.406   6.716   3.794
 8482TIP3    H225388   0.299   6.747   3.691
 8483TIP3   OH225389   2.773   2.511   6.511
 8483TIP3    H125390   2.850   2.454   6.506
 8483TIP3    H225391   2.725   2.481   6.588
 8484TIP3   OH225392   8.284   3.555   3.984
 8484TIP3    H125393   8.229   3.600   3.921
 8484TIP3    H225394   8.343   3.502   3.931
 8485TIP3   OH225395   0.857   7.304   4.336
 8485TIP3    H125396   0.775   7.353   4.334
 8485TIP3    H225397   0.833   7.218   4.370
 8486TIP3   OH225398   2.449   4.906   1.055
 8486TIP3    H125399   2.382   4.927   1.120
 8486TIP3    H225400   2.469   4.813   1.070
 8487TIP3   OH225401   4.983   5.333   3.958
 8487TIP3    H125402   4.997   5.278   4.035
 8487TIP3    H225403   5.059   5.317   3.903
 8488TIP3   OH225404   0.138   6.497   6.825
 8488TIP3    H125405   0.194   6.516   6.900
 8488TIP3    H225406   0.192   6.518   6.749
 8489TIP3   OH225407   2.887   5.206   6.335
 8489TIP3    H125408   2.882   5.299   6.355
 8489TIP3    H225409   2.949   5.200   6.263
 8490TIP3   OH225410   0.167   1.346   4.004
 8490TIP3    H125411   0.241   1.398   4.034
 8490TIP3    H225412   0.184   1.258   4.039
 8491TIP3   OH225413   6.994   0.061   1.224
 8491TIP3    H125414   7.075   0.017   1.196
 8491TIP3    H225415   6.975   0.124   1.154
 8492TIP3   OH225416   4.480   4.717   4.729
 8492TIP3    H125417   4.572   4.717   4.752
 8492TIP3    H225418   4.435   4.746   4.808
 8493TIP3   OH225419   2.002   5.195   0.377
 8493TIP3    H125420   2.006   5.282   0.339
 8493TIP3    H225421   1.911   5.169   0.370
 8494TIP3   OH225422   6.771   5.094   0.872
 8494TIP3    H125423   6.725   5.151   0.811
 8494TIP3    H225424   6.752   5.005   0.841
 8495TIP3   OH225425   0.835   4.664   0.887
 8495TIP3    H125426   0.791   4.717   0.954
 8495TIP3    H225427   0.918   4.710   0.871
 8496TIP3   OH225428   1.356   3.691   2.378
 8496TIP3    H125429   1.296   3.761   2.403
 8496TIP3    H225430   1.301   3.627   2.332
 8497TIP3   OH225431   5.086   4.713   1.406
 8497TIP3    H125432   5.144   4.740   1.477
 8497TIP3    H225433   5.007   4.765   1.419
 8498TIP3   OH225434   5.632   3.897   0.299
 8498TIP3    H125435   5.571   3.970   0.296
 8498TIP3    H225436   5.578   3.819   0.287
 8499TIP3   OH225437   7.582   5.756   4.707
 8499TIP3    H125438   7.663   5.807   4.714
 8499TIP3    H225439   7.517   5.819   4.676
 8500TIP3   OH225440   1.203   5.506   5.735
 8500TIP3    H125441   1.143   5.478   5.667
 8500TIP3    H225442   1.147   5.540   5.805
 8501TIP3   OH225443   2.966   6.048   3.619
 8501TIP3    H125444   3.000   5.978   3.674
 8501TIP3    H225445   2.944   6.119   3.680
 8502TIP3   OH225446   1.847   1.977   6.398
 8502TIP3    H125447   1.850   2.015   6.310
 8502TIP3    H225448   1.760   2.000   6.431
 8503TIP3   OH225449   5.569   0.969   0.470
 8503TIP3    H125450   5.574   0.878   0.439
 8503TIP3    H225451   5.660   0.993   0.488
 8504TIP3   OH225452   2.564   6.782   0.024
 8504TIP3    H125453   2.599   6.837  -0.046
 8504TIP3    H225454   2.614   6.701   0.018
 8505TIP3   OH225455   2.759   6.487   3.002
 8505TIP3    H125456   2.677   6.480   3.051
 8505TIP3    H225457   2.817   6.538   3.058
 8506TIP3   OH225458   1.513   0.471   0.651
 8506TIP3    H125459   1.450   0.400   0.649
 8506TIP3    H225460   1.549   0.475   0.562
 8507TIP3   OH225461   5.491   1.903   4.340
 8507TIP3    H125462   5.525   1.977   4.390
 8507TIP3    H225463   5.408   1.881   4.383
 8508TIP3   OH225464   5.404   7.441   5.780
 8508TIP3    H125465   5.312   7.452   5.759
 8508TIP3    H225466   5.437   7.382   5.712
 8509TIP3   OH225467   1.837   2.846   3.220
 8509TIP3    H125468   1.846   2.872   3.128
 8509TIP3    H225469   1.819   2.927   3.266
 8510TIP3   OH225470   4.860   7.802   2.492
 8510TIP3    H125471   4.913   7.737   2.539
 8510TIP3    H225472   4.912   7.822   2.414
 8511TIP3   OH225473   0.089   0.322   6.155
 8511TIP3    H125474   0.044   0.256   6.207
 8511TIP3    H225475   0.173   0.282   6.134
 8512TIP3   OH225476   1.356   7.907   1.394
 8512TIP3    H125477   1.294   7.929   1.464
 8512TIP3    H225478   1.438   7.948   1.421
 8513TIP3   OH225479   1.687   0.277   1.725
 8513TIP3    H125480   1.752   0.208   1.715
 8513TIP3    H225481   1.715   0.346   1.665
 8514TIP3   OH225482   4.382   1.107   0.732
 8514TIP3    H125483   4.446   1.145   0.792
 8514TIP3    H225484   4.422   1.119   0.645
 8515TIP3   OH225485   5.312   4.389   5.188
 8515TIP3    H125486   5.389   4.334   5.170
 8515TIP3    H225487   5.296   4.378   5.282
 8516TIP3   OH225488   4.405   4.900   3.765
 8516TIP3    H125489   4.460   4.973   3.793
 8516TIP3    H225490   4.428   4.828   3.824
 8517TIP3   OH225491   4.097   4.561   0.544
 8517TIP3    H125492   4.037   4.539   0.615
 8517TIP3    H225493   4.140   4.478   0.523
 8518TIP3   OH225494   0.964   6.178   5.953
 8518TIP3    H125495   0.988   6.114   6.021
 8518TIP3    H225496   0.998   6.141   5.872
 8519TIP3   OH225497   1.324   1.958   5.923
 8519TIP3    H125498   1.310   1.985   5.833
 8519TIP3    H225499   1.321   2.040   5.973
 8520TIP3   OH225500   1.413   1.092   2.382
 8520TIP3    H125501   1.322   1.121   2.390
 8520TIP3    H225502   1.463   1.172   2.369
 8521TIP3   OH225503   8.010   2.052   2.479
 8521TIP3    H125504   8.084   2.101   2.443
 8521TIP3    H225505   8.049   1.977   2.523
 8522TIP3   OH225506   7.509   3.250   6.696
 8522TIP3    H125507   7.549   3.327   6.736
 8522TIP3    H225508   7.582   3.198   6.663
 8523TIP3   OH225509   2.716   6.783   0.440
 8523TIP3    H125510   2.692   6.868   0.404
 8523TIP3    H225511   2.697   6.790   0.534
 8524TIP3   OH225512   0.574   3.228   3.845
 8524TIP3    H125513   0.578   3.180   3.928
 8524TIP3    H225514   0.544   3.163   3.781
 8525TIP3   OH225515   8.154   1.070   4.757
 8525TIP3    H125516   8.105   0.998   4.716
 8525TIP3    H225517   8.091   1.112   4.815
 8526TIP3   OH225518   8.149   6.978   1.169
 8526TIP3    H125519   8.167   6.955   1.078
 8526TIP3    H225520   8.180   7.069   1.177
 8527TIP3   OH225521  -0.025   5.791   3.451
 8527TIP3    H125522   0.021   5.841   3.518
 8527TIP3    H225523  -0.116   5.819   3.458
 8528TIP3   OH225524   7.894   6.630   3.166
 8528TIP3    H125525   7.954   6.576   3.115
 8528TIP3    H225526   7.950   6.692   3.212
 8529TIP3   OH225527   0.653   4.266   5.957
 8529TIP3    H125528   0.598   4.336   5.924
 8529TIP3    H225529   0.732   4.310   5.989
 8530TIP3   OH225530   4.185   3.873   6.287
 8530TIP3    H125531   4.109   3.897   6.233
 8530TIP3    H225532   4.248   3.944   6.273
 8531TIP3   OH225533   6.189   6.116   5.942
 8531TIP3    H125534   6.153   6.028   5.930
 8531TIP3    H225535   6.253   6.126   5.872
 8532TIP3   OH225536   5.624   1.575   0.782
 8532TIP3    H125537   5.572   1.495   0.786
 8532TIP3    H225538   5.649   1.592   0.873
 8533TIP3   OH225539   6.485   2.123   1.714
 8533TIP3    H125540   6.467   2.102   1.805
 8533TIP3    H225541   6.520   2.041   1.677
 8534TIP3   OH225542   2.990   4.878   2.783
 8534TIP3    H125543   3.003   4.973   2.789
 8534TIP3    H225544   2.957   4.852   2.869
 8535TIP3   OH225545   6.381   7.742   0.238
 8535TIP3    H125546   6.321   7.803   0.195
 8535TIP3    H225547   6.458   7.795   0.259
 8536TIP3   OH225548   5.522   0.045   5.629
 8536TIP3    H125549   5.434   0.012   5.648
 8536TIP3    H225550   5.581  -0.022   5.666
 8537TIP3   OH225551   7.275   3.295   0.495
 8537TIP3    H125552   7.366   3.320   0.480
 8537TIP3    H225553   7.262   3.308   0.589
 8538TIP3   OH225554   6.988   2.645   2.788
 8538TIP3    H125555   7.073   2.687   2.795
 8538TIP3    H225556   6.952   2.679   2.706
 8539TIP3   OH225557   3.226   4.557   2.546
 8539TIP3    H125558   3.207   4.468   2.575
 8539TIP3    H225559   3.262   4.547   2.458
 8540TIP3   OH225560   2.957   5.299   5.850
 8540TIP3    H125561   2.894   5.334   5.787
 8540TIP3    H225562   2.943   5.204   5.847
 8541TIP3   OH225563   4.882   1.300   2.642
 8541TIP3    H125564   4.923   1.263   2.721
 8541TIP3    H225565   4.827   1.371   2.675
 8542TIP3   OH225566   6.555  -0.020   1.697
 8542TIP3    H125567   6.512  -0.032   1.782
 8542TIP3    H225568   6.643   0.010   1.719
 8543TIP3   OH225569   0.288   0.301   1.432
 8543TIP3    H125570   0.235   0.226   1.459
 8543TIP3    H225571   0.360   0.262   1.381
 8544TIP3   OH225572   2.242   4.006   5.992
 8544TIP3    H125573   2.266   3.913   5.998
 8544TIP3    H225574   2.326   4.052   5.987
 8545TIP3   OH225575   3.819   2.248   1.144
 8545TIP3    H125576   3.834   2.331   1.098
 8545TIP3    H225577   3.830   2.181   1.076
 8546TIP3   OH225578   3.037   6.164   3.046
 8546TIP3    H125579   3.036   6.132   3.136
 8546TIP3    H225580   2.946   6.187   3.027
 8547TIP3   OH225581   6.939   5.515   3.028
 8547TIP3    H125582   6.846   5.493   3.037
 8547TIP3    H225583   6.941   5.611   3.028
 8548TIP3   OH225584   3.134   1.261   0.638
 8548TIP3    H125585   3.210   1.248   0.581
 8548TIP3    H225586   3.060   1.225   0.588
 8549TIP3   OH225587   8.277   5.080   0.991
 8549TIP3    H125588   8.303   5.151   0.932
 8549TIP3    H225589   8.195   5.110   1.030
 8550TIP3   OH225590   4.424   5.350   1.914
 8550TIP3    H125591   4.513   5.379   1.935
 8550TIP3    H225592   4.415   5.366   1.820
 8551TIP3   OH225593   3.609   3.136   0.955
 8551TIP3    H125594   3.647   3.069   0.898
 8551TIP3    H225595   3.565   3.087   1.024
 8552TIP3   OH225596   3.717   4.486   2.244
 8552TIP3    H125597   3.714   4.564   2.299
 8552TIP3    H225598   3.652   4.502   2.175
 8553TIP3   OH225599   6.988   0.313   2.945
 8553TIP3    H125600   6.963   0.397   2.983
 8553TIP3    H225601   7.058   0.334   2.883
 8554TIP3   OH225602   2.748   3.298   0.833
 8554TIP3    H125603   2.732   3.205   0.816
 8554TIP3    H225604   2.830   3.301   0.882
 8555TIP3   OH225605   4.516   7.759   1.678
 8555TIP3    H125606   4.479   7.679   1.715
 8555TIP3    H225607   4.544   7.810   1.754
 8556TIP3   OH225608   1.117   3.430   2.711
 8556TIP3    H125609   1.103   3.399   2.622
 8556TIP3    H225610   1.205   3.470   2.709
 8557TIP3   OH225611   7.333   3.968   4.121
 8557TIP3    H125612   7.409   3.926   4.162
 8557TIP3    H225613   7.296   4.024   4.190
 8558TIP3   OH225614   4.695   0.419   5.138
 8558TIP3    H125615   4.734   0.472   5.068
 8558TIP3    H225616   4.770   0.374   5.178
 8559TIP3   OH225617   3.647   4.179   3.840
 8559TIP3    H125618   3.739   4.154   3.842
 8559TIP3    H225619   3.607   4.129   3.912
 8560TIP3   OH225620   0.237   1.272   1.253
 8560TIP3    H125621   0.266   1.299   1.340
 8560TIP3    H225622   0.150   1.311   1.243
 8561TIP3   OH225623   8.004   7.607   6.605
 8561TIP3    H125624   7.980   7.528   6.654
 8561TIP3    H225625   8.019   7.673   6.672
 8562TIP3   OH225626   2.308   1.411   3.539
 8562TIP3    H125627   2.377   1.464   3.580
 8562TIP3    H225628   2.347   1.325   3.528
 8563TIP3   OH225629   5.207   7.130   2.719
 8563TIP3    H125630   5.282   7.071   2.728
 8563TIP3    H225631   5.175   7.142   2.809
 8564TIP3   OH225632   8.363   4.039   4.850
 8564TIP3    H125633   8.268   4.046   4.851
 8564TIP3    H225634   8.387   4.024   4.942
 8565TIP3   OH225635   7.289   1.958   4.998
 8565TIP3    H125636   7.369   1.936   5.046
 8565TIP3    H225637   7.307   1.929   4.908
 8566TIP3   OH225638   7.685   6.760   1.723
 8566TIP3    H125639   7.652   6.846   1.749
 8566TIP3    H225640   7.607   6.709   1.701
 8567TIP3   OH225641   1.668   0.991   2.023
 8567TIP3    H125642   1.752   1.004   1.979
 8567TIP3    H225643   1.652   1.074   2.069
 8568TIP3   OH225644   8.120   5.269   0.907
 8568TIP3    H125645   8.104   5.287   0.999
 8568TIP3    H225646   8.033   5.254   0.869
 8569TIP3   OH225647   0.952   4.297   5.511
 8569TIP3    H125648   0.988   4.239   5.578
 8569TIP3    H225649   0.859   4.302   5.531
 8570TIP3   OH225650   5.663   5.798   4.646
 8570TIP3    H125651   5.721   5.873   4.639
 8570TIP3    H225652   5.591   5.818   4.586
 8571TIP3   OH225653   7.593   7.734   4.373
 8571TIP3    H125654   7.552   7.764   4.292
 8571TIP3    H225655   7.647   7.660   4.346
 8572TIP3   OH225656   0.932   6.618   2.715
 8572TIP3    H125657   0.933   6.525   2.740
 8572TIP3    H225658   0.858   6.625   2.655
 8573TIP3   OH225659   2.851   7.300   6.633
 8573TIP3    H125660   2.785   7.348   6.582
 8573TIP3    H225661   2.934   7.340   6.608
 8574TIP3   OH225662   6.792   2.398   4.663
 8574TIP3    H125663   6.852   2.326   4.684
 8574TIP3    H225664   6.800   2.408   4.568
 8575TIP3   OH225665   2.828   4.032   4.936
 8575TIP3    H125666   2.762   4.094   4.903
 8575TIP3    H225667   2.781   3.980   5.001
 8576TIP3   OH225668   5.131   3.939   1.502
 8576TIP3    H125669   5.145   3.926   1.408
 8576TIP3    H225670   5.180   4.019   1.522
 8577TIP3   OH225671   0.908   2.103   3.068
 8577TIP3    H125672   0.959   2.162   3.124
 8577TIP3    H225673   0.855   2.052   3.129
 8578TIP3   OH225674   3.161   6.106   2.636
 8578TIP3    H125675   3.089   6.162   2.607
 8578TIP3    H225676   3.180   6.050   2.560
 8579TIP3   OH225677   7.312   3.613   5.302
 8579TIP3    H125678   7.288   3.696   5.344
 8579TIP3    H225679   7.388   3.583   5.352
 8580TIP3   OH225680   3.910   3.754   3.706
 8580TIP3    H125681   3.935   3.663   3.686
 8580TIP3    H225682   3.829   3.767   3.658
 8581TIP3   OH225683   3.134   1.864   6.671
 8581TIP3    H125684   3.193   1.803   6.626
 8581TIP3    H225685   3.166   1.950   6.645
 8582TIP3   OH225686   6.382   4.804   2.504
 8582TIP3    H125687   6.444   4.868   2.470
 8582TIP3    H225688   6.363   4.835   2.593
 8583TIP3   OH225689   4.582   2.397   3.041
 8583TIP3    H125690   4.662   2.345   3.039
 8583TIP3    H225691   4.555   2.396   3.133
 8584TIP3   OH225692   2.893   6.878   0.782
 8584TIP3    H125693   2.932   6.851   0.865
 8584TIP3    H225694   2.854   6.963   0.800
 8585TIP3   OH225695   6.520   7.324   4.330
 8585TIP3    H125696   6.547   7.415   4.320
 8585TIP3    H225697   6.564   7.295   4.410
 8586TIP3   OH225698   0.487   7.649   3.787
 8586TIP3    H125699   0.412   7.680   3.736
 8586TIP3    H225700   0.466   7.672   3.878
 8587TIP3   OH225701   5.325   2.722   6.663
 8587TIP3    H125702   5.383   2.701   6.591
 8587TIP3    H225703   5.278   2.801   6.634
 8588TIP3   OH225704   0.922  -0.042   6.198
 8588TIP3    H125705   0.882  -0.118   6.241
 8588TIP3    H225706   0.985  -0.009   6.263
 8589TIP3   OH225707   7.598   2.028   0.802
 8589TIP3    H125708   7.657   2.073   0.862
 8589TIP3    H225709   7.511   2.062   0.823
 8590TIP3   OH225710   4.208   1.919   6.056
 8590TIP3    H125711   4.125   1.902   6.012
 8590TIP3    H225712   4.243   1.998   6.014
 8591TIP3   OH225713   5.962   7.696   1.636
 8591TIP3    H125714   6.000   7.757   1.700
 8591TIP3    H225715   5.974   7.740   1.552
 8592TIP3   OH225716   4.336   2.986   5.750
 8592TIP3    H125717   4.247   2.954   5.734
 8592TIP3    H225718   4.334   3.078   5.722
 8593TIP3   OH225719   3.545   0.840   2.960
 8593TIP3    H125720   3.475   0.900   2.988
 8593TIP3    H225721   3.505   0.753   2.962
 8594TIP3   OH225722   6.057   0.452   4.041
 8594TIP3    H125723   6.108   0.530   4.023
 8594TIP3    H225724   6.112   0.400   4.100
 8595TIP3   OH225725   4.382   1.753   0.844
 8595TIP3    H125726   4.375   1.665   0.807
 8595TIP3    H225727   4.469   1.783   0.818
 8596TIP3   OH225728   7.156   2.829   3.780
 8596TIP3    H125729   7.173   2.794   3.693
 8596TIP3    H225730   7.242   2.833   3.822
 8597TIP3   OH225731   1.131   4.842   4.201
 8597TIP3    H125732   1.109   4.901   4.273
 8597TIP3    H225733   1.187   4.894   4.143
 8598TIP3   OH225734   3.517   3.063   1.591
 8598TIP3    H125735   3.607   3.094   1.604
 8598TIP3    H225736   3.514   3.038   1.498
 8599TIP3   OH225737   5.380   2.498   2.978
 8599TIP3    H125738   5.436   2.576   2.986
 8599TIP3    H225739   5.326   2.516   2.901
 8600TIP3   OH225740   1.833   1.530   0.883
 8600TIP3    H125741   1.905   1.523   0.821
 8600TIP3    H225742   1.812   1.623   0.885
 8601TIP3   OH225743   1.619   3.095   3.035
 8601TIP3    H125744   1.703   3.131   3.004
 8601TIP3    H225745   1.621   3.109   3.130
 8602TIP3   OH225746   6.584   0.410   3.376
 8602TIP3    H125747   6.552   0.339   3.321
 8602TIP3    H225748   6.651   0.369   3.431
 8603TIP3   OH225749   0.415   3.775   0.820
 8603TIP3    H125750   0.440   3.689   0.853
 8603TIP3    H225751   0.362   3.758   0.743
 8604TIP3   OH225752   5.600   7.156   4.948
 8604TIP3    H125753   5.593   7.201   5.032
 8604TIP3    H225754   5.625   7.225   4.886
 8605TIP3   OH225755   5.935   4.963   5.211
 8605TIP3    H125756   6.024   4.984   5.239
 8605TIP3    H225757   5.897   5.047   5.186
 8606TIP3   OH225758   4.821   1.431   0.917
 8606TIP3    H125759   4.856   1.474   0.840
 8606TIP3    H225760   4.861   1.344   0.916
 8607TIP3   OH225761   2.536   1.863   3.479
 8607TIP3    H125762   2.492   1.860   3.394
 8607TIP3    H225763   2.467   1.885   3.541
 8608TIP3   OH225764   7.246   3.832   5.487
 8608TIP3    H125765   7.305   3.791   5.550
 8608TIP3    H225766   7.226   3.918   5.524
 8609TIP3   OH225767   2.751   1.502   5.905
 8609TIP3    H125768   2.820   1.454   5.860
 8609TIP3    H225769   2.704   1.548   5.835
 8610TIP3   OH225770   5.576   5.157   2.499
 8610TIP3    H125771   5.583   5.082   2.557
 8610TIP3    H225772   5.575   5.233   2.558
 8611TIP3   OH225773   5.829   4.507   0.571
 8611TIP3    H125774   5.743   4.550   0.569
 8611TIP3    H225775   5.843   4.487   0.664
 8612TIP3   OH225776   0.953   5.367   6.124
 8612TIP3    H125777   0.861   5.356   6.148
 8612TIP3    H225778   0.991   5.280   6.139
 8613TIP3   OH225779   2.707   7.378   2.627
 8613TIP3    H125780   2.621   7.338   2.614
 8613TIP3    H225781   2.688   7.464   2.667
 8614TIP3   OH225782   4.153   6.410   5.104
 8614TIP3    H125783   4.148   6.454   5.019
 8614TIP3    H225784   4.065   6.419   5.141
 8615TIP3   OH225785   2.054   7.237   5.734
 8615TIP3    H125786   2.062   7.328   5.761
 8615TIP3    H225787   2.030   7.242   5.641
 8616TIP3   OH225788   4.346   5.014   3.227
 8616TIP3    H125789   4.309   5.071   3.294
 8616TIP3    H225790   4.309   5.046   3.144
 8617TIP3   OH225791   0.790   5.236   1.049
 8617TIP3    H125792   0.719   5.296   1.023
 8617TIP3    H225793   0.848   5.289   1.103
 8618TIP3   OH225794   1.840   0.758   1.763
 8618TIP3    H125795   1.847   0.663   1.763
 8618TIP3    H225796   1.756   0.777   1.804
 8619TIP3   OH225797   3.133   0.634   3.382
 8619TIP3    H125798   3.189   0.712   3.382
 8619TIP3    H225799   3.152   0.591   3.465
 8620TIP3   OH225800   3.199   3.122   5.089
 8620TIP3    H125801   3.183   3.061   5.161
 8620TIP3    H225802   3.161   3.205   5.118
 8621TIP3   OH225803   1.275   6.219   0.465
 8621TIP3    H125804   1.279   6.315   0.459
 8621TIP3    H225805   1.232   6.191   0.384
 8622TIP3   OH225806   6.039   7.946   5.076
 8622TIP3    H125807   6.026   7.990   4.992
 8622TIP3    H225808   6.050   7.853   5.053
 8623TIP3   OH225809   8.088   4.550   6.526
 8623TIP3    H125810   8.145   4.625   6.540
 8623TIP3    H225811   8.120   4.483   6.586
 8624TIP3   OH225812   3.244   4.146   5.172
 8624TIP3    H125813   3.150   4.148   5.190
 8624TIP3    H225814   3.252   4.185   5.085
 8625TIP3   OH225815   3.541   0.603   4.231
 8625TIP3    H125816   3.516   0.551   4.155
 8625TIP3    H225817   3.472   0.588   4.295
 8626TIP3   OH225818   7.375   0.838   4.444
 8626TIP3    H125819   7.315   0.800   4.380
 8626TIP3    H225820   7.321   0.854   4.522
 8627TIP3   OH225821   5.947   3.565   3.907
 8627TIP3    H125822   5.910   3.632   3.850
 8627TIP3    H225823   6.034   3.546   3.869
 8628TIP3   OH225824   4.545   6.869   1.061
 8628TIP3    H125825   4.516   6.957   1.037
 8628TIP3    H225826   4.505   6.854   1.147
 8629TIP3   OH225827   2.587   5.179   4.014
 8629TIP3    H125828   2.517   5.184   3.949
 8629TIP3    H225829   2.646   5.252   3.991
 8630TIP3   OH225830   1.794   5.004   0.512
 8630TIP3    H125831   1.823   4.953   0.588
 8630TIP3    H225832   1.826   4.954   0.436
 8631TIP3   OH225833   7.354   7.308   6.512
 8631TIP3    H125834   7.370   7.395   6.474
 8631TIP3    H225835   7.417   7.301   6.584
 8632TIP3   OH225836   5.434   5.054   5.085
 8632TIP3    H125837   5.445   5.145   5.057
 8632TIP3    H225838   5.374   5.060   5.160
 8633TIP3   OH225839   4.368   5.498   3.756
 8633TIP3    H125840   4.416   5.502   3.839
 8633TIP3    H225841   4.276   5.503   3.782
 8634TIP3   OH225842   2.909   1.611   5.316
 8634TIP3    H125843   2.836   1.566   5.274
 8634TIP3    H225844   2.986   1.559   5.292
 8635TIP3   OH225845   1.390   7.276   4.171
 8635TIP3    H125846   1.415   7.343   4.234
 8635TIP3    H225847   1.295   7.286   4.162
 8636TIP3   OH225848   7.450   3.649   3.413
 8636TIP3    H125849   7.471   3.656   3.320
 8636TIP3    H225850   7.459   3.738   3.447
 8637TIP3   OH225851   7.884   5.818   1.737
 8637TIP3    H125852   7.901   5.755   1.666
 8637TIP3    H225853   7.804   5.863   1.710
 8638TIP3   OH225854   6.030   1.573   5.735
 8638TIP3    H125855   6.003   1.497   5.682
 8638TIP3    H225856   6.032   1.540   5.825
 8639TIP3   OH225857   5.951   6.507   4.679
 8639TIP3    H125858   5.879   6.468   4.728
 8639TIP3    H225859   5.958   6.453   4.600
 8640TIP3   OH225860   7.364   6.922   2.489
 8640TIP3    H125861   7.397   7.012   2.484
 8640TIP3    H225862   7.303   6.923   2.563
 8641TIP3   OH225863   1.435   1.795   0.620
 8641TIP3    H125864   1.444   1.722   0.559
 8641TIP3    H225865   1.525   1.814   0.648
 8642TIP3   OH225866   1.412   0.850   1.435
 8642TIP3    H125867   1.324   0.825   1.406
 8642TIP3    H225868   1.462   0.856   1.354
 8643TIP3   OH225869   7.653   1.874   2.450
 8643TIP3    H125870   7.680   1.788   2.483
 8643TIP3    H225871   7.633   1.924   2.528
 8644TIP3   OH225872   1.926   4.156   1.600
 8644TIP3    H125873   1.976   4.109   1.667
 8644TIP3    H225874   1.905   4.240   1.641
 8645TIP3   OH225875   1.770   1.676   4.471
 8645TIP3    H125876   1.682   1.640   4.479
 8645TIP3    H225877   1.819   1.610   4.421
 8646TIP3   OH225878   8.281   0.791   2.927
 8646TIP3    H125879   8.250   0.741   3.002
 8646TIP3    H225880   8.341   0.856   2.964
 8647TIP3   OH225881   6.635   3.273   2.954
 8647TIP3    H125882   6.649   3.181   2.930
 8647TIP3    H225883   6.592   3.269   3.040
 8648TIP3   OH225884   4.782   6.783   4.827
 8648TIP3    H125885   4.799   6.759   4.736
 8648TIP3    H225886   4.855   6.747   4.876
 8649TIP3   OH225887   4.321   0.653   6.319
 8649TIP3    H125888   4.268   0.582   6.282
 8649TIP3    H225889   4.295   0.657   6.411
 8650TIP3   OH225890   7.506   0.209   3.690
 8650TIP3    H125891   7.587   0.249   3.661
 8650TIP3    H225892   7.513   0.208   3.786
 8651TIP3   OH225893   0.279   1.251   2.082
 8651TIP3    H125894   0.315   1.329   2.040
 8651TIP3    H225895   0.194   1.238   2.040
 8652TIP3   OH225896   7.757   5.179   3.235
 8652TIP3    H125897   7.733   5.107   3.176
 8652TIP3    H225898   7.823   5.228   3.187
 8653TIP3   OH225899   1.280   3.545   6.100
 8653TIP3    H125900   1.314   3.571   6.186
 8653TIP3    H225901   1.353   3.501   6.057
 8654TIP3   OH225902   6.805   4.407   1.955
 8654TIP3    H125903   6.877   4.364   2.002
 8654TIP3    H225904   6.830   4.401   1.863
 8655TIP3   OH225905   0.813   6.237   6.498
 8655TIP3    H125906   0.734   6.212   6.544
 8655TIP3    H225907   0.782   6.285   6.421
 8656TIP3   OH225908   7.487   7.257   6.738
 8656TIP3    H125909   7.548   7.191   6.704
 8656TIP3    H225910   7.449   7.216   6.816
 8657TIP3   OH225911   4.920   3.268   1.334
 8657TIP3    H125912   4.874   3.286   1.252
 8657TIP3    H225913   4.993   3.212   1.309
 8658TIP3   OH225914   6.117   4.065   6.025
 8658TIP3    H125915   6.049   4.009   6.063
 8658TIP3    H225916   6.069   4.129   5.972
 8659TIP3   OH225917   4.335   0.713   5.261
 8659TIP3    H125918   4.398   0.663   5.312
 8659TIP3    H225919   4.351   0.804   5.286
 8660TIP3   OH225920   3.329   7.293  -0.013
 8660TIP3    H125921   3.360   7.216   0.034
 8660TIP3    H225922   3.312   7.358   0.055
 8661TIP3   OH225923   0.723   3.941   3.423
 8661TIP3    H125924   0.716   3.880   3.497
 8661TIP3    H225925   0.720   3.885   3.345
 8662TIP3   OH225926   4.395   1.932   4.917
 8662TIP3    H125927   4.380   2.026   4.916
 8662TIP3    H225928   4.413   1.912   5.009
 8663TIP3   OH225929   3.470   6.825   3.983
 8663TIP3    H125930   3.520   6.862   3.911
 8663TIP3    H225931   3.434   6.743   3.949
 8664TIP3   OH225932   4.382   1.695   6.778
 8664TIP3    H125933   4.291   1.669   6.789
 8664TIP3    H225934   4.430   1.637   6.838
 8665TIP3   OH225935   5.271   4.237   2.535
 8665TIP3    H125936   5.214   4.162   2.525
 8665TIP3    H225937   5.233   4.305   2.479
 8666TIP3   OH225938   7.066   7.611   3.795
 8666TIP3    H125939   7.009   7.539   3.770
 8666TIP3    H225940   7.147   7.569   3.825
 8667TIP3   OH225941   1.163   2.485   0.331
 8667TIP3    H125942   1.229   2.552   0.317
 8667TIP3    H225943   1.101   2.496   0.259
 8668TIP3   OH225944   8.281   1.773   4.608
 8668TIP3    H125945   8.234   1.836   4.663
 8668TIP3    H225946   8.364   1.816   4.588
 8669TIP3   OH225947   6.330   3.636   0.752
 8669TIP3    H125948   6.304   3.645   0.660
 8669TIP3    H225949   6.413   3.589   0.748
 8670TIP3   OH225950   0.869   2.316   6.777
 8670TIP3    H125951   0.841   2.361   6.697
 8670TIP3    H225952   0.964   2.326   6.778
 8671TIP3   OH225953   6.598   1.532   5.936
 8671TIP3    H125954   6.574   1.440   5.952
 8671TIP3    H225955   6.625   1.534   5.844
 8672TIP3   OH225956   5.008   6.921   0.016
 8672TIP3    H125957   4.936   6.858   0.024
 8672TIP3    H225958   4.972   6.991  -0.039
 8673TIP3   OH225959   0.231   5.247   3.927
 8673TIP3    H125960   0.214   5.334   3.891
 8673TIP3    H225961   0.159   5.193   3.894
 8674TIP3   OH225962   3.515   1.516   1.843
 8674TIP3    H125963   3.476   1.436   1.809
 8674TIP3    H225964   3.525   1.501   1.937
 8675TIP3   OH225965   6.962   7.854   5.990
 8675TIP3    H125966   6.881   7.861   5.940
 8675TIP3    H225967   7.010   7.934   5.969
 8676TIP3   OH225968   7.102   0.305   0.761
 8676TIP3    H125969   7.107   0.382   0.817
 8676TIP3    H225970   7.099   0.340   0.672
 8677TIP3   OH225971   8.014   2.415   4.411
 8677TIP3    H125972   7.943   2.478   4.419
 8677TIP3    H225973   7.974   2.331   4.436
 8678TIP3   OH225974   0.856   7.894   2.763
 8678TIP3    H125975   0.942   7.887   2.804
 8678TIP3    H225976   0.872   7.877   2.670
 8679TIP3   OH225977   4.401   2.905   6.235
 8679TIP3    H125978   4.426   2.847   6.307
 8679TIP3    H225979   4.484   2.938   6.201
 8680TIP3   OH225980   0.449   2.218   0.275
 8680TIP3    H125981   0.370   2.271   0.289
 8680TIP3    H225982   0.454   2.206   0.181
 8681TIP3   OH225983   7.432   1.212   5.095
 8681TIP3    H125984   7.372   1.191   5.023
 8681TIP3    H225985   7.403   1.156   5.167
 8682TIP3   OH225986   7.422   5.011   1.660
 8682TIP3    H125987   7.486   5.056   1.717
 8682TIP3    H225988   7.339   5.055   1.679
 8683TIP3   OH225989   7.673   0.798   0.475
 8683TIP3    H125990   7.681   0.830   0.565
 8683TIP3    H225991   7.675   0.703   0.483
 8684TIP3   OH225992   2.584   7.646   0.958
 8684TIP3    H125993   2.679   7.653   0.962
 8684TIP3    H225994   2.566   7.553   0.975
 8685TIP3   OH225995   0.461   3.460   3.518
 8685TIP3    H125996   0.427   3.541   3.479
 8685TIP3    H225997   0.527   3.491   3.580
 8686TIP3   OH225998   0.515   3.653   1.832
 8686TIP3    H125999   0.487   3.688   1.747
 8686TIP3    H226000   0.483   3.563   1.833
 8687TIP3   OH226001   2.296   6.186   1.222
 8687TIP3    H126002   2.246   6.105   1.230
 8687TIP3    H226003   2.318   6.193   1.129
 8688TIP3   OH226004   7.671   0.091   6.699
 8688TIP3    H126005   7.595   0.134   6.738
 8688TIP3    H226006   7.729   0.073   6.773
 8689TIP3   OH226007   6.157   5.502   5.498
 8689TIP3    H126008   6.208   5.582   5.511
 8689TIP3    H226009   6.073   5.521   5.540
 8690TIP3   OH226010   4.724   7.348   2.305
 8690TIP3    H126011   4.630   7.368   2.301
 8690TIP3    H226012   4.729   7.260   2.342
 8691TIP3   OH226013   3.563   5.685   2.297
 8691TIP3    H126014   3.475   5.658   2.323
 8691TIP3    H226015   3.579   5.637   2.215
 8692TIP3   OH226016   2.649   3.604   5.096
 8692TIP3    H126017   2.699   3.651   5.029
 8692TIP3    H226018   2.650   3.662   5.172
 8693TIP3   OH226019   5.594   4.333   0.674
 8693TIP3    H126020   5.659   4.384   0.723
 8693TIP3    H226021   5.517   4.390   0.671
 8694TIP3   OH226022   5.332   1.176   0.952
 8694TIP3    H126023   5.249   1.223   0.948
 8694TIP3    H226024   5.382   1.221   1.020
 8695TIP3   OH226025   7.348   0.067   4.411
 8695TIP3    H126026   7.287   0.116   4.355
 8695TIP3    H226027   7.351   0.117   4.493
 8696TIP3   OH226028   0.197   5.133   1.680
 8696TIP3    H126029   0.263   5.066   1.700
 8696TIP3    H226030   0.145   5.094   1.610
 8697TIP3   OH226031   3.033   0.669   2.438
 8697TIP3    H126032   2.995   0.602   2.382
 8697TIP3    H226033   3.121   0.636   2.459
 8698TIP3   OH226034   2.053   3.578   4.984
 8698TIP3    H126035   1.992   3.565   5.057
 8698TIP3    H226036   2.024   3.515   4.918
 8699TIP3   OH226037   3.195   1.270   2.945
 8699TIP3    H126038   3.109   1.239   2.917
 8699TIP3    H226039   3.237   1.300   2.864
 8700TIP3   OH226040   2.853   0.522   0.965
 8700TIP3    H126041   2.849   0.511   1.060
 8700TIP3    H226042   2.940   0.490   0.940
 8701TIP3   OH226043   8.317   3.759   0.110
 8701TIP3    H126044   8.261   3.735   0.036
 8701TIP3    H226045   8.348   3.847   0.089
 8702TIP3   OH226046   5.521   2.158   4.216
 8702TIP3    H126047   5.531   2.066   4.191
 8702TIP3    H226048   5.430   2.179   4.193
 8703TIP3   OH226049   6.622   0.727   5.261
 8703TIP3    H126050   6.715   0.731   5.281
 8703TIP3    H226051   6.616   0.671   5.184
 8704TIP3   OH226052   1.371   6.003   6.204
 8704TIP3    H126053   1.454   6.027   6.163
 8704TIP3    H226054   1.340   5.928   6.154
 8705TIP3   OH226055   7.674   5.741   0.432
 8705TIP3    H126056   7.625   5.801   0.376
 8705TIP3    H226057   7.755   5.788   0.452
 8706TIP3   OH226058   7.400   2.884   3.899
 8706TIP3    H126059   7.395   2.968   3.853
 8706TIP3    H226060   7.377   2.904   3.989
 8707TIP3   OH226061   8.043   6.205   4.084
 8707TIP3    H126062   8.127   6.232   4.048
 8707TIP3    H226063   7.982   6.209   4.011
 8708TIP3   OH226064   8.363   3.888   3.885
 8708TIP3    H126065   8.338   3.852   3.970
 8708TIP3    H226066   8.293   3.950   3.864
 8709TIP3   OH226067   6.702   5.806   0.200
 8709TIP3    H126068   6.698   5.721   0.156
 8709TIP3    H226069   6.613   5.842   0.191
 8710TIP3   OH226070   2.702   6.372   6.846
 8710TIP3    H126071   2.658   6.330   6.920
 8710TIP3    H226072   2.636   6.430   6.809
 8711TIP3   OH226073   1.514   3.334   5.543
 8711TIP3    H126074   1.443   3.392   5.572
 8711TIP3    H226075   1.594   3.386   5.557
 8712TIP3   OH226076   0.698   2.882   4.891
 8712TIP3    H126077   0.651   2.965   4.889
 8712TIP3    H226078   0.632   2.816   4.873
 8713TIP3   OH226079   8.119   2.842   4.805
 8713TIP3    H126080   8.137   2.932   4.777
 8713TIP3    H226081   8.128   2.790   4.725
 8714TIP3   OH226082   5.119   3.205   1.901
 8714TIP3    H126083   5.119   3.300   1.915
 8714TIP3    H226084   5.130   3.195   1.806
 8715TIP3   OH226085   4.817   1.878   3.587
 8715TIP3    H126086   4.777   1.887   3.501
 8715TIP3    H226087   4.862   1.793   3.584
 8716TIP3   OH226088   2.904   4.112   2.028
 8716TIP3    H126089   2.911   4.177   1.958
 8716TIP3    H226090   2.992   4.109   2.067
 8717TIP3   OH226091   3.763   1.041   0.801
 8717TIP3    H126092   3.760   1.003   0.889
 8717TIP3    H226093   3.829   1.110   0.807
 8718TIP3   OH226094   0.085   2.348   1.071
 8718TIP3    H126095   0.158   2.326   1.128
 8718TIP3    H226096   0.118   2.419   1.016
 8719TIP3   OH226097   0.972   2.798   6.783
 8719TIP3    H126098   1.061   2.774   6.756
 8719TIP3    H226099   0.915   2.747   6.726
 8720TIP3   OH226100   6.790   6.822   0.402
 8720TIP3    H126101   6.858   6.759   0.427
 8720TIP3    H226102   6.715   6.769   0.377
 8721TIP3   OH226103   7.800   3.516   5.409
 8721TIP3    H126104   7.842   3.453   5.468
 8721TIP3    H226105   7.767   3.463   5.337
 8722TIP3   OH226106   7.864   0.842   6.551
 8722TIP3    H126107   7.943   0.845   6.605
 8722TIP3    H226108   7.799   0.797   6.606
 8723TIP3   OH226109   1.945   7.266   0.490
 8723TIP3    H126110   1.905   7.183   0.514
 8723TIP3    H226111   1.960   7.310   0.574
 8724TIP3   OH226112   7.695   0.805   0.749
 8724TIP3    H126113   7.753   0.855   0.806
 8724TIP3    H226114   7.650   0.744   0.808
 8725TIP3   OH226115   1.069   3.312   4.331
 8725TIP3    H126116   0.989   3.331   4.282
 8725TIP3    H226117   1.133   3.374   4.297
 8726TIP3   OH226118   4.464   2.327   2.804
 8726TIP3    H126119   4.525   2.335   2.877
 8726TIP3    H226120   4.403   2.400   2.816
 8727TIP3   OH226121   4.023   5.518   4.587
 8727TIP3    H126122   4.046   5.459   4.659
 8727TIP3    H226123   4.049   5.604   4.617
 8728TIP3   OH226124   2.202   0.964   1.077
 8728TIP3    H126125   2.192   1.040   1.133
 8728TIP3    H226126   2.285   0.977   1.032
 8729TIP3   OH226127   0.448   3.313   4.962
 8729TIP3    H126128   0.513   3.260   4.917
 8729TIP3    H226129   0.446   3.279   5.052
 8730TIP3   OH226130   2.655   3.446   6.375
 8730TIP3    H126131   2.720   3.516   6.373
 8730TIP3    H226132   2.641   3.423   6.283
 8731TIP3   OH226133   6.896   2.618   5.828
 8731TIP3    H126134   6.832   2.601   5.898
 8731TIP3    H226135   6.975   2.572   5.856
 8732TIP3   OH226136   0.195   2.601   4.465
 8732TIP3    H126137   0.135   2.557   4.526
 8732TIP3    H226138   0.193   2.546   4.387
 8733TIP3   OH226139   2.912   5.843   1.105
 8733TIP3    H126140   2.989   5.826   1.050
 8733TIP3    H226141   2.904   5.765   1.160
 8734TIP3   OH226142   6.958   1.259   0.249
 8734TIP3    H126143   6.953   1.324   0.179
 8734TIP3    H226144   6.885   1.200   0.232
 8735TIP3   OH226145   1.615   1.328   1.434
 8735TIP3    H126146   1.611   1.423   1.447
 8735TIP3    H226147   1.551   1.311   1.365
 8736TIP3   OH226148   4.393   2.659   1.203
 8736TIP3    H126149   4.424   2.749   1.216
 8736TIP3    H226150   4.304   2.669   1.169
 8737TIP3   OH226151   8.344   2.685   0.547
 8737TIP3    H126152   8.351   2.754   0.613
 8737TIP3    H226153   8.317   2.731   0.467
 8738TIP3   OH226154   4.450   0.586   1.130
 8738TIP3    H126155   4.422   0.677   1.140
 8738TIP3    H226156   4.414   0.559   1.045
 8739TIP3   OH226157   5.071   3.993   6.296
 8739TIP3    H126158   5.091   3.926   6.230
 8739TIP3    H226159   4.976   3.998   6.297
 8740TIP3   OH226160   6.484   6.252   1.656
 8740TIP3    H126161   6.482   6.272   1.562
 8740TIP3    H226162   6.397   6.277   1.688
 8741TIP3   OH226163   3.146   1.108   1.370
 8741TIP3    H126164   3.103   1.124   1.454
 8741TIP3    H226165   3.162   1.195   1.334
 8742TIP3   OH226166   3.382   3.009   5.409
 8742TIP3    H126167   3.420   2.995   5.496
 8742TIP3    H226168   3.386   3.104   5.396
 8743TIP3   OH226169   3.469   3.223   4.399
 8743TIP3    H126170   3.550   3.216   4.349
 8743TIP3    H226171   3.494   3.270   4.478
 8744TIP3   OH226172   2.463   1.049   0.182
 8744TIP3    H126173   2.403   1.117   0.152
 8744TIP3    H226174   2.410   0.969   0.182
 8745TIP3   OH226175   5.027   4.992   0.706
 8745TIP3    H126176   4.978   4.923   0.661
 8745TIP3    H226177   4.996   4.990   0.796
 8746TIP3   OH226178   6.478   2.148   2.287
 8746TIP3    H126179   6.515   2.066   2.320
 8746TIP3    H226180   6.545   2.183   2.229
 8747TIP3   OH226181   3.657   5.744   2.773
 8747TIP3    H126182   3.695   5.676   2.829
 8747TIP3    H226183   3.671   5.712   2.684
 8748TIP3   OH226184   6.587   7.824   2.938
 8748TIP3    H126185   6.517   7.880   2.971
 8748TIP3    H226186   6.659   7.884   2.919
 8749TIP3   OH226187   2.628   3.009   1.266
 8749TIP3    H126188   2.639   2.965   1.350
 8749TIP3    H226189   2.597   3.097   1.288
 8750TIP3   OH226190   2.872   6.210   0.685
 8750TIP3    H126191   2.874   6.302   0.659
 8750TIP3    H226192   2.835   6.165   0.609
 8751TIP3   OH226193   5.181   0.861   0.826
 8751TIP3    H126194   5.265   0.905   0.812
 8751TIP3    H226195   5.191   0.776   0.784
 8752TIP3   OH226196   4.346   7.676   1.374
 8752TIP3    H126197   4.323   7.751   1.429
 8752TIP3    H226198   4.434   7.694   1.343
 8753TIP3   OH226199   0.709   1.552   6.320
 8753TIP3    H126200   0.768   1.604   6.375
 8753TIP3    H226201   0.678   1.612   6.253
 8754TIP3   OH226202   4.606   3.941   5.270
 8754TIP3    H126203   4.590   3.892   5.189
 8754TIP3    H226204   4.655   4.018   5.243
 8755TIP3   OH226205   0.946   0.751   0.491
 8755TIP3    H126206   0.958   0.846   0.492
 8755TIP3    H226207   1.014   0.717   0.549
 8756TIP3   OH226208   0.425   3.276   1.032
 8756TIP3    H126209   0.336   3.253   1.059
 8756TIP3    H226210   0.481   3.229   1.094
 8757TIP3   OH226211   3.227   7.334   1.083
 8757TIP3    H126212   3.197   7.247   1.057
 8757TIP3    H226213   3.320   7.335   1.063
 8758TIP3   OH226214   0.140   2.705   3.319
 8758TIP3    H126215   0.155   2.798   3.301
 8758TIP3    H226216   0.085   2.675   3.247
 8759TIP3   OH226217   8.102   2.340   4.138
 8759TIP3    H126218   8.127   2.351   4.230
 8759TIP3    H226219   8.097   2.430   4.104
 8760TIP3   OH226220   6.260   5.028   3.641
 8760TIP3    H126221   6.301   5.059   3.560
 8760TIP3    H226222   6.267   4.933   3.637
 8761TIP3   OH226223   4.069   4.702   6.807
 8761TIP3    H126224   4.126   4.752   6.866
 8761TIP3    H226225   4.099   4.612   6.816
 8762TIP3   OH226226   5.054   5.498   4.273
 8762TIP3    H126227   5.069   5.530   4.361
 8762TIP3    H226228   4.966   5.529   4.251
 8763TIP3   OH226229   0.076   5.870   0.058
 8763TIP3    H126230   0.141   5.914   0.113
 8763TIP3    H226231   0.053   5.790   0.105
 8764TIP3   OH226232   8.339   2.915   0.683
 8764TIP3    H126233   8.384   2.979   0.628
 8764TIP3    H226234   8.368   2.935   0.772
 8765TIP3   OH226235   0.734   1.616   5.224
 8765TIP3    H126236   0.747   1.526   5.196
 8765TIP3    H226237   0.800   1.666   5.177
 8766TIP3   OH226238   3.840   2.527   1.658
 8766TIP3    H126239   3.824   2.433   1.671
 8766TIP3    H226240   3.755   2.568   1.672
 8767TIP3   OH226241   6.569   0.148   3.677
 8767TIP3    H126242   6.504   0.152   3.607
 8767TIP3    H226243   6.629   0.078   3.650
 8768TIP3   OH226244   6.923   5.737   4.560
 8768TIP3    H126245   6.903   5.654   4.516
 8768TIP3    H226246   7.009   5.723   4.600
 8769TIP3   OH226247   4.124   0.238   6.112
 8769TIP3    H126248   4.099   0.323   6.074
 8769TIP3    H226249   4.129   0.254   6.206
 8770TIP3   OH226250   4.048   0.270   4.910
 8770TIP3    H126251   4.045   0.338   4.843
 8770TIP3    H226252   3.985   0.299   4.976
 8771TIP3   OH226253   1.733   0.000   2.160
 8771TIP3    H126254   1.734  -0.081   2.109
 8771TIP3    H226255   1.704   0.067   2.098
 8772TIP3   OH226256   1.282   1.247   0.203
 8772TIP3    H126257   1.188   1.251   0.185
 8772TIP3    H226258   1.309   1.339   0.209
 8773TIP3   OH226259   0.225   5.949   0.269
 8773TIP3    H126260   0.300   6.000   0.298
 8773TIP3    H226261   0.244   5.860   0.297
 8774TIP3   OH226262   4.619   6.656   2.010
 8774TIP3    H126263   4.652   6.694   1.928
 8774TIP3    H226264   4.696   6.652   2.067
 8775TIP3   OH226265   1.774   4.712   6.318
 8775TIP3    H126266   1.694   4.762   6.330
 8775TIP3    H226267   1.837   4.775   6.283
 8776TIP3   OH226268   5.461   1.804   3.700
 8776TIP3    H126269   5.483   1.751   3.623
 8776TIP3    H226270   5.368   1.824   3.690
 8777TIP3   OH226271   4.582   1.167   0.917
 8777TIP3    H126272   4.555   1.208   0.999
 8777TIP3    H226273   4.609   1.078   0.942
 8778TIP3   OH226274   0.743   6.646   2.522
 8778TIP3    H126275   0.735   6.729   2.475
 8778TIP3    H226276   0.693   6.583   2.470
 8779TIP3   OH226277   2.783   1.987   1.291
 8779TIP3    H126278   2.824   1.942   1.365
 8779TIP3    H226279   2.756   2.072   1.327
 8780TIP3   OH226280   2.737   5.128   1.265
 8780TIP3    H126281   2.782   5.052   1.228
 8780TIP3    H226282   2.677   5.156   1.195
 8781TIP3   OH226283   7.505   6.173   1.874
 8781TIP3    H126284   7.432   6.145   1.818
 8781TIP3    H226285   7.576   6.189   1.812
 8782TIP3   OH226286   7.240   6.740   0.218
 8782TIP3    H126287   7.198   6.729   0.133
 8782TIP3    H226288   7.270   6.831   0.219
 8783TIP3   OH226289   3.651   0.693   5.829
 8783TIP3    H126290   3.597   0.615   5.839
 8783TIP3    H226291   3.737   0.658   5.805
 8784TIP3   OH226292   6.280   3.734   6.504
 8784TIP3    H126293   6.335   3.739   6.426
 8784TIP3    H226294   6.334   3.771   6.574
 8785TIP3   OH226295   3.909   5.945   2.451
 8785TIP3    H126296   3.947   5.967   2.366
 8785TIP3    H226297   3.816   5.933   2.433
 8786TIP3   OH226298   1.583   4.332   3.000
 8786TIP3    H126299   1.613   4.408   3.049
 8786TIP3    H226300   1.660   4.275   2.995
 8787TIP3   OH226301   7.381   1.161   4.410
 8787TIP3    H126302   7.313   1.122   4.355
 8787TIP3    H226303   7.437   1.088   4.436
 8788TIP3   OH226304   3.812   7.013   6.557
 8788TIP3    H126305   3.765   6.937   6.592
 8788TIP3    H226306   3.745   7.066   6.516
 8789TIP3   OH226307   3.007   6.479   0.623
 8789TIP3    H126308   3.080   6.467   0.562
 8789TIP3    H226309   2.976   6.568   0.605
 8790TIP3   OH226310   3.647   7.877   5.215
 8790TIP3    H126311   3.693   7.911   5.138
 8790TIP3    H226312   3.555   7.901   5.200
 8791TIP3   OH226313   5.540   7.721   0.302
 8791TIP3    H126314   5.485   7.658   0.347
 8791TIP3    H226315   5.535   7.801   0.355
 8792TIP3   OH226316   1.697   5.626   4.954
 8792TIP3    H126317   1.759   5.655   5.020
 8792TIP3    H226318   1.646   5.705   4.932
 8793TIP3   OH226319   7.399   1.501   6.025
 8793TIP3    H126320   7.340   1.562   6.070
 8793TIP3    H226321   7.398   1.529   5.934
 8794TIP3   OH226322   1.058   2.095   0.328
 8794TIP3    H126323   1.023   2.156   0.263
 8794TIP3    H226324   1.153   2.100   0.318
 8795TIP3   OH226325   2.960   6.282   2.579
 8795TIP3    H126326   2.966   6.369   2.617
 8795TIP3    H226327   2.890   6.288   2.514
 8796TIP3   OH226328   1.360   6.344   4.023
 8796TIP3    H126329   1.338   6.377   4.110
 8796TIP3    H226330   1.347   6.420   3.966
 8797TIP3   OH226331   0.373   1.032   1.334
 8797TIP3    H126332   0.347   1.115   1.295
 8797TIP3    H226333   0.293   0.998   1.374
 8798TIP3   OH226334   7.675   0.835   6.736
 8798TIP3    H126335   7.580   0.821   6.743
 8798TIP3    H226336   7.685   0.930   6.743
 8799TIP3   OH226337   2.621   3.097   3.556
 8799TIP3    H126338   2.637   3.027   3.620
 8799TIP3    H226339   2.678   3.168   3.584
 8800TIP3   OH226340   2.770   7.082   2.597
 8800TIP3    H126341   2.764   7.013   2.662
 8800TIP3    H226342   2.680   7.115   2.589
 8801TIP3   OH226343   4.183   6.973   2.968
 8801TIP3    H126344   4.095   6.937   2.956
 8801TIP3    H226345   4.201   7.022   2.887
 8802TIP3   OH226346   7.227   1.316   3.261
 8802TIP3    H126347   7.264   1.240   3.306
 8802TIP3    H226348   7.296   1.345   3.202
 8803TIP3   OH226349   1.833   0.023   6.215
 8803TIP3    H126350   1.787  -0.013   6.291
 8803TIP3    H226351   1.763   0.054   6.157
 8804TIP3   OH226352   2.325   0.849   2.955
 8804TIP3    H126353   2.352   0.928   2.909
 8804TIP3    H226354   2.367   0.778   2.907
 8805TIP3   OH226355   1.170   2.781   4.138
 8805TIP3    H126356   1.206   2.795   4.051
 8805TIP3    H226357   1.243   2.798   4.197
 8806TIP3   OH226358   6.915   6.960   4.120
 8806TIP3    H126359   6.900   7.024   4.051
 8806TIP3    H226360   6.894   7.007   4.201
 8807TIP3   OH226361   8.097   3.218   2.035
 8807TIP3    H126362   8.050   3.265   1.966
 8807TIP3    H226363   8.148   3.152   1.988
 8808TIP3   OH226364   6.508   6.852   1.141
 8808TIP3    H126365   6.413   6.847   1.140
 8808TIP3    H226366   6.530   6.896   1.059
 8809TIP3   OH226367   3.842   3.020   4.173
 8809TIP3    H126368   3.910   2.972   4.126
 8809TIP3    H226369   3.876   3.031   4.261
 8810TIP3   OH226370   6.724   3.757   4.568
 8810TIP3    H126371   6.791   3.689   4.559
 8810TIP3    H226372   6.761   3.833   4.523
 8811TIP3   OH226373   3.665   5.035   4.732
 8811TIP3    H126374   3.750   4.995   4.714
 8811TIP3    H226375   3.680   5.129   4.718
 8812TIP3   OH226376   1.057   3.769   2.450
 8812TIP3    H126377   1.000   3.748   2.524
 8812TIP3    H226378   1.010   3.735   2.373
 8813TIP3   OH226379   5.450   3.298   2.794
 8813TIP3    H126380   5.382   3.233   2.776
 8813TIP3    H226381   5.505   3.256   2.861
 8814TIP3   OH226382   1.365   4.261   1.681
 8814TIP3    H126383   1.309   4.194   1.720
 8814TIP3    H226384   1.452   4.223   1.681
 8815TIP3   OH226385   1.677   6.771   5.493
 8815TIP3    H126386   1.696   6.865   5.490
 8815TIP3    H226387   1.762   6.730   5.508
 8816TIP3   OH226388   7.471   4.814   0.918
 8816TIP3    H126389   7.456   4.882   0.853
 8816TIP3    H226390   7.472   4.860   1.002
 8817TIP3   OH226391   2.498   4.215   1.512
 8817TIP3    H126392   2.568   4.150   1.510
 8817TIP3    H226393   2.498   4.247   1.602
 8818TIP3   OH226394   2.399   6.543   5.730
 8818TIP3    H126395   2.485   6.583   5.736
 8818TIP3    H226396   2.341   6.603   5.778
 8819TIP3   OH226397   1.393   3.905   6.513
 8819TIP3    H126398   1.300   3.910   6.490
 8819TIP3    H226399   1.401   3.956   6.593
 8820TIP3   OH226400   1.441   4.423   6.206
 8820TIP3    H126401   1.528   4.386   6.219
 8820TIP3    H226402   1.405   4.375   6.132
 8821TIP3   OH226403   3.688   7.471   6.023
 8821TIP3    H126404   3.737   7.399   6.064
 8821TIP3    H226405   3.754   7.539   6.007
 8822TIP3   OH226406   4.937   6.521   2.633
 8822TIP3    H126407   4.994   6.465   2.686
 8822TIP3    H226408   4.994   6.552   2.562
 8823TIP3   OH226409   8.068   0.249   1.801
 8823TIP3    H126410   8.119   0.237   1.881
 8823TIP3    H226411   8.005   0.177   1.801
 8824TIP3   OH226412   1.478   7.252   0.657
 8824TIP3    H126413   1.543   7.285   0.594
 8824TIP3    H226414   1.444   7.330   0.700
 8825TIP3   OH226415   1.164   7.409   0.231
 8825TIP3    H126416   1.189   7.405   0.324
 8825TIP3    H226417   1.125   7.496   0.221
 8826TIP3   OH226418   0.057   3.374   4.331
 8826TIP3    H126419   0.126   3.403   4.391
 8826TIP3    H226420   0.104   3.327   4.262
 8827TIP3   OH226421   7.098   6.411   5.315
 8827TIP3    H126422   7.081   6.452   5.400
 8827TIP3    H226423   7.154   6.473   5.269
 8828TIP3   OH226424   6.245   6.443   1.630
 8828TIP3    H126425   6.184   6.456   1.702
 8828TIP3    H226426   6.214   6.364   1.586
 8829TIP3   OH226427   5.101   3.067   3.002
 8829TIP3    H126428   5.112   3.143   3.059
 8829TIP3    H226429   5.007   3.053   2.998
 8830TIP3   OH226430   7.223   0.955   3.760
 8830TIP3    H126431   7.237   0.930   3.668
 8830TIP3    H226432   7.208   1.049   3.757
 8831TIP3   OH226433   1.150   5.295   1.124
 8831TIP3    H126434   1.106   5.268   1.205
 8831TIP3    H226435   1.094   5.364   1.088
 8832TIP3   OH226436   4.054   4.599   5.657
 8832TIP3    H126437   4.051   4.694   5.645
 8832TIP3    H226438   4.083   4.587   5.747
 8833TIP3   OH226439   1.043   6.861   3.121
 8833TIP3    H126440   1.128   6.821   3.105
 8833TIP3    H226441   0.980   6.790   3.108
 8834TIP3   OH226442   3.119   2.966   5.310
 8834TIP3    H126443   3.104   2.872   5.316
 8834TIP3    H226444   3.204   2.979   5.351
 8835TIP3   OH226445   4.047   4.969   1.898
 8835TIP3    H126446   4.084   4.967   1.986
 8835TIP3    H226447   3.955   4.994   1.911
 8836TIP3   OH226448   4.408   0.026   5.966
 8836TIP3    H126449   4.474  -0.043   5.957
 8836TIP3    H226450   4.446   0.102   5.923
 8837TIP3   OH226451   4.818   6.919   3.567
 8837TIP3    H126452   4.725   6.936   3.555
 8837TIP3    H226453   4.856   6.928   3.480
 8838TIP3   OH226454   5.412   1.578   2.448
 8838TIP3    H126455   5.421   1.519   2.523
 8838TIP3    H226456   5.474   1.649   2.466
 8839TIP3   OH226457   5.623   1.714   4.997
 8839TIP3    H126458   5.635   1.681   4.908
 8839TIP3    H226459   5.712   1.725   5.031
 8840TIP3   OH226460   1.121   4.542   0.069
 8840TIP3    H126461   1.122   4.637   0.067
 8840TIP3    H226462   1.196   4.518   0.123
 8841TIP3   OH226463   8.442   4.688   4.408
 8841TIP3    H126464   8.414   4.733   4.328
 8841TIP3    H226465   8.361   4.656   4.447
 8842TIP3   OH226466   4.599   5.966   6.602
 8842TIP3    H126467   4.577   6.013   6.682
 8842TIP3    H226468   4.613   5.875   6.631
 8843TIP3   OH226469   3.617   7.007   6.130
 8843TIP3    H126470   3.706   7.019   6.096
 8843TIP3    H226471   3.584   6.931   6.082
 8844TIP3   OH226472   0.578   7.341   5.966
 8844TIP3    H126473   0.509   7.278   5.948
 8844TIP3    H226474   0.628   7.346   5.884
 8845TIP3   OH226475   0.344   3.589   1.103
 8845TIP3    H126476   0.383   3.553   1.184
 8845TIP3    H226477   0.305   3.513   1.060
 8846TIP3   OH226478   2.217   0.494   6.453
 8846TIP3    H126479   2.216   0.524   6.544
 8846TIP3    H226480   2.128   0.511   6.421
 8847TIP3   OH226481   5.517   0.168   2.453
 8847TIP3    H126482   5.599   0.153   2.406
 8847TIP3    H226483   5.461   0.095   2.428
 8848TIP3   OH226484   5.110   5.472   1.952
 8848TIP3    H126485   5.145   5.398   1.902
 8848TIP3    H226486   5.186   5.527   1.969
 8849TIP3   OH226487   3.460   0.942   5.326
 8849TIP3    H126488   3.385   0.892   5.359
 8849TIP3    H226489   3.524   0.876   5.301
 8850TIP3   OH226490  -0.057   3.107   0.372
 8850TIP3    H126491   0.011   3.095   0.306
 8850TIP3    H226492  -0.102   3.023   0.376
 8851TIP3   OH226493   1.218   7.820   4.407
 8851TIP3    H126494   1.248   7.889   4.466
 8851TIP3    H226495   1.289   7.809   4.345
 8852TIP3   OH226496   4.693   2.825   6.730
 8852TIP3    H126497   4.762   2.872   6.682
 8852TIP3    H226498   4.622   2.815   6.667
 8853TIP3   OH226499   7.891   3.124   5.747
 8853TIP3    H126500   7.956   3.155   5.683
 8853TIP3    H226501   7.847   3.052   5.702
 8854TIP3   OH226502   3.053   5.200   0.059
 8854TIP3    H126503   3.057   5.125   0.119
 8854TIP3    H226504   3.045   5.161  -0.028
 8855TIP3   OH226505   6.916   3.895   4.042
 8855TIP3    H126506   6.978   3.877   3.971
 8855TIP3    H226507   6.905   3.990   4.041
 8856TIP3   OH226508   5.462   1.411   6.034
 8856TIP3    H126509   5.534   1.437   6.092
 8856TIP3    H226510   5.449   1.318   6.053
 8857TIP3   OH226511   0.080   3.730   1.481
 8857TIP3    H126512   0.026   3.802   1.448
 8857TIP3    H226513   0.112   3.761   1.566
 8858TIP3   OH226514   1.573   1.596   3.723
 8858TIP3    H126515   1.563   1.690   3.736
 8858TIP3    H226516   1.610   1.565   3.806
 8859TIP3   OH226517   2.806   6.811   6.494
 8859TIP3    H126518   2.714   6.808   6.467
 8859TIP3    H226519   2.819   6.731   6.543
 8860TIP3   OH226520   7.821   6.028   6.456
 8860TIP3    H126521   7.799   5.940   6.488
 8860TIP3    H226522   7.783   6.031   6.368
 8861TIP3   OH226523   3.424   1.920   4.637
 8861TIP3    H126524   3.442   1.827   4.644
 8861TIP3    H226525   3.330   1.928   4.652
 8862TIP3   OH226526   6.814   4.158   5.687
 8862TIP3    H126527   6.779   4.246   5.700
 8862TIP3    H226528   6.738   4.106   5.658
 8863TIP3   OH226529   2.923   5.853   6.062
 8863TIP3    H126530   2.851   5.837   6.001
 8863TIP3    H226531   2.907   5.794   6.135
 8864TIP3   OH226532   5.581   3.222   5.547
 8864TIP3    H126533   5.510   3.168   5.581
 8864TIP3    H226534   5.539   3.304   5.522
 8865TIP3   OH226535   6.418   5.838   0.956
 8865TIP3    H126536   6.403   5.767   1.018
 8865TIP3    H226537   6.466   5.904   1.006
 8866TIP3   OH226538   7.786   2.329   5.110
 8866TIP3    H126539   7.879   2.331   5.134
 8866TIP3    H226540   7.766   2.419   5.085
 8867TIP3   OH226541   4.056   2.720   6.120
 8867TIP3    H126542   4.067   2.788   6.186
 8867TIP3    H226543   4.144   2.685   6.105
 8868TIP3   OH226544  -0.063   2.268   5.692
 8868TIP3    H126545   0.019   2.268   5.741
 8868TIP3    H226546  -0.037   2.248   5.602
 8869TIP3   OH226547   7.840   3.986   2.089
 8869TIP3    H126548   7.919   4.034   2.062
 8869TIP3    H226549   7.849   3.978   2.184
 8870TIP3   OH226550   3.417   1.514   3.024
 8870TIP3    H126551   3.410   1.484   3.114
 8870TIP3    H226552   3.478   1.588   3.028
 8871TIP3   OH226553   8.478   3.463   3.312
 8871TIP3    H126554   8.481   3.556   3.289
 8871TIP3    H226555   8.504   3.418   3.231
 8872TIP3   OH226556   2.369   5.009   4.672
 8872TIP3    H126557   2.409   5.075   4.614
 8872TIP3    H226558   2.299   5.056   4.717
 8873TIP3   OH226559   2.964   2.041   0.644
 8873TIP3    H126560   2.998   2.127   0.670
 8873TIP3    H226561   3.027   2.010   0.578
 8874TIP3   OH226562   2.074   2.287   5.285
 8874TIP3    H126563   2.089   2.310   5.377
 8874TIP3    H226564   2.075   2.191   5.285
 8875TIP3   OH226565   1.152   6.590   3.878
 8875TIP3    H126566   1.152   6.594   3.974
 8875TIP3    H226567   1.196   6.671   3.851
 8876TIP3   OH226568   5.678   1.113   2.303
 8876TIP3    H126569   5.682   1.169   2.380
 8876TIP3    H226570   5.730   1.158   2.237
 8877TIP3   OH226571   7.407   5.061   3.228
 8877TIP3    H126572   7.416   5.156   3.232
 8877TIP3    H226573   7.497   5.028   3.236
 8878TIP3   OH226574   6.826   7.628   2.180
 8878TIP3    H126575   6.830   7.723   2.191
 8878TIP3    H226576   6.814   7.594   2.268
 8879TIP3   OH226577   6.644   0.505   3.928
 8879TIP3    H126578   6.738   0.487   3.937
 8879TIP3    H226579   6.640   0.593   3.891
 8880TIP3   OH226580   2.888   2.302   5.037
 8880TIP3    H126581   2.934   2.385   5.024
 8880TIP3    H226582   2.929   2.241   4.976
 8881TIP3   OH226583   0.673   7.147   1.526
 8881TIP3    H126584   0.709   7.200   1.454
 8881TIP3    H226585   0.592   7.192   1.550
 8882TIP3   OH226586   0.207   1.866   5.162
 8882TIP3    H126587   0.123   1.897   5.127
 8882TIP3    H226588   0.255   1.834   5.086
 8883TIP3   OH226589   3.787   7.321   0.370
 8883TIP3    H126590   3.745   7.294   0.451
 8883TIP3    H226591   3.875   7.349   0.396
 8884TIP3   OH226592   3.840   5.412   6.282
 8884TIP3    H126593   3.889   5.332   6.299
 8884TIP3    H226594   3.832   5.416   6.187
 8885TIP3   OH226595   6.446   2.785   3.260
 8885TIP3    H126596   6.439   2.824   3.347
 8885TIP3    H226597   6.362   2.743   3.245
 8886TIP3   OH226598   0.456   2.944   5.015
 8886TIP3    H126599   0.373   2.921   5.057
 8886TIP3    H226600   0.438   2.936   4.922
 8887TIP3   OH226601   7.848   0.078   0.352
 8887TIP3    H126602   7.808   0.017   0.414
 8887TIP3    H226603   7.872   0.154   0.405
 8888TIP3   OH226604   1.780   4.997   0.898
 8888TIP3    H126605   1.745   4.971   0.983
 8888TIP3    H226606   1.846   5.063   0.919
 8889TIP3   OH226607   0.722   1.500   1.583
 8889TIP3    H126608   0.681   1.485   1.668
 8889TIP3    H226609   0.813   1.523   1.603
 8890TIP3   OH226610   5.223   3.366   0.160
 8890TIP3    H126611   5.128   3.365   0.154
 8890TIP3    H226612   5.253   3.346   0.072
 8891TIP3   OH226613   1.992   0.845   0.909
 8891TIP3    H126614   1.919   0.903   0.888
 8891TIP3    H226615   2.035   0.886   0.984
 8892TIP3   OH226616   4.323   0.856   6.068
 8892TIP3    H126617   4.372   0.791   6.018
 8892TIP3    H226618   4.385   0.887   6.135
 8893TIP3   OH226619   4.422   1.345   3.252
 8893TIP3    H126620   4.406   1.390   3.170
 8893TIP3    H226621   4.439   1.415   3.316
 8894TIP3   OH226622   7.954   6.543   1.412
 8894TIP3    H126623   7.919   6.454   1.412
 8894TIP3    H226624   7.989   6.555   1.500
 8895TIP3   OH226625   3.896   6.809   3.416
 8895TIP3    H126626   3.838   6.795   3.341
 8895TIP3    H226627   3.873   6.739   3.477
 8896TIP3   OH226628   3.162   6.439   3.392
 8896TIP3    H126629   3.254   6.452   3.369
 8896TIP3    H226630   3.158   6.349   3.425
 8897TIP3   OH226631   3.274   7.819   3.644
 8897TIP3    H126632   3.290   7.897   3.697
 8897TIP3    H226633   3.359   7.776   3.638
 8898TIP3   OH226634   7.665   4.875   5.199
 8898TIP3    H126635   7.588   4.838   5.242
 8898TIP3    H226636   7.701   4.803   5.148
 8899TIP3   OH226637   0.742   2.016   2.854
 8899TIP3    H126638   0.772   2.031   2.943
 8899TIP3    H226639   0.802   2.068   2.799
 8900TIP3   OH226640   6.944   3.538   4.585
 8900TIP3    H126641   6.920   3.517   4.495
 8900TIP3    H226642   7.020   3.482   4.602
 8901TIP3   OH226643   3.756   4.333   1.902
 8901TIP3    H126644   3.735   4.248   1.939
 8901TIP3    H226645   3.826   4.367   1.959
 8902TIP3   OH226646   7.208   3.614   2.091
 8902TIP3    H126647   7.120   3.618   2.128
 8902TIP3    H226648   7.264   3.654   2.157
 8903TIP3   OH226649   4.999   6.990   6.576
 8903TIP3    H126650   5.002   6.928   6.649
 8903TIP3    H226651   4.950   6.943   6.508
 8904TIP3   OH226652   3.630   2.302   1.525
 8904TIP3    H126653   3.645   2.209   1.540
 8904TIP3    H226654   3.687   2.324   1.452
 8905TIP3   OH226655   5.566   3.705   4.429
 8905TIP3    H126656   5.615   3.782   4.399
 8905TIP3    H226657   5.548   3.656   4.349
 8906TIP3   OH226658   8.080   3.013   3.721
 8906TIP3    H126659   8.095   3.074   3.793
 8906TIP3    H226660   8.007   2.958   3.750
 8907TIP3   OH226661   1.621   2.937   2.694
 8907TIP3    H126662   1.546   2.986   2.728
 8907TIP3    H226663   1.601   2.926   2.601
 8908TIP3   OH226664   7.094   0.905   1.260
 8908TIP3    H126665   7.015   0.852   1.264
 8908TIP3    H226666   7.102   0.943   1.347
 8909TIP3   OH226667   3.655   4.696   3.648
 8909TIP3    H126668   3.631   4.606   3.669
 8909TIP3    H226669   3.748   4.702   3.670
 8910TIP3   OH226670   7.328   6.530   5.170
 8910TIP3    H126671   7.332   6.558   5.078
 8910TIP3    H226672   7.399   6.466   5.178
 8911TIP3   OH226673   1.422   0.858   2.205
 8911TIP3    H126674   1.343   0.910   2.189
 8911TIP3    H226675   1.464   0.901   2.279
 8912TIP3   OH226676   0.386   1.866   1.301
 8912TIP3    H126677   0.304   1.896   1.341
 8912TIP3    H226678   0.359   1.825   1.219
 8913TIP3   OH226679   6.140   3.721   2.005
 8913TIP3    H126680   6.071   3.787   2.014
 8913TIP3    H226681   6.146   3.704   1.911
 8914TIP3   OH226682   1.079   2.288   5.180
 8914TIP3    H126683   0.990   2.314   5.203
 8914TIP3    H226684   1.099   2.338   5.101
 8915TIP3   OH226685   2.347   0.943   5.413
 8915TIP3    H126686   2.272   0.935   5.472
 8915TIP3    H226687   2.380   1.031   5.428
 8916TIP3   OH226688   4.130   2.760   2.817
 8916TIP3    H126689   4.187   2.835   2.832
 8916TIP3    H226690   4.106   2.766   2.725
 8917TIP3   OH226691   3.555   2.228   1.150
 8917TIP3    H126692   3.650   2.234   1.162
 8917TIP3    H226693   3.541   2.243   1.057
 8918TIP3   OH226694   5.342   4.025   0.084
 8918TIP3    H126695   5.304   3.970   0.153
 8918TIP3    H226696   5.418   4.066   0.125
 8919TIP3   OH226697   4.572   0.019   5.179
 8919TIP3    H126698   4.553   0.112   5.186
 8919TIP3    H226699   4.487  -0.024   5.191
 8920TIP3   OH226700   5.880   2.651   4.657
 8920TIP3    H126701   5.974   2.636   4.662
 8920TIP3    H226702   5.871   2.739   4.620
 8921TIP3   OH226703   5.033   3.847   0.995
 8921TIP3    H126704   4.968   3.821   0.930
 8921TIP3    H226705   5.017   3.788   1.069
 8922TIP3   OH226706   5.455   1.640   4.272
 8922TIP3    H126707   5.532   1.626   4.215
 8922TIP3    H226708   5.473   1.722   4.317
 8923TIP3   OH226709   6.682   6.149   5.611
 8923TIP3    H126710   6.592   6.146   5.580
 8923TIP3    H226711   6.715   6.059   5.598
 8924TIP3   OH226712   5.425   2.729   3.208
 8924TIP3    H126713   5.342   2.718   3.161
 8924TIP3    H226714   5.465   2.806   3.167
 8925TIP3   OH226715   1.585   0.168   1.360
 8925TIP3    H126716   1.659   0.214   1.399
 8925TIP3    H226717   1.563   0.218   1.281
 8926TIP3   OH226718   6.846   3.321   2.397
 8926TIP3    H126719   6.783   3.378   2.354
 8926TIP3    H226720   6.803   3.294   2.478
 8927TIP3   OH226721   7.981   5.105   3.436
 8927TIP3    H126722   7.926   5.142   3.367
 8927TIP3    H226723   8.048   5.171   3.451
 8928TIP3   OH226724   5.331   5.464   6.094
 8928TIP3    H126725   5.404   5.441   6.152
 8928TIP3    H226726   5.295   5.379   6.067
 8929TIP3   OH226727   1.545   1.170   0.186
 8929TIP3    H126728   1.602   1.246   0.175
 8929TIP3    H226729   1.461   1.206   0.212
 8930TIP3   OH226730   3.882   5.309   4.482
 8930TIP3    H126731   3.900   5.395   4.520
 8930TIP3    H226732   3.792   5.316   4.449
 8931TIP3   OH226733   4.691   3.271   2.976
 8931TIP3    H126734   4.720   3.337   3.039
 8931TIP3    H226735   4.603   3.298   2.951
 8932TIP3   OH226736   5.741   3.949   5.047
 8932TIP3    H126737   5.817   3.891   5.058
 8932TIP3    H226738   5.769   4.032   5.084
 8933TIP3   OH226739   3.785   4.793   5.829
 8933TIP3    H126740   3.811   4.706   5.860
 8933TIP3    H226741   3.705   4.777   5.779
 8934TIP3   OH226742   1.625   2.821   1.998
 8934TIP3    H126743   1.612   2.779   1.913
 8934TIP3    H226744   1.671   2.756   2.051
 8935TIP3   OH226745   0.013   3.588   1.131
 8935TIP3    H126746   0.083   3.613   1.071
 8935TIP3    H226747   0.058   3.543   1.203
 8936TIP3   OH226748   1.781   3.791   2.649
 8936TIP3    H126749   1.734   3.708   2.643
 8936TIP3    H226750   1.868   3.772   2.614
 8937TIP3   OH226751   5.734   2.793   2.728
 8937TIP3    H126752   5.715   2.703   2.702
 8937TIP3    H226753   5.827   2.804   2.709
 8938TIP3   OH226754   0.704   5.586   3.994
 8938TIP3    H126755   0.654   5.602   3.914
 8938TIP3    H226756   0.709   5.491   4.001
 8939TIP3   OH226757   1.064   1.783   1.656
 8939TIP3    H126758   1.069   1.757   1.748
 8939TIP3    H226759   1.113   1.866   1.652
 8940TIP3   OH226760   4.658   6.748   3.118
 8940TIP3    H126761   4.586   6.763   3.057
 8940TIP3    H226762   4.626   6.679   3.177
 8941TIP3   OH226763   5.223   2.347   3.194
 8941TIP3    H126764   5.284   2.381   3.129
 8941TIP3    H226765   5.227   2.252   3.184
 8942TIP3   OH226766   3.842   4.226   0.861
 8942TIP3    H126767   3.868   4.206   0.951
 8942TIP3    H226768   3.864   4.146   0.812
 8943TIP3   OH226769   5.557   6.509   2.804
 8943TIP3    H126770   5.491   6.470   2.746
 8943TIP3    H226771   5.637   6.461   2.785
 8944TIP3   OH226772   0.873   2.600   1.380
 8944TIP3    H126773   0.917   2.516   1.384
 8944TIP3    H226774   0.886   2.629   1.289
 8945TIP3   OH226775   4.709   2.285   0.299
 8945TIP3    H126776   4.737   2.317   0.385
 8945TIP3    H226777   4.646   2.216   0.319
 8946TIP3   OH226778   4.452   0.803   1.831
 8946TIP3    H126779   4.468   0.745   1.757
 8946TIP3    H226780   4.360   0.830   1.821
 8947TIP3   OH226781   0.052   2.938   1.264
 8947TIP3    H126782   0.072   2.926   1.171
 8947TIP3    H226783   0.125   2.988   1.299
 8948TIP3   OH226784   6.013   6.260   5.734
 8948TIP3    H126785   6.080   6.269   5.666
 8948TIP3    H226786   6.054   6.294   5.814
 8949TIP3   OH226787   2.479   1.384   0.184
 8949TIP3    H126788   2.443   1.442   0.251
 8949TIP3    H226789   2.403   1.352   0.136
 8950TIP3   OH226790   2.075   2.372   6.550
 8950TIP3    H126791   2.117   2.431   6.612
 8950TIP3    H226792   2.046   2.429   6.479
 8951TIP3   OH226793   6.240   0.559   3.184
 8951TIP3    H126794   6.195   0.571   3.267
 8951TIP3    H226795   6.224   0.468   3.160
 8952TIP3   OH226796   1.166   3.771   0.542
 8952TIP3    H126797   1.097   3.823   0.585
 8952TIP3    H226798   1.124   3.736   0.464
 8953TIP3   OH226799   2.534   0.296   1.923
 8953TIP3    H126800   2.475   0.325   1.854
 8953TIP3    H226801   2.492   0.323   2.004
 8954TIP3   OH226802   3.841   6.460   4.952
 8954TIP3    H126803   3.885   6.384   4.913
 8954TIP3    H226804   3.771   6.422   5.005
 8955TIP3   OH226805   0.444   1.517   3.766
 8955TIP3    H126806   0.474   1.428   3.750
 8955TIP3    H226807   0.501   1.572   3.711
 8956TIP3   OH226808   0.966   7.317   1.890
 8956TIP3    H126809   0.990   7.322   1.982
 8956TIP3    H226810   0.948   7.407   1.864
 8957TIP3   OH226811   2.778   6.574   5.212
 8957TIP3    H126812   2.825   6.491   5.222
 8957TIP3    H226813   2.801   6.605   5.124
 8958TIP3   OH226814   1.250   2.853   3.189
 8958TIP3    H126815   1.327   2.807   3.156
 8958TIP3    H226816   1.286   2.927   3.239
 8959TIP3   OH226817   0.126   4.303   4.800
 8959TIP3    H126818   0.057   4.271   4.858
 8959TIP3    H226819   0.081   4.329   4.720
 8960TIP3   OH226820   2.090   5.444   3.265
 8960TIP3    H126821   2.176   5.432   3.306
 8960TIP3    H226822   2.033   5.473   3.336
 8961TIP3   OH226823   7.152   3.049   0.449
 8961TIP3    H126824   7.195   3.134   0.447
 8961TIP3    H226825   7.190   3.004   0.525
 8962TIP3   OH226826   6.663   0.093   2.951
 8962TIP3    H126827   6.607   0.044   2.891
 8962TIP3    H226828   6.638   0.185   2.938
 8963TIP3   OH226829   4.887   2.125   6.114
 8963TIP3    H126830   4.949   2.118   6.041
 8963TIP3    H226831   4.813   2.070   6.088
 8964TIP3   OH226832   7.485   5.742   6.463
 8964TIP3    H126833   7.501   5.756   6.557
 8964TIP3    H226834   7.395   5.772   6.450
 8965TIP3   OH226835   7.648   6.909   6.887
 8965TIP3    H126836   7.606   6.827   6.862
 8965TIP3    H226837   7.737   6.883   6.912
 8966TIP3   OH226838   2.984   4.484   6.545
 8966TIP3    H126839   2.977   4.391   6.566
 8966TIP3    H226840   2.923   4.498   6.473
 8967TIP3   OH226841   5.879   6.976   0.071
 8967TIP3    H126842   5.913   7.057   0.108
 8967TIP3    H226843   5.842   7.002  -0.013
 8968TIP3   OH226844   7.525   6.956   3.715
 8968TIP3    H126845   7.615   6.941   3.688
 8968TIP3    H226846   7.529   6.957   3.811
 8969TIP3   OH226847   5.555   6.150   1.767
 8969TIP3    H126848   5.516   6.076   1.813
 8969TIP3    H226849   5.510   6.227   1.803
 8970TIP3   OH226850   8.382   5.979   1.582
 8970TIP3    H126851   8.455   5.982   1.644
 8970TIP3    H226852   8.304   5.990   1.635
 8971TIP3   OH226853   5.657   5.809   5.188
 8971TIP3    H126854   5.741   5.812   5.143
 8971TIP3    H226855   5.679   5.785   5.278
 8972TIP3   OH226856   5.322   2.082   4.620
 8972TIP3    H126857   5.270   2.108   4.696
 8972TIP3    H226858   5.404   2.050   4.657
 8973TIP3   OH226859   3.873   1.739   1.072
 8973TIP3    H126860   3.870   1.644   1.084
 8973TIP3    H226861   3.788   1.770   1.104
 8974TIP3   OH226862   3.128   0.511   0.572
 8974TIP3    H126863   3.215   0.532   0.536
 8974TIP3    H226864   3.137   0.423   0.608
 8975TIP3   OH226865   4.195   3.583   5.359
 8975TIP3    H126866   4.118   3.575   5.415
 8975TIP3    H226867   4.258   3.520   5.396
 8976TIP3   OH226868   8.229   2.186   2.336
 8976TIP3    H126869   8.283   2.120   2.292
 8976TIP3    H226870   8.284   2.264   2.339
 8977TIP3   OH226871   0.723   7.679   5.068
 8977TIP3    H126872   0.701   7.669   4.976
 8977TIP3    H226873   0.780   7.756   5.071
 8978TIP3   OH226874   6.719   6.293   6.534
 8978TIP3    H126875   6.768   6.250   6.464
 8978TIP3    H226876   6.740   6.242   6.612
 8979TIP3   OH226877   4.821   5.555   3.043
 8979TIP3    H126878   4.806   5.563   3.137
 8979TIP3    H226879   4.854   5.641   3.017
 8980TIP3   OH226880   7.455   5.624   0.234
 8980TIP3    H126881   7.486   5.714   0.244
 8980TIP3    H226882   7.382   5.617   0.296
 8981TIP3   OH226883   1.094   1.926   2.765
 8981TIP3    H126884   1.094   1.848   2.710
 8981TIP3    H226885   1.155   1.986   2.721
 8982TIP3   OH226886   3.762   7.437   2.616
 8982TIP3    H126887   3.847   7.399   2.639
 8982TIP3    H226888   3.767   7.527   2.650
 8983TIP3   OH226889   1.780   1.789   5.250
 8983TIP3    H126890   1.832   1.807   5.172
 8983TIP3    H226891   1.740   1.873   5.272
 8984TIP3   OH226892   6.074   1.263   4.344
 8984TIP3    H126893   6.075   1.193   4.410
 8984TIP3    H226894   6.122   1.335   4.385
 8985TIP3   OH226895   5.296   7.206   5.442
 8985TIP3    H126896   5.306   7.244   5.355
 8985TIP3    H226897   5.272   7.115   5.425
 8986TIP3   OH226898   1.821   0.286   2.304
 8986TIP3    H126899   1.849   0.311   2.216
 8986TIP3    H226900   1.813   0.369   2.351
 8987TIP3   OH226901   7.422   1.647   2.063
 8987TIP3    H126902   7.419   1.713   2.132
 8987TIP3    H226903   7.510   1.609   2.070
 8988TIP3   OH226904   1.222   0.999   2.123
 8988TIP3    H126905   1.161   0.972   2.054
 8988TIP3    H226906   1.189   1.085   2.151
 8989TIP3   OH226907   3.119   1.554   3.230
 8989TIP3    H126908   3.172   1.629   3.204
 8989TIP3    H226909   3.056   1.589   3.293
 8990TIP3   OH226910   5.726   2.587   6.215
 8990TIP3    H126911   5.641   2.605   6.176
 8990TIP3    H226912   5.784   2.656   6.181
 8991TIP3   OH226913   1.031   1.030   3.738
 8991TIP3    H126914   0.980   0.963   3.783
 8991TIP3    H226915   0.972   1.105   3.732
 8992TIP3   OH226916   2.891   7.233   4.054
 8992TIP3    H126917   2.835   7.302   4.090
 8992TIP3    H226918   2.972   7.239   4.104
 8993TIP3   OH226919   0.942   7.633   1.795
 8993TIP3    H126920   0.991   7.604   1.718
 8993TIP3    H226921   0.905   7.717   1.768
 8994TIP3   OH226922   5.884   5.325   4.045
 8994TIP3    H126923   5.943   5.268   4.094
 8994TIP3    H226924   5.811   5.268   4.019
 8995TIP3   OH226925   0.142   6.607   1.914
 8995TIP3    H126926   0.212   6.565   1.865
 8995TIP3    H226927   0.179   6.690   1.944
 8996TIP3   OH226928   1.423   2.153   1.246
 8996TIP3    H126929   1.339   2.195   1.267
 8996TIP3    H226930   1.487   2.224   1.253
 8997TIP3   OH226931   3.132   6.745   6.633
 8997TIP3    H126932   3.109   6.827   6.589
 8997TIP3    H226933   3.195   6.703   6.574
 8998TIP3   OH226934   3.556   0.218   5.132
 8998TIP3    H126935   3.481   0.164   5.157
 8998TIP3    H226936   3.572   0.274   5.208
 8999TIP3   OH226937   3.068   5.034   0.898
 8999TIP3    H126938   3.105   5.005   0.814
 8999TIP3    H226939   2.979   5.061   0.876
 9000TIP3   OH226940   5.696   6.453   0.143
 9000TIP3    H126941   5.684   6.378   0.085
 9000TIP3    H226942   5.630   6.516   0.115
 9001TIP3   OH226943   7.897   7.193   1.891
 9001TIP3    H126944   7.837   7.143   1.946
 9001TIP3    H226945   7.967   7.132   1.869
 9002TIP3   OH226946   0.865   4.594   6.471
 9002TIP3    H126947   0.958   4.574   6.465
 9002TIP3    H226948   0.824   4.511   6.495
 9003TIP3   OH226949   0.738   3.778   4.976
 9003TIP3    H126950   0.689   3.854   5.007
 9003TIP3    H226951   0.672   3.719   4.941
 9004TIP3   OH226952   3.378   6.280   0.754
 9004TIP3    H126953   3.401   6.193   0.786
 9004TIP3    H226954   3.311   6.311   0.814
 9005TIP3   OH226955   4.455   1.338   1.390
 9005TIP3    H126956   4.443   1.249   1.422
 9005TIP3    H226957   4.370   1.381   1.403
 9006TIP3   OH226958   0.351   0.116   2.812
 9006TIP3    H126959   0.315   0.028   2.803
 9006TIP3    H226960   0.445   0.104   2.809
 9007TIP3   OH226961   3.268   3.281   1.128
 9007TIP3    H126962   3.317   3.351   1.084
 9007TIP3    H226963   3.267   3.306   1.220
 9008TIP3   OH226964   4.760   3.654   3.988
 9008TIP3    H126965   4.733   3.739   3.953
 9008TIP3    H226966   4.795   3.673   4.075
 9009TIP3   OH226967   1.344   3.077   6.610
 9009TIP3    H126968   1.424   3.113   6.648
 9009TIP3    H226969   1.288   3.057   6.685
 9010TIP3   OH226970   1.821   4.760   6.662
 9010TIP3    H126971   1.743   4.728   6.617
 9010TIP3    H226972   1.854   4.831   6.607
 9011TIP3   OH226973   7.201   6.951   5.505
 9011TIP3    H126974   7.107   6.938   5.497
 9011TIP3    H226975   7.213   6.984   5.594
 9012TIP3   OH226976   2.406   1.015   6.419
 9012TIP3    H126977   2.474   1.016   6.352
 9012TIP3    H226978   2.323   1.010   6.371
 9013TIP3   OH226979   4.709   7.814   6.370
 9013TIP3    H126980   4.795   7.807   6.330
 9013TIP3    H226981   4.701   7.906   6.396
 9014TIP3   OH226982   4.689   0.074   0.646
 9014TIP3    H126983   4.743   0.031   0.580
 9014TIP3    H226984   4.603   0.033   0.635
 9015TIP3   OH226985   4.287   2.580   3.112
 9015TIP3    H126986   4.322   2.614   3.195
 9015TIP3    H226987   4.206   2.628   3.099
 9016TIP3   OH226988   7.853   1.896   5.389
 9016TIP3    H126989   7.898   1.817   5.420
 9016TIP3    H226990   7.774   1.901   5.443
 9017TIP3   OH226991   5.292   0.199   1.133
 9017TIP3    H126992   5.336   0.131   1.184
 9017TIP3    H226993   5.323   0.281   1.170
 9018TIP3   OH226994   6.297   6.809   5.329
 9018TIP3    H126995   6.243   6.758   5.269
 9018TIP3    H226996   6.298   6.897   5.292
 9019TIP3   OH226997   0.131   6.887   6.000
 9019TIP3    H126998   0.132   6.973   5.958
 9019TIP3    H226999   0.221   6.856   5.995
 9020TIP3   OH227000   6.363   1.785   4.056
 9020TIP3    H127001   6.456   1.800   4.070
 9020TIP3    H227002   6.354   1.690   4.052
 9021TIP3   OH227003   3.751   5.780   1.899
 9021TIP3    H127004   3.719   5.834   1.971
 9021TIP3    H227005   3.698   5.808   1.824
 9022TIP3   OH227006   5.543   7.164   5.880
 9022TIP3    H127007   5.483   7.093   5.905
 9022TIP3    H227008   5.516   7.188   5.792
 9023TIP3   OH227009   1.414   2.635   5.081
 9023TIP3    H127010   1.356   2.669   5.149
 9023TIP3    H227011   1.357   2.624   5.004
 9024TIP3   OH227012   4.987   1.208   1.053
 9024TIP3    H127013   4.950   1.179   1.136
 9024TIP3    H227014   5.031   1.291   1.075
 9025TIP3   OH227015   5.326   7.408   2.475
 9025TIP3    H127016   5.295   7.495   2.449
 9025TIP3    H227017   5.380   7.424   2.552
 9026TIP3   OH227018   7.610   6.703   2.572
 9026TIP3    H127019   7.674   6.724   2.504
 9026TIP3    H227020   7.645   6.744   2.651
 9027TIP3   OH227021   3.545   2.748   3.141
 9027TIP3    H127022   3.453   2.766   3.161
 9027TIP3    H227023   3.592   2.769   3.221
 9028TIP3   OH227024   1.134   2.846   6.193
 9028TIP3    H127025   1.051   2.881   6.158
 9028TIP3    H227026   1.134   2.873   6.285
 9029TIP3   OH227027   6.893   0.702   5.784
 9029TIP3    H127028   6.808   0.734   5.754
 9029TIP3    H227029   6.892   0.608   5.762
 9030TIP3   OH227030   6.927   7.322   5.031
 9030TIP3    H127031   6.932   7.416   5.014
 9030TIP3    H227032   6.838   7.308   5.064
 9031TIP3   OH227033   3.613   3.385   3.760
 9031TIP3    H127034   3.692   3.434   3.784
 9031TIP3    H227035   3.611   3.388   3.664
 9032TIP3   OH227036   6.846   3.565   0.431
 9032TIP3    H127037   6.846   3.485   0.378
 9032TIP3    H227038   6.770   3.615   0.400
 9033TIP3   OH227039   5.142   2.374   6.462
 9033TIP3    H127040   5.164   2.301   6.521
 9033TIP3    H227041   5.147   2.336   6.374
 9034TIP3   OH227042   8.326   4.810   1.763
 9034TIP3    H127043   8.400   4.767   1.806
 9034TIP3    H227044   8.273   4.737   1.730
 9035TIP3   OH227045   4.374   3.960   3.037
 9035TIP3    H127046   4.303   3.904   3.070
 9035TIP3    H227047   4.440   3.959   3.106
 9036TIP3   OH227048   5.746   4.292   3.276
 9036TIP3    H127049   5.711   4.217   3.228
 9036TIP3    H227050   5.669   4.341   3.303
 9037TIP3   OH227051   0.049   5.249   2.616
 9037TIP3    H127052  -0.012   5.266   2.545
 9037TIP3    H227053   0.094   5.333   2.631
 9038TIP3   OH227054   2.892   3.765   2.548
 9038TIP3    H127055   2.811   3.771   2.496
 9038TIP3    H227056   2.863   3.727   2.631
 9039TIP3   OH227057   3.189   7.189   5.062
 9039TIP3    H127058   3.146   7.107   5.039
 9039TIP3    H227059   3.200   7.185   5.157
 9040TIP3   OH227060   5.784   1.112   5.552
 9040TIP3    H127061   5.845   1.074   5.616
 9040TIP3    H227062   5.711   1.143   5.605
 9041TIP3   OH227063   4.198   1.340   1.175
 9041TIP3    H127064   4.138   1.271   1.147
 9041TIP3    H227065   4.173   1.357   1.266
 9042TIP3   OH227066   2.874   3.820   1.995
 9042TIP3    H127067   2.923   3.902   1.999
 9042TIP3    H227068   2.846   3.813   1.904
 9043TIP3   OH227069   0.528   6.324   0.587
 9043TIP3    H127070   0.598   6.371   0.633
 9043TIP3    H227071   0.528   6.362   0.499
 9044TIP3   OH227072   0.252   5.667   6.584
 9044TIP3    H127073   0.238   5.573   6.594
 9044TIP3    H227074   0.318   5.689   6.650
 9045TIP3   OH227075   5.979   7.487   4.379
 9045TIP3    H127076   6.067   7.450   4.372
 9045TIP3    H227077   5.923   7.424   4.335
 9046TIP3   OH227078   4.331   5.010   1.770
 9046TIP3    H127079   4.359   4.921   1.793
 9046TIP3    H227080   4.392   5.037   1.702
 9047TIP3   OH227081   2.241   2.526   5.466
 9047TIP3    H127082   2.202   2.519   5.379
 9047TIP3    H227083   2.183   2.476   5.523
 9048TIP3   OH227084   6.839   2.485   4.924
 9048TIP3    H127085   6.788   2.467   4.845
 9048TIP3    H227086   6.930   2.487   4.893
 9049TIP3   OH227087   1.428   3.931   6.785
 9049TIP3    H127088   1.354   3.967   6.836
 9049TIP3    H227089   1.506   3.969   6.827
 9050TIP3   OH227090   5.491   7.246   2.040
 9050TIP3    H127091   5.550   7.171   2.035
 9050TIP3    H227092   5.504   7.293   1.958
 9051TIP3   OH227093   5.584   6.228   1.180
 9051TIP3    H127094   5.544   6.269   1.256
 9051TIP3    H227095   5.539   6.145   1.171
 9052TIP3   OH227096   3.575   6.516   0.169
 9052TIP3    H127097   3.525   6.565   0.103
 9052TIP3    H227098   3.650   6.572   0.188
 9053TIP3   OH227099   3.323   0.714   6.203
 9053TIP3    H127100   3.304   0.658   6.128
 9053TIP3    H227101   3.351   0.654   6.272
 9054TIP3   OH227102   5.943   7.887   0.166
 9054TIP3    H127103   5.875   7.819   0.173
 9054TIP3    H227104   5.896   7.963   0.133
 9055TIP3   OH227105   3.042   7.683   0.659
 9055TIP3    H127106   3.113   7.747   0.666
 9055TIP3    H227107   3.081   7.600   0.687
 9056TIP3   OH227108   1.255   5.132   3.565
 9056TIP3    H127109   1.196   5.205   3.550
 9056TIP3    H227110   1.214   5.058   3.521
 9057TIP3   OH227111   1.461   6.605   6.502
 9057TIP3    H127112   1.493   6.590   6.413
 9057TIP3    H227113   1.371   6.571   6.501
 9058TIP3   OH227114   5.321   5.655   1.987
 9058TIP3    H127115   5.334   5.738   1.941
 9058TIP3    H227116   5.389   5.655   2.055
 9059TIP3   OH227117   1.898   6.401   3.410
 9059TIP3    H127118   1.927   6.397   3.502
 9059TIP3    H227119   1.840   6.476   3.407
 9060TIP3   OH227120   1.990   4.108   0.246
 9060TIP3    H127121   1.912   4.154   0.214
 9060TIP3    H227122   2.060   4.173   0.244
 9061TIP3   OH227123   6.889   4.628   4.655
 9061TIP3    H127124   6.951   4.676   4.710
 9061TIP3    H227125   6.865   4.691   4.587
 9062TIP3   OH227126   7.968   3.263   0.984
 9062TIP3    H127127   8.020   3.202   0.932
 9062TIP3    H227128   7.948   3.335   0.924
 9063TIP3   OH227129   4.940   4.973   4.069
 9063TIP3    H127130   5.029   5.006   4.052
 9063TIP3    H227131   4.903   5.035   4.132
 9064TIP3   OH227132   4.006   4.237   5.604
 9064TIP3    H127133   4.087   4.259   5.559
 9064TIP3    H227134   3.937   4.250   5.538
 9065TIP3   OH227135   7.774   4.606   2.173
 9065TIP3    H127136   7.720   4.684   2.158
 9065TIP3    H227137   7.777   4.596   2.268
 9066TIP3   OH227138   0.695   2.131   0.424
 9066TIP3    H127139   0.733   2.206   0.470
 9066TIP3    H227140   0.621   2.168   0.375
 9067TIP3   OH227141   1.419   0.373   2.171
 9067TIP3    H127142   1.468   0.300   2.209
 9067TIP3    H227143   1.330   0.363   2.206
 9068TIP3   OH227144   3.544   3.340   4.647
 9068TIP3    H127145   3.511   3.401   4.713
 9068TIP3    H227146   3.608   3.391   4.597
 9069TIP3   OH227147   3.335   4.976   0.034
 9069TIP3    H127148   3.350   5.065   0.067
 9069TIP3    H227149   3.334   4.921   0.113
 9070TIP3   OH227150   6.597   6.741   2.623
 9070TIP3    H127151   6.504   6.728   2.605
 9070TIP3    H227152   6.613   6.832   2.599
 9071TIP3   OH227153   3.211   1.052   2.543
 9071TIP3    H127154   3.228   1.022   2.454
 9071TIP3    H227155   3.236   0.978   2.598
 9072TIP3   OH227156   4.009   2.399   2.005
 9072TIP3    H127157   4.095   2.357   1.996
 9072TIP3    H227158   4.009   2.467   1.938
 9073TIP3   OH227159   0.640   4.646   4.638
 9073TIP3    H127160   0.680   4.560   4.623
 9073TIP3    H227161   0.575   4.655   4.569
 9074TIP3   OH227162   4.984   2.696   6.594
 9074TIP3    H127163   5.064   2.684   6.542
 9074TIP3    H227164   4.955   2.607   6.614
 9075TIP3   OH227165   1.056   4.560   2.924
 9075TIP3    H127166   0.996   4.582   2.853
 9075TIP3    H227167   1.081   4.644   2.961
 9076TIP3   OH227168   6.041   1.915   2.492
 9076TIP3    H127169   6.021   1.826   2.465
 9076TIP3    H227170   6.127   1.934   2.454
 9077TIP3   OH227171   7.327   1.566   5.149
 9077TIP3    H127172   7.403   1.563   5.206
 9077TIP3    H227173   7.350   1.631   5.082
 9078TIP3   OH227174   1.808   1.543   3.459
 9078TIP3    H127175   1.832   1.616   3.517
 9078TIP3    H227176   1.791   1.470   3.518
 9079TIP3   OH227177   2.456   5.442   0.034
 9079TIP3    H127178   2.474   5.499  -0.041
 9079TIP3    H227179   2.454   5.501   0.109
 9080TIP3   OH227180   2.268   0.366   6.204
 9080TIP3    H127181   2.178   0.334   6.198
 9080TIP3    H227182   2.277   0.393   6.295
 9081TIP3   OH227183   4.593   1.109   5.310
 9081TIP3    H127184   4.573   1.181   5.251
 9081TIP3    H227185   4.521   1.047   5.297
 9082TIP3   OH227186   1.954   7.864   1.451
 9082TIP3    H127187   1.927   7.925   1.382
 9082TIP3    H227188   2.029   7.906   1.493
 9083TIP3   OH227189   8.111   3.577   2.620
 9083TIP3    H127190   8.206   3.589   2.610
 9083TIP3    H227191   8.085   3.645   2.681
 9084TIP3   OH227192   6.149   4.890   5.725
 9084TIP3    H127193   6.081   4.909   5.790
 9084TIP3    H227194   6.102   4.848   5.653
 9085TIP3   OH227195   1.255   6.839   5.678
 9085TIP3    H127196   1.313   6.859   5.604
 9085TIP3    H227197   1.292   6.889   5.751
 9086TIP3   OH227198   6.389   5.370   1.079
 9086TIP3    H127199   6.370   5.312   1.153
 9086TIP3    H227200   6.451   5.434   1.114
 9087TIP3   OH227201   3.404   6.039   0.878
 9087TIP3    H127202   3.336   6.015   0.942
 9087TIP3    H227203   3.484   6.048   0.930
 9088TIP3   OH227204   6.811   2.962   6.686
 9088TIP3    H127205   6.852   2.905   6.621
 9088TIP3    H227206   6.883   3.014   6.722
 9089TIP3   OH227207   3.398   6.210   5.034
 9089TIP3    H127208   3.340   6.174   5.101
 9089TIP3    H227209   3.338   6.248   4.969
 9090TIP3   OH227210   4.760   6.276   6.343
 9090TIP3    H127211   4.750   6.183   6.366
 9090TIP3    H227212   4.783   6.275   6.250
 9091TIP3   OH227213   0.910   4.209   5.241
 9091TIP3    H127214   0.906   4.201   5.337
 9091TIP3    H227215   0.954   4.293   5.226
 9092TIP3   OH227216   7.878   4.972   0.665
 9092TIP3    H127217   7.818   5.035   0.625
 9092TIP3    H227218   7.821   4.902   0.699
 9093TIP3   OH227219   2.756   0.422   6.204
 9093TIP3    H127220   2.739   0.500   6.257
 9093TIP3    H227221   2.702   0.434   6.126
 9094TIP3   OH227222   0.289   4.753   4.293
 9094TIP3    H127223   0.271   4.797   4.210
 9094TIP3    H227224   0.202   4.740   4.332
 9095TIP3   OH227225   2.080   7.435   2.782
 9095TIP3    H127226   2.128   7.446   2.701
 9095TIP3    H227227   2.068   7.340   2.791
 9096TIP3   OH227228   4.188   4.941   0.148
 9096TIP3    H127229   4.154   4.852   0.159
 9096TIP3    H227230   4.227   4.941   0.061
 9097TIP3   OH227231   6.225   7.410   3.899
 9097TIP3    H127232   6.222   7.383   3.808
 9097TIP3    H227233   6.316   7.437   3.913
 9098TIP3   OH227234   5.707   0.723   4.837
 9098TIP3    H127235   5.659   0.679   4.907
 9098TIP3    H227236   5.644   0.786   4.801
 9099TIP3   OH227237   5.137   6.415   4.408
 9099TIP3    H127238   5.146   6.370   4.492
 9099TIP3    H227239   5.218   6.465   4.398
 9100TIP3   OH227240   2.149   0.260   3.735
 9100TIP3    H127241   2.187   0.175   3.715
 9100TIP3    H227242   2.162   0.311   3.655
 9101TIP3   OH227243   0.535   6.229   6.639
 9101TIP3    H127244   0.540   6.285   6.717
 9101TIP3    H227245   0.441   6.212   6.629
 9102TIP3   OH227246   1.667   3.237   0.455
 9102TIP3    H127247   1.592   3.295   0.440
 9102TIP3    H227248   1.628   3.154   0.482
 9103TIP3   OH227249   6.564   5.320   6.297
 9103TIP3    H127250   6.533   5.347   6.210
 9103TIP3    H227251   6.541   5.227   6.303
 9104TIP3   OH227252   6.531   4.772   1.733
 9104TIP3    H127253   6.613   4.821   1.745
 9104TIP3    H227254   6.541   4.696   1.790
 9105TIP3   OH227255   1.635   7.588   3.736
 9105TIP3    H127256   1.635   7.594   3.640
 9105TIP3    H227257   1.550   7.549   3.757
 9106TIP3   OH227258   2.325   3.914   3.628
 9106TIP3    H127259   2.379   3.946   3.555
 9106TIP3    H227260   2.321   3.988   3.688
 9107TIP3   OH227261   0.814   4.338   2.736
 9107TIP3    H127262   0.818   4.413   2.678
 9107TIP3    H227263   0.721   4.320   2.747
 9108TIP3   OH227264   1.813   1.907   2.047
 9108TIP3    H127265   1.787   1.996   2.024
 9108TIP3    H227266   1.869   1.879   1.974
 9109TIP3   OH227267   0.111   2.826   6.537
 9109TIP3    H127268   0.076   2.872   6.613
 9109TIP3    H227269   0.150   2.895   6.483
 9110TIP3   OH227270   0.174   6.773   3.971
 9110TIP3    H127271   0.135   6.686   3.975
 9110TIP3    H227272   0.212   6.779   3.884
 9111TIP3   OH227273   1.613   2.160   1.751
 9111TIP3    H127274   1.703   2.190   1.766
 9111TIP3    H227275   1.600   2.169   1.657
 9112TIP3   OH227276   7.888   5.424   5.713
 9112TIP3    H127277   7.975   5.395   5.684
 9112TIP3    H227278   7.843   5.449   5.632
 9113TIP3   OH227279   4.544   0.781   0.374
 9113TIP3    H127280   4.510   0.739   0.295
 9113TIP3    H227281   4.567   0.709   0.432
 9114TIP3   OH227282   3.292   3.588   5.824
 9114TIP3    H127283   3.377   3.544   5.814
 9114TIP3    H227284   3.310   3.680   5.808
 9115TIP3   OH227285   0.352   2.440   1.741
 9115TIP3    H127286   0.406   2.393   1.804
 9115TIP3    H227287   0.288   2.487   1.794
 9116TIP3   OH227288   8.404   6.917   2.668
 9116TIP3    H127289   8.484   6.963   2.696
 9116TIP3    H227290   8.338   6.942   2.732
 9117TIP3   OH227291   3.152   0.350   3.314
 9117TIP3    H127292   3.092   0.328   3.386
 9117TIP3    H227293   3.129   0.440   3.290
 9118TIP3   OH227294   7.453   4.098   2.961
 9118TIP3    H127295   7.390   4.108   3.033
 9118TIP3    H227296   7.402   4.056   2.891
 9119TIP3   OH227297   4.029   1.177   0.963
 9119TIP3    H127298   4.086   1.103   0.944
 9119TIP3    H227299   3.947   1.138   0.992
 9120TIP3   OH227300   6.953   7.410   0.383
 9120TIP3    H127301   6.985   7.335   0.432
 9120TIP3    H227302   7.018   7.478   0.398
 9121TIP3   OH227303   1.538   3.725   4.249
 9121TIP3    H127304   1.488   3.695   4.172
 9121TIP3    H227305   1.544   3.647   4.304
 9122TIP3   OH227306   6.160   5.402   5.248
 9122TIP3    H127307   6.089   5.413   5.185
 9122TIP3    H227308   6.139   5.463   5.319
 9123TIP3   OH227309   5.714   2.685   1.103
 9123TIP3    H127310   5.721   2.757   1.166
 9123TIP3    H227311   5.657   2.622   1.146
 9124TIP3   OH227312   1.648   4.137   6.600
 9124TIP3    H127313   1.640   4.164   6.509
 9124TIP3    H227314   1.743   4.140   6.617
 9125TIP3   OH227315   6.373   4.974   3.105
 9125TIP3    H127316   6.424   4.995   3.026
 9125TIP3    H227317   6.439   4.956   3.172
 9126TIP3   OH227318   0.127   4.467   6.710
 9126TIP3    H127319   0.033   4.456   6.699
 9126TIP3    H227320   0.145   4.441   6.800
 9127TIP3   OH227321   6.269   2.743   2.869
 9127TIP3    H127322   6.195   2.728   2.810
 9127TIP3    H227323   6.336   2.682   2.840
 9128TIP3   OH227324   1.518   0.357   1.143
 9128TIP3    H127325   1.607   0.376   1.112
 9128TIP3    H227326   1.466   0.351   1.063
 9129TIP3   OH227327   4.246   4.265   5.472
 9129TIP3    H127328   4.298   4.228   5.543
 9129TIP3    H227329   4.258   4.203   5.399
 9130TIP3   OH227330   2.721   2.755   5.268
 9130TIP3    H127331   2.649   2.778   5.328
 9130TIP3    H227332   2.745   2.666   5.293
 9131TIP3   OH227333   6.492   4.307   1.731
 9131TIP3    H127334   6.484   4.403   1.728
 9131TIP3    H227335   6.402   4.275   1.727
 9132TIP3   OH227336   0.040   3.375   2.817
 9132TIP3    H127337   0.086   3.331   2.745
 9132TIP3    H227338  -0.047   3.395   2.781
 9133TIP3   OH227339   7.467   1.408   6.694
 9133TIP3    H127340   7.385   1.423   6.647
 9133TIP3    H227341   7.533   1.402   6.624
 9134TIP3   OH227342   6.141   6.597   6.101
 9134TIP3    H127343   6.199   6.522   6.084
 9134TIP3    H227344   6.101   6.577   6.186
 9135TIP3   OH227345   2.775   6.231   3.010
 9135TIP3    H127346   2.731   6.241   2.925
 9135TIP3    H227347   2.776   6.319   3.048
 9136TIP3   OH227348   5.267   1.334   2.089
 9136TIP3    H127349   5.253   1.339   1.994
 9136TIP3    H227350   5.232   1.416   2.123
 9137TIP3   OH227351   0.491   7.749   6.209
 9137TIP3    H127352   0.533   7.788   6.286
 9137TIP3    H227353   0.401   7.733   6.237
 9138TIP3   OH227354   1.755   7.573   2.862
 9138TIP3    H127355   1.801   7.656   2.855
 9138TIP3    H227356   1.822   7.507   2.841
 9139TIP3   OH227357   1.423   3.059   3.790
 9139TIP3    H127358   1.488   3.022   3.850
 9139TIP3    H227359   1.448   3.151   3.782
 9140TIP3   OH227360   6.219   0.471   6.736
 9140TIP3    H127361   6.168   0.548   6.763
 9140TIP3    H227362   6.274   0.503   6.664
 9141TIP3   OH227363   3.493   2.116   0.874
 9141TIP3    H127364   3.499   2.037   0.928
 9141TIP3    H227365   3.578   2.159   0.884
 9142TIP3   OH227366   7.902   3.694   3.175
 9142TIP3    H127367   7.838   3.748   3.222
 9142TIP3    H227368   7.853   3.615   3.151
 9143TIP3   OH227369   4.684   5.635   0.990
 9143TIP3    H127370   4.679   5.627   0.895
 9143TIP3    H227371   4.754   5.700   1.005
 9144TIP3   OH227372   5.442   1.852   3.989
 9144TIP3    H127373   5.416   1.868   3.898
 9144TIP3    H227374   5.512   1.787   3.983
 9145TIP3   OH227375   1.116   3.017   3.478
 9145TIP3    H127376   1.197   3.025   3.426
 9145TIP3    H227377   1.095   3.106   3.504
 9146TIP3   OH227378   5.699   7.226   0.511
 9146TIP3    H127379   5.724   7.234   0.419
 9146TIP3    H227380   5.626   7.286   0.521
 9147TIP3   OH227381   5.996   0.640   6.256
 9147TIP3    H127382   6.015   0.682   6.340
 9147TIP3    H227383   5.915   0.681   6.226
 9148TIP3   OH227384   7.267   0.353   6.739
 9148TIP3    H127385   7.270   0.432   6.685
 9148TIP3    H227386   7.232   0.286   6.681
 9149TIP3   OH227387   2.007   6.261   3.089
 9149TIP3    H127388   2.050   6.334   3.044
 9149TIP3    H227389   2.073   6.192   3.091
 9150TIP3   OH227390   1.044   4.461   4.144
 9150TIP3    H127391   0.967   4.513   4.167
 9150TIP3    H227392   1.073   4.498   4.060
 9151TIP3   OH227393   2.316   2.667   2.006
 9151TIP3    H127394   2.351   2.691   1.921
 9151TIP3    H227395   2.393   2.658   2.062
 9152TIP3   OH227396   8.358   3.303   0.547
 9152TIP3    H127397   8.357   3.230   0.486
 9152TIP3    H227398   8.380   3.264   0.631
 9153TIP3   OH227399   4.722   5.766   2.653
 9153TIP3    H127400   4.741   5.825   2.580
 9153TIP3    H227401   4.779   5.690   2.639
 9154TIP3   OH227402   4.156   1.021   4.728
 9154TIP3    H127403   4.081   1.046   4.675
 9154TIP3    H227404   4.213   0.973   4.668
 9155TIP3   OH227405   5.336   0.570   5.251
 9155TIP3    H127406   5.251   0.554   5.209
 9155TIP3    H227407   5.346   0.665   5.249
 9156TIP3   OH227408   5.913   1.070   3.944
 9156TIP3    H127409   5.911   1.013   4.022
 9156TIP3    H227410   5.844   1.036   3.888
 9157TIP3   OH227411   5.124   4.166   0.799
 9157TIP3    H127412   5.142   4.145   0.891
 9157TIP3    H227413   5.138   4.083   0.753
 9158TIP3   OH227414   0.196   2.940   2.533
 9158TIP3    H127415   0.125   2.883   2.504
 9158TIP3    H227416   0.240   2.890   2.602
 9159TIP3   OH227417   5.169   6.958   3.298
 9159TIP3    H127418   5.201   6.926   3.214
 9159TIP3    H227419   5.211   6.901   3.363
 9160TIP3   OH227420   6.982   0.963   2.029
 9160TIP3    H127421   6.978   0.895   2.096
 9160TIP3    H227422   6.897   1.007   2.034
 9161TIP3   OH227423   8.179   0.819   5.677
 9161TIP3    H127424   8.143   0.786   5.759
 9161TIP3    H227425   8.191   0.913   5.692
 9162TIP3   OH227426   7.521   0.062   1.407
 9162TIP3    H127427   7.500  -0.031   1.399
 9162TIP3    H227428   7.612   0.068   1.378
 9163TIP3   OH227429   4.906   5.405   2.851
 9163TIP3    H127430   4.895   5.336   2.917
 9163TIP3    H227431   4.865   5.482   2.891
 9164TIP3   OH227432   4.390   1.197   4.580
 9164TIP3    H127433   4.365   1.113   4.543
 9164TIP3    H227434   4.307   1.239   4.602
 9165TIP3   OH227435   1.284   6.262   4.526
 9165TIP3    H127436   1.248   6.246   4.613
 9165TIP3    H227437   1.373   6.227   4.530
 9166TIP3   OH227438   2.851   0.925   6.115
 9166TIP3    H127439   2.902   1.006   6.116
 9166TIP3    H227440   2.916   0.855   6.127
 9167TIP3   OH227441   5.324   2.322   1.049
 9167TIP3    H127442   5.268   2.261   1.098
 9167TIP3    H227443   5.366   2.375   1.116
 9168TIP3   OH227444   4.457   4.953   1.076
 9168TIP3    H127445   4.491   4.884   1.019
 9168TIP3    H227446   4.363   4.939   1.077
 9169TIP3   OH227447   2.574   0.356   5.491
 9169TIP3    H127448   2.521   0.416   5.438
 9169TIP3    H227449   2.598   0.286   5.430
 9170TIP3   OH227450   3.320   1.276   3.786
 9170TIP3    H127451   3.302   1.352   3.731
 9170TIP3    H227452   3.287   1.201   3.735
 9171TIP3   OH227453   0.837   5.636   6.704
 9171TIP3    H127454   0.755   5.683   6.723
 9171TIP3    H227455   0.900   5.672   6.767
 9172TIP3   OH227456   7.013   6.948   0.058
 9172TIP3    H127457   7.106   6.966   0.042
 9172TIP3    H227458   6.972   7.034   0.057
 9173TIP3   OH227459   1.116   6.671   0.342
 9173TIP3    H127460   1.119   6.729   0.418
 9173TIP3    H227461   1.136   6.728   0.268
 9174TIP3   OH227462   8.355   6.313   3.727
 9174TIP3    H127463   8.448   6.296   3.721
 9174TIP3    H227464   8.340   6.388   3.669
 9175TIP3   OH227465   2.721   7.471   6.446
 9175TIP3    H127466   2.682   7.520   6.518
 9175TIP3    H227467   2.784   7.531   6.406
 9176TIP3   OH227468   1.939   5.242   0.997
 9176TIP3    H127469   1.914   5.331   0.973
 9176TIP3    H227470   1.943   5.243   1.093
 9177TIP3   OH227471   7.796   3.921   2.380
 9177TIP3    H127472   7.764   3.944   2.467
 9177TIP3    H227473   7.761   3.834   2.364
 9178TIP3   OH227474   6.414   5.722   5.994
 9178TIP3    H127475   6.395   5.638   6.036
 9178TIP3    H227476   6.390   5.787   6.059
 9179TIP3   OH227477   2.983   6.119   3.316
 9179TIP3    H127478   3.044   6.113   3.389
 9179TIP3    H227479   2.924   6.045   3.329
 9180TIP3   OH227480   7.885   7.797   1.268
 9180TIP3    H127481   7.879   7.891   1.249
 9180TIP3    H227482   7.855   7.790   1.359
 9181TIP3   OH227483   6.186   3.344   4.671
 9181TIP3    H127484   6.162   3.323   4.761
 9181TIP3    H227485   6.263   3.290   4.653
 9182TIP3   OH227486   6.108   0.995   0.894
 9182TIP3    H127487   6.115   1.075   0.841
 9182TIP3    H227488   6.199   0.976   0.919
 9183TIP3   OH227489   6.304   2.072   5.678
 9183TIP3    H127490   6.397   2.053   5.689
 9183TIP3    H227491   6.301   2.139   5.609
 9184TIP3   OH227492   5.907   2.137   2.525
 9184TIP3    H127493   5.965   2.064   2.548
 9184TIP3    H227494   5.856   2.153   2.604
 9185TIP3   OH227495   4.976   6.121   2.902
 9185TIP3    H127496   4.950   6.037   2.864
 9185TIP3    H227497   4.993   6.101   2.994
 9186TIP3   OH227498   0.888   0.351   5.691
 9186TIP3    H127499   0.824   0.321   5.755
 9186TIP3    H227500   0.842   0.344   5.607
 9187TIP3   OH227501   0.729   0.337   2.573
 9187TIP3    H127502   0.716   0.325   2.479
 9187TIP3    H227503   0.695   0.424   2.591
 9188TIP3   OH227504   8.087   2.293   3.039
 9188TIP3    H127505   8.045   2.209   3.058
 9188TIP3    H227506   8.180   2.277   3.052
 9189TIP3   OH227507   4.283   6.074   3.133
 9189TIP3    H127508   4.265   6.013   3.061
 9189TIP3    H227509   4.198   6.089   3.173
 9190TIP3   OH227510   0.580   2.584   1.848
 9190TIP3    H127511   0.656   2.527   1.857
 9190TIP3    H227512   0.525   2.563   1.923
 9191TIP3   OH227513   7.720   0.126   5.689
 9191TIP3    H127514   7.626   0.141   5.678
 9191TIP3    H227515   7.760   0.166   5.611
 9192TIP3   OH227516   6.127   3.549   6.842
 9192TIP3    H127517   6.051   3.491   6.829
 9192TIP3    H227518   6.091   3.637   6.833
 9193TIP3   OH227519   4.222   0.282   1.274
 9193TIP3    H127520   4.220   0.194   1.311
 9193TIP3    H227521   4.289   0.277   1.205
 9194TIP3   OH227522   7.344   3.280   2.287
 9194TIP3    H127523   7.384   3.328   2.214
 9194TIP3    H227524   7.266   3.331   2.309
 9195TIP3   OH227525   1.616   2.790   5.411
 9195TIP3    H127526   1.561   2.712   5.413
 9195TIP3    H227527   1.564   2.856   5.457
 9196TIP3   OH227528   4.302   6.148   2.851
 9196TIP3    H127529   4.211   6.144   2.824
 9196TIP3    H227530   4.300   6.195   2.934
 9197TIP3   OH227531   5.641   0.610   2.135
 9197TIP3    H127532   5.558   0.570   2.109
 9197TIP3    H227533   5.636   0.700   2.105
 9198TIP3   OH227534   2.645   2.522   5.046
 9198TIP3    H127535   2.578   2.555   5.106
 9198TIP3    H227536   2.723   2.512   5.100
 9199TIP3   OH227537   8.220   7.340   2.523
 9199TIP3    H127538   8.298   7.308   2.478
 9199TIP3    H227539   8.147   7.293   2.482
 9200TIP3   OH227540   3.484   2.221   2.977
 9200TIP3    H127541   3.503   2.294   3.035
 9200TIP3    H227542   3.493   2.257   2.889
 9201TIP3   OH227543   2.673   1.467   3.855
 9201TIP3    H127544   2.727   1.512   3.919
 9201TIP3    H227545   2.627   1.400   3.906
 9202TIP3   OH227546   5.530   4.883   3.398
 9202TIP3    H127547   5.508   4.907   3.488
 9202TIP3    H227548   5.621   4.911   3.387
 9203TIP3   OH227549   1.013   7.240   6.090
 9203TIP3    H127550   1.086   7.193   6.049
 9203TIP3    H227551   0.977   7.178   6.153
 9204TIP3   OH227552  -0.021   1.973   2.916
 9204TIP3    H127553   0.062   2.010   2.946
 9204TIP3    H227554  -0.079   1.979   2.992
 9205TIP3   OH227555   5.955   0.300   6.002
 9205TIP3    H127556   5.942   0.220   6.053
 9205TIP3    H227557   5.902   0.286   5.923
 9206TIP3   OH227558   3.542   3.627   4.143
 9206TIP3    H127559   3.621   3.573   4.146
 9206TIP3    H227560   3.547   3.671   4.058
 9207TIP3   OH227561   3.253   4.896   1.364
 9207TIP3    H127562   3.165   4.933   1.354
 9207TIP3    H227563   3.292   4.903   1.277
 9208TIP3   OH227564   6.889   0.417   5.777
 9208TIP3    H127565   6.856   0.340   5.822
 9208TIP3    H227566   6.829   0.431   5.704
 9209TIP3   OH227567   1.632   4.134   6.294
 9209TIP3    H127568   1.547   4.111   6.256
 9209TIP3    H227569   1.668   4.200   6.235
 9210TIP3   OH227570   6.308   2.243   5.474
 9210TIP3    H127571   6.396   2.280   5.466
 9210TIP3    H227572   6.305   2.173   5.409
 9211TIP3   OH227573   2.601   5.560   2.338
 9211TIP3    H127574   2.694   5.563   2.362
 9211TIP3    H227575   2.573   5.471   2.360
 9212TIP3   OH227576   7.767   5.791   4.336
 9212TIP3    H127577   7.827   5.793   4.411
 9212TIP3    H227578   7.793   5.866   4.282
 9213TIP3   OH227579   3.934   4.275   6.832
 9213TIP3    H127580   3.851   4.254   6.790
 9213TIP3    H227581   3.913   4.281   6.925
 9214TIP3   OH227582   8.201   6.567   5.442
 9214TIP3    H127583   8.212   6.656   5.475
 9214TIP3    H227584   8.197   6.577   5.347
 9215TIP3   OH227585   7.068   7.872   5.236
 9215TIP3    H127586   7.029   7.876   5.323
 9215TIP3    H227587   6.994   7.854   5.178
 9216TIP3   OH227588   6.746   1.521   5.707
 9216TIP3    H127589   6.815   1.466   5.668
 9216TIP3    H227590   6.789   1.605   5.723
 9217TIP3   OH227591   4.646   7.795   4.715
 9217TIP3    H127592   4.596   7.714   4.719
 9217TIP3    H227593   4.704   7.791   4.791
 9218TIP3   OH227594   6.099   1.498   2.629
 9218TIP3    H127595   6.092   1.579   2.580
 9218TIP3    H227596   6.110   1.430   2.562
 9219TIP3   OH227597   7.613   3.334   1.592
 9219TIP3    H127598   7.547   3.398   1.617
 9219TIP3    H227599   7.586   3.304   1.506
 9220TIP3   OH227600   7.815   7.717   1.548
 9220TIP3    H127601   7.879   7.657   1.585
 9220TIP3    H227602   7.730   7.680   1.571
 9221TIP3   OH227603   5.740   5.239   1.384
 9221TIP3    H127604   5.695   5.212   1.304
 9221TIP3    H227605   5.776   5.326   1.364
 9222TIP3   OH227606   5.422   2.863   4.029
 9222TIP3    H127607   5.412   2.812   3.948
 9222TIP3    H227608   5.507   2.835   4.064
 9223TIP3   OH227609   1.365   3.035   1.067
 9223TIP3    H127610   1.289   3.092   1.052
 9223TIP3    H227611   1.376   2.988   0.984
 9224TIP3   OH227612   6.535   2.790   6.190
 9224TIP3    H127613   6.443   2.807   6.210
 9224TIP3    H227614   6.573   2.763   6.274
 9225TIP3   OH227615   3.492   7.567   2.653
 9225TIP3    H127616   3.465   7.509   2.583
 9225TIP3    H227617   3.527   7.509   2.721
 9226TIP3   OH227618   3.446   7.420   3.723
 9226TIP3    H127619   3.409   7.379   3.801
 9226TIP3    H227620   3.478   7.347   3.670
 9227TIP3   OH227621   4.835   3.497   3.110
 9227TIP3    H127622   4.880   3.434   3.166
 9227TIP3    H227623   4.774   3.542   3.169
 9228TIP3   OH227624   1.360   1.256   5.812
 9228TIP3    H127625   1.370   1.348   5.834
 9228TIP3    H227626   1.268   1.247   5.787
 9229TIP3   OH227627   3.292   7.122   5.336
 9229TIP3    H127628   3.349   7.056   5.297
 9229TIP3    H227629   3.307   7.115   5.430
 9230TIP3   OH227630   0.965   0.254   4.890
 9230TIP3    H127631   1.028   0.295   4.831
 9230TIP3    H227632   0.957   0.164   4.858
 9231TIP3   OH227633   0.538   3.936   2.808
 9231TIP3    H127634   0.522   3.857   2.757
 9231TIP3    H227635   0.451   3.976   2.818
 9232TIP3   OH227636   4.724   2.412   5.125
 9232TIP3    H127637   4.703   2.324   5.094
 9232TIP3    H227638   4.738   2.463   5.045
 9233TIP3   OH227639   4.452   7.746   3.388
 9233TIP3    H127640   4.537   7.702   3.375
 9233TIP3    H227641   4.408   7.694   3.455
 9234TIP3   OH227642   6.158   7.294   4.716
 9234TIP3    H127643   6.170   7.388   4.702
 9234TIP3    H227644   6.187   7.254   4.634
 9235TIP3   OH227645   1.372   5.888   1.452
 9235TIP3    H127646   1.296   5.942   1.474
 9235TIP3    H227647   1.443   5.922   1.507
 9236TIP3   OH227648   1.095   5.345   3.524
 9236TIP3    H127649   1.084   5.395   3.605
 9236TIP3    H227650   1.013   5.357   3.477
 9237TIP3   OH227651   7.560   2.501   3.068
 9237TIP3    H127652   7.652   2.523   3.085
 9237TIP3    H227653   7.512   2.581   3.089
 9238TIP3   OH227654   0.437   6.469   5.579
 9238TIP3    H127655   0.511   6.520   5.612
 9238TIP3    H227656   0.451   6.381   5.617
 9239TIP3   OH227657   0.221   5.228   3.078
 9239TIP3    H127658   0.290   5.228   3.012
 9239TIP3    H227659   0.243   5.153   3.134
 9240TIP3   OH227660   6.635   2.400   5.810
 9240TIP3    H127661   6.665   2.477   5.762
 9240TIP3    H227662   6.550   2.426   5.846
 9241TIP3   OH227663   4.414   5.358   2.257
 9241TIP3    H127664   4.492   5.344   2.203
 9241TIP3    H227665   4.432   5.438   2.306
 9242TIP3   OH227666   2.845   4.564   0.697
 9242TIP3    H127667   2.771   4.624   0.693
 9242TIP3    H227668   2.919   4.619   0.723
 9243TIP3   OH227669   2.118   6.474   2.676
 9243TIP3    H127670   2.024   6.479   2.695
 9243TIP3    H227671   2.127   6.507   2.587
 9244TIP3   OH227672   3.143   2.269   2.114
 9244TIP3    H127673   3.136   2.174   2.106
 9244TIP3    H227674   3.144   2.301   2.024
 9245TIP3   OH227675   5.831   6.419   3.010
 9245TIP3    H127676   5.910   6.368   2.992
 9245TIP3    H227677   5.760   6.355   3.013
 9246TIP3   OH227678   6.169   4.301   0.463
 9246TIP3    H127679   6.078   4.273   0.451
 9246TIP3    H227680   6.208   4.293   0.376
 9247TIP3   OH227681   3.222   0.404   6.800
 9247TIP3    H127682   3.201   0.468   6.867
 9247TIP3    H227683   3.281   0.450   6.740
 9248TIP3   OH227684   1.856   7.310   1.794
 9248TIP3    H127685   1.902   7.364   1.858
 9248TIP3    H227686   1.768   7.346   1.792
 9249TIP3   OH227687   7.619   7.045   1.046
 9249TIP3    H127688   7.670   6.965   1.037
 9249TIP3    H227689   7.585   7.042   1.136
 9250TIP3   OH227690   6.407   6.929   1.988
 9250TIP3    H127691   6.377   7.006   1.939
 9250TIP3    H227692   6.465   6.965   2.056
 9251TIP3   OH227693   2.383   3.563   0.815
 9251TIP3    H127694   2.440   3.503   0.767
 9251TIP3    H227695   2.330   3.606   0.748
 9252TIP3   OH227696   7.453   5.012   1.102
 9252TIP3    H127697   7.513   5.080   1.070
 9252TIP3    H227698   7.495   4.979   1.181
 9253TIP3   OH227699   7.190   5.828   6.134
 9253TIP3    H127700   7.141   5.851   6.055
 9253TIP3    H227701   7.168   5.736   6.150
 9254TIP3   OH227702   2.750   7.674   3.565
 9254TIP3    H127703   2.766   7.691   3.472
 9254TIP3    H227704   2.821   7.719   3.610
 9255TIP3   OH227705   0.416   2.084   2.107
 9255TIP3    H127706   0.472   2.007   2.114
 9255TIP3    H227707   0.458   2.138   2.040
 9256TIP3   OH227708   8.099   2.208   4.870
 9256TIP3    H127709   8.070   2.285   4.821
 9256TIP3    H227710   8.145   2.243   4.946
 9257TIP3   OH227711   2.843   6.090   2.072
 9257TIP3    H127712   2.908   6.132   2.129
 9257TIP3    H227713   2.876   6.000   2.061
 9258TIP3   OH227714   8.001   4.538   4.793
 9258TIP3    H127715   8.045   4.611   4.836
 9258TIP3    H227716   7.964   4.576   4.713
 9259TIP3   OH227717   2.892   7.667   6.247
 9259TIP3    H127718   2.884   7.757   6.215
 9259TIP3    H227719   2.986   7.652   6.255
 9260TIP3   OH227720   4.073   2.936   5.640
 9260TIP3    H127721   4.060   2.954   5.733
 9260TIP3    H227722   3.984   2.932   5.604
 9261TIP3   OH227723   0.501   7.614   4.060
 9261TIP3    H127724   0.588   7.638   4.094
 9261TIP3    H227725   0.440   7.667   4.111
 9262TIP3   OH227726   3.087   2.958   1.809
 9262TIP3    H127727   3.076   2.999   1.895
 9262TIP3    H227728   3.162   2.899   1.820
 9263TIP3   OH227729   6.095   0.034   5.096
 9263TIP3    H127730   6.061   0.046   5.008
 9263TIP3    H227731   6.051   0.100   5.149
 9264TIP3   OH227732   5.161   4.211   6.152
 9264TIP3    H127733   5.109   4.187   6.075
 9264TIP3    H227734   5.136   4.146   6.218
 9265TIP3   OH227735   1.368   5.350   4.301
 9265TIP3    H127736   1.437   5.360   4.367
 9265TIP3    H227737   1.287   5.346   4.351
 9266TIP3   OH227738   6.250   4.021   1.594
 9266TIP3    H127739   6.278   3.931   1.610
 9266TIP3    H227740   6.233   4.057   1.681
 9267TIP3   OH227741   6.322   3.484   5.569
 9267TIP3    H127742   6.256   3.521   5.509
 9267TIP3    H227743   6.375   3.559   5.596
 9268TIP3   OH227744   7.943   5.429   1.292
 9268TIP3    H127745   7.898   5.348   1.267
 9268TIP3    H227746   7.874   5.484   1.329
 9269TIP3   OH227747   4.878   0.608   3.059
 9269TIP3    H127748   4.888   0.527   3.009
 9269TIP3    H227749   4.858   0.674   2.994
 9270TIP3   OH227750   6.976   6.122   4.053
 9270TIP3    H127751   7.033   6.177   4.107
 9270TIP3    H227752   6.956   6.047   4.109
 9271TIP3   OH227753   4.789   6.987   3.061
 9271TIP3    H127754   4.791   6.994   2.965
 9271TIP3    H227755   4.745   6.904   3.077
 9272TIP3   OH227756   4.230   0.540   2.410
 9272TIP3    H127757   4.304   0.549   2.350
 9272TIP3    H227758   4.195   0.453   2.392
 9273TIP3   OH227759   0.771   3.286   5.058
 9273TIP3    H127760   0.856   3.327   5.041
 9273TIP3    H227761   0.726   3.290   4.974
 9274TIP3   OH227762   2.523   7.096   6.566
 9274TIP3    H127763   2.501   7.011   6.529
 9274TIP3    H227764   2.505   7.159   6.497
 9275TIP3   OH227765   0.305   1.404   0.786
 9275TIP3    H127766   0.328   1.496   0.781
 9275TIP3    H227767   0.351   1.372   0.864
 9276TIP3   OH227768   2.674   0.389   4.730
 9276TIP3    H127769   2.689   0.464   4.787
 9276TIP3    H227770   2.581   0.369   4.739
 9277TIP3   OH227771   1.026   3.859   1.610
 9277TIP3    H127772   1.021   3.945   1.652
 9277TIP3    H227773   1.023   3.796   1.682
 9278TIP3   OH227774   3.524   1.229   2.603
 9278TIP3    H127775   3.543   1.154   2.660
 9278TIP3    H227776   3.444   1.205   2.557
 9279TIP3   OH227777   4.154   4.406   4.511
 9279TIP3    H127778   4.178   4.448   4.594
 9279TIP3    H227779   4.060   4.422   4.503
 9280TIP3   OH227780   2.839   7.552   2.441
 9280TIP3    H127781   2.794   7.570   2.524
 9280TIP3    H227782   2.845   7.456   2.437
 9281TIP3   OH227783   2.132   3.009   6.527
 9281TIP3    H127784   2.226   3.002   6.544
 9281TIP3    H227785   2.094   2.938   6.578
 9282TIP3   OH227786   0.124   5.983   1.340
 9282TIP3    H127787   0.047   5.999   1.286
 9282TIP3    H227788   0.091   5.989   1.430
 9283TIP3   OH227789   5.811   5.649   5.931
 9283TIP3    H127790   5.819   5.706   6.008
 9283TIP3    H227791   5.899   5.616   5.917
 9284TIP3   OH227792   5.855   0.877   4.135
 9284TIP3    H127793   5.801   0.904   4.209
 9284TIP3    H227794   5.903   0.801   4.167
 9285TIP3   OH227795   2.168   2.744   5.077
 9285TIP3    H127796   2.175   2.666   5.022
 9285TIP3    H227797   2.252   2.788   5.068
 9286TIP3   OH227798   6.738   1.451   1.721
 9286TIP3    H127799   6.810   1.514   1.725
 9286TIP3    H227800   6.754   1.391   1.794
 9287TIP3   OH227801   4.492   6.201   4.600
 9287TIP3    H127802   4.587   6.194   4.595
 9287TIP3    H227803   4.460   6.120   4.560
 9288TIP3   OH227804   1.165   1.207   4.466
 9288TIP3    H127805   1.238   1.218   4.527
 9288TIP3    H227806   1.104   1.278   4.488
 9289TIP3   OH227807   7.786   3.402   4.465
 9289TIP3    H127808   7.695   3.387   4.438
 9289TIP3    H227809   7.805   3.331   4.526
 9290TIP3   OH227810   5.572   0.265   1.770
 9290TIP3    H127811   5.627   0.248   1.693
 9290TIP3    H227812   5.548   0.178   1.801
 9291TIP3   OH227813   1.036   0.950   3.472
 9291TIP3    H127814   1.129   0.944   3.449
 9291TIP3    H227815   1.036   0.957   3.567
 9292TIP3   OH227816   1.088   3.945   6.523
 9292TIP3    H127817   1.033   4.003   6.471
 9292TIP3    H227818   1.070   3.968   6.614
 9293TIP3   OH227819   8.233   7.374   4.926
 9293TIP3    H127820   8.225   7.328   5.010
 9293TIP3    H227821   8.201   7.311   4.861
 9294TIP3   OH227822   5.712   5.105   1.713
 9294TIP3    H127823   5.776   5.176   1.723
 9294TIP3    H227824   5.754   5.045   1.652
 9295TIP3   OH227825   4.376   3.047   3.116
 9295TIP3    H127826   4.438   2.995   3.167
 9295TIP3    H227827   4.391   3.021   3.026
 9296TIP3   OH227828   6.279   3.161   1.751
 9296TIP3    H127829   6.368   3.138   1.778
 9296TIP3    H227830   6.241   3.202   1.828
 9297TIP3   OH227831   6.421   0.516   5.028
 9297TIP3    H127832   6.504   0.555   5.000
 9297TIP3    H227833   6.354   0.572   4.989
 9298TIP3   OH227834   6.317   7.767   2.527
 9298TIP3    H127835   6.370   7.833   2.482
 9298TIP3    H227836   6.345   7.684   2.490
 9299TIP3   OH227837   2.173   5.220   6.382
 9299TIP3    H127838   2.212   5.136   6.406
 9299TIP3    H227839   2.216   5.283   6.438
 9300TIP3   OH227840   1.025   0.396   2.782
 9300TIP3    H127841   1.056   0.381   2.693
 9300TIP3    H227842   1.010   0.491   2.787
 9301TIP3   OH227843   4.566   7.414   1.438
 9301TIP3    H127844   4.579   7.502   1.404
 9301TIP3    H227845   4.597   7.419   1.529
 9302TIP3   OH227846   7.120   3.391   1.939
 9302TIP3    H127847   7.146   3.417   2.028
 9302TIP3    H227848   7.099   3.474   1.896
 9303TIP3   OH227849   3.255   7.687   0.019
 9303TIP3    H127850   3.273   7.728   0.104
 9303TIP3    H227851   3.342   7.670  -0.019
 9304TIP3   OH227852   0.236   7.863   5.833
 9304TIP3    H127853   0.158   7.872   5.888
 9304TIP3    H227854   0.306   7.904   5.885
 9305TIP3   OH227855   5.262   3.541   1.633
 9305TIP3    H127856   5.166   3.534   1.635
 9305TIP3    H227857   5.279   3.631   1.604
 9306TIP3   OH227858   6.776   7.724   5.754
 9306TIP3    H127859   6.711   7.731   5.684
 9306TIP3    H227860   6.847   7.782   5.726
 9307TIP3   OH227861   5.277   5.291   1.812
 9307TIP3    H127862   5.250   5.209   1.770
 9307TIP3    H227863   5.335   5.263   1.883
 9308TIP3   OH227864   2.733   4.081   5.525
 9308TIP3    H127865   2.749   4.053   5.616
 9308TIP3    H227866   2.676   4.157   5.534
 9309TIP3   OH227867   4.723   2.188   2.753
 9309TIP3    H127868   4.717   2.276   2.717
 9309TIP3    H227869   4.702   2.130   2.680
 9310TIP3   OH227870   3.380   4.813   3.442
 9310TIP3    H127871   3.436   4.735   3.435
 9310TIP3    H227872   3.301   4.781   3.486
 9311TIP3   OH227873   8.084   3.490   5.602
 9311TIP3    H127874   8.156   3.530   5.651
 9311TIP3    H227875   8.023   3.460   5.668
 9312TIP3   OH227876   5.212   3.119   2.738
 9312TIP3    H127877   5.157   3.101   2.814
 9312TIP3    H227878   5.154   3.109   2.663
 9313TIP3   OH227879   5.891   1.662   0.200
 9313TIP3    H127880   5.916   1.602   0.271
 9313TIP3    H227881   5.869   1.744   0.245
 9314TIP3   OH227882   5.303   3.673   0.478
 9314TIP3    H127883   5.338   3.597   0.432
 9314TIP3    H227884   5.245   3.636   0.545
 9315TIP3   OH227885   4.120   4.456   6.852
 9315TIP3    H127886   4.054   4.389   6.833
 9315TIP3    H227887   4.162   4.426   6.932
 9316TIP3   OH227888   0.657   6.945   4.196
 9316TIP3    H127889   0.709   7.017   4.160
 9316TIP3    H227890   0.568   6.961   4.164
 9317TIP3   OH227891   2.029   0.603   1.509
 9317TIP3    H127892   2.006   0.696   1.506
 9317TIP3    H227893   1.992   0.572   1.591
 9318TIP3   OH227894   5.393   0.877   0.008
 9318TIP3    H127895   5.314   0.883   0.061
 9318TIP3    H227896   5.422   0.786   0.016
 9319TIP3   OH227897   0.516   4.518   1.312
 9319TIP3    H127898   0.483   4.589   1.256
 9319TIP3    H227899   0.598   4.492   1.271
 9320TIP3   OH227900   5.689   2.007   5.598
 9320TIP3    H127901   5.780   1.993   5.622
 9320TIP3    H227902   5.680   1.967   5.512
 9321TIP3   OH227903   8.337   7.023   0.963
 9321TIP3    H127904   8.285   7.017   0.883
 9321TIP3    H227905   8.396   7.097   0.948
 9322TIP3   OH227906   3.900   4.071   1.288
 9322TIP3    H127907   3.806   4.058   1.295
 9322TIP3    H227908   3.926   4.020   1.212
 9323TIP3   OH227909   1.820   7.809   5.887
 9323TIP3    H127910   1.878   7.734   5.898
 9323TIP3    H227911   1.798   7.809   5.793
 9324TIP3   OH227912   7.081   7.674   0.173
 9324TIP3    H127913   7.057   7.684   0.081
 9324TIP3    H227914   7.031   7.742   0.218
 9325TIP3   OH227915   1.930   0.491   5.491
 9325TIP3    H127916   1.980   0.451   5.420
 9325TIP3    H227917   1.982   0.476   5.569
 9326TIP3   OH227918   8.289   6.063   0.131
 9326TIP3    H127919   8.356   6.011   0.086
 9326TIP3    H227920   8.334   6.144   0.155
 9327TIP3   OH227921   6.281   2.072   5.260
 9327TIP3    H127922   6.276   2.093   5.166
 9327TIP3    H227923   6.224   1.996   5.270
 9328TIP3   OH227924   0.524   3.878   2.017
 9328TIP3    H127925   0.447   3.930   1.995
 9328TIP3    H227926   0.499   3.788   1.995
 9329TIP3   OH227927   7.805   5.007   6.504
 9329TIP3    H127928   7.710   5.015   6.491
 9329TIP3    H227929   7.817   4.920   6.542
 9330TIP3   OH227930   7.127   7.755   3.575
 9330TIP3    H127931   7.099   7.745   3.666
 9330TIP3    H227932   7.156   7.668   3.549
 9331TIP3   OH227933   5.150   0.731   5.476
 9331TIP3    H127934   5.115   0.723   5.565
 9331TIP3    H227935   5.242   0.705   5.484
 9332TIP3   OH227936   1.672   1.525   6.512
 9332TIP3    H127937   1.628   1.610   6.507
 9332TIP3    H227938   1.667   1.490   6.423
 9333TIP3   OH227939   1.888   6.014   4.979
 9333TIP3    H127940   1.942   6.093   4.988
 9333TIP3    H227941   1.896   5.970   5.064
 9334TIP3   OH227942   0.164   2.859   2.165
 9334TIP3    H127943   0.137   2.948   2.145
 9334TIP3    H227944   0.256   2.855   2.137
 9335TIP3   OH227945   2.417   6.282   2.396
 9335TIP3    H127946   2.448   6.362   2.354
 9335TIP3    H227947   2.459   6.211   2.348
 9336TIP3   OH227948   5.621   6.198   3.889
 9336TIP3    H127949   5.534   6.174   3.858
 9336TIP3    H227950   5.646   6.272   3.833
 9337TIP3   OH227951   7.063   7.834   0.739
 9337TIP3    H127952   6.989   7.830   0.678
 9337TIP3    H227953   7.139   7.808   0.686
 9338TIP3   OH227954   7.792   7.833   2.428
 9338TIP3    H127955   7.786   7.829   2.333
 9338TIP3    H227956   7.702   7.823   2.459
 9339TIP3   OH227957   0.756   3.473   3.555
 9339TIP3    H127958   0.842   3.508   3.531
 9339TIP3    H227959   0.753   3.387   3.513
 9340TIP3   OH227960   1.933   5.975   3.892
 9340TIP3    H127961   1.944   6.064   3.857
 9340TIP3    H227962   1.916   5.921   3.815
 9341TIP3   OH227963   1.615   3.949   2.457
 9341TIP3    H127964   1.605   3.863   2.417
 9341TIP3    H227965   1.664   3.933   2.537
 9342TIP3   OH227966   3.305   7.188   5.591
 9342TIP3    H127967   3.345   7.267   5.554
 9342TIP3    H227968   3.263   7.218   5.671
 9343TIP3   OH227969   0.378   7.380   2.721
 9343TIP3    H127970   0.294   7.352   2.684
 9343TIP3    H227971   0.373   7.359   2.814
 9344TIP3   OH227972   3.631   4.029   5.334
 9344TIP3    H127973   3.667   3.955   5.384
 9344TIP3    H227974   3.703   4.058   5.278
 9345TIP3   OH227975   1.670   0.443   4.509
 9345TIP3    H127976   1.674   0.497   4.588
 9345TIP3    H227977   1.576   0.436   4.491
 9346TIP3   OH227978   3.319   0.984   1.185
 9346TIP3    H127979   3.395   0.943   1.224
 9346TIP3    H227980   3.263   1.008   1.259
 9347TIP3   OH227981   0.349   0.762   2.437
 9347TIP3    H127982   0.408   0.821   2.390
 9347TIP3    H227983   0.294   0.723   2.368
 9348TIP3   OH227984   7.084   6.555   4.127
 9348TIP3    H127985   7.015   6.611   4.163
 9348TIP3    H227986   7.161   6.574   4.181
 9349TIP3   OH227987   1.391   2.943   1.723
 9349TIP3    H127988   1.332   2.955   1.648
 9349TIP3    H227989   1.463   3.003   1.707
 9350TIP3   OH227990   0.208   4.085   0.106
 9350TIP3    H127991   0.301   4.068   0.092
 9350TIP3    H227992   0.194   4.072   0.200
 9351TIP3   OH227993   6.693   2.800   2.255
 9351TIP3    H127994   6.749   2.863   2.301
 9351TIP3    H227995   6.751   2.727   2.234
 9352TIP3   OH227996   5.166   1.554   2.200
 9352TIP3    H127997   5.182   1.623   2.136
 9352TIP3    H227998   5.171   1.598   2.285
 9353TIP3   OH227999   5.858   6.645   4.299
 9353TIP3    H128000   5.830   6.559   4.330
 9353TIP3    H228001   5.879   6.693   4.379
 9354TIP3   OH228002   6.148   0.789   4.384
 9354TIP3    H128003   6.190   0.814   4.302
 9354TIP3    H228004   6.081   0.726   4.360
 9355TIP3   OH228005   0.426   6.986   0.193
 9355TIP3    H128006   0.350   7.007   0.140
 9355TIP3    H228007   0.451   7.069   0.233
 9356TIP3   OH228008   0.276   3.821   5.424
 9356TIP3    H128009   0.304   3.767   5.498
 9356TIP3    H228010   0.272   3.910   5.460
 9357TIP3   OH228011   1.479   3.426   5.946
 9357TIP3    H128012   1.489   3.483   5.870
 9357TIP3    H228013   1.408   3.366   5.921
 9358TIP3   OH228014   6.480   0.400   6.582
 9358TIP3    H128015   6.414   0.402   6.513
 9358TIP3    H228016   6.497   0.307   6.596
 9359TIP3   OH228017   2.802   7.330   4.555
 9359TIP3    H128018   2.770   7.243   4.533
 9359TIP3    H228019   2.743   7.360   4.625
 9360TIP3   OH228020   7.240   5.504   2.663
 9360TIP3    H128021   7.151   5.476   2.683
 9360TIP3    H228022   7.258   5.574   2.726
 9361TIP3   OH228023   4.209   0.733   2.900
 9361TIP3    H128024   4.286   0.791   2.897
 9361TIP3    H228025   4.185   0.730   2.993
 9362TIP3   OH228026   3.802   1.669   3.575
 9362TIP3    H128027   3.862   1.741   3.594
 9362TIP3    H228028   3.852   1.609   3.520
 9363TIP3   OH228029   3.457   6.777   1.556
 9363TIP3    H128030   3.504   6.860   1.556
 9363TIP3    H228031   3.364   6.802   1.552
 9364TIP3   OH228032   7.928   7.148   4.526
 9364TIP3    H128033   7.940   7.091   4.450
 9364TIP3    H228034   7.860   7.210   4.499
 9365TIP3   OH228035   2.122   0.846   0.664
 9365TIP3    H128036   2.096   0.758   0.638
 9365TIP3    H228037   2.087   0.857   0.753
 9366TIP3   OH228038   7.937   7.184   3.527
 9366TIP3    H128039   8.013   7.231   3.495
 9366TIP3    H228040   7.946   7.185   3.622
 9367TIP3   OH228041   5.150   5.464   3.701
 9367TIP3    H128042   5.141   5.492   3.793
 9367TIP3    H228043   5.198   5.536   3.659
 9368TIP3   OH228044   0.463   7.190   3.811
 9368TIP3    H128045   0.534   7.134   3.779
 9368TIP3    H228046   0.384   7.137   3.799
 9369TIP3   OH228047   6.599   0.122   0.682
 9369TIP3    H128048   6.682   0.090   0.716
 9369TIP3    H228049   6.616   0.143   0.591
 9370TIP3   OH228050   2.918   3.907   4.196
 9370TIP3    H128051   2.865   3.827   4.200
 9370TIP3    H228052   2.861   3.973   4.158
 9371TIP3   OH228053   4.995   5.207   4.902
 9371TIP3    H128054   5.018   5.179   4.991
 9371TIP3    H228055   5.068   5.263   4.875
 9372TIP3   OH228056   3.325   1.039   6.821
 9372TIP3    H128057   3.365   0.990   6.893
 9372TIP3    H228058   3.260   1.095   6.863
 9373TIP3   OH228059   4.822   0.068   4.003
 9373TIP3    H128060   4.763   0.139   4.029
 9373TIP3    H228061   4.857   0.035   4.086
 9374TIP3   OH228062   3.562   4.491   1.703
 9374TIP3    H128063   3.508   4.504   1.626
 9374TIP3    H228064   3.504   4.451   1.767
 9375TIP3   OH228065   6.109   4.900   0.667
 9375TIP3    H128066   6.161   4.847   0.728
 9375TIP3    H228067   6.069   4.836   0.608
 9376TIP3   OH228068   0.474   1.256   6.096
 9376TIP3    H128069   0.565   1.276   6.074
 9376TIP3    H228070   0.431   1.342   6.097
 9377TIP3   OH228071   5.607   4.429   6.599
 9377TIP3    H128072   5.655   4.355   6.636
 9377TIP3    H228073   5.527   4.390   6.565
 9378TIP3   OH228074   6.686   1.073   3.968
 9378TIP3    H128075   6.611   1.063   3.910
 9378TIP3    H228076   6.728   1.155   3.940
 9379TIP3   OH228077   5.371   6.123   4.797
 9379TIP3    H128078   5.415   6.100   4.879
 9379TIP3    H228079   5.426   6.191   4.758
 9380TIP3   OH228080   4.903   5.806   3.593
 9380TIP3    H128081   4.861   5.804   3.507
 9380TIP3    H228082   4.846   5.753   3.649
 9381TIP3   OH228083   5.786   6.769   0.270
 9381TIP3    H128084   5.717   6.819   0.312
 9381TIP3    H228085   5.804   6.815   0.188
 9382TIP3   OH228086   6.628   3.655   0.309
 9382TIP3    H128087   6.600   3.736   0.266
 9382TIP3    H228088   6.559   3.592   0.288
 9383TIP3   OH228089   7.741   1.356   3.410
 9383TIP3    H128090   7.742   1.289   3.341
 9383TIP3    H228091   7.762   1.307   3.490
 9384TIP3   OH228092   0.815   6.188   5.057
 9384TIP3    H128093   0.843   6.276   5.033
 9384TIP3    H228094   0.886   6.153   5.110
 9385TIP3   OH228095   7.278   7.679   5.330
 9385TIP3    H128096   7.268   7.604   5.272
 9385TIP3    H228097   7.201   7.733   5.313
 9386TIP3   OH228098   5.625   4.446   2.822
 9386TIP3    H128099   5.569   4.432   2.898
 9386TIP3    H228100   5.575   4.412   2.748
 9387TIP3   OH228101   4.879   0.301   5.323
 9387TIP3    H128102   4.948   0.339   5.376
 9387TIP3    H228103   4.845   0.228   5.375
 9388TIP3   OH228104   2.845   5.403   2.048
 9388TIP3    H128105   2.780   5.452   1.997
 9388TIP3    H228106   2.795   5.333   2.090
 9389TIP3   OH228107   7.324   1.325   4.741
 9389TIP3    H128108   7.294   1.403   4.695
 9389TIP3    H228109   7.272   1.323   4.822
 9390TIP3   OH228110   2.277   3.330   2.174
 9390TIP3    H128111   2.306   3.414   2.138
 9390TIP3    H228112   2.292   3.339   2.268
 9391TIP3   OH228113   1.904   5.963   6.457
 9391TIP3    H128114   1.857   5.916   6.526
 9391TIP3    H228115   1.983   5.910   6.442
 9392TIP3   OH228116   2.622   2.200   0.769
 9392TIP3    H128117   2.672   2.163   0.842
 9392TIP3    H228118   2.585   2.281   0.804
 9393TIP3   OH228119   0.490   4.025   0.197
 9393TIP3    H128120   0.471   4.074   0.276
 9393TIP3    H228121   0.560   4.074   0.154
 9394TIP3   OH228122   6.379   0.431   1.555
 9394TIP3    H128123   6.438   0.433   1.480
 9394TIP3    H228124   6.403   0.352   1.603
 9395TIP3   OH228125   2.022   2.235   4.232
 9395TIP3    H128126   2.021   2.141   4.249
 9395TIP3    H228127   2.061   2.273   4.310
 9396TIP3   OH228128   1.900   5.127   3.508
 9396TIP3    H128129   1.951   5.135   3.428
 9396TIP3    H228130   1.957   5.079   3.569
 9397TIP3   OH228131   6.047   5.330   6.528
 9397TIP3    H128132   6.106   5.389   6.482
 9397TIP3    H228133   6.006   5.385   6.595
 9398TIP3   OH228134   0.427   7.440   4.585
 9398TIP3    H128135   0.425   7.424   4.679
 9398TIP3    H228136   0.462   7.529   4.577
 9399TIP3   OH228137   5.222   0.633   1.489
 9399TIP3    H128138   5.201   0.657   1.398
 9399TIP3    H228139   5.250   0.542   1.483
 9400TIP3   OH228140   5.650   1.475   1.964
 9400TIP3    H128141   5.562   1.479   1.927
 9400TIP3    H228142   5.707   1.504   1.893
 9401TIP3   OH228143   2.624   5.262   6.660
 9401TIP3    H128144   2.597   5.330   6.598
 9401TIP3    H228145   2.544   5.242   6.709
 9402TIP3   OH228146   7.011   4.947   4.378
 9402TIP3    H128147   6.934   4.908   4.420
 9402TIP3    H228148   7.053   4.998   4.447
 9403TIP3   OH228149   3.945   1.954   3.622
 9403TIP3    H128150   4.031   1.977   3.656
 9403TIP3    H228151   3.962   1.909   3.539
 9404TIP3   OH228152   0.852   3.169   0.125
 9404TIP3    H128153   0.848   3.227   0.049
 9404TIP3    H228154   0.840   3.228   0.200
 9405TIP3   OH228155   7.384   1.497   0.685
 9405TIP3    H128156   7.301   1.538   0.706
 9405TIP3    H228157   7.362   1.425   0.627
 9406TIP3   OH228158   0.281   2.240   5.262
 9406TIP3    H128159   0.260   2.333   5.272
 9406TIP3    H228160   0.208   2.194   5.303
 9407TIP3   OH228161   5.254   6.827   6.471
 9407TIP3    H128162   5.292   6.741   6.453
 9407TIP3    H228163   5.160   6.816   6.455
 9408TIP3   OH228164   7.985   1.543   2.468
 9408TIP3    H128165   8.002   1.463   2.420
 9408TIP3    H228166   8.063   1.597   2.454
 9409TIP3   OH228167   6.514   3.309   3.183
 9409TIP3    H128168   6.465   3.228   3.172
 9409TIP3    H228169   6.557   3.300   3.268
 9410TIP3   OH228170   7.436   4.834   1.430
 9410TIP3    H128171   7.512   4.853   1.375
 9410TIP3    H228172   7.449   4.887   1.509
 9411TIP3   OH228173   2.099   0.207   0.016
 9411TIP3    H128174   2.081   0.288   0.065
 9411TIP3    H228175   2.144   0.151   0.078
 9412TIP3   OH228176   6.079   2.019   1.697
 9412TIP3    H128177   6.130   1.972   1.630
 9412TIP3    H228178   6.128   2.005   1.778
 9413TIP3   OH228179   6.831   6.406   4.207
 9413TIP3    H128180   6.920   6.425   4.238
 9413TIP3    H228181   6.828   6.443   4.119
 9414TIP3   OH228182   7.243   5.915   6.409
 9414TIP3    H128183   7.166   5.962   6.442
 9414TIP3    H228184   7.226   5.905   6.316
 9415TIP3   OH228185   0.350   4.014   4.897
 9415TIP3    H128186   0.257   4.033   4.894
 9415TIP3    H228187   0.360   3.937   4.841
 9416TIP3   OH228188   6.205   4.739   0.903
 9416TIP3    H128189   6.175   4.662   0.951
 9416TIP3    H228190   6.299   4.741   0.915
 9417TIP3   OH228191   2.953   0.506   2.199
 9417TIP3    H128192   2.924   0.462   2.278
 9417TIP3    H228193   2.888   0.482   2.133
 9418TIP3   OH228194   2.804   3.061   2.709
 9418TIP3    H128195   2.840   3.010   2.636
 9418TIP3    H228196   2.735   3.005   2.745
 9419TIP3   OH228197   4.720   3.913   4.871
 9419TIP3    H128198   4.661   3.981   4.839
 9419TIP3    H228199   4.806   3.954   4.871
 9420TIP3   OH228200   7.681   2.232   4.796
 9420TIP3    H128201   7.616   2.292   4.834
 9420TIP3    H228202   7.736   2.288   4.742
 9421TIP3   OH228203   6.753   7.403   2.908
 9421TIP3    H128204   6.661   7.416   2.931
 9421TIP3    H228205   6.799   7.473   2.954
 9422TIP3   OH228206   5.927   4.705   0.120
 9422TIP3    H128207   6.005   4.675   0.165
 9422TIP3    H228208   5.883   4.625   0.092
 9423TIP3   OH228209   6.686   4.943   4.999
 9423TIP3    H128210   6.645   4.921   4.916
 9423TIP3    H228211   6.619   4.925   5.065
 9424TIP3   OH228212   8.006   4.091   4.259
 9424TIP3    H128213   8.066   4.122   4.192
 9424TIP3    H228214   7.972   4.008   4.224
 9425TIP3   OH228215   2.685   6.219   3.927
 9425TIP3    H128216   2.704   6.261   3.844
 9425TIP3    H228217   2.717   6.280   3.994
 9426TIP3   OH228218   3.217   3.772   6.361
 9426TIP3    H128219   3.256   3.759   6.275
 9426TIP3    H228220   3.174   3.858   6.356
 9427TIP3   OH228221   4.643   5.571   4.746
 9427TIP3    H128222   4.727   5.526   4.751
 9427TIP3    H228223   4.578   5.500   4.748
 9428TIP3   OH228224   2.722   0.600   2.903
 9428TIP3    H128225   2.715   0.511   2.938
 9428TIP3    H228226   2.667   0.652   2.960
 9429TIP3   OH228227   0.985   5.494   5.152
 9429TIP3    H128228   1.066   5.445   5.162
 9429TIP3    H228229   0.945   5.459   5.072
 9430TIP3   OH228230   2.146   6.503   1.542
 9430TIP3    H128231   2.225   6.466   1.502
 9430TIP3    H228232   2.074   6.461   1.495
 9431TIP3   OH228233   6.628   7.851   4.473
 9431TIP3    H128234   6.697   7.805   4.522
 9431TIP3    H228235   6.548   7.802   4.494
 9432TIP3   OH228236   0.134   3.024   4.412
 9432TIP3    H128237   0.171   2.945   4.371
 9432TIP3    H228238   0.207   3.086   4.415
 9433TIP3   OH228239   5.127   0.690   5.768
 9433TIP3    H128240   5.177   0.752   5.821
 9433TIP3    H228241   5.044   0.680   5.815
 9434TIP3   OH228242   5.943   6.134   4.296
 9434TIP3    H128243   5.882   6.069   4.261
 9434TIP3    H228244   6.023   6.121   4.246
 9435TIP3   OH228245   7.882   3.819   5.719
 9435TIP3    H128246   7.937   3.860   5.786
 9435TIP3    H228247   7.861   3.733   5.755
 9436TIP3   OH228248   5.232   4.380   2.779
 9436TIP3    H128249   5.256   4.301   2.732
 9436TIP3    H228250   5.140   4.394   2.757
 9437TIP3   OH228251   7.348   7.719   4.836
 9437TIP3    H128252   7.296   7.798   4.850
 9437TIP3    H228253   7.377   7.725   4.745
 9438TIP3   OH228254   7.375   4.310   5.944
 9438TIP3    H128255   7.358   4.285   5.853
 9438TIP3    H228256   7.460   4.270   5.963
 9439TIP3   OH228257   5.722   2.071   2.312
 9439TIP3    H128258   5.785   2.107   2.374
 9439TIP3    H228259   5.647   2.131   2.317
 9440TIP3   OH228260   0.207   5.678   4.932
 9440TIP3    H128261   0.248   5.601   4.972
 9440TIP3    H228262   0.237   5.752   4.985
 9441TIP3   OH228263   0.696   6.321   1.838
 9441TIP3    H128264   0.616   6.284   1.800
 9441TIP3    H228265   0.722   6.389   1.776
 9442TIP3   OH228266   4.855   1.155   6.333
 9442TIP3    H128267   4.821   1.201   6.256
 9442TIP3    H228268   4.950   1.161   6.325
 9443TIP3   OH228269   4.144   3.609   4.985
 9443TIP3    H128270   4.171   3.585   5.074
 9443TIP3    H228271   4.074   3.673   4.998
 9444TIP3   OH228272   3.854   5.790   1.278
 9444TIP3    H128273   3.858   5.878   1.314
 9444TIP3    H228274   3.928   5.786   1.217
 9445TIP3   OH228275   6.705   1.215   5.551
 9445TIP3    H128276   6.772   1.274   5.584
 9445TIP3    H228277   6.626   1.268   5.547
 9446TIP3   OH228278   0.600   7.478   3.255
 9446TIP3    H128279   0.605   7.572   3.273
 9446TIP3    H228280   0.506   7.458   3.256
 9447TIP3   OH228281   2.524   3.394   1.012
 9447TIP3    H128282   2.487   3.479   0.989
 9447TIP3    H228283   2.583   3.373   0.940
 9448TIP3   OH228284   3.768   4.245   0.357
 9448TIP3    H128285   3.707   4.221   0.288
 9448TIP3    H228286   3.779   4.165   0.408
 9449TIP3   OH228287   3.805   6.986   2.305
 9449TIP3    H128288   3.783   6.986   2.398
 9449TIP3    H228289   3.829   7.076   2.285
 9450TIP3   OH228290   0.242   6.499   4.300
 9450TIP3    H128291   0.228   6.444   4.377
 9450TIP3    H228292   0.153   6.522   4.271
 9451TIP3   OH228293   4.562   7.487   6.639
 9451TIP3    H128294   4.608   7.510   6.720
 9451TIP3    H228295   4.489   7.432   6.667
 9452TIP3   OH228296   5.902   6.235   3.343
 9452TIP3    H128297   5.945   6.273   3.420
 9452TIP3    H228298   5.917   6.141   3.352
 9453TIP3   OH228299   4.844   5.170   3.068
 9453TIP3    H128300   4.798   5.140   3.146
 9453TIP3    H228301   4.880   5.091   3.029
 9454TIP3   OH228302   4.060   0.664   5.621
 9454TIP3    H128303   4.039   0.740   5.566
 9454TIP3    H228304   4.146   0.683   5.657
 9455TIP3   OH228305   0.535   6.116   2.404
 9455TIP3    H128306   0.449   6.076   2.417
 9455TIP3    H228307   0.576   6.063   2.335
 9456TIP3   OH228308   5.039   3.473   4.989
 9456TIP3    H128309   5.129   3.504   4.981
 9456TIP3    H228310   5.010   3.461   4.898
 9457TIP3   OH228311   1.493   3.816   1.001
 9457TIP3    H128312   1.440   3.819   0.921
 9457TIP3    H228313   1.476   3.729   1.038
 9458TIP3   OH228314   2.870   3.176   6.386
 9458TIP3    H128315   2.866   3.267   6.357
 9458TIP3    H228316   2.797   3.133   6.342
 9459TIP3   OH228317   0.134   2.442   6.309
 9459TIP3    H128318   0.211   2.391   6.336
 9459TIP3    H228319   0.152   2.466   6.218
 9460TIP3   OH228320   1.015   2.790   1.565
 9460TIP3    H128321   0.993   2.882   1.546
 9460TIP3    H228322   0.969   2.740   1.497
 9461TIP3   OH228323   1.359   6.993   5.879
 9461TIP3    H128324   1.407   7.072   5.904
 9461TIP3    H228325   1.375   6.932   5.952
 9462TIP3   OH228326   7.135   6.121   3.821
 9462TIP3    H128327   7.164   6.210   3.840
 9462TIP3    H228328   7.079   6.097   3.895
 9463TIP3   OH228329   4.448   4.879   6.084
 9463TIP3    H128330   4.531   4.867   6.037
 9463TIP3    H228331   4.475   4.894   6.175
 9464TIP3   OH228332   1.968   0.485   0.397
 9464TIP3    H128333   1.981   0.399   0.437
 9464TIP3    H228334   2.055   0.525   0.398
 9465TIP3   OH228335   5.431   6.499   4.030
 9465TIP3    H128336   5.407   6.567   3.967
 9465TIP3    H228337   5.366   6.429   4.015
 9466TIP3   OH228338   0.450   4.448   3.253
 9466TIP3    H128339   0.428   4.538   3.277
 9466TIP3    H228340   0.367   4.409   3.226
 9467TIP3   OH228341   7.934   7.277   6.328
 9467TIP3    H128342   7.932   7.372   6.334
 9467TIP3    H228343   7.986   7.259   6.250
 9468TIP3   OH228344   6.757   0.863   6.493
 9468TIP3    H128345   6.728   0.913   6.569
 9468TIP3    H228346   6.687   0.801   6.476
 9469TIP3   OH228347   4.190   0.849   1.800
 9469TIP3    H128348   4.188   0.757   1.774
 9469TIP3    H228349   4.126   0.855   1.871
 9470TIP3   OH228350   3.003   5.094   2.338
 9470TIP3    H128351   2.988   5.091   2.244
 9470TIP3    H228352   3.080   5.150   2.348
 9471TIP3   OH228353   3.635   5.202   0.409
 9471TIP3    H128354   3.720   5.245   0.417
 9471TIP3    H228355   3.584   5.235   0.483
 9472TIP3   OH228356   7.028   6.744   1.426
 9472TIP3    H128357   7.005   6.694   1.348
 9472TIP3    H228358   7.122   6.732   1.435
 9473TIP3   OH228359   7.427   6.775   6.716
 9473TIP3    H128360   7.336   6.804   6.710
 9473TIP3    H228361   7.458   6.772   6.625
 9474TIP3   OH228362   1.009   2.892   3.739
 9474TIP3    H128363   1.054   2.812   3.767
 9474TIP3    H228364   1.019   2.894   3.644
 9475TIP3   OH228365   7.715   6.873   4.487
 9475TIP3    H128366   7.788   6.934   4.478
 9475TIP3    H228367   7.731   6.807   4.419
 9476TIP3   OH228368   0.107   1.971   0.400
 9476TIP3    H128369   0.066   1.887   0.378
 9476TIP3    H228370   0.034   2.032   0.406
 9477TIP3   OH228371   6.996   1.398   3.688
 9477TIP3    H128372   6.999   1.478   3.740
 9477TIP3    H228373   6.916   1.404   3.637
 9478TIP3   OH228374   2.262   1.894   0.337
 9478TIP3    H128375   2.245   1.923   0.426
 9478TIP3    H228376   2.351   1.859   0.339
 9479TIP3   OH228377   5.199   2.968   6.667
 9479TIP3    H128378   5.227   3.059   6.658
 9479TIP3    H228379   5.123   2.972   6.726
 9480TIP3   OH228380   2.694   0.595   1.788
 9480TIP3    H128381   2.665   0.616   1.699
 9480TIP3    H228382   2.785   0.568   1.777
 9481TIP3   OH228383   1.600   4.483   1.177
 9481TIP3    H128384   1.618   4.460   1.086
 9481TIP3    H228385   1.655   4.424   1.228
 9482TIP3   OH228386   3.933   4.336   6.117
 9482TIP3    H128387   3.898   4.248   6.104
 9482TIP3    H228388   3.986   4.330   6.197
 9483TIP3   OH228389   2.442   5.595   2.750
 9483TIP3    H128390   2.446   5.578   2.844
 9483TIP3    H228391   2.452   5.509   2.710
 9484TIP3   OH228392   3.650   0.778   6.805
 9484TIP3    H128393   3.586   0.793   6.874
 9484TIP3    H228394   3.720   0.840   6.823
 9485TIP3   OH228395   2.269   4.735   2.866
 9485TIP3    H128396   2.238   4.760   2.779
 9485TIP3    H228397   2.243   4.643   2.875
 9486TIP3   OH228398   1.313   2.674   2.893
 9486TIP3    H128399   1.373   2.720   2.952
 9486TIP3    H228400   1.341   2.702   2.805
 9487TIP3   OH228401   3.637   1.728   2.041
 9487TIP3    H128402   3.619   1.692   2.128
 9487TIP3    H228403   3.595   1.668   1.981
 9488TIP3   OH228404   3.671   0.939   6.542
 9488TIP3    H128405   3.681   0.873   6.611
 9488TIP3    H228406   3.578   0.964   6.547
 9489TIP3   OH228407   1.882   7.340   4.526
 9489TIP3    H128408   1.790   7.364   4.542
 9489TIP3    H228409   1.902   7.276   4.594
 9490TIP3   OH228410   6.974   5.001   6.330
 9490TIP3    H128411   7.067   4.984   6.340
 9490TIP3    H228412   6.931   4.929   6.375
 9491TIP3   OH228413   2.806   5.903   2.284
 9491TIP3    H128414   2.870   5.851   2.235
 9491TIP3    H228415   2.726   5.897   2.231
 9492TIP3   OH228416   0.308   1.710   0.464
 9492TIP3    H128417   0.217   1.726   0.440
 9492TIP3    H228418   0.351   1.795   0.453
 9493TIP3   OH228419   0.669   0.500   3.591
 9493TIP3    H128420   0.758   0.523   3.617
 9493TIP3    H228421   0.671   0.404   3.582
 9494TIP3   OH228422   4.470   2.963   5.468
 9494TIP3    H128423   4.381   2.984   5.440
 9494TIP3    H228424   4.466   2.964   5.563
 9495TIP3   OH228425   2.910   4.918   1.095
 9495TIP3    H128426   2.829   4.877   1.064
 9495TIP3    H228427   2.968   4.914   1.019
 9496TIP3   OH228428   4.880   3.680   5.119
 9496TIP3    H128429   4.934   3.621   5.067
 9496TIP3    H228430   4.930   3.693   5.200
 9497TIP3   OH228431   2.302   0.673   6.249
 9497TIP3    H128432   2.255   0.667   6.166
 9497TIP3    H228433   2.247   0.624   6.311
 9498TIP3   OH228434   2.321   1.036   0.563
 9498TIP3    H128435   2.253   0.980   0.601
 9498TIP3    H228436   2.336   1.103   0.630
 9499TIP3   OH228437   2.842   4.458   0.948
 9499TIP3    H128438   2.811   4.448   0.858
 9499TIP3    H228439   2.926   4.503   0.940
 9500TIP3   OH228440   4.824   0.853   6.508
 9500TIP3    H128441   4.784   0.769   6.534
 9500TIP3    H228442   4.916   0.832   6.494
 9501TIP3   OH228443   3.576   4.331   2.467
 9501TIP3    H128444   3.634   4.386   2.520
 9501TIP3    H228445   3.589   4.362   2.377
 9502TIP3   OH228446   8.103   1.513   0.097
 9502TIP3    H128447   8.037   1.566   0.052
 9502TIP3    H228448   8.133   1.567   0.170
 9503TIP3   OH228449   0.316   0.354   3.868
 9503TIP3    H128450   0.334   0.408   3.791
 9503TIP3    H228451   0.329   0.413   3.942
 9504TIP3   OH228452   8.086   1.199   0.384
 9504TIP3    H128453   8.154   1.139   0.355
 9504TIP3    H228454   8.130   1.284   0.390
 9505TIP3   OH228455   7.478   1.979   4.511
 9505TIP3    H128456   7.520   1.937   4.586
 9505TIP3    H228457   7.527   1.946   4.435
 9506TIP3   OH228458   2.490   5.477   0.873
 9506TIP3    H128459   2.454   5.566   0.871
 9506TIP3    H228460   2.487   5.448   0.782
 9507TIP3   OH228461   7.899   7.037   6.510
 9507TIP3    H128462   7.957   6.986   6.454
 9507TIP3    H228463   7.929   7.127   6.499
 9508TIP3   OH228464   4.838   6.658   1.313
 9508TIP3    H128465   4.885   6.587   1.357
 9508TIP3    H228466   4.796   6.707   1.384
 9509TIP3   OH228467   7.474   3.553   6.208
 9509TIP3    H128468   7.483   3.649   6.205
 9509TIP3    H228469   7.405   3.538   6.272
 9510TIP3   OH228470   5.558   2.315   5.290
 9510TIP3    H128471   5.501   2.253   5.245
 9510TIP3    H228472   5.551   2.395   5.237
 9511TIP3   OH228473   0.428   5.335   1.716
 9511TIP3    H128474   0.344   5.299   1.685
 9511TIP3    H228475   0.421   5.429   1.700
 9512TIP3   OH228476   3.782   3.378   1.907
 9512TIP3    H128477   3.819   3.416   1.987
 9512TIP3    H228478   3.691   3.409   1.907
 9513TIP3   OH228479   1.113   7.844   0.493
 9513TIP3    H128480   1.156   7.870   0.412
 9513TIP3    H228481   1.184   7.837   0.556
 9514TIP3   OH228482   6.538   5.755   1.648
 9514TIP3    H128483   6.508   5.822   1.710
 9514TIP3    H228484   6.499   5.674   1.680
 9515TIP3   OH228485   3.431   3.238   0.447
 9515TIP3    H128486   3.496   3.238   0.517
 9515TIP3    H228487   3.361   3.182   0.479
 9516TIP3   OH228488   6.069   7.686   1.951
 9516TIP3    H128489   6.015   7.765   1.949
 9516TIP3    H228490   6.151   7.714   1.992
 9517TIP3   OH228491   6.401   3.056   3.137
 9517TIP3    H128492   6.414   2.964   3.163
 9517TIP3    H228493   6.306   3.068   3.140
 9518TIP3   OH228494   4.166   6.745   4.157
 9518TIP3    H128495   4.159   6.702   4.243
 9518TIP3    H228496   4.197   6.833   4.177
 9519TIP3   OH228497   6.115   5.145   1.824
 9519TIP3    H128498   6.145   5.172   1.910
 9519TIP3    H228499   6.115   5.049   1.827
 9520TIP3   OH228500   2.276   3.880   5.711
 9520TIP3    H128501   2.314   3.964   5.739
 9520TIP3    H228502   2.265   3.831   5.792
 9521TIP3   OH228503   3.498   1.176   0.063
 9521TIP3    H128504   3.573   1.235   0.071
 9521TIP3    H228505   3.535   1.093   0.033
 9522TIP3   OH228506   5.958   0.057   4.845
 9522TIP3    H128507   5.880   0.003   4.852
 9522TIP3    H228508   5.970   0.071   4.751
 9523TIP3   OH228509   1.854   2.151   3.031
 9523TIP3    H128510   1.864   2.231   2.979
 9523TIP3    H228511   1.923   2.093   2.999
 9524TIP3   OH228512   4.102   7.610   0.591
 9524TIP3    H128513   4.078   7.662   0.514
 9524TIP3    H228514   4.152   7.670   0.646
 9525TIP3   OH228515   0.124   5.212   6.097
 9525TIP3    H128516   0.030   5.216   6.081
 9525TIP3    H228517   0.151   5.304   6.106
 9526TIP3   OH228518   7.233   0.031   1.507
 9526TIP3    H128519   7.252  -0.040   1.569
 9526TIP3    H228520   7.310   0.035   1.451
 9527TIP3   OH228521   2.911   0.234   0.814
 9527TIP3    H128522   2.958   0.227   0.897
 9527TIP3    H228523   2.822   0.207   0.835
 9528TIP3   OH228524   2.397   6.927   5.990
 9528TIP3    H128525   2.316   6.972   6.014
 9528TIP3    H228526   2.416   6.958   5.902
 9529TIP3   OH228527   0.734   6.322   2.470
 9529TIP3    H128528   0.717   6.367   2.387
 9529TIP3    H228529   0.659   6.264   2.482
 9530TIP3   OH228530   3.081   1.291   6.711
 9530TIP3    H128531   2.990   1.322   6.707
 9530TIP3    H228532   3.085   1.221   6.645
 9531TIP3   OH228533   3.177   7.523   4.731
 9531TIP3    H128534   3.161   7.575   4.810
 9531TIP3    H228535   3.203   7.437   4.764
 9532TIP3   OH228536   7.303   0.398   6.003
 9532TIP3    H128537   7.275   0.322   5.953
 9532TIP3    H228538   7.247   0.469   5.972
 9533TIP3   OH228539   4.125   3.293   4.832
 9533TIP3    H128540   4.197   3.356   4.830
 9533TIP3    H228541   4.134   3.249   4.917
 9534TIP3   OH228542   5.890   3.185   0.283
 9534TIP3    H128543   5.801   3.152   0.277
 9534TIP3    H228544   5.942   3.109   0.311
 9535TIP3   OH228545   6.889   7.844   0.521
 9535TIP3    H128546   6.929   7.879   0.441
 9535TIP3    H228547   6.818   7.789   0.490
 9536TIP3   OH228548   7.424   5.385   5.626
 9536TIP3    H128549   7.463   5.462   5.666
 9536TIP3    H228550   7.335   5.412   5.603
 9537TIP3   OH228551   2.754   7.537   6.052
 9537TIP3    H128552   2.788   7.459   6.009
 9537TIP3    H228553   2.805   7.545   6.133
 9538TIP3   OH228554   5.144   7.693   6.067
 9538TIP3    H128555   5.216   7.631   6.061
 9538TIP3    H228556   5.073   7.653   6.016
 9539TIP3   OH228557   5.375   3.745   1.977
 9539TIP3    H128558   5.309   3.813   1.974
 9539TIP3    H228559   5.421   3.759   2.060
 9540TIP3   OH228560   1.864   6.279   4.204
 9540TIP3    H128561   1.870   6.205   4.265
 9540TIP3    H228562   1.776   6.271   4.166
 9541TIP3   OH228563   2.746   1.953   4.092
 9541TIP3    H128564   2.784   1.900   4.023
 9541TIP3    H228565   2.678   2.004   4.048
 9542TIP3   OH228566   8.038   4.369   3.656
 9542TIP3    H128567   8.134   4.369   3.654
 9542TIP3    H228568   8.016   4.414   3.737
 9543TIP3   OH228569   7.028   0.255   0.175
 9543TIP3    H128570   6.956   0.201   0.209
 9543TIP3    H228571   7.013   0.258   0.081
 9544TIP3   OH228572   6.273   3.092   5.532
 9544TIP3    H128573   6.347   3.055   5.484
 9544TIP3    H228574   6.285   3.060   5.622
 9545TIP3   OH228575   5.906   5.942   3.374
 9545TIP3    H128576   5.852   5.867   3.349
 9545TIP3    H228577   5.954   5.913   3.451
 9546TIP3   OH228578   4.612   0.723   3.392
 9546TIP3    H128579   4.691   0.689   3.350
 9546TIP3    H228580   4.574   0.648   3.438
 9547TIP3   OH228581   7.897   7.501   3.597
 9547TIP3    H128582   7.968   7.460   3.548
 9547TIP3    H228583   7.870   7.576   3.543
 9548TIP3   OH228584   1.786   7.113   3.879
 9548TIP3    H128585   1.751   7.152   3.959
 9548TIP3    H228586   1.812   7.187   3.825
 9549TIP3   OH228587   1.179   1.490   3.433
 9549TIP3    H128588   1.090   1.528   3.438
 9549TIP3    H228589   1.213   1.497   3.522
 9550TIP3   OH228590   5.555   0.185   0.763
 9550TIP3    H128591   5.490   0.136   0.713
 9550TIP3    H228592   5.630   0.126   0.770
 9551TIP3   OH228593   0.595   1.307   3.303
 9551TIP3    H128594   0.541   1.386   3.296
 9551TIP3    H228595   0.684   1.339   3.316
 9552TIP3   OH228596   7.424   5.512   2.440
 9552TIP3    H128597   7.357   5.485   2.502
 9552TIP3    H228598   7.475   5.578   2.488
 9553TIP3   OH228599   3.706   6.842   2.852
 9553TIP3    H128600   3.631   6.791   2.820
 9553TIP3    H228601   3.682   6.864   2.942
 9554TIP3   OH228602   3.890   2.051   6.622
 9554TIP3    H128603   3.940   2.029   6.701
 9554TIP3    H228604   3.799   2.051   6.650
 9555TIP3   OH228605   0.877   0.889   5.732
 9555TIP3    H128606   0.959   0.937   5.744
 9555TIP3    H228607   0.814   0.933   5.789
 9556TIP3   OH228608   0.076   7.216   5.181
 9556TIP3    H128609   0.070   7.311   5.193
 9556TIP3    H228610   0.023   7.180   5.253
 9557TIP3   OH228611   6.410   7.169   4.800
 9557TIP3    H128612   6.331   7.223   4.798
 9557TIP3    H228613   6.400   7.115   4.878
 9558TIP3   OH228614   3.609   6.481   5.450
 9558TIP3    H128615   3.631   6.570   5.475
 9558TIP3    H228616   3.621   6.480   5.355
 9559TIP3   OH228617   4.286   5.394   1.181
 9559TIP3    H128618   4.209   5.344   1.209
 9559TIP3    H228619   4.318   5.348   1.104
 9560TIP3   OH228620   7.281   4.503   4.889
 9560TIP3    H128621   7.215   4.454   4.938
 9560TIP3    H228622   7.363   4.486   4.936
 9561TIP3   OH228623   1.922   6.969   5.240
 9561TIP3    H128624   1.878   6.917   5.172
 9561TIP3    H228625   1.887   6.936   5.322
 9562TIP3   OH228626   2.824   3.329   2.717
 9562TIP3    H128627   2.919   3.324   2.702
 9562TIP3    H228628   2.791   3.244   2.688
 9563TIP3   OH228629   2.107   1.260   3.311
 9563TIP3    H128630   2.098   1.184   3.369
 9563TIP3    H228631   2.189   1.244   3.264
 9564TIP3   OH228632   8.145   4.589   6.099
 9564TIP3    H128633   8.138   4.525   6.029
 9564TIP3    H228634   8.073   4.650   6.082
 9565TIP3   OH228635   1.277   0.787   1.697
 9565TIP3    H128636   1.311   0.721   1.758
 9565TIP3    H228637   1.355   0.825   1.658
 9566TIP3   OH228638   5.028   7.818   5.687
 9566TIP3    H128639   5.002   7.910   5.689
 9566TIP3    H228640   4.970   7.775   5.750
 9567TIP3   OH228641   1.849   5.426   2.103
 9567TIP3    H128642   1.825   5.477   2.025
 9567TIP3    H228643   1.838   5.486   2.176
 9568TIP3   OH228644   3.644   4.237   0.105
 9568TIP3    H128645   3.649   4.328   0.075
 9568TIP3    H228646   3.550   4.220   0.116
 9569TIP3   OH228647   1.419   0.850   0.596
 9569TIP3    H128648   1.478   0.871   0.523
 9569TIP3    H228649   1.391   0.934   0.630
 9570TIP3   OH228650   7.969   5.173   5.077
 9570TIP3    H128651   7.915   5.098   5.051
 9570TIP3    H228652   7.905   5.240   5.103
 9571TIP3   OH228653   4.726   6.471   5.603
 9571TIP3    H128654   4.772   6.514   5.675
 9571TIP3    H228655   4.795   6.446   5.542
 9572TIP3   OH228656   5.200   5.595   4.496
 9572TIP3    H128657   5.258   5.560   4.565
 9572TIP3    H228658   5.259   5.615   4.423
 9573TIP3   OH228659   0.894   4.428   5.979
 9573TIP3    H128660   0.979   4.434   5.935
 9573TIP3    H228661   0.878   4.517   6.012
 9574TIP3   OH228662   1.466   3.866   6.002
 9574TIP3    H128663   1.517   3.801   6.050
 9574TIP3    H228664   1.532   3.923   5.961
 9575TIP3   OH228665   3.270   5.641   4.203
 9575TIP3    H128666   3.184   5.607   4.177
 9575TIP3    H228667   3.332   5.593   4.149
 9576TIP3   OH228668   6.749   3.454   1.820
 9576TIP3    H128669   6.835   3.480   1.787
 9576TIP3    H228670   6.687   3.512   1.775
 9577TIP3   OH228671   4.162   3.912   5.565
 9577TIP3    H128672   4.242   3.906   5.513
 9577TIP3    H228673   4.100   3.958   5.507
 9578TIP3   OH228674   0.231   7.208   6.277
 9578TIP3    H128675   0.287   7.280   6.247
 9578TIP3    H228676   0.142   7.242   6.266
 9579TIP3   OH228677   0.400   3.044   1.807
 9579TIP3    H128678   0.413   3.084   1.894
 9579TIP3    H228679   0.458   2.969   1.807
 9580TIP3   OH228680   1.846   3.275   5.203
 9580TIP3    H128681   1.930   3.263   5.159
 9580TIP3    H228682   1.823   3.366   5.187
 9581TIP3   OH228683   1.884   0.837   5.086
 9581TIP3    H128684   1.821   0.884   5.140
 9581TIP3    H228685   1.832   0.769   5.043
 9582TIP3   OH228686   0.932   1.680   3.135
 9582TIP3    H128687   0.917   1.739   3.061
 9582TIP3    H228688   1.003   1.623   3.107
 9583TIP3   OH228689   2.582   3.783   5.526
 9583TIP3    H128690   2.606   3.703   5.573
 9583TIP3    H228691   2.554   3.844   5.595
 9584TIP3   OH228692   7.831   6.254   3.872
 9584TIP3    H128693   7.880   6.302   3.806
 9584TIP3    H228694   7.856   6.162   3.859
 9585TIP3   OH228695   2.635   4.746   6.814
 9585TIP3    H128696   2.659   4.677   6.876
 9585TIP3    H228697   2.582   4.807   6.866
 9586TIP3   OH228698   6.762   5.921   1.547
 9586TIP3    H128699   6.704   5.864   1.597
 9586TIP3    H228700   6.847   5.877   1.548
 9587TIP3   OH228701   5.959   6.973   0.392
 9587TIP3    H128702   6.032   6.959   0.331
 9587TIP3    H228703   5.913   7.050   0.358
 9588TIP3   OH228704   7.256   3.730   5.054
 9588TIP3    H128705   7.264   3.661   4.989
 9588TIP3    H228706   7.276   3.686   5.137
 9589TIP3   OH228707   2.815   7.164   1.382
 9589TIP3    H128708   2.829   7.167   1.287
 9589TIP3    H228709   2.842   7.250   1.413
 9590TIP3   OH228710   1.719   1.644   1.706
 9590TIP3    H128711   1.737   1.652   1.613
 9590TIP3    H228712   1.685   1.729   1.732
 9591TIP3   OH228713   4.750   0.466   2.728
 9591TIP3    H128714   4.795   0.507   2.802
 9591TIP3    H228715   4.666   0.512   2.722
 9592TIP3   OH228716   2.765   3.844   6.707
 9592TIP3    H128717   2.860   3.854   6.707
 9592TIP3    H228718   2.735   3.895   6.782
 9593TIP3   OH228719   6.579   3.909   3.913
 9593TIP3    H128720   6.492   3.871   3.902
 9593TIP3    H228721   6.625   3.891   3.831
 9594TIP3   OH228722   6.487   2.588   2.819
 9594TIP3    H128723   6.542   2.612   2.744
 9594TIP3    H228724   6.546   2.588   2.894
 9595TIP3   OH228725   0.194   4.469   0.819
 9595TIP3    H128726   0.176   4.562   0.805
 9595TIP3    H228727   0.116   4.425   0.784
 9596TIP3   OH228728   1.083   3.471   1.036
 9596TIP3    H128729   1.051   3.540   0.977
 9596TIP3    H228730   1.014   3.463   1.102
 9597TIP3   OH228731   0.581   7.259   0.877
 9597TIP3    H128732   0.574   7.286   0.785
 9597TIP3    H228733   0.513   7.193   0.888
 9598TIP3   OH228734   2.164   1.671   0.230
 9598TIP3    H128735   2.114   1.693   0.309
 9598TIP3    H228736   2.244   1.722   0.237
 9599TIP3   OH228737   0.567   2.243   6.676
 9599TIP3    H128738   0.503   2.173   6.689
 9599TIP3    H228739   0.623   2.240   6.754
 9600TIP3   OH228740   5.040   6.522   3.481
 9600TIP3    H128741   4.964   6.558   3.435
 9600TIP3    H228742   5.020   6.429   3.490
 9601TIP3   OH228743   3.509   2.462   1.736
 9601TIP3    H128744   3.577   2.417   1.686
 9601TIP3    H228745   3.512   2.420   1.822
 9602TIP3   OH228746   3.949   3.029   6.153
 9602TIP3    H128747   4.021   3.057   6.209
 9602TIP3    H228748   3.991   2.997   6.073
 9603TIP3   OH228749   2.118   5.160   1.389
 9603TIP3    H128750   2.175   5.188   1.461
 9603TIP3    H228751   2.031   5.187   1.416
 9604TIP3   OH228752   7.866   4.941   4.970
 9604TIP3    H128753   7.857   4.943   4.874
 9604TIP3    H228754   7.839   4.852   4.994
 9605TIP3   OH228755   8.223   5.257   1.756
 9605TIP3    H128756   8.175   5.175   1.771
 9605TIP3    H228757   8.177   5.300   1.685
 9606TIP3   OH228758   2.991   7.108   2.149
 9606TIP3    H128759   3.078   7.099   2.187
 9606TIP3    H228760   2.978   7.028   2.099
 9607TIP3   OH228761   5.000   4.094   5.265
 9607TIP3    H128762   5.072   4.031   5.260
 9607TIP3    H228763   4.993   4.114   5.358
 9608TIP3   OH228764   4.293   6.694   5.939
 9608TIP3    H128765   4.313   6.786   5.955
 9608TIP3    H228766   4.286   6.655   6.026
 9609TIP3   OH228767   6.163   0.158   3.745
 9609TIP3    H128768   6.129   0.243   3.774
 9609TIP3    H228769   6.239   0.180   3.692
 9610TIP3   OH228770   3.053   4.891   5.705
 9610TIP3    H128771   3.085   4.925   5.789
 9610TIP3    H228772   3.097   4.945   5.639
 9611TIP3   OH228773   5.018   7.577   2.615
 9611TIP3    H128774   5.079   7.521   2.662
 9611TIP3    H228775   4.938   7.577   2.669
 9612TIP3   OH228776   6.252   2.197   0.866
 9612TIP3    H128777   6.318   2.264   0.884
 9612TIP3    H228778   6.276   2.124   0.923
 9613TIP3   OH228779   5.367   3.877   6.488
 9613TIP3    H128780   5.296   3.819   6.461
 9613TIP3    H228781   5.364   3.949   6.425
 9614TIP3   OH228782   1.457   7.672   6.698
 9614TIP3    H128783   1.433   7.580   6.707
 9614TIP3    H228784   1.438   7.693   6.607
 9615TIP3   OH228785   5.290   2.648   1.582
 9615TIP3    H128786   5.202   2.611   1.578
 9615TIP3    H228787   5.277   2.741   1.598
 9616TIP3   OH228788   1.542   5.273   1.418
 9616TIP3    H128789   1.501   5.242   1.338
 9616TIP3    H228790   1.470   5.310   1.469
 9617TIP3   OH228791   2.608   4.696   6.089
 9617TIP3    H128792   2.560   4.637   6.032
 9617TIP3    H228793   2.660   4.750   6.029
 9618TIP3   OH228794   4.081   4.247   0.554
 9618TIP3    H128795   4.126   4.163   0.546
 9618TIP3    H228796   4.001   4.236   0.502
 9619TIP3   OH228797   7.899   3.415   5.833
 9619TIP3    H128798   7.828   3.469   5.869
 9619TIP3    H228799   7.857   3.332   5.812
 9620TIP3   OH228800   5.964   7.549   3.897
 9620TIP3    H128801   5.984   7.461   3.927
 9620TIP3    H228802   5.934   7.537   3.807
 9621TIP3   OH228803   3.665   6.801   0.170
 9621TIP3    H128804   3.712   6.789   0.088
 9621TIP3    H228805   3.716   6.867   0.218
 9622TIP3   OH228806   5.352   5.578   5.089
 9622TIP3    H128807   5.447   5.568   5.090
 9622TIP3    H228808   5.332   5.604   4.999
 9623TIP3   OH228809   4.583   2.822   1.695
 9623TIP3    H128810   4.555   2.803   1.785
 9623TIP3    H228811   4.503   2.849   1.650
 9624TIP3   OH228812   2.193   4.433   3.843
 9624TIP3    H128813   2.151   4.374   3.907
 9624TIP3    H228814   2.258   4.481   3.894
 9625TIP3   OH228815   6.570   6.051   3.864
 9625TIP3    H128816   6.492   6.087   3.824
 9625TIP3    H228817   6.638   6.117   3.849
 9626TIP3   OH228818   6.993   2.757   0.523
 9626TIP3    H128819   6.980   2.717   0.437
 9626TIP3    H228820   7.013   2.848   0.504
 9627TIP3   OH228821   0.207   7.649   3.646
 9627TIP3    H128822   0.201   7.560   3.682
 9627TIP3    H228823   0.199   7.637   3.551
 9628TIP3   OH228824   4.893   1.799   6.554
 9628TIP3    H128825   4.876   1.808   6.648
 9628TIP3    H228826   4.980   1.838   6.542
 9629TIP3   OH228827   6.792   4.820   5.428
 9629TIP3    H128828   6.857   4.784   5.489
 9629TIP3    H228829   6.844   4.847   5.352
 9630TIP3   OH228830   8.164   6.701   2.306
 9630TIP3    H128831   8.179   6.734   2.217
 9630TIP3    H228832   8.242   6.727   2.355
 9631TIP3   OH228833   1.519   6.006   2.798
 9631TIP3    H128834   1.584   5.973   2.860
 9631TIP3    H228835   1.453   6.048   2.852
 9632TIP3   OH228836   2.294   1.975   1.849
 9632TIP3    H128837   2.286   1.935   1.762
 9632TIP3    H228838   2.317   2.066   1.831
 9633TIP3   OH228839   0.053   0.103   5.495
 9633TIP3    H128840   0.029   0.015   5.467
 9633TIP3    H228841   0.010   0.161   5.433
 9634TIP3   OH228842   5.296   6.120   3.070
 9634TIP3    H128843   5.205   6.114   3.098
 9634TIP3    H228844   5.340   6.165   3.142
 9635TIP3   OH228845   4.780   6.156   0.480
 9635TIP3    H128846   4.819   6.193   0.559
 9635TIP3    H228847   4.850   6.104   0.441
 9636TIP3   OH228848   5.403   6.364   6.169
 9636TIP3    H128849   5.497   6.347   6.172
 9636TIP3    H228850   5.363   6.278   6.159
 9637TIP3   OH228851   3.576   2.085   0.445
 9637TIP3    H128852   3.553   2.177   0.442
 9637TIP3    H228853   3.641   2.073   0.376
 9638TIP3   OH228854   3.443   4.763   6.799
 9638TIP3    H128855   3.387   4.809   6.736
 9638TIP3    H228856   3.527   4.808   6.794
 9639TIP3   OH228857   1.823   1.287   0.704
 9639TIP3    H128858   1.889   1.337   0.656
 9639TIP3    H228859   1.873   1.236   0.768
 9640TIP3   OH228860   1.654   3.884   1.645
 9640TIP3    H128861   1.602   3.855   1.570
 9640TIP3    H228862   1.592   3.887   1.717
 9641TIP3   OH228863   7.912   7.156   2.803
 9641TIP3    H128864   7.818   7.170   2.819
 9641TIP3    H228865   7.932   7.215   2.730
 9642TIP3   OH228866   1.735   6.937   1.793
 9642TIP3    H128867   1.764   6.959   1.705
 9642TIP3    H228868   1.768   6.849   1.808
 9643TIP3   OH228869   7.185   4.863   0.269
 9643TIP3    H128870   7.217   4.952   0.261
 9643TIP3    H228871   7.155   4.855   0.360
 9644TIP3   OH228872   4.689   0.748   0.876
 9644TIP3    H128873   4.644   0.664   0.872
 9644TIP3    H228874   4.684   0.782   0.787
 9645TIP3   OH228875   5.530   7.115   2.696
 9645TIP3    H128876   5.538   7.119   2.600
 9645TIP3    H228877   5.497   7.201   2.721
 9646TIP3   OH228878   4.145   4.259   5.838
 9646TIP3    H128879   4.118   4.194   5.903
 9646TIP3    H228880   4.091   4.241   5.761
 9647TIP3   OH228881   8.392   0.839   0.492
 9647TIP3    H128882   8.323   0.795   0.442
 9647TIP3    H228883   8.474   0.805   0.455
 9648TIP3   OH228884   0.716   5.026   0.884
 9648TIP3    H128885   0.723   5.072   0.968
 9648TIP3    H228886   0.793   4.970   0.881
 9649TIP3   OH228887   2.286   6.897   1.197
 9649TIP3    H128888   2.308   6.811   1.234
 9649TIP3    H228889   2.257   6.877   1.108
 9650TIP3   OH228890   3.211   2.138   3.857
 9650TIP3    H128891   3.259   2.221   3.853
 9650TIP3    H228892   3.196   2.123   3.950
 9651TIP3   OH228893   1.673   4.999   5.139
 9651TIP3    H128894   1.669   5.083   5.094
 9651TIP3    H228895   1.581   4.974   5.150
 9652TIP3   OH228896   6.187   4.879   6.087
 9652TIP3    H128897   6.116   4.830   6.046
 9652TIP3    H228898   6.241   4.813   6.130
 9653TIP3   OH228899   5.446   3.392   5.319
 9653TIP3    H128900   5.412   3.405   5.230
 9653TIP3    H228901   5.373   3.355   5.368
 9654TIP3   OH228902   1.419   5.097   6.604
 9654TIP3    H128903   1.389   5.057   6.685
 9654TIP3    H228904   1.467   5.175   6.632
 9655TIP3   OH228905   2.134   5.478   4.728
 9655TIP3    H128906   2.149   5.388   4.757
 9655TIP3    H228907   2.046   5.499   4.761
 9656TIP3   OH228908   2.996   3.043   0.714
 9656TIP3    H128909   3.071   3.010   0.664
 9656TIP3    H228910   3.035   3.092   0.786
 9657TIP3   OH228911   6.308   6.965   3.174
 9657TIP3    H128912   6.372   7.024   3.213
 9657TIP3    H228913   6.225   6.989   3.214
 9658TIP3   OH228914   5.338   3.013   0.937
 9658TIP3    H128915   5.356   2.933   0.888
 9658TIP3    H228916   5.419   3.063   0.931
 9659TIP3   OH228917   7.195   7.158   5.221
 9659TIP3    H128918   7.137   7.084   5.238
 9659TIP3    H228919   7.205   7.160   5.126
 9660TIP3   OH228920   0.450   6.837   3.456
 9660TIP3    H128921   0.514   6.795   3.514
 9660TIP3    H228922   0.402   6.764   3.417
 9661TIP3   OH228923   1.768   7.679   1.572
 9661TIP3    H128924   1.837   7.744   1.564
 9661TIP3    H228925   1.808   7.609   1.624
 9662TIP3   OH228926   6.648   7.466   3.596
 9662TIP3    H128927   6.671   7.559   3.600
 9662TIP3    H228928   6.725   7.420   3.629
 9663TIP3   OH228929   4.971   2.134   1.995
 9663TIP3    H128930   4.966   2.196   2.068
 9663TIP3    H228931   4.935   2.053   2.029
 9664TIP3   OH228932   4.793   2.137   6.369
 9664TIP3    H128933   4.820   2.167   6.282
 9664TIP3    H228934   4.697   2.137   6.366
 9665TIP3   OH228935   1.615   1.508   5.567
 9665TIP3    H128936   1.586   1.592   5.603
 9665TIP3    H228937   1.687   1.531   5.508
 9666TIP3   OH228938   7.765   7.276   5.341
 9666TIP3    H128939   7.749   7.316   5.426
 9666TIP3    H228940   7.792   7.348   5.285
 9667TIP3   OH228941   4.916   3.489   0.946
 9667TIP3    H128942   4.952   3.540   1.020
 9667TIP3    H228943   4.992   3.445   0.908
 9668TIP3   OH228944   7.624   0.666   6.344
 9668TIP3    H128945   7.709   0.687   6.305
 9668TIP3    H228946   7.573   0.630   6.271
 9669TIP3   OH228947   3.125   2.772   0.135
 9669TIP3    H128948   3.070   2.823   0.075
 9669TIP3    H228949   3.179   2.717   0.078
 9670TIP3   OH228950   6.056   5.647   2.035
 9670TIP3    H128951   6.020   5.586   2.100
 9670TIP3    H228952   6.005   5.631   1.956
 9671TIP3   OH228953   0.617   5.600   1.792
 9671TIP3    H128954   0.652   5.578   1.705
 9671TIP3    H228955   0.558   5.674   1.777
 9672TIP3   OH228956   7.048   0.257   4.747
 9672TIP3    H128957   7.081   0.245   4.657
 9672TIP3    H228958   6.953   0.255   4.737
 9673TIP3   OH228959   1.894   3.568   6.173
 9673TIP3    H128960   1.820   3.512   6.150
 9673TIP3    H228961   1.935   3.525   6.247
 9674TIP3   OH228962   3.536   1.955   4.084
 9674TIP3    H128963   3.498   1.935   4.170
 9674TIP3    H228964   3.530   1.872   4.036
 9675TIP3   OH228965   1.319   7.549   5.105
 9675TIP3    H128966   1.225   7.543   5.119
 9675TIP3    H228967   1.335   7.642   5.089
 9676TIP3   OH228968   4.136   0.566   2.665
 9676TIP3    H128969   4.208   0.597   2.720
 9676TIP3    H228970   4.160   0.594   2.576
 9677TIP3   OH228971   0.407   3.416   0.536
 9677TIP3    H128972   0.342   3.482   0.559
 9677TIP3    H228973   0.440   3.384   0.620
 9678TIP3   OH228974   6.761   7.446   6.118
 9678TIP3    H128975   6.735   7.365   6.162
 9678TIP3    H228976   6.770   7.510   6.188
 9679TIP3   OH228977   6.750   0.491   6.650
 9679TIP3    H128978   6.735   0.528   6.737
 9679TIP3    H228979   6.672   0.439   6.633
 9680TIP3   OH228980   1.514   3.413   2.402
 9680TIP3    H128981   1.483   3.408   2.312
 9680TIP3    H228982   1.518   3.321   2.431
 9681TIP3   OH228983   7.912   2.570   2.583
 9681TIP3    H128984   7.818   2.559   2.597
 9681TIP3    H228985   7.949   2.567   2.671
 9682TIP3   OH228986   1.979   4.199   3.293
 9682TIP3    H128987   2.000   4.272   3.235
 9682TIP3    H228988   2.061   4.178   3.337
 9683TIP3   OH228989   0.759   7.141   4.049
 9683TIP3    H128990   0.695   7.213   4.054
 9683TIP3    H228991   0.734   7.094   3.970
 9684TIP3   OH228992   2.438   0.730   5.888
 9684TIP3    H128993   2.489   0.793   5.837
 9684TIP3    H228994   2.481   0.727   5.974
 9685TIP3   OH228995   7.731   1.267   0.058
 9685TIP3    H128996   7.709   1.205  -0.012
 9685TIP3    H228997   7.654   1.323   0.065
 9686TIP3   OH228998   3.892   4.026   4.333
 9686TIP3    H128999   3.913   4.040   4.425
 9686TIP3    H229000   3.809   3.978   4.334
 9687TIP3   OH229001   1.599   5.480   5.811
 9687TIP3    H129002   1.511   5.449   5.835
 9687TIP3    H229003   1.590   5.574   5.801
 9688TIP3   OH229004   1.445   1.575   1.362
 9688TIP3    H129005   1.489   1.659   1.376
 9688TIP3    H229006   1.410   1.552   1.448
 9689TIP3   OH229007   8.026   7.903   2.915
 9689TIP3    H129008   8.041   7.832   2.852
 9689TIP3    H229009   8.100   7.962   2.901
 9690TIP3   OH229010   2.160   6.908   0.942
 9690TIP3    H129011   2.169   6.839   0.876
 9690TIP3    H229012   2.092   6.966   0.908
 9691TIP3   OH229013   2.969   4.853   0.547
 9691TIP3    H129014   2.877   4.865   0.573
 9691TIP3    H229015   3.006   4.941   0.548
 9692TIP3   OH229016   4.934   5.413   6.362
 9692TIP3    H129017   5.005   5.471   6.388
 9692TIP3    H229018   4.888   5.393   6.443
 9693TIP3   OH229019   3.552   4.828   1.498
 9693TIP3    H129020   3.472   4.865   1.462
 9693TIP3    H229021   3.539   4.829   1.593
 9694TIP3   OH229022   5.413   0.303   5.584
 9694TIP3    H129023   5.488   0.354   5.615
 9694TIP3    H229024   5.435   0.212   5.607
 9695TIP3   OH229025   3.772   6.561   3.546
 9695TIP3    H129026   3.778   6.551   3.641
 9695TIP3    H229027   3.702   6.501   3.520
 9696TIP3   OH229028   5.791   7.922   6.048
 9696TIP3    H129029   5.872   7.972   6.058
 9696TIP3    H229030   5.816   7.831   6.063
 9697TIP3   OH229031   5.960   3.320   3.452
 9697TIP3    H129032   5.993   3.409   3.442
 9697TIP3    H229033   5.907   3.323   3.532
 9698TIP3   OH229034   3.476   4.203   2.019
 9698TIP3    H129035   3.561   4.180   2.056
 9698TIP3    H229036   3.467   4.297   2.038
 9699TIP3   OH229037   1.322   3.757   0.767
 9699TIP3    H129038   1.244   3.714   0.801
 9699TIP3    H229039   1.313   3.752   0.672
 9700TIP3   OH229040   3.012   2.044   4.927
 9700TIP3    H129041   3.014   2.019   5.019
 9700TIP3    H229042   2.936   1.998   4.891
 9701TIP3   OH229043   4.333   6.146   0.649
 9701TIP3    H129044   4.368   6.231   0.676
 9701TIP3    H229045   4.305   6.105   0.731
 9702TIP3   OH229046   3.824   3.456   4.039
 9702TIP3    H129047   3.877   3.522   4.084
 9702TIP3    H229048   3.812   3.490   3.950
 9703TIP3   OH229049   7.361   5.033   4.836
 9703TIP3    H129050   7.421   5.049   4.908
 9703TIP3    H229051   7.306   5.112   4.833
 9704TIP3   OH229052   2.924   0.073   5.631
 9704TIP3    H129053   2.892   0.150   5.678
 9704TIP3    H229054   2.977   0.026   5.695
 9705TIP3   OH229055   2.050   6.970   1.309
 9705TIP3    H129056   2.129   6.965   1.255
 9705TIP3    H229057   2.082   6.978   1.399
 9706TIP3   OH229058   1.806   7.542   1.078
 9706TIP3    H129059   1.882   7.494   1.111
 9706TIP3    H229060   1.776   7.593   1.154
 9707TIP3   OH229061   7.136   6.275   4.242
 9707TIP3    H129062   7.165   6.362   4.217
 9707TIP3    H229063   7.215   6.230   4.271
 9708TIP3   OH229064   5.419   3.040   4.940
 9708TIP3    H129065   5.506   3.055   4.978
 9708TIP3    H229066   5.379   2.973   4.996
 9709TIP3   OH229067   0.264   3.002   4.064
 9709TIP3    H129068   0.344   3.006   4.012
 9709TIP3    H229069   0.265   2.914   4.102
 9710TIP3   OH229070   8.183   4.609   3.339
 9710TIP3    H129071   8.239   4.597   3.415
 9710TIP3    H229072   8.152   4.699   3.345
 9711TIP3   OH229073   5.019   3.472   4.684
 9711TIP3    H129074   4.961   3.405   4.647
 9711TIP3    H229075   5.094   3.423   4.718
 9712TIP3   OH229076   8.109   1.929   5.502
 9712TIP3    H129077   8.117   1.850   5.449
 9712TIP3    H229078   8.182   1.984   5.474
 9713TIP3   OH229079   7.036   1.461   6.233
 9713TIP3    H129080   6.957   1.476   6.181
 9713TIP3    H229081   7.007   1.402   6.303
 9714TIP3   OH229082   8.005   5.815   2.203
 9714TIP3    H129083   8.050   5.850   2.126
 9714TIP3    H229084   8.051   5.733   2.222
 9715TIP3   OH229085   0.435   5.445   4.394
 9715TIP3    H129086   0.386   5.511   4.443
 9715TIP3    H229087   0.379   5.425   4.318
 9716TIP3   OH229088   4.783   4.748   1.039
 9716TIP3    H129089   4.708   4.759   0.981
 9716TIP3    H229090   4.805   4.837   1.067
 9717TIP3   OH229091   1.664   3.534   2.101
 9717TIP3    H129092   1.637   3.539   2.010
 9717TIP3    H229093   1.690   3.442   2.114
 9718TIP3   OH229094   2.688   0.618   2.587
 9718TIP3    H129095   2.758   0.683   2.581
 9718TIP3    H229096   2.692   0.587   2.677
 9719TIP3   OH229097   0.198   2.446   3.805
 9719TIP3    H129098   0.277   2.399   3.777
 9719TIP3    H229099   0.165   2.486   3.725
 9720TIP3   OH229100   4.443   0.002   0.903
 9720TIP3    H129101   4.412   0.079   0.951
 9720TIP3    H229102   4.537  -0.003   0.924
 9721TIP3   OH229103   7.556   2.520   3.916
 9721TIP3    H129104   7.639   2.510   3.869
 9721TIP3    H229105   7.580   2.528   4.008
 9722TIP3   OH229106   2.890   3.605   5.325
 9722TIP3    H129107   2.933   3.614   5.241
 9722TIP3    H229108   2.857   3.693   5.345
 9723TIP3   OH229109   1.825   7.520   3.223
 9723TIP3    H129110   1.840   7.607   3.186
 9723TIP3    H229111   1.873   7.461   3.166
 9724TIP3   OH229112   4.324   3.881   4.028
 9724TIP3    H129113   4.303   3.836   4.110
 9724TIP3    H229114   4.411   3.918   4.043
 9725TIP3   OH229115   7.223   2.952   5.559
 9725TIP3    H129116   7.276   2.909   5.491
 9725TIP3    H229117   7.184   2.879   5.607
 9726TIP3   OH229118   4.954   1.538   1.558
 9726TIP3    H129119   4.864   1.542   1.526
 9726TIP3    H229120   5.002   1.601   1.505
 9727TIP3   OH229121   7.558   5.261   6.730
 9727TIP3    H129122   7.543   5.233   6.820
 9727TIP3    H229123   7.503   5.339   6.720
 9728TIP3   OH229124   5.582   2.899   0.566
 9728TIP3    H129125   5.571   2.805   0.550
 9728TIP3    H229126   5.628   2.931   0.488
 9729TIP3   OH229127   1.025   3.813   4.070
 9729TIP3    H129128   0.954   3.869   4.039
 9729TIP3    H229129   1.090   3.874   4.104
 9730TIP3   OH229130   0.677   7.828   1.525
 9730TIP3    H129131   0.700   7.739   1.550
 9730TIP3    H229132   0.606   7.819   1.463
 9731TIP3   OH229133   7.706   6.326   2.349
 9731TIP3    H129134   7.712   6.254   2.285
 9731TIP3    H229135   7.751   6.293   2.426
 9732TIP3   OH229136  -0.038   3.421   5.592
 9732TIP3    H129137   0.056   3.407   5.581
 9732TIP3    H229138  -0.051   3.513   5.569
 9733TIP3   OH229139   4.500   4.533   3.598
 9733TIP3    H129140   4.511   4.444   3.632
 9733TIP3    H229141   4.461   4.521   3.511
 9734TIP3   OH229142   0.468   0.375   2.060
 9734TIP3    H129143   0.492   0.283   2.060
 9734TIP3    H229144   0.434   0.391   1.972
 9735TIP3   OH229145   3.307   6.940   2.333
 9735TIP3    H129146   3.311   6.846   2.355
 9735TIP3    H229147   3.255   6.943   2.253
 9736TIP3   OH229148   0.500  -0.005   1.752
 9736TIP3    H129149   0.509   0.070   1.693
 9736TIP3    H229150   0.576  -0.060   1.734
 9737TIP3   OH229151   0.842   2.351   5.312
 9737TIP3    H129152   0.901   2.411   5.357
 9737TIP3    H229153   0.812   2.291   5.381
 9738TIP3   OH229154   3.200   6.437   2.186
 9738TIP3    H129155   3.251   6.491   2.125
 9738TIP3    H229156   3.219   6.474   2.272
 9739TIP3   OH229157   4.459   4.809   2.957
 9739TIP3    H129158   4.452   4.888   2.903
 9739TIP3    H229159   4.550   4.806   2.984
 9740TIP3   OH229160   2.693   2.424   4.371
 9740TIP3    H129161   2.708   2.399   4.463
 9740TIP3    H229162   2.619   2.370   4.343
 9741TIP3   OH229163   2.338   5.888   1.934
 9741TIP3    H129164   2.402   5.940   1.884
 9741TIP3    H229165   2.382   5.806   1.953
 9742TIP3   OH229166   0.615   3.574   0.048
 9742TIP3    H129167   0.579   3.586   0.136
 9742TIP3    H229168   0.616   3.662   0.011
 9743TIP3   OH229169   0.676   5.611   0.736
 9743TIP3    H129170   0.761   5.646   0.711
 9743TIP3    H229171   0.633   5.590   0.653
 9744TIP3   OH229172   2.756   5.965   6.697
 9744TIP3    H129173   2.778   5.889   6.643
 9744TIP3    H229174   2.705   6.021   6.639
 9745TIP3   OH229175   3.712   4.280   6.545
 9745TIP3    H129176   3.645   4.215   6.568
 9745TIP3    H229177   3.705   4.346   6.614
 9746TIP3   OH229178   5.058   2.431   1.241
 9746TIP3    H129179   5.120   2.398   1.307
 9746TIP3    H229180   4.993   2.478   1.292
 9747TIP3   OH229181   3.395   0.356   4.672
 9747TIP3    H129182   3.453   0.414   4.720
 9747TIP3    H229183   3.413   0.269   4.707
 9748TIP3   OH229184   6.902   4.355   6.706
 9748TIP3    H129185   6.891   4.410   6.628
 9748TIP3    H229186   6.932   4.271   6.673
 9749TIP3   OH229187   4.845   2.783   0.574
 9749TIP3    H129188   4.897   2.786   0.494
 9749TIP3    H229189   4.889   2.719   0.630
 9750TIP3   OH229190   5.460   1.144   6.132
 9750TIP3    H129191   5.475   1.095   6.213
 9750TIP3    H229192   5.394   1.093   6.085
 9751TIP3   OH229193   4.644   7.027   4.520
 9751TIP3    H129194   4.572   7.091   4.520
 9751TIP3    H229195   4.632   6.978   4.601
 9752TIP3   OH229196   1.353   6.133   1.817
 9752TIP3    H129197   1.344   6.149   1.911
 9752TIP3    H229198   1.300   6.055   1.800
 9753TIP3   OH229199   5.472   7.877   3.220
 9753TIP3    H129200   5.505   7.954   3.265
 9753TIP3    H229201   5.393   7.907   3.175
 9754TIP3   OH229202   1.410   4.753   2.187
 9754TIP3    H129203   1.323   4.786   2.210
 9754TIP3    H229204   1.402   4.658   2.192
 9755TIP3   OH229205   6.354   3.238   6.452
 9755TIP3    H129206   6.432   3.284   6.481
 9755TIP3    H229207   6.343   3.264   6.361
 9756TIP3   OH229208   7.557   7.000   5.907
 9756TIP3    H129209   7.484   7.049   5.870
 9756TIP3    H229210   7.625   7.066   5.922
 9757TIP3   OH229211   4.444   7.519   2.007
 9757TIP3    H129212   4.514   7.579   2.029
 9757TIP3    H229213   4.370   7.575   1.985
 9758TIP3   OH229214   0.398   2.060   4.026
 9758TIP3    H129215   0.345   2.038   3.950
 9758TIP3    H229216   0.447   2.138   3.999
 9759TIP3   OH229217   5.107   0.570   2.058
 9759TIP3    H129218   5.056   0.563   2.138
 9759TIP3    H229219   5.089   0.658   2.025
 9760TIP3   OH229220   1.253   2.512   4.409
 9760TIP3    H129221   1.218   2.427   4.435
 9760TIP3    H229222   1.231   2.520   4.316
 9761TIP3   OH229223   5.915   4.630   2.150
 9761TIP3    H129224   5.851   4.563   2.173
 9761TIP3    H229225   5.885   4.664   2.066
 9762TIP3   OH229226   0.323   7.883   6.540
 9762TIP3    H129227   0.316   7.814   6.473
 9762TIP3    H229228   0.349   7.836   6.620
 9763TIP3   OH229229   7.932   0.739   0.326
 9763TIP3    H129230   7.929   0.831   0.300
 9763TIP3    H229231   7.844   0.705   0.307
 9764TIP3   OH229232   0.793   3.615   1.888
 9764TIP3    H129233   0.720   3.677   1.892
 9764TIP3    H229234   0.782   3.559   1.964
 9765TIP3   OH229235   0.383   1.334   5.616
 9765TIP3    H129236   0.316   1.328   5.549
 9765TIP3    H229237   0.442   1.403   5.585
 9766TIP3   OH229238   0.949   2.931   3.213
 9766TIP3    H129239   0.909   3.014   3.240
 9766TIP3    H229240   1.035   2.956   3.177
 9767TIP3   OH229241   0.697   7.399   4.626
 9767TIP3    H129242   0.621   7.405   4.569
 9767TIP3    H229243   0.697   7.308   4.656
 9768TIP3   OH229244   4.897   7.360   2.808
 9768TIP3    H129245   4.880   7.286   2.749
 9768TIP3    H229246   4.841   7.430   2.775
 9769TIP3   OH229247   6.975   2.062   0.144
 9769TIP3    H129248   6.933   2.112   0.214
 9769TIP3    H229249   7.056   2.110   0.126
 9770TIP3   OH229250   5.443   4.777   5.465
 9770TIP3    H129251   5.351   4.761   5.484
 9770TIP3    H229252   5.458   4.867   5.492
 9771TIP3   OH229253   3.289   6.157   0.515
 9771TIP3    H129254   3.254   6.105   0.588
 9771TIP3    H229255   3.360   6.208   0.555
 9772TIP3   OH229256   6.919   0.535   3.775
 9772TIP3    H129257   6.982   0.523   3.705
 9772TIP3    H229258   6.853   0.594   3.738
 9773TIP3   OH229259   4.883   5.326   0.785
 9773TIP3    H129260   4.834   5.398   0.825
 9773TIP3    H229261   4.821   5.284   0.727
 9774TIP3   OH229262   7.142   5.408   4.454
 9774TIP3    H129263   7.199   5.470   4.409
 9774TIP3    H229264   7.195   5.329   4.463
 9775TIP3   OH229265   7.090   5.904   3.644
 9775TIP3    H129266   7.007   5.857   3.650
 9775TIP3    H229267   7.087   5.967   3.717
 9776TIP3   OH229268   5.095   1.972   6.263
 9776TIP3    H129269   5.175   2.024   6.251
 9776TIP3    H229270   5.024   2.031   6.237
 9777TIP3   OH229271   2.662   2.265   4.601
 9777TIP3    H129272   2.579   2.281   4.645
 9777TIP3    H229273   2.659   2.173   4.575
 9778TIP3   OH229274   5.513   2.254   2.025
 9778TIP3    H129275   5.566   2.327   2.057
 9778TIP3    H229276   5.546   2.178   2.073
 9779TIP3   OH229277   1.424   7.398   1.586
 9779TIP3    H129278   1.345   7.374   1.634
 9779TIP3    H229279   1.406   7.370   1.496
 9780TIP3   OH229280   0.572   1.030   6.315
 9780TIP3    H129281   0.573   1.125   6.328
 9780TIP3    H229282   0.584   0.994   6.403
 9781TIP3   OH229283   5.530   7.025   3.004
 9781TIP3    H129284   5.584   7.091   3.047
 9781TIP3    H229285   5.442   7.063   3.001
 9782TIP3   OH229286   8.353   2.242   5.425
 9782TIP3    H129287   8.432   2.193   5.448
 9782TIP3    H229288   8.372   2.278   5.338
 9783TIP3   OH229289   3.271   7.256   4.800
 9783TIP3    H129290   3.261   7.233   4.892
 9783TIP3    H229291   3.338   7.196   4.767
 9784TIP3   OH229292   7.910   6.143   4.838
 9784TIP3    H129293   7.979   6.195   4.879
 9784TIP3    H229294   7.834   6.155   4.895
 9785TIP3   OH229295   0.868   4.807   4.533
 9785TIP3    H129296   0.774   4.824   4.530
 9785TIP3    H229297   0.877   4.723   4.578
 9786TIP3   OH229298   4.967   3.357   2.304
 9786TIP3    H129299   4.945   3.300   2.231
 9786TIP3    H229300   4.996   3.439   2.262
 9787TIP3   OH229301   0.113   1.168   6.030
 9787TIP3    H129302   0.153   1.121   5.957
 9787TIP3    H229303   0.171   1.151   6.104
 9788TIP3   OH229304   1.950   4.828   2.430
 9788TIP3    H129305   1.891   4.870   2.492
 9788TIP3    H229306   1.992   4.900   2.384
 9789TIP3   OH229307   0.096   2.114   4.681
 9789TIP3    H129308   0.178   2.069   4.700
 9789TIP3    H229309   0.052   2.057   4.618
 9790TIP3   OH229310   0.985   5.848   0.287
 9790TIP3    H129311   1.036   5.826   0.365
 9790TIP3    H229312   0.912   5.901   0.321
 9791TIP3   OH229313   4.002   3.839   0.067
 9791TIP3    H129314   3.943   3.772   0.100
 9791TIP3    H229315   3.946   3.915   0.053
 9792TIP3   OH229316   4.876   1.573   2.453
 9792TIP3    H129317   4.888   1.522   2.373
 9792TIP3    H229318   4.963   1.574   2.495
 9793TIP3   OH229319   8.388   2.709   1.409
 9793TIP3    H129320   8.410   2.786   1.357
 9793TIP3    H229321   8.332   2.742   1.479
 9794TIP3   OH229322   0.374   5.081   2.466
 9794TIP3    H129323   0.422   5.162   2.479
 9794TIP3    H229324   0.332   5.091   2.380
 9795TIP3   OH229325   5.597   3.651   2.534
 9795TIP3    H129326   5.540   3.728   2.540
 9795TIP3    H229327   5.537   3.577   2.524
 9796TIP3   OH229328   1.581   6.448   4.262
 9796TIP3    H129329   1.649   6.515   4.260
 9796TIP3    H229330   1.580   6.412   4.173
 9797TIP3   OH229331   7.263   3.493   6.379
 9797TIP3    H129332   7.248   3.583   6.407
 9797TIP3    H229333   7.182   3.447   6.401
 9798TIP3   OH229334   4.974   5.546   2.366
 9798TIP3    H129335   5.060   5.570   2.401
 9798TIP3    H229336   4.932   5.497   2.437
 9799TIP3   OH229337  -0.032   2.234   3.102
 9799TIP3    H129338   0.046   2.179   3.109
 9799TIP3    H229339  -0.052   2.257   3.193
 9800TIP3   OH229340   7.227   4.031   6.223
 9800TIP3    H129341   7.242   3.937   6.209
 9800TIP3    H229342   7.314   4.069   6.227
 9801TIP3   OH229343   4.130   6.674   0.429
 9801TIP3    H129344   4.038   6.680   0.456
 9801TIP3    H229345   4.170   6.618   0.495
 9802TIP3   OH229346   2.080   4.719   1.368
 9802TIP3    H129347   2.033   4.740   1.287
 9802TIP3    H229348   2.032   4.645   1.405
 9803TIP3   OH229349   4.348   2.676   3.362
 9803TIP3    H129350   4.433   2.655   3.401
 9803TIP3    H229351   4.297   2.713   3.434
 9804TIP3   OH229352   3.669   1.685   1.715
 9804TIP3    H129353   3.673   1.661   1.622
 9804TIP3    H229354   3.594   1.635   1.749
 9805TIP3   OH229355   6.985   2.999   5.969
 9805TIP3    H129356   7.062   3.000   6.026
 9805TIP3    H229357   6.922   2.942   6.014
 9806TIP3   OH229358   6.319   4.532   6.003
 9806TIP3    H129359   6.243   4.504   6.053
 9806TIP3    H229360   6.283   4.583   5.931
 9807TIP3   OH229361   3.479   4.019   0.697
 9807TIP3    H129362   3.417   4.068   0.752
 9807TIP3    H229363   3.423   3.964   0.642
 9808TIP3   OH229364   0.428   3.165   0.348
 9808TIP3    H129365   0.479   3.227   0.400
 9808TIP3    H229366   0.348   3.212   0.326
 9809TIP3   OH229367   1.551   4.484   3.580
 9809TIP3    H129368   1.645   4.468   3.577
 9809TIP3    H229369   1.523   4.448   3.665
 9810TIP3   OH229370   4.643   3.670   0.044
 9810TIP3    H129371   4.627   3.737   0.111
 9810TIP3    H229372   4.693   3.603   0.090
 9811TIP3   OH229373   2.502   4.647   5.354
 9811TIP3    H129374   2.455   4.564   5.347
 9811TIP3    H229375   2.542   4.659   5.268
 9812TIP3   OH229376   5.373   6.383   1.311
 9812TIP3    H129377   5.281   6.409   1.309
 9812TIP3    H229378   5.411   6.434   1.383
 9813TIP3   OH229379   4.616   4.332   6.827
 9813TIP3    H129380   4.669   4.396   6.780
 9813TIP3    H229381   4.630   4.250   6.780
 9814TIP3   OH229382   3.568   3.499   3.211
 9814TIP3    H129383   3.497   3.560   3.233
 9814TIP3    H229384   3.620   3.545   3.145
 9815TIP3   OH229385   1.336   4.698   5.381
 9815TIP3    H129386   1.379   4.776   5.416
 9815TIP3    H229387   1.249   4.698   5.421
 9816TIP3   OH229388   5.239   1.248   2.788
 9816TIP3    H129389   5.274   1.160   2.778
 9816TIP3    H229390   5.190   1.264   2.708
 9817TIP3   OH229391   2.720   7.672   2.677
 9817TIP3    H129392   2.673   7.652   2.757
 9817TIP3    H229393   2.724   7.768   2.675
 9818TIP3   OH229394   5.813   0.754   1.886
 9818TIP3    H129395   5.775   0.667   1.896
 9818TIP3    H229396   5.738   0.813   1.883
 9819TIP3   OH229397   5.352   6.223   3.798
 9819TIP3    H129398   5.301   6.285   3.745
 9819TIP3    H229399   5.327   6.244   3.888
 9820TIP3   OH229400   0.311   0.692   5.552
 9820TIP3    H129401   0.303   0.650   5.466
 9820TIP3    H229402   0.390   0.654   5.589
 9821TIP3   OH229403   2.971   4.938   3.784
 9821TIP3    H129404   2.969   4.997   3.709
 9821TIP3    H229405   2.925   4.860   3.754
 9822TIP3   OH229406   2.955   1.783   1.395
 9822TIP3    H129407   2.977   1.690   1.383
 9822TIP3    H229408   2.978   1.824   1.312
 9823TIP3   OH229409   7.663   3.525   3.087
 9823TIP3    H129410   7.604   3.592   3.121
 9823TIP3    H229411   7.613   3.444   3.092
 9824TIP3   OH229412   0.957   0.904   6.506
 9824TIP3    H129413   0.945   0.943   6.593
 9824TIP3    H229414   1.047   0.873   6.506
 9825TIP3   OH229415   8.091   4.284   0.575
 9825TIP3    H129416   8.080   4.277   0.670
 9825TIP3    H229417   8.129   4.201   0.548
 9826TIP3   OH229418   1.849   7.727   3.456
 9826TIP3    H129419   1.822   7.636   3.465
 9826TIP3    H229420   1.942   7.724   3.436
 9827TIP3   OH229421   6.075   4.184   5.598
 9827TIP3    H129422   6.011   4.195   5.529
 9827TIP3    H229423   6.041   4.234   5.672
 9828TIP3   OH229424   5.284   6.094   1.773
 9828TIP3    H129425   5.278   6.174   1.721
 9828TIP3    H229426   5.194   6.074   1.799
 9829TIP3   OH229427   7.197   5.257   0.542
 9829TIP3    H129428   7.186   5.340   0.495
 9829TIP3    H229429   7.138   5.265   0.618
 9830TIP3   OH229430   5.252   2.675   0.590
 9830TIP3    H129431   5.330   2.620   0.582
 9830TIP3    H229432   5.258   2.713   0.678
 9831TIP3   OH229433   1.006   4.043   5.643
 9831TIP3    H129434   1.092   4.008   5.665
 9831TIP3    H229435   0.972   3.984   5.576
 9832TIP3   OH229436   6.342   3.305   6.186
 9832TIP3    H129437   6.261   3.355   6.175
 9832TIP3    H229438   6.323   3.219   6.148
 9833TIP3   OH229439   4.259   0.856   0.440
 9833TIP3    H129440   4.333   0.918   0.440
 9833TIP3    H229441   4.298   0.773   0.411
 9834TIP3   OH229442   1.730   6.860   6.136
 9834TIP3    H129443   1.647   6.902   6.161
 9834TIP3    H229444   1.707   6.769   6.121
 9835TIP3   OH229445   7.789   2.884   4.924
 9835TIP3    H129446   7.838   2.802   4.921
 9835TIP3    H229447   7.835   2.937   4.989
 9836TIP3   OH229448   3.882   5.677   0.084
 9836TIP3    H129449   3.929   5.759   0.097
 9836TIP3    H229450   3.917   5.618   0.151
 9837TIP3   OH229451   8.368   4.675   1.469
 9837TIP3    H129452   8.349   4.616   1.396
 9837TIP3    H229453   8.305   4.746   1.459
 9838TIP3   OH229454   1.030   2.830   2.465
 9838TIP3    H129455   0.956   2.830   2.404
 9838TIP3    H229456   0.989   2.815   2.551
 9839TIP3   OH229457   8.336   0.745   2.049
 9839TIP3    H129458   8.291   0.827   2.027
 9839TIP3    H229459   8.292   0.679   1.996
 9840TIP3   OH229460   2.564   5.753   6.572
 9840TIP3    H129461   2.557   5.843   6.541
 9840TIP3    H229462   2.656   5.744   6.596
 9841TIP3   OH229463   3.917   0.521   1.777
 9841TIP3    H129464   3.917   0.568   1.861
 9841TIP3    H229465   4.010   0.505   1.759
 9842TIP3   OH229466   4.188   4.933   5.979
 9842TIP3    H129467   4.125   4.922   6.051
 9842TIP3    H229468   4.273   4.934   6.022
 9843TIP3   OH229469   7.446   3.425   5.651
 9843TIP3    H129470   7.430   3.461   5.738
 9843TIP3    H229471   7.475   3.500   5.599
 9844TIP3   OH229472  -0.012   5.758   5.709
 9844TIP3    H129473   0.049   5.700   5.755
 9844TIP3    H229474  -0.087   5.702   5.689
 9845TIP3   OH229475   4.186   0.538   5.988
 9845TIP3    H129476   4.193   0.551   6.082
 9845TIP3    H229477   4.111   0.592   5.962
 9846TIP3   OH229478   4.866   2.283   1.031
 9846TIP3    H129479   4.882   2.227   1.107
 9846TIP3    H229480   4.907   2.366   1.054
 9847TIP3   OH229481   2.043   3.830   0.876
 9847TIP3    H129482   2.047   3.835   0.972
 9847TIP3    H229483   2.056   3.737   0.857
 9848TIP3   OH229484   1.903   0.061   6.843
 9848TIP3    H129485   1.996   0.047   6.863
 9848TIP3    H229486   1.872   0.116   6.915
 9849TIP3   OH229487   8.422   7.466  -0.059
 9849TIP3    H129488   8.372   7.538  -0.020
 9849TIP3    H229489   8.430   7.490  -0.152
 9850TIP3   OH229490   2.395   5.364   1.948
 9850TIP3    H129491   2.373   5.305   1.876
 9850TIP3    H229492   2.312   5.381   1.991
 9851TIP3   OH229493   7.779   2.535   3.208
 9851TIP3    H129494   7.778   2.440   3.221
 9851TIP3    H229495   7.869   2.561   3.225
 9852TIP3   OH229496   4.543   1.855   0.433
 9852TIP3    H129497   4.520   1.766   0.405
 9852TIP3    H229498   4.459   1.901   0.436
 9853TIP3   OH229499   0.071   6.304   4.822
 9853TIP3    H129500   0.121   6.376   4.783
 9853TIP3    H229501  -0.007   6.346   4.858
 9854TIP3   OH229502   1.396   2.918   2.175
 9854TIP3    H129503   1.481   2.894   2.138
 9854TIP3    H229504   1.343   2.941   2.099
 9855TIP3   OH229505   5.562   4.670   1.891
 9855TIP3    H129506   5.534   4.590   1.847
 9855TIP3    H229507   5.494   4.687   1.956
 9856TIP3   OH229508   7.097   3.475   5.827
 9856TIP3    H129509   7.004   3.466   5.848
 9856TIP3    H229510   7.131   3.386   5.832
 9857TIP3   OH229511   3.971   6.039   0.779
 9857TIP3    H129512   3.990   6.052   0.686
 9857TIP3    H229513   3.875   6.032   0.783
 9858TIP3   OH229514   7.529   4.628   3.777
 9858TIP3    H129515   7.455   4.566   3.778
 9858TIP3    H229516   7.488   4.714   3.786
 9859TIP3   OH229517   8.224   1.582   1.780
 9859TIP3    H129518   8.193   1.570   1.870
 9859TIP3    H229519   8.219   1.495   1.741
 9860TIP3   OH229520   0.703   3.668   6.745
 9860TIP3    H129521   0.798   3.660   6.736
 9860TIP3    H229522   0.667   3.613   6.676
 9861TIP3   OH229523   2.073   1.887   2.698
 9861TIP3    H129524   2.126   1.925   2.768
 9861TIP3    H229525   2.087   1.945   2.623
 9862TIP3   OH229526   2.606   4.959   1.689
 9862TIP3    H129527   2.519   4.958   1.728
 9862TIP3    H229528   2.596   5.012   1.610
 9863TIP3   OH229529   7.630   1.123   0.314
 9863TIP3    H129530   7.655   1.154   0.227
 9863TIP3    H229531   7.540   1.091   0.303
 9864TIP3   OH229532   4.769   1.994   0.425
 9864TIP3    H129533   4.744   2.052   0.497
 9864TIP3    H229534   4.700   1.929   0.421
 9865TIP3   OH229535   7.155   5.506   3.424
 9865TIP3    H129536   7.087   5.470   3.367
 9865TIP3    H229537   7.127   5.484   3.512
 9866TIP3   OH229538   3.424   0.083   0.176
 9866TIP3    H129539   3.402   0.119   0.262
 9866TIP3    H229540   3.461  -0.003   0.195
 9867TIP3   OH229541   7.773   0.300   3.732
 9867TIP3    H129542   7.754   0.394   3.734
 9867TIP3    H229543   7.868   0.294   3.730
 9868TIP3   OH229544   7.489   4.020   0.160
 9868TIP3    H129545   7.415   4.082   0.164
 9868TIP3    H229546   7.475   3.962   0.235
 9869TIP3   OH229547   6.070   2.452   2.826
 9869TIP3    H129548   6.058   2.478   2.734
 9869TIP3    H229549   6.155   2.407   2.826
 9870TIP3   OH229550   4.284   4.738   1.896
 9870TIP3    H129551   4.287   4.743   1.992
 9870TIP3    H229552   4.228   4.663   1.877
 9871TIP3   OH229553   7.454   3.405   5.980
 9871TIP3    H129554   7.400   3.476   5.945
 9871TIP3    H229555   7.457   3.421   6.074
 9872TIP3   OH229556   2.356   7.835   2.328
 9872TIP3    H129557   2.389   7.878   2.407
 9872TIP3    H229558   2.358   7.903   2.261
 9873TIP3   OH229559   3.784   6.558   0.383
 9873TIP3    H129560   3.830   6.559   0.300
 9873TIP3    H229561   3.810   6.476   0.425
 9874TIP3   OH229562   7.539   5.978   1.198
 9874TIP3    H129563   7.485   5.990   1.276
 9874TIP3    H229564   7.629   5.987   1.231
 9875TIP3   OH229565   4.890   5.061   2.746
 9875TIP3    H129566   4.832   4.986   2.752
 9875TIP3    H229567   4.868   5.101   2.662
 9876TIP3   OH229568   4.843   6.599   4.036
 9876TIP3    H129569   4.834   6.692   4.019
 9876TIP3    H229570   4.904   6.594   4.110
 9877TIP3   OH229571   6.225   2.674   2.151
 9877TIP3    H129572   6.159   2.743   2.140
 9877TIP3    H229573   6.249   2.651   2.061
 9878TIP3   OH229574   6.657   5.661   3.844
 9878TIP3    H129575   6.630   5.657   3.936
 9878TIP3    H229576   6.581   5.699   3.799
 9879TIP3   OH229577   5.282   1.889   6.612
 9879TIP3    H129578   5.298   1.889   6.706
 9879TIP3    H229579   5.225   1.964   6.597
 9880TIP3   OH229580   3.037   2.752   2.434
 9880TIP3    H129581   3.086   2.777   2.513
 9880TIP3    H229582   2.997   2.834   2.404
 9881TIP3   OH229583   7.868   2.828   6.187
 9881TIP3    H129584   7.829   2.745   6.158
 9881TIP3    H229585   7.863   2.885   6.111
 9882TIP3   OH229586   5.253   4.119   4.686
 9882TIP3    H129587   5.246   4.139   4.593
 9882TIP3    H229588   5.231   4.026   4.692
 9883TIP3   OH229589   2.509   7.305   3.004
 9883TIP3    H129590   2.440   7.239   3.009
 9883TIP3    H229591   2.585   7.259   2.967
 9884TIP3   OH229592   7.295   6.471   6.258
 9884TIP3    H129593   7.341   6.487   6.340
 9884TIP3    H229594   7.266   6.557   6.229
 9885TIP3   OH229595   8.037   7.554   1.673
 9885TIP3    H129596   7.978   7.533   1.746
 9885TIP3    H229597   8.092   7.476   1.664
 9886TIP3   OH229598   7.300   0.930   5.058
 9886TIP3    H129599   7.209   0.952   5.039
 9886TIP3    H229600   7.349   0.969   4.985
 9887TIP3   OH229601   4.380   6.896   2.615
 9887TIP3    H129602   4.392   6.940   2.531
 9887TIP3    H229603   4.308   6.835   2.600
 9888TIP3   OH229604   6.906   4.897   5.163
 9888TIP3    H129605   6.834   4.913   5.101
 9888TIP3    H229606   6.952   4.981   5.169
 9889TIP3   OH229607   7.816   0.838   6.196
 9889TIP3    H129608   7.909   0.862   6.189
 9889TIP3    H229609   7.791   0.867   6.284
 9890TIP3   OH229610   0.359   3.561   2.136
 9890TIP3    H129611   0.388   3.601   2.054
 9890TIP3    H229612   0.357   3.467   2.117
 9891TIP3   OH229613   5.762   7.557   0.733
 9891TIP3    H129614   5.686   7.610   0.710
 9891TIP3    H229615   5.830   7.582   0.670
 9892TIP3   OH229616   5.695   1.334   4.339
 9892TIP3    H129617   5.737   1.332   4.253
 9892TIP3    H229618   5.712   1.422   4.372
 9893TIP3   OH229619   6.052   6.277   6.812
 9893TIP3    H129620   6.135   6.246   6.776
 9893TIP3    H229621   5.985   6.243   6.753
 9894TIP3   OH229622   3.351   0.254   2.014
 9894TIP3    H129623   3.444   0.272   2.020
 9894TIP3    H229624   3.310   0.309   2.081
 9895TIP3   OH229625   2.214   5.705   3.157
 9895TIP3    H129626   2.234   5.781   3.212
 9895TIP3    H229627   2.152   5.654   3.208
 9896TIP3   OH229628   1.359   4.658   2.591
 9896TIP3    H129629   1.332   4.577   2.548
 9896TIP3    H229630   1.305   4.663   2.669
 9897TIP3   OH229631   5.870   6.326   4.031
 9897TIP3    H129632   5.874   6.232   4.009
 9897TIP3    H229633   5.797   6.333   4.092
 9898TIP3   OH229634   5.066   6.945   0.439
 9898TIP3    H129635   5.126   6.963   0.366
 9898TIP3    H229636   5.109   6.874   0.488
 9899TIP3   OH229637   6.020   4.394   2.479
 9899TIP3    H129638   6.064   4.468   2.520
 9899TIP3    H229639   5.950   4.370   2.540
 9900TIP3   OH229640   3.077   6.812   2.857
 9900TIP3    H129641   3.081   6.907   2.848
 9900TIP3    H229642   3.025   6.782   2.783
 9901TIP3   OH229643   1.902   3.584   0.014
 9901TIP3    H129644   1.935   3.666  -0.023
 9901TIP3    H229645   1.980   3.541   0.049
 9902TIP3   OH229646   0.463   4.562   4.887
 9902TIP3    H129647   0.383   4.603   4.854
 9902TIP3    H229648   0.500   4.518   4.811
 9903TIP3   OH229649   2.728   5.284   0.160
 9903TIP3    H129650   2.668   5.313   0.229
 9903TIP3    H229651   2.771   5.207   0.197
 9904TIP3   OH229652   7.518   7.791   2.453
 9904TIP3    H129653   7.529   7.728   2.381
 9904TIP3    H229654   7.423   7.802   2.460
 9905TIP3   OH229655   6.125   4.965   4.975
 9905TIP3    H129656   6.033   4.941   4.989
 9905TIP3    H229657   6.151   5.010   5.055
 9906TIP3   OH229658   4.288   4.134   5.224
 9906TIP3    H129659   4.263   4.125   5.133
 9906TIP3    H229660   4.375   4.095   5.229
 9907TIP3   OH229661   7.986   2.808   4.024
 9907TIP3    H129662   8.062   2.751   4.039
 9907TIP3    H229663   7.978   2.858   4.105
 9908TIP3   OH229664   7.090   0.465   2.530
 9908TIP3    H129665   7.055   0.438   2.445
 9908TIP3    H229666   7.162   0.525   2.508
 9909TIP3   OH229667   1.978   6.951   6.676
 9909TIP3    H129668   1.885   6.971   6.667
 9909TIP3    H229669   2.023   7.024   6.633
 9910TIP3   OH229670   0.015   1.823   5.626
 9910TIP3    H129671   0.072   1.810   5.702
 9910TIP3    H229672   0.059   1.778   5.554
 9911TIP3   OH229673   3.225   0.978   6.337
 9911TIP3    H129674   3.309   0.984   6.291
 9911TIP3    H229675   3.181   0.904   6.295
 9912TIP3   OH229676   5.505   7.379   2.733
 9912TIP3    H129677   5.565   7.445   2.698
 9912TIP3    H229678   5.498   7.401   2.826
 9913TIP3   OH229679   3.044   7.236   5.374
 9913TIP3    H129680   2.998   7.195   5.448
 9913TIP3    H229681   3.134   7.205   5.381
 9914TIP3   OH229682   3.330   6.313   0.097
 9914TIP3    H129683   3.351   6.372   0.024
 9914TIP3    H229684   3.238   6.330   0.115
 9915TIP3   OH229685   0.589   7.452   5.137
 9915TIP3    H129686   0.604   7.542   5.108
 9915TIP3    H229687   0.578   7.459   5.232
 9916TIP3   OH229688   3.894   0.145   2.384
 9916TIP3    H129689   3.848   0.149   2.300
 9916TIP3    H229690   3.863   0.222   2.432
 9917TIP3   OH229691   2.634   0.138   2.836
 9917TIP3    H129692   2.677   0.220   2.858
 9917TIP3    H229693   2.680   0.107   2.757
 9918TIP3   OH229694   5.230   1.865   4.483
 9918TIP3    H129695   5.146   1.892   4.445
 9918TIP3    H229696   5.261   1.942   4.530
 9919TIP3   OH229697   2.718   3.374   5.214
 9919TIP3    H129698   2.677   3.430   5.148
 9919TIP3    H229699   2.756   3.435   5.277
 9920TIP3   OH229700   0.131   7.770   6.771
 9920TIP3    H129701   0.123   7.751   6.677
 9920TIP3    H229702   0.225   7.781   6.786
 9921TIP3   OH229703   2.034   0.836   4.527
 9921TIP3    H129704   2.074   0.891   4.595
 9921TIP3    H229705   2.042   0.888   4.447
 9922TIP3   OH229706   4.433   4.285   4.424
 9922TIP3    H129707   4.344   4.289   4.460
 9922TIP3    H229708   4.422   4.307   4.332
 9923TIP3   OH229709   6.322   1.020   2.463
 9923TIP3    H129710   6.395   0.959   2.458
 9923TIP3    H229711   6.244   0.965   2.470
 9924TIP3   OH229712   1.563   1.799   2.096
 9924TIP3    H129713   1.642   1.827   2.049
 9924TIP3    H229714   1.565   1.849   2.178
 9925TIP3   OH229715   4.631   2.560   0.751
 9925TIP3    H129716   4.707   2.608   0.783
 9925TIP3    H229717   4.597   2.515   0.827
 9926TIP3   OH229718   7.711   1.349   3.804
 9926TIP3    H129719   7.675   1.294   3.735
 9926TIP3    H229720   7.644   1.349   3.872
 9927TIP3   OH229721   5.061   5.580   4.845
 9927TIP3    H129722   5.150   5.616   4.839
 9927TIP3    H229723   5.028   5.613   4.928
 9928TIP3   OH229724   1.860   0.815   0.582
 9928TIP3    H129725   1.914   0.785   0.655
 9928TIP3    H229726   1.821   0.734   0.547
 9929TIP3   OH229727   4.193   1.229   3.724
 9929TIP3    H129728   4.125   1.257   3.784
 9929TIP3    H229729   4.220   1.310   3.679
 9930TIP3   OH229730   7.483   2.250   5.948
 9930TIP3    H129731   7.404   2.261   6.001
 9930TIP3    H229732   7.542   2.198   6.003
 9931TIP3   OH229733   8.412   6.806   1.134
 9931TIP3    H129734   8.373   6.869   1.074
 9931TIP3    H229735   8.506   6.811   1.117
 9932TIP3   OH229736   0.906   0.715   5.375
 9932TIP3    H129737   0.896   0.689   5.466
 9932TIP3    H229738   0.888   0.809   5.374
 9933TIP3   OH229739   5.125   0.534   5.079
 9933TIP3    H129740   5.111   0.448   5.040
 9933TIP3    H229741   5.189   0.577   5.022
 9934TIP3   OH229742   5.273   1.743   5.803
 9934TIP3    H129743   5.359   1.781   5.821
 9934TIP3    H229744   5.265   1.746   5.708
 9935TIP3   OH229745   0.259   3.000   3.286
 9935TIP3    H129746   0.214   3.077   3.320
 9935TIP3    H229747   0.237   2.998   3.193
 9936TIP3   OH229748   6.531   3.908   3.094
 9936TIP3    H129749   6.606   3.871   3.048
 9936TIP3    H229750   6.501   3.838   3.152
 9937TIP3   OH229751   0.345   5.725   6.109
 9937TIP3    H129752   0.327   5.816   6.085
 9937TIP3    H229753   0.398   5.691   6.037
 9938TIP3   OH229754   2.925   6.928   6.905
 9938TIP3    H129755   2.917   7.018   6.872
 9938TIP3    H229756   3.020   6.914   6.913
 9939TIP3   OH229757   7.694   6.731   5.256
 9939TIP3    H129758   7.727   6.780   5.331
 9939TIP3    H229759   7.599   6.727   5.270
 9940TIP3   OH229760   0.131   0.253   0.483
 9940TIP3    H129761   0.042   0.270   0.451
 9940TIP3    H229762   0.184   0.320   0.440
 9941TIP3   OH229763   0.990   2.570   3.750
 9941TIP3    H129764   1.007   2.518   3.672
 9941TIP3    H229765   0.907   2.614   3.732
 9942TIP3   OH229766   5.422   5.753   6.188
 9942TIP3    H129767   5.485   5.811   6.146
 9942TIP3    H229768   5.447   5.665   6.157
 9943TIP3   OH229769   3.996   6.507   2.082
 9943TIP3    H129770   4.047   6.427   2.096
 9943TIP3    H229771   4.058   6.568   2.041
 9944TIP3   OH229772   4.300   7.796   6.212
 9944TIP3    H129773   4.333   7.789   6.302
 9944TIP3    H229774   4.334   7.718   6.168
 9945TIP3   OH229775   6.493   2.224   6.888
 9945TIP3    H129776   6.444   2.156   6.935
 9945TIP3    H229777   6.560   2.176   6.840
 9946TIP3   OH229778   3.570   3.057   1.295
 9946TIP3    H129779   3.593   2.987   1.234
 9946TIP3    H229780   3.476   3.069   1.284
 9947TIP3   OH229781   3.464   5.144   3.672
 9947TIP3    H129782   3.462   5.066   3.726
 9947TIP3    H229783   3.556   5.173   3.674
 9948TIP3   OH229784   5.082   0.679   2.366
 9948TIP3    H129785   5.023   0.605   2.379
 9948TIP3    H229786   5.124   0.691   2.451
 9949TIP3   OH229787   4.544   7.239   6.311
 9949TIP3    H129788   4.599   7.179   6.361
 9949TIP3    H229789   4.541   7.319   6.364
 9950TIP3   OH229790   1.165   3.529   2.238
 9950TIP3    H129791   1.075   3.557   2.255
 9950TIP3    H229792   1.158   3.464   2.168
 9951TIP3   OH229793   3.379   2.407   0.759
 9951TIP3    H129794   3.450   2.434   0.701
 9951TIP3    H229795   3.347   2.325   0.721
 9952TIP3   OH229796   5.916   6.550   5.369
 9952TIP3    H129797   5.874   6.539   5.454
 9952TIP3    H229798   5.926   6.461   5.335
 9953TIP3   OH229799   4.619   0.930   1.058
 9953TIP3    H129800   4.647   0.870   0.989
 9953TIP3    H229801   4.539   0.891   1.093
 9954TIP3   OH229802   7.773   5.503   4.547
 9954TIP3    H129803   7.754   5.487   4.639
 9954TIP3    H229804   7.700   5.557   4.517
 9955TIP3   OH229805   5.713   3.956   3.888
 9955TIP3    H129806   5.750   3.990   3.970
 9955TIP3    H229807   5.733   4.023   3.823
 9956TIP3   OH229808   2.988   2.537   2.826
 9956TIP3    H129809   3.015   2.617   2.870
 9956TIP3    H229810   2.897   2.552   2.801
 9957TIP3   OH229811   5.039   1.424   3.176
 9957TIP3    H129812   5.124   1.467   3.179
 9957TIP3    H229813   5.059   1.332   3.161
 9958TIP3   OH229814   0.734   6.236   5.585
 9958TIP3    H129815   0.706   6.150   5.617
 9958TIP3    H229816   0.695   6.243   5.497
 9959TIP3   OH229817   2.483   3.523   4.289
 9959TIP3    H129818   2.481   3.609   4.332
 9959TIP3    H229819   2.560   3.527   4.232
 9960TIP3   OH229820   4.151   3.233   5.643
 9960TIP3    H129821   4.224   3.288   5.614
 9960TIP3    H229822   4.100   3.217   5.564
 9961TIP3   OH229823   6.589   7.001   0.919
 9961TIP3    H129824   6.645   6.931   0.884
 9961TIP3    H229825   6.567   7.054   0.842
 9962TIP3   OH229826   2.657   6.448   6.189
 9962TIP3    H129827   2.685   6.522   6.136
 9962TIP3    H229828   2.678   6.371   6.137
 9963TIP3   OH229829   4.343   3.932   5.993
 9963TIP3    H129830   4.262   3.930   5.942
 9963TIP3    H229831   4.359   3.840   6.015
 9964TIP3   OH229832   0.699   7.255   4.965
 9964TIP3    H129833   0.625   7.195   4.980
 9964TIP3    H229834   0.673   7.335   5.010
 9965TIP3   OH229835   4.112   3.171   4.246
 9965TIP3    H129836   4.159   3.095   4.212
 9965TIP3    H229837   4.078   3.142   4.331
 9966TIP3   OH229838   4.894   0.925   0.431
 9966TIP3    H129839   4.986   0.950   0.440
 9966TIP3    H229840   4.894   0.861   0.359
 9967TIP3   OH229841   4.966   7.176   2.614
 9967TIP3    H129842   5.022   7.221   2.551
 9967TIP3    H229843   5.022   7.109   2.653
 9968TIP3   OH229844   0.868   6.908   2.497
 9968TIP3    H129845   0.941   6.851   2.519
 9968TIP3    H229846   0.816   6.912   2.577
 9969TIP3   OH229847   5.343   7.733   2.790
 9969TIP3    H129848   5.282   7.685   2.733
 9969TIP3    H229849   5.387   7.793   2.731
 9970TIP3   OH229850   7.969   0.611   5.295
 9970TIP3    H129851   7.999   0.549   5.362
 9970TIP3    H229852   8.009   0.694   5.320
 9971TIP3   OH229853   0.270   2.370   2.624
 9971TIP3    H129854   0.220   2.427   2.564
 9971TIP3    H229855   0.355   2.413   2.632
 9972TIP3   OH229856   3.293   2.154   2.683
 9972TIP3    H129857   3.326   2.227   2.735
 9972TIP3    H229858   3.267   2.193   2.600
 9973TIP3   OH229859   7.098   0.495   0.258
 9973TIP3    H129860   7.134   0.536   0.179
 9973TIP3    H229861   7.057   0.414   0.226
 9974TIP3   OH229862   6.404   5.266   5.767
 9974TIP3    H129863   6.369   5.228   5.686
 9974TIP3    H229864   6.468   5.331   5.738
 9975TIP3   OH229865   6.937   1.595   2.420
 9975TIP3    H129866   6.929   1.501   2.404
 9975TIP3    H229867   7.006   1.603   2.486
 9976TIP3   OH229868   1.308   2.030   4.269
 9976TIP3    H129869   1.307   2.039   4.173
 9976TIP3    H229870   1.231   1.976   4.289
 9977TIP3   OH229871   4.507   3.771   5.768
 9977TIP3    H129872   4.590   3.766   5.721
 9977TIP3    H229873   4.532   3.780   5.860
 9978TIP3   OH229874   8.183   6.408   2.335
 9978TIP3    H129875   8.180   6.504   2.330
 9978TIP3    H229876   8.269   6.388   2.370
 9979TIP3   OH229877   6.809   2.991   0.954
 9979TIP3    H129878   6.828   2.977   0.861
 9979TIP3    H229879   6.778   2.906   0.985
 9980TIP3   OH229880   4.352   0.842   1.102
 9980TIP3    H129881   4.297   0.866   1.176
 9980TIP3    H229882   4.300   0.863   1.025
 9981TIP3   OH229883   6.430   1.068   0.232
 9981TIP3    H129884   6.415   1.015   0.310
 9981TIP3    H229885   6.342   1.096   0.205
 9982TIP3   OH229886   4.450   5.712   3.530
 9982TIP3    H129887   4.356   5.725   3.523
 9982TIP3    H229888   4.461   5.647   3.599
 9983TIP3   OH229889   0.007   6.388   1.981
 9983TIP3    H129890   0.005   6.332   1.904
 9983TIP3    H229891   0.046   6.470   1.950
 9984TIP3   OH229892   4.140   5.285   4.150
 9984TIP3    H129893   4.221   5.277   4.199
 9984TIP3    H229894   4.164   5.261   4.060
 9985TIP3   OH229895   0.493   6.969   6.253
 9985TIP3    H129896   0.554   6.940   6.184
 9985TIP3    H229897   0.414   6.918   6.238
 9986TIP3   OH229898   3.289   7.725   0.310
 9986TIP3    H129899   3.331   7.705   0.394
 9986TIP3    H229900   3.284   7.821   0.308
 9987TIP3   OH229901   4.790   0.024   5.416
 9987TIP3    H129902   4.698   0.050   5.417
 9987TIP3    H229903   4.789  -0.070   5.431
 9988TIP3   OH229904   3.059   2.519   6.459
 9988TIP3    H129905   3.113   2.515   6.537
 9988TIP3    H229906   3.068   2.609   6.428
 9989TIP3   OH229907   3.021   5.548   5.550
 9989TIP3    H129908   2.935   5.572   5.514
 9989TIP3    H229909   3.045   5.622   5.606
 9990TIP3   OH229910   1.813   7.011   0.639
 9990TIP3    H129911   1.740   6.966   0.597
 9990TIP3    H229912   1.852   6.945   0.697
 9991TIP3   OH229913   6.347   2.320   2.761
 9991TIP3    H129914   6.426   2.277   2.728
 9991TIP3    H229915   6.374   2.410   2.779
 9992TIP3   OH229916   1.463   2.844   6.512
 9992TIP3    H129917   1.414   2.917   6.550
 9992TIP3    H229918   1.410   2.767   6.531
 9993TIP3   OH229919   6.486   6.207   0.976
 9993TIP3    H129920   6.556   6.154   0.937
 9993TIP3    H229921   6.527   6.250   1.051
 9994TIP3   OH229922   3.409   0.601   1.762
 9994TIP3    H129923   3.501   0.577   1.754
 9994TIP3    H229924   3.389   0.590   1.855
 9995TIP3   OH229925   6.728   3.715   6.472
 9995TIP3    H129926   6.731   3.620   6.461
 9995TIP3    H229927   6.648   3.742   6.427
 9996TIP3   OH229928   6.628   0.845   3.317
 9996TIP3    H129929   6.576   0.805   3.387
 9996TIP3    H229930   6.622   0.939   3.334
 9997TIP3   OH229931   0.756   3.570   0.561
 9997TIP3    H129932   0.667   3.575   0.595
 9997TIP3    H229933   0.761   3.641   0.496
 9998TIP3   OH229934   3.677   4.917   2.284
 9998TIP3    H129935   3.685   4.984   2.216
 9998TIP3    H229936   3.704   4.961   2.364
 9999TIP3   OH229937   7.602   6.584   1.090
 9999TIP3    H129938   7.571   6.592   0.999
 9999TIP3    H229939   7.523   6.564   1.140
10000TIP3   OH229940   8.156   2.969   6.564
10000TIP3    H129941   8.121   2.942   6.479
10000TIP3    H229942   8.118   3.055   6.579
10001TIP3   OH229943   2.839   4.238   1.508
10001TIP3    H129944   2.823   4.327   1.474
10001TIP3    H229945   2.891   4.196   1.439
10002TIP3   OH229946   2.072   1.839   3.162
10002TIP3    H129947   2.060   1.896   3.238
10002TIP3    H229948   2.140   1.777   3.189
10003TIP3   OH229949   5.505   6.811   0.625
10003TIP3    H129950   5.580   6.860   0.592
10003TIP3    H229951   5.543   6.744   0.682
10004TIP3   OH229952   1.690   3.669   5.849
10004TIP3    H129953   1.685   3.663   5.944
10004TIP3    H229954   1.783   3.663   5.829
10005TIP3   OH229955   5.368   0.486   4.392
10005TIP3    H129956   5.414   0.423   4.336
10005TIP3    H229957   5.416   0.484   4.475
10006TIP3   OH229958   3.027   0.665   3.883
10006TIP3    H129959   3.121   0.671   3.896
10006TIP3    H229960   3.008   0.572   3.887
10007TIP3   OH229961   2.677   1.844   5.424
10007TIP3    H129962   2.685   1.922   5.479
10007TIP3    H229963   2.638   1.778   5.482
10008TIP3   OH229964   8.169   4.318   2.466
10008TIP3    H129965   8.249   4.356   2.430
10008TIP3    H229966   8.121   4.393   2.500
10009TIP3   OH229967   2.617   1.242   0.978
10009TIP3    H129968   2.549   1.283   1.031
10009TIP3    H229969   2.580   1.156   0.955
10010TIP3   OH229970   5.951   6.602   6.289
10010TIP3    H129971   5.885   6.537   6.316
10010TIP3    H229972   6.003   6.617   6.367
10011TIP3   OH229973   0.967   5.144   6.661
10011TIP3    H129974   0.873   5.130   6.672
10011TIP3    H229975   1.008   5.072   6.710
10012TIP3   OH229976   4.712   6.585   2.446
10012TIP3    H129977   4.772   6.557   2.516
10012TIP3    H229978   4.626   6.553   2.474
10013TIP3   OH229979   7.019   1.617   6.506
10013TIP3    H129980   6.939   1.575   6.538
10013TIP3    H229981   6.987   1.679   6.440
10014TIP3   OH229982   4.517   6.535   3.241
10014TIP3    H129983   4.510   6.499   3.329
10014TIP3    H229984   4.580   6.478   3.196
10015TIP3   OH229985   2.070   5.984   1.882
10015TIP3    H129986   2.067   6.077   1.904
10015TIP3    H229987   2.162   5.959   1.893
10016TIP3   OH229988   4.002   1.110   1.778
10016TIP3    H129989   4.058   1.076   1.847
10016TIP3    H229990   4.032   1.200   1.763
10017TIP3   OH229991   1.413   0.255   1.634
10017TIP3    H129992   1.491   0.206   1.607
10017TIP3    H229993   1.424   0.268   1.728
10018TIP3   OH229994   2.323   0.711   6.650
10018TIP3    H129995   2.382   0.728   6.576
10018TIP3    H229996   2.365   0.641   6.699
10019TIP3   OH229997   6.463   6.776   4.866
10019TIP3    H129998   6.399   6.830   4.914
10019TIP3    H229999   6.539   6.772   4.924
10020TIP3   OH230000   4.197   4.904   1.065
10020TIP3    H130001   4.153   4.841   1.007
10020TIP3    H230002   4.164   4.989   1.036
10021TIP3   OH230003   1.871   6.274   0.886
10021TIP3    H130004   1.963   6.292   0.871
10021TIP3    H230005   1.863   6.179   0.874
10022TIP3   OH230006   1.793   6.336   1.141
10022TIP3    H130007   1.820   6.309   1.053
10022TIP3    H230008   1.753   6.422   1.129
10023TIP3   OH230009   7.544   0.248   2.165
10023TIP3    H130010   7.533   0.332   2.210
10023TIP3    H230011   7.639   0.235   2.162
10024TIP3   OH230012   4.941   1.629   3.567
10024TIP3    H130013   4.917   1.577   3.490
10024TIP3    H230014   4.955   1.565   3.636
10025TIP3   OH230015   6.118   6.496   0.577
10025TIP3    H130016   6.137   6.473   0.668
10025TIP3    H230017   6.099   6.412   0.535
10026TIP3   OH230018   1.105   7.828   2.880
10026TIP3    H130019   1.176   7.845   2.819
10026TIP3    H230020   1.109   7.734   2.898
10027TIP3   OH230021   2.776   4.386   5.932
10027TIP3    H130022   2.843   4.318   5.921
10027TIP3    H230023   2.735   4.365   6.016
10028TIP3   OH230024   1.364   4.148   0.630
10028TIP3    H130025   1.442   4.111   0.590
10028TIP3    H230026   1.292   4.114   0.577
10029TIP3   OH230027   6.879   7.688   6.206
10029TIP3    H130028   6.885   7.758   6.141
10029TIP3    H230029   6.937   7.717   6.277
10030TIP3   OH230030   4.399   7.208   5.941
10030TIP3    H130031   4.361   7.293   5.916
10030TIP3    H230032   4.490   7.227   5.961
10031TIP3   OH230033   5.454   6.787   1.072
10031TIP3    H130034   5.480   6.751   1.156
10031TIP3    H230035   5.535   6.824   1.036
10032TIP3   OH230036   1.430   7.363   6.759
10032TIP3    H130037   1.354   7.376   6.815
10032TIP3    H230038   1.461   7.275   6.782
10033TIP3   OH230039   7.596   0.679   2.523
10033TIP3    H130040   7.534   0.704   2.592
10033TIP3    H230041   7.627   0.762   2.488
10034TIP3   OH230042   0.859   1.053   2.502
10034TIP3    H130043   0.837   0.972   2.548
10034TIP3    H230044   0.775   1.096   2.487
10035TIP3   OH230045   6.479   2.179   1.329
10035TIP3    H130046   6.560   2.227   1.312
10035TIP3    H230047   6.504   2.113   1.393
10036TIP3   OH230048   8.115   0.991   0.124
10036TIP3    H130049   8.044   0.952   0.174
10036TIP3    H230050   8.076   1.070   0.085
10037TIP3   OH230051   6.569   0.230   1.868
10037TIP3    H130052   6.605   0.318   1.884
10037TIP3    H230053   6.477   0.245   1.849
10038TIP3   OH230054   3.685   6.773   6.699
10038TIP3    H130055   3.606   6.733   6.735
10038TIP3    H230056   3.742   6.786   6.775
10039TIP3   OH230057   7.593   5.898   0.925
10039TIP3    H130058   7.552   5.917   1.009
10039TIP3    H230059   7.522   5.904   0.861
10040TIP3   OH230060   7.904   1.174   2.891
10040TIP3    H130061   7.941   1.224   2.819
10040TIP3    H230062   7.976   1.121   2.925
10041TIP3   OH230063   4.999   4.333   3.042
10041TIP3    H130064   4.998   4.299   2.953
10041TIP3    H230065   4.969   4.423   3.034
10042TIP3   OH230066   6.870   7.673   3.333
10042TIP3    H130067   6.915   7.758   3.333
10042TIP3    H230068   6.809   7.679   3.260
10043TIP3   OH230069   1.829   5.689   3.928
10043TIP3    H130070   1.739   5.701   3.960
10043TIP3    H230071   1.883   5.698   4.007
10044TIP3   OH230072   5.201   6.998   0.213
10044TIP3    H130073   5.242   7.058   0.151
10044TIP3    H230074   5.143   6.944   0.159
10045TIP3   OH230075   5.766   0.836   3.111
10045TIP3    H130076   5.837   0.840   3.175
10045TIP3    H230077   5.805   0.792   3.035
10046TIP3   OH230078   8.029   5.825   6.848
10046TIP3    H130079   8.030   5.823   6.943
10046TIP3    H230080   8.054   5.914   6.824
10047TIP3   OH230081   2.869   6.036   6.310
10047TIP3    H130082   2.902   6.031   6.221
10047TIP3    H230083   2.774   6.042   6.301
10048TIP3   OH230084   7.477   4.169   6.201
10048TIP3    H130085   7.570   4.188   6.186
10048TIP3    H230086   7.443   4.248   6.243
10049TIP3   OH230087   1.495   3.851   0.078
10049TIP3    H130088   1.450   3.808   0.151
10049TIP3    H230089   1.455   3.814   0.000
10050TIP3   OH230090   3.992   6.694   6.558
10050TIP3    H130091   4.013   6.664   6.471
10050TIP3    H230092   3.975   6.788   6.548
10051TIP3   OH230093   5.154   3.808   4.949
10051TIP3    H130094   5.192   3.720   4.947
10051TIP3    H230095   5.148   3.829   5.042
10052TIP3   OH230096   1.643   4.547   3.863
10052TIP3    H130097   1.700   4.580   3.793
10052TIP3    H230098   1.672   4.593   3.941
10053TIP3   OH230099   2.241   2.831   4.765
10053TIP3    H130100   2.275   2.883   4.839
10053TIP3    H230101   2.236   2.742   4.799
10054TIP3   OH230102   2.871   4.682   0.323
10054TIP3    H130103   2.796   4.720   0.275
10054TIP3    H230104   2.909   4.757   0.369
10055TIP3   OH230105   1.715   1.075   5.503
10055TIP3    H130106   1.787   1.125   5.540
10055TIP3    H230107   1.636   1.117   5.538
10056TIP3   OH230108   2.522   6.819   6.455
10056TIP3    H130109   2.499   6.849   6.367
10056TIP3    H230110   2.440   6.820   6.504
10057TIP3   OH230111   6.124   4.155   3.000
10057TIP3    H130112   6.205   4.181   3.044
10057TIP3    H230113   6.070   4.234   3.002
10058TIP3   OH230114   0.832   7.616   1.268
10058TIP3    H130115   0.868   7.571   1.191
10058TIP3    H230116   0.815   7.705   1.238
10059TIP3   OH230117   6.059   7.842   1.100
10059TIP3    H130118   6.001   7.775   1.063
10059TIP3    H230119   6.004   7.920   1.109
10060TIP3   OH230120   3.586   2.432   0.943
10060TIP3    H130121   3.510   2.420   0.887
10060TIP3    H230122   3.638   2.500   0.899
10061TIP3   OH230123   3.034   4.371   6.171
10061TIP3    H130124   3.022   4.388   6.077
10061TIP3    H230125   3.129   4.367   6.183
10062TIP3   OH230126   1.802   3.725   3.609
10062TIP3    H130127   1.846   3.689   3.532
10062TIP3    H230128   1.873   3.748   3.669
10063TIP3   OH230129   2.539   3.247   6.095
10063TIP3    H130130   2.535   3.208   6.008
10063TIP3    H230131   2.519   3.340   6.080
10064TIP3   OH230132   2.386   7.290   6.377
10064TIP3    H130133   2.436   7.356   6.329
10064TIP3    H230134   2.332   7.248   6.310
10065TIP3   OH230135   1.591   4.006   3.013
10065TIP3    H130136   1.636   4.007   2.928
10065TIP3    H230137   1.503   4.036   2.995
10066TIP3   OH230138   0.876   4.727   5.264
10066TIP3    H130139   0.923   4.676   5.199
10066TIP3    H230140   0.944   4.762   5.322
10067TIP3   OH230141   8.295   3.882   4.163
10067TIP3    H130142   8.363   3.937   4.201
10067TIP3    H230143   8.301   3.800   4.211
10068TIP3   OH230144   7.113   4.001   5.688
10068TIP3    H130145   7.075   3.933   5.744
10068TIP3    H230146   7.195   4.025   5.731
10069TIP3   OH230147   0.161   6.709   3.043
10069TIP3    H130148   0.066   6.715   3.053
10069TIP3    H230149   0.175   6.706   2.949
10070TIP3   OH230150   6.104   6.094   4.662
10070TIP3    H130151   6.160   6.017   4.675
10070TIP3    H230152   6.165   6.168   4.657
10071TIP3   OH230153   1.117   0.125   1.023
10071TIP3    H130154   1.149   0.055   0.967
10071TIP3    H230155   1.029   0.144   0.990
10072TIP3   OH230156   6.768   5.525   1.625
10072TIP3    H130157   6.824   5.459   1.667
10072TIP3    H230158   6.682   5.513   1.666
10073TIP3   OH230159   2.395   3.099   1.438
10073TIP3    H130160   2.321   3.139   1.484
10073TIP3    H230161   2.428   3.168   1.381
10074TIP3   OH230162   8.266   7.023   2.916
10074TIP3    H130163   8.204   7.076   2.967
10074TIP3    H230164   8.313   6.972   2.982
10075TIP3   OH230165   6.553   0.774   4.365
10075TIP3    H130166   6.557   0.706   4.432
10075TIP3    H230167   6.531   0.727   4.285
10076TIP3   OH230168   0.848   4.384   0.012
10076TIP3    H130169   0.767   4.426  -0.017
10076TIP3    H230170   0.899   4.372  -0.069
10077TIP3   OH230171   2.234   2.947   3.606
10077TIP3    H130172   2.296   2.880   3.635
10077TIP3    H230173   2.209   2.920   3.518
10078TIP3   OH230174   4.819   7.932   4.372
10078TIP3    H130175   4.725   7.942   4.363
10078TIP3    H230176   4.831   7.847   4.414
10079TIP3   OH230177   5.559   4.086   4.124
10079TIP3    H130178   5.501   4.146   4.077
10079TIP3    H230179   5.501   4.040   4.185
10080TIP3   OH230180   4.077   0.668   3.497
10080TIP3    H130181   4.085   0.575   3.519
10080TIP3    H230182   3.994   0.695   3.537
10081TIP3   OH230183   2.043   0.713   6.703
10081TIP3    H130184   2.129   0.754   6.702
10081TIP3    H230185   1.981   0.787   6.703
10082TIP3   OH230186   6.852   2.254   3.022
10082TIP3    H130187   6.798   2.305   3.081
10082TIP3    H230188   6.925   2.312   3.000
10083TIP3   OH230189   7.450   3.614   0.097
10083TIP3    H130190   7.382   3.660   0.048
10083TIP3    H230191   7.403   3.568   0.166
10084TIP3   OH230192   2.274   2.626   0.782
10084TIP3    H130193   2.345   2.571   0.817
10084TIP3    H230194   2.203   2.564   0.766
10085TIP3   OH230195   3.553   1.363   5.795
10085TIP3    H130196   3.575   1.399   5.709
10085TIP3    H230197   3.553   1.439   5.853
10086TIP3   OH230198   5.997   1.875   2.774
10086TIP3    H130199   6.062   1.938   2.805
10086TIP3    H230200   6.021   1.860   2.682
10087TIP3   OH230201   5.429   3.744   3.417
10087TIP3    H130202   5.367   3.756   3.489
10087TIP3    H230203   5.489   3.818   3.423
10088TIP3   OH230204   6.530   0.709   1.214
10088TIP3    H130205   6.517   0.655   1.292
10088TIP3    H230206   6.471   0.671   1.149
10089TIP3   OH230207   5.234   7.216   3.352
10089TIP3    H130208   5.198   7.128   3.361
10089TIP3    H230209   5.328   7.205   3.365
10090TIP3   OH230210   1.501   6.085   6.623
10090TIP3    H130211   1.419   6.052   6.587
10090TIP3    H230212   1.537   6.141   6.554
10091TIP3   OH230213   4.275   2.483   5.325
10091TIP3    H130214   4.288   2.550   5.258
10091TIP3    H230215   4.207   2.519   5.382
10092TIP3   OH230216   7.384   0.640   0.783
10092TIP3    H130217   7.437   0.570   0.745
10092TIP3    H230218   7.425   0.659   0.867
10093TIP3   OH230219   3.513   1.944   6.505
10093TIP3    H130220   3.480   2.030   6.532
10093TIP3    H230221   3.578   1.964   6.437
10094TIP3   OH230222   5.075   2.526   0.422
10094TIP3    H130223   5.033   2.592   0.367
10094TIP3    H230224   5.131   2.577   0.481
10095TIP3   OH230225   4.308   3.848   4.873
10095TIP3    H130226   4.261   3.867   4.792
10095TIP3    H230227   4.251   3.785   4.918
10096TIP3   OH230228   8.238   1.474   0.653
10096TIP3    H130229   8.167   1.434   0.704
10096TIP3    H230230   8.311   1.479   0.715
10097TIP3   OH230231   5.454   0.831   6.137
10097TIP3    H130232   5.429   0.904   6.193
10097TIP3    H230233   5.418   0.853   6.051
10098TIP3   OH230234   0.710   4.412   5.191
10098TIP3    H130235   0.716   4.474   5.264
10098TIP3    H230236   0.717   4.326   5.232
10099TIP3   OH230237   6.176   0.850   5.540
10099TIP3    H130238   6.259   0.806   5.558
10099TIP3    H230239   6.112   0.779   5.537
10100TIP3   OH230240   1.040   0.905   0.871
10100TIP3    H130241   1.080   0.993   0.872
10100TIP3    H230242   1.046   0.875   0.961
10101TIP3   OH230243   7.799   2.034   6.384
10101TIP3    H130244   7.765   2.123   6.384
10101TIP3    H230245   7.742   1.987   6.323
10102TIP3   OH230246   5.277   4.928   0.853
10102TIP3    H130247   5.190   4.952   0.819
10102TIP3    H230248   5.295   4.993   0.921
10103TIP3   OH230249   3.774   0.792   4.870
10103TIP3    H130250   3.743   0.859   4.810
10103TIP3    H230251   3.749   0.709   4.829
10104TIP3   OH230252   6.463   3.985   1.975
10104TIP3    H130253   6.503   4.070   1.958
10104TIP3    H230254   6.369   4.002   1.977
10105TIP3   OH230255   3.341   4.182   0.439
10105TIP3    H130256   3.384   4.239   0.502
10105TIP3    H230257   3.310   4.241   0.370
10106TIP3   OH230258   8.255   6.782   3.800
10106TIP3    H130259   8.280   6.739   3.718
10106TIP3    H230260   8.275   6.874   3.786
10107TIP3   OH230261   2.106   5.806   6.555
10107TIP3    H130262   2.061   5.722   6.543
10107TIP3    H230263   2.114   5.815   6.650
10108TIP3   OH230264   5.995   7.535   1.090
10108TIP3    H130265   6.072   7.545   1.147
10108TIP3    H230266   6.010   7.453   1.044
10109TIP3   OH230267   3.499   7.669   3.585
10109TIP3    H130268   3.594   7.658   3.588
10109TIP3    H230269   3.464   7.590   3.626
10110TIP3   OH230270   6.016   7.374   3.378
10110TIP3    H130271   5.952   7.326   3.325
10110TIP3    H230272   5.964   7.416   3.446
10111TIP3   OH230273   2.987   1.406   3.618
10111TIP3    H130274   3.081   1.415   3.602
10111TIP3    H230275   2.973   1.312   3.630
10112TIP3   OH230276   0.982   7.413   4.566
10112TIP3    H130277   0.937   7.384   4.486
10112TIP3    H230278   0.919   7.471   4.608
10113TIP3   OH230279   6.891   4.587   3.450
10113TIP3    H130280   6.940   4.507   3.469
10113TIP3    H230281   6.906   4.603   3.357
10114TIP3   OH230282   7.986   5.118   1.171
10114TIP3    H130283   7.902   5.162   1.186
10114TIP3    H230284   7.967   5.053   1.103
10115TIP3   OH230285   5.031   4.221   5.559
10115TIP3    H130286   4.948   4.194   5.598
10115TIP3    H230287   5.008   4.296   5.503
10116TIP3   OH230288   5.114   5.624   6.424
10116TIP3    H130289   5.209   5.619   6.420
10116TIP3    H230290   5.092   5.702   6.373
10117TIP3   OH230291   1.033   5.705   2.862
10117TIP3    H130292   1.028   5.799   2.843
10117TIP3    H230293   0.942   5.677   2.871
10118TIP3   OH230294   4.919   0.368   2.242
10118TIP3    H130295   4.850   0.430   2.217
10118TIP3    H230296   4.956   0.339   2.158
10119TIP3   OH230297   4.498   3.239   0.467
10119TIP3    H130298   4.533   3.326   0.487
10119TIP3    H230299   4.421   3.256   0.413
10120TIP3   OH230300   1.294   2.533   1.872
10120TIP3    H130301   1.338   2.594   1.812
10120TIP3    H230302   1.366   2.489   1.918
10121TIP3   OH230303   6.384   3.932   5.272
10121TIP3    H130304   6.361   3.942   5.364
10121TIP3    H230305   6.455   3.868   5.272
10122TIP3   OH230306   2.890   3.578   1.484
10122TIP3    H130307   2.965   3.523   1.505
10122TIP3    H230308   2.927   3.656   1.444
10123TIP3   OH230309   6.531   7.529   0.332
10123TIP3    H130310   6.462   7.584   0.293
10123TIP3    H230311   6.518   7.443   0.292
10124TIP3   OH230312   2.331   4.653   3.965
10124TIP3    H130313   2.276   4.676   4.040
10124TIP3    H230314   2.420   4.673   3.994
10125TIP3   OH230315   3.849   3.281   6.128
10125TIP3    H130316   3.866   3.190   6.152
10125TIP3    H230317   3.757   3.294   6.152
10126TIP3   OH230318   1.100   1.864   3.883
10126TIP3    H130319   1.123   1.903   3.799
10126TIP3    H230320   1.182   1.827   3.916
10127TIP3   OH230321   2.301   2.782   5.569
10127TIP3    H130322   2.346   2.711   5.524
10127TIP3    H230323   2.208   2.757   5.565
10128TIP3   OH230324   0.334   6.222   0.772
10128TIP3    H130325   0.374   6.215   0.859
10128TIP3    H230326   0.405   6.255   0.717
10129TIP3   OH230327   8.254   1.378   0.995
10129TIP3    H130328   8.177   1.374   0.938
10129TIP3    H230329   8.327   1.389   0.935
10130TIP3   OH230330   2.148   6.844   3.900
10130TIP3    H130331   2.229   6.890   3.923
10130TIP3    H230332   2.092   6.856   3.977
10131TIP3   OH230333   5.443   7.619   1.608
10131TIP3    H130334   5.409   7.585   1.526
10131TIP3    H230335   5.535   7.593   1.610
10132TIP3   OH230336   2.908   5.628   2.774
10132TIP3    H130337   2.929   5.682   2.699
10132TIP3    H230338   2.825   5.663   2.807
10133TIP3   OH230339   1.312   4.442   1.912
10133TIP3    H130340   1.338   4.396   1.831
10133TIP3    H230341   1.375   4.411   1.977
10134TIP3   OH230342   7.619   7.757   0.979
10134TIP3    H130343   7.571   7.745   0.897
10134TIP3    H230344   7.611   7.672   1.024
10135TIP3   OH230345   4.058   0.851   0.666
10135TIP3    H130346   4.134   0.873   0.611
10135TIP3    H230347   3.987   0.838   0.604
10136TIP3   OH230348   4.406   7.738   4.533
10136TIP3    H130349   4.447   7.823   4.546
10136TIP3    H230350   4.456   7.698   4.462
10137TIP3   OH230351   3.623   4.325   4.454
10137TIP3    H130352   3.660   4.373   4.528
10137TIP3    H230353   3.574   4.391   4.405
10138TIP3   OH230354   1.949   4.289   5.704
10138TIP3    H130355   2.035   4.272   5.742
10138TIP3    H230356   1.942   4.227   5.632
10139TIP3   OH230357   3.160   7.245   5.863
10139TIP3    H130358   3.131   7.325   5.907
10139TIP3    H230359   3.222   7.205   5.924
10140TIP3   OH230360   0.271   3.644   2.639
10140TIP3    H130361   0.358   3.624   2.675
10140TIP3    H230362   0.284   3.648   2.545
10141TIP3   OH230363   1.218   6.734   2.676
10141TIP3    H130364   1.267   6.727   2.594
10141TIP3    H230365   1.130   6.704   2.653
10142TIP3   OH230366   7.993   6.894   6.021
10142TIP3    H130367   8.050   6.824   5.990
10142TIP3    H230368   8.018   6.906   6.113
10143TIP3   OH230369   0.677   0.102   6.700
10143TIP3    H130370   0.706   0.167   6.636
10143TIP3    H230371   0.631   0.154   6.767
10144TIP3   OH230372   7.554   3.024   4.853
10144TIP3    H130373   7.637   2.979   4.869
10144TIP3    H230374   7.571   3.115   4.877
10145TIP3   OH230375   0.522   5.724   3.860
10145TIP3    H130376   0.542   5.784   3.788
10145TIP3    H230377   0.470   5.655   3.819
10146TIP3   OH230378   0.976   6.072   0.954
10146TIP3    H130379   0.909   6.051   1.019
10146TIP3    H230380   0.950   6.158   0.920
10147TIP3   OH230381   8.346   0.117   2.284
10147TIP3    H130382   8.426   0.109   2.232
10147TIP3    H230383   8.322   0.026   2.304
10148TIP3   OH230384   5.252   1.612   6.039
10148TIP3    H130385   5.330   1.556   6.041
10148TIP3    H230386   5.256   1.656   5.954
10149TIP3   OH230387   0.166   2.339   0.268
10149TIP3    H130388   0.076   2.314   0.245
10149TIP3    H230389   0.193   2.397   0.198
10150TIP3   OH230390   6.961   7.900   2.970
10150TIP3    H130391   6.953   7.933   2.881
10150TIP3    H230392   7.047   7.929   3.000
10151TIP3   OH230393   3.842   3.169   5.496
10151TIP3    H130394   3.796   3.095   5.536
10151TIP3    H230395   3.832   3.240   5.559
10152TIP3   OH230396   1.857   7.059   3.492
10152TIP3    H130397   1.835   6.973   3.527
10152TIP3    H230398   1.810   7.064   3.409
10153TIP3   OH230399   3.460   5.442   5.796
10153TIP3    H130400   3.369   5.457   5.772
10153TIP3    H230401   3.509   5.462   5.716
10154TIP3   OH230402   2.677   5.656   6.082
10154TIP3    H130403   2.657   5.731   6.026
10154TIP3    H230404   2.632   5.674   6.164
10155TIP3   OH230405   2.148   0.887   3.210
10155TIP3    H130406   2.213   0.900   3.141
10155TIP3    H230407   2.182   0.937   3.284
10156TIP3   OH230408   3.881   3.368   0.796
10156TIP3    H130409   3.940   3.430   0.754
10156TIP3    H230410   3.905   3.372   0.889
10157TIP3   OH230411   5.404   1.627   1.908
10157TIP3    H130412   5.349   1.682   1.964
10157TIP3    H230413   5.406   1.673   1.824
10158TIP3   OH230414   6.845   2.887   3.906
10158TIP3    H130415   6.832   2.926   3.819
10158TIP3    H230416   6.906   2.946   3.950
10159TIP3   OH230417   7.315   4.019   3.228
10159TIP3    H130418   7.286   3.969   3.304
10159TIP3    H230419   7.403   4.048   3.251
10160TIP3   OH230420   3.591   1.989   2.090
10160TIP3    H130421   3.498   1.982   2.112
10160TIP3    H230422   3.623   1.899   2.089
10161TIP3   OH230423   6.531   3.177   5.165
10161TIP3    H130424   6.500   3.248   5.222
10161TIP3    H230425   6.524   3.213   5.077
10162TIP3   OH230426   6.276   5.133   6.519
10162TIP3    H130427   6.329   5.053   6.520
10162TIP3    H230428   6.337   5.203   6.540
10163TIP3   OH230429   1.086   5.161   2.038
10163TIP3    H130430   1.038   5.091   1.992
10163TIP3    H230431   1.165   5.118   2.070
10164TIP3   OH230432   7.582   1.042   3.347
10164TIP3    H130433   7.602   0.949   3.336
10164TIP3    H230434   7.652   1.087   3.299
10165TIP3   OH230435   1.772   7.831   2.143
10165TIP3    H130436   1.692   7.781   2.128
10165TIP3    H230437   1.807   7.797   2.225
10166TIP3   OH230438   6.672   2.618   5.241
10166TIP3    H130439   6.634   2.642   5.326
10166TIP3    H230440   6.622   2.667   5.177
10167TIP3   OH230441   0.296   1.741   1.073
10167TIP3    H130442   0.200   1.738   1.068
10167TIP3    H230443   0.323   1.786   0.993
10168TIP3   OH230444   5.512   4.682   4.866
10168TIP3    H130445   5.541   4.754   4.922
10168TIP3    H230446   5.557   4.605   4.901
10169TIP3   OH230447   5.653   6.721   4.644
10169TIP3    H130448   5.658   6.634   4.603
10169TIP3    H230449   5.703   6.711   4.725
10170TIP3   OH230450   5.706   0.163   1.569
10170TIP3    H130451   5.799   0.143   1.571
10170TIP3    H230452   5.664   0.079   1.549
10171TIP3   OH230453   6.831   7.671   1.690
10171TIP3    H130454   6.865   7.759   1.704
10171TIP3    H230455   6.775   7.654   1.765
10172TIP3   OH230456   2.442   4.413   4.383
10172TIP3    H130457   2.514   4.383   4.327
10172TIP3    H230458   2.477   4.405   4.472
10173TIP3   OH230459   8.289   0.868   1.275
10173TIP3    H130460   8.226   0.938   1.260
10173TIP3    H230461   8.276   0.807   1.202
10174TIP3   OH230462   3.876   0.340   5.107
10174TIP3    H130463   3.876   0.427   5.066
10174TIP3    H230464   3.796   0.339   5.160
10175TIP3   OH230465   3.682   4.442   6.754
10175TIP3    H130466   3.739   4.514   6.779
10175TIP3    H230467   3.596   4.465   6.789
10176TIP3   OH230468   0.398   5.291   3.569
10176TIP3    H130469   0.345   5.306   3.490
10176TIP3    H230470   0.472   5.239   3.538
10177TIP3   OH230471   5.080   7.113   4.120
10177TIP3    H130472   5.083   7.025   4.158
10177TIP3    H230473   4.987   7.137   4.122
10178TIP3   OH230474   6.406   5.933   1.451
10178TIP3    H130475   6.314   5.908   1.462
10178TIP3    H230476   6.455   5.876   1.509
10179TIP3   OH230477   4.062   0.709   4.833
10179TIP3    H130478   3.980   0.748   4.862
10179TIP3    H230479   4.065   0.725   4.739
10180TIP3   OH230480   2.644   4.692   1.347
10180TIP3    H130481   2.673   4.609   1.308
10180TIP3    H230482   2.567   4.717   1.296
10181TIP3   OH230483   1.302   6.340   1.671
10181TIP3    H130484   1.320   6.250   1.697
10181TIP3    H230485   1.297   6.337   1.576
10182TIP3   OH230486   5.020   6.823   1.195
10182TIP3    H130487   5.069   6.767   1.135
10182TIP3    H230488   4.971   6.762   1.250
10183TIP3   OH230489   2.913   6.623   4.405
10183TIP3    H130490   2.885   6.713   4.391
10183TIP3    H230491   2.943   6.594   4.318
10184TIP3   OH230492   0.356   6.122   1.330
10184TIP3    H130493   0.342   6.165   1.246
10184TIP3    H230494   0.269   6.087   1.353
10185TIP3   OH230495   1.286   7.143   1.510
10185TIP3    H130496   1.370   7.136   1.465
10185TIP3    H230497   1.223   7.161   1.440
10186TIP3   OH230498   3.191   0.828   5.408
10186TIP3    H130499   3.147   0.897   5.358
10186TIP3    H230500   3.136   0.815   5.485
10187TIP3   OH230501   8.353   3.935   1.344
10187TIP3    H130502   8.270   3.888   1.335
10187TIP3    H230503   8.386   3.942   1.254
10188TIP3   OH230504   7.120   3.100   3.805
10188TIP3    H130505   7.107   3.008   3.783
10188TIP3    H230506   7.215   3.111   3.812
10189TIP3   OH230507   1.057   7.605   2.607
10189TIP3    H130508   1.099   7.677   2.560
10189TIP3    H230509   1.129   7.553   2.641
10190TIP3   OH230510   5.591   4.312   4.527
10190TIP3    H130511   5.553   4.311   4.615
10190TIP3    H230512   5.669   4.367   4.536
10191TIP3   OH230513   4.995   4.289   2.057
10191TIP3    H130514   4.959   4.317   2.141
10191TIP3    H230515   4.950   4.343   1.992
10192TIP3   OH230516   4.796   0.118   2.918
10192TIP3    H130517   4.822   0.139   2.828
10192TIP3    H230518   4.745   0.037   2.909
10193TIP3   OH230519   3.306   6.455   4.824
10193TIP3    H130520   3.243   6.384   4.807
10193TIP3    H230521   3.384   6.429   4.774
10194TIP3   OH230522   0.735   1.295   0.440
10194TIP3    H130523   0.662   1.349   0.411
10194TIP3    H230524   0.711   1.206   0.413
10195TIP3   OH230525   7.903   5.572   0.685
10195TIP3    H130526   7.914   5.659   0.647
10195TIP3    H230527   7.812   5.570   0.713
10196TIP3   OH230528   3.342   0.856   1.656
10196TIP3    H130529   3.365   0.764   1.673
10196TIP3    H230530   3.269   0.874   1.716
10197TIP3   OH230531   6.129   2.464   3.918
10197TIP3    H130532   6.050   2.462   3.973
10197TIP3    H230533   6.133   2.376   3.879
10198TIP3   OH230534   7.791   2.325   1.764
10198TIP3    H130535   7.873   2.361   1.798
10198TIP3    H230536   7.794   2.345   1.670
10199TIP3   OH230537   0.760   4.308   6.359
10199TIP3    H130538   0.831   4.270   6.308
10199TIP3    H230539   0.690   4.244   6.355
10200TIP3   OH230540   6.237   1.973   2.286
10200TIP3    H130541   6.241   1.893   2.234
10200TIP3    H230542   6.311   2.026   2.254
10201TIP3   OH230543   7.356   7.476   2.211
10201TIP3    H130544   7.387   7.392   2.244
10201TIP3    H230545   7.272   7.489   2.253
10202TIP3   OH230546   4.585   3.918   1.599
10202TIP3    H130547   4.554   3.975   1.669
10202TIP3    H230548   4.677   3.944   1.586
10203TIP3   OH230549   0.474   2.113   1.127
10203TIP3    H130550   0.509   2.176   1.191
10203TIP3    H230551   0.384   2.143   1.111
10204TIP3   OH230552   0.743   0.177   5.844
10204TIP3    H130553   0.650   0.166   5.825
10204TIP3    H230554   0.773   0.089   5.868
10205TIP3   OH230555   4.703   3.312   6.474
10205TIP3    H130556   4.609   3.328   6.474
10205TIP3    H230557   4.712   3.218   6.462
10206TIP3   OH230558   6.299   7.135   1.839
10206TIP3    H130559   6.211   7.104   1.816
10206TIP3    H230560   6.349   7.127   1.757
10207TIP3   OH230561   6.744   1.844   1.260
10207TIP3    H130562   6.818   1.787   1.281
10207TIP3    H230563   6.741   1.844   1.164
10208TIP3   OH230564   2.324   7.177   5.492
10208TIP3    H130565   2.340   7.267   5.463
10208TIP3    H230566   2.231   7.176   5.515
10209TIP3   OH230567   7.823   2.086   3.982
10209TIP3    H130568   7.875   2.060   4.058
10209TIP3    H230569   7.752   2.138   4.019
10210TIP3   OH230570   0.524   3.543   4.133
10210TIP3    H130571   0.555   3.574   4.048
10210TIP3    H230572   0.557   3.607   4.195
10211TIP3   OH230573   7.435   7.224   3.828
10211TIP3    H130574   7.425   7.176   3.745
10211TIP3    H230575   7.514   7.276   3.816
10212TIP3   OH230576   3.521   7.410   2.417
10212TIP3    H130577   3.613   7.416   2.445
10212TIP3    H230578   3.518   7.463   2.337
10213TIP3   OH230579   1.801   4.357   2.761
10213TIP3    H130580   1.710   4.385   2.767
10213TIP3    H230581   1.812   4.330   2.670
10214TIP3   OH230582   6.770   1.328   2.485
10214TIP3    H130583   6.742   1.241   2.514
10214TIP3    H230584   6.727   1.389   2.545
10215TIP3   OH230585   4.676   3.577   1.759
10215TIP3    H130586   4.613   3.511   1.789
10215TIP3    H230587   4.704   3.545   1.673
10216TIP3   OH230588   1.972   5.903   4.669
10216TIP3    H130589   1.960   5.989   4.629
10216TIP3    H230590   1.979   5.922   4.763
10217TIP3   OH230591   6.775   7.553   2.431
10217TIP3    H130592   6.722   7.558   2.511
10217TIP3    H230593   6.852   7.502   2.456
10218TIP3   OH230594   7.582   6.972   0.389
10218TIP3    H130595   7.496   6.932   0.401
10218TIP3    H230596   7.568   7.065   0.407
10219TIP3   OH230597   1.944   5.853   0.130
10219TIP3    H130598   1.894   5.792   0.076
10219TIP3    H230599   2.013   5.800   0.169
10220TIP3   OH230600   5.550   1.661   4.585
10220TIP3    H130601   5.623   1.681   4.644
10220TIP3    H230602   5.591   1.616   4.511
10221TIP3   OH230603   3.686   0.086   1.489
10221TIP3    H130604   3.619   0.023   1.463
10221TIP3    H230605   3.637   0.164   1.514
10222TIP3   OH230606   6.400   6.612   0.098
10222TIP3    H130607   6.322   6.663   0.122
10222TIP3    H230608   6.365   6.525   0.075
10223TIP3   OH230609   5.123   2.698   1.110
10223TIP3    H130610   5.107   2.610   1.146
10223TIP3    H230611   5.070   2.756   1.164
10224TIP3   OH230612   4.869   4.598   4.238
10224TIP3    H130613   4.945   4.648   4.269
10224TIP3    H230614   4.794   4.655   4.253
10225TIP3   OH230615   1.155   7.333   6.628
10225TIP3    H130616   1.202   7.415   6.642
10225TIP3    H230617   1.108   7.345   6.546
10226TIP3   OH230618   5.637   3.678   1.264
10226TIP3    H130619   5.593   3.761   1.244
10226TIP3    H230620   5.700   3.700   1.332
10227TIP3   OH230621   3.230   1.960   4.112
10227TIP3    H130622   3.147   2.009   4.105
10227TIP3    H230623   3.244   1.951   4.206
10228TIP3   OH230624   5.240   6.200   2.136
10228TIP3    H130625   5.260   6.293   2.131
10228TIP3    H230626   5.155   6.191   2.093
10229TIP3   OH230627   0.123   0.119   5.146
10229TIP3    H130628   0.100   0.212   5.155
10229TIP3    H230629   0.207   0.110   5.190
10230TIP3   OH230630   0.791   6.225   4.499
10230TIP3    H130631   0.727   6.155   4.511
10230TIP3    H230632   0.860   6.205   4.563
10231TIP3   OH230633   6.282   1.299   2.447
10231TIP3    H130634   6.289   1.212   2.486
10231TIP3    H230635   6.244   1.284   2.361
10232TIP3   OH230636   3.731   1.008   4.225
10232TIP3    H130637   3.706   1.058   4.302
10232TIP3    H230638   3.668   1.033   4.158
10233TIP3   OH230639   1.289   1.394   6.281
10233TIP3    H130640   1.354   1.458   6.252
10233TIP3    H230641   1.248   1.435   6.357
10234TIP3   OH230642   7.755   0.162   4.934
10234TIP3    H130643   7.793   0.153   5.022
10234TIP3    H230644   7.776   0.252   4.908
10235TIP3   OH230645   1.044   6.455   5.993
10235TIP3    H130646   0.963   6.418   5.958
10235TIP3    H230647   1.085   6.383   6.042
10236TIP3   OH230648   4.488   2.778   6.478
10236TIP3    H130649   4.420   2.720   6.513
10236TIP3    H230650   4.457   2.866   6.499
10237TIP3   OH230651   3.644   5.573   6.545
10237TIP3    H130652   3.557   5.538   6.527
10237TIP3    H230653   3.644   5.592   6.639
10238TIP3   OH230654   1.160   0.132   5.101
10238TIP3    H130655   1.171   0.164   5.190
10238TIP3    H230656   1.074   0.091   5.100
10239TIP3   OH230657   6.823   1.612   3.800
10239TIP3    H130658   6.832   1.661   3.882
10239TIP3    H230659   6.739   1.642   3.764
10240TIP3   OH230660   6.038   0.424   6.474
10240TIP3    H130661   5.973   0.402   6.541
10240TIP3    H230662   5.986   0.447   6.397
10241TIP3   OH230663   3.332   6.716   6.444
10241TIP3    H130664   3.274   6.672   6.383
10241TIP3    H230665   3.417   6.673   6.433
10242TIP3   OH230666   3.629   5.879   0.053
10242TIP3    H130667   3.593   5.885  -0.036
10242TIP3    H230668   3.624   5.968   0.087
10243TIP3   OH230669   7.475   4.144   5.181
10243TIP3    H130670   7.469   4.052   5.156
10243TIP3    H230671   7.542   4.181   5.123
10244TIP3   OH230672   3.422   0.582   2.931
10244TIP3    H130673   3.422   0.497   2.885
10244TIP3    H230674   3.329   0.604   2.939
10245TIP3   OH230675   2.432   0.056   5.455
10245TIP3    H130676   2.524   0.035   5.471
10245TIP3    H230677   2.386  -0.028   5.461
10246TIP3   OH230678   3.428   4.034   6.257
10246TIP3    H130679   3.417   3.945   6.291
10246TIP3    H230680   3.393   4.030   6.168
10247TIP3   OH230681   2.355   6.932   2.145
10247TIP3    H130682   2.441   6.943   2.186
10247TIP3    H230683   2.371   6.946   2.052
10248TIP3   OH230684   6.803   0.482   1.273
10248TIP3    H130685   6.862   0.504   1.200
10248TIP3    H230686   6.725   0.447   1.231
10249TIP3   OH230687   7.070   3.425   1.467
10249TIP3    H130688   7.088   3.401   1.376
10249TIP3    H230689   6.988   3.381   1.488
10250TIP3   OH230690   4.804   4.972   6.034
10250TIP3    H130691   4.777   4.892   6.078
10250TIP3    H230692   4.831   5.031   6.105
10251TIP3   OH230693   5.138   1.304   1.412
10251TIP3    H130694   5.169   1.376   1.467
10251TIP3    H230695   5.207   1.238   1.418
10252TIP3   OH230696   5.544   1.291   1.164
10252TIP3    H130697   5.530   1.280   1.258
10252TIP3    H230698   5.628   1.247   1.148
10253TIP3   OH230699   5.079   1.096   0.668
10253TIP3    H130700   5.109   1.045   0.593
10253TIP3    H230701   5.134   1.066   0.741
10254TIP3   OH230702   6.072   1.031   1.882
10254TIP3    H130703   6.071   1.018   1.787
10254TIP3    H230704   6.108   1.119   1.894
10255TIP3   OH230705   5.239   7.818   4.581
10255TIP3    H130706   5.224   7.723   4.589
10255TIP3    H230707   5.315   7.835   4.637
10256TIP3   OH230708   7.727   6.313   0.902
10256TIP3    H130709   7.659   6.273   0.957
10256TIP3    H230710   7.683   6.387   0.860
10257TIP3   OH230711   1.110   4.767   4.762
10257TIP3    H130712   1.044   4.834   4.780
10257TIP3    H230713   1.061   4.697   4.719
10258TIP3   OH230714   5.399   0.544   2.031
10258TIP3    H130715   5.320   0.597   2.022
10258TIP3    H230716   5.411   0.505   1.944
10259TIP3   OH230717   8.114   6.739   4.510
10259TIP3    H130718   8.049   6.684   4.553
10259TIP3    H230719   8.145   6.798   4.579
10260TIP3   OH230720   4.861   7.200   4.472
10260TIP3    H130721   4.773   7.163   4.479
10260TIP3    H230722   4.916   7.141   4.524
10261TIP3   OH230723   6.446   5.106   0.965
10261TIP3    H130724   6.406   5.100   1.052
10261TIP3    H230725   6.465   5.199   0.953
10262TIP3   OH230726   6.496   0.939   1.521
10262TIP3    H130727   6.429   1.002   1.545
10262TIP3    H230728   6.448   0.870   1.474
10263TIP3   OH230729   0.691   4.449   2.187
10263TIP3    H130730   0.707   4.520   2.124
10263TIP3    H230731   0.734   4.373   2.148
10264TIP3   OH230732   0.556   7.204   0.288
10264TIP3    H130733   0.651   7.208   0.288
10264TIP3    H230734   0.529   7.234   0.375
10265TIP3   OH230735   1.005   2.348   3.980
10265TIP3    H130736   0.993   2.424   3.922
10265TIP3    H230737   1.090   2.362   4.022
10266TIP3   OH230738   5.891   5.324   6.059
10266TIP3    H130739   5.952   5.341   5.987
10266TIP3    H230740   5.894   5.229   6.071
10267TIP3   OH230741   3.044   5.730   0.087
10267TIP3    H130742   3.018   5.645   0.052
10267TIP3    H230743   3.111   5.710   0.152
10268TIP3   OH230744   0.023   0.479   1.062
10268TIP3    H130745   0.063   0.522   1.137
10268TIP3    H230746   0.059   0.390   1.063
10269TIP3   OH230747   0.823   5.154   2.377
10269TIP3    H130748   0.901   5.121   2.334
10269TIP3    H230749   0.773   5.076   2.402
10270TIP3   OH230750   3.240   1.183   4.020
10270TIP3    H130751   3.160   1.230   4.045
10270TIP3    H230752   3.286   1.244   3.961
10271TIP3   OH230753   8.078   5.803   5.872
10271TIP3    H130754   8.098   5.767   5.785
10271TIP3    H230755   7.984   5.817   5.871
10272TIP3   OH230756   6.026   2.977   5.526
10272TIP3    H130757   6.112   3.019   5.521
10272TIP3    H230758   6.043   2.886   5.501
10273TIP3   OH230759   3.626   5.184   3.000
10273TIP3    H130760   3.597   5.244   3.069
10273TIP3    H230761   3.713   5.217   2.976
10274TIP3   OH230762   0.238   5.965   0.696
10274TIP3    H130763   0.161   5.968   0.640
10274TIP3    H230764   0.222   6.034   0.762
10275TIP3   OH230765   0.411   1.849   0.856
10275TIP3    H130766   0.458   1.771   0.827
10275TIP3    H230767   0.431   1.915   0.789
10276TIP3   OH230768   3.311   5.081   3.410
10276TIP3    H130769   3.362   5.105   3.487
10276TIP3    H230770   3.348   4.997   3.382
10277TIP3   OH230771   5.203   3.298   3.633
10277TIP3    H130772   5.211   3.215   3.680
10277TIP3    H230773   5.144   3.351   3.688
10278TIP3   OH230774   7.476   3.334   3.145
10278TIP3    H130775   7.435   3.263   3.096
10278TIP3    H230776   7.415   3.351   3.217
10279TIP3   OH230777   0.986   1.211   3.158
10279TIP3    H130778   1.012   1.166   3.078
10279TIP3    H230779   1.068   1.227   3.205
10280TIP3   OH230780   4.256   4.213   3.237
10280TIP3    H130781   4.242   4.144   3.302
10280TIP3    H230782   4.323   4.270   3.275
10281TIP3   OH230783   4.645   6.456   0.409
10281TIP3    H130784   4.664   6.505   0.489
10281TIP3    H230785   4.723   6.401   0.396
10282TIP3   OH230786   2.706   1.521   0.291
10282TIP3    H130787   2.630   1.490   0.241
10282TIP3    H230788   2.671   1.589   0.348
10283TIP3   OH230789   6.313   7.545   1.653
10283TIP3    H130790   6.218   7.556   1.656
10283TIP3    H230791   6.348   7.633   1.649
10284TIP3   OH230792  -0.046   4.575   3.138
10284TIP3    H130793  -0.123   4.574   3.194
10284TIP3    H230794  -0.023   4.667   3.130
10285TIP3   OH230795   2.466   4.897   2.000
10285TIP3    H130796   2.510   4.813   2.012
10285TIP3    H230797   2.376   4.874   1.980
10286TIP3   OH230798   5.074   4.777   4.319
10286TIP3    H130799   5.137   4.838   4.281
10286TIP3    H230800   5.126   4.723   4.379
10287TIP3   OH230801   7.830   5.865   4.800
10287TIP3    H130802   7.875   5.831   4.877
10287TIP3    H230803   7.851   5.959   4.799
10288TIP3   OH230804   2.948   3.167   5.918
10288TIP3    H130805   2.938   3.149   6.011
10288TIP3    H230806   2.997   3.249   5.914
10289TIP3   OH230807   7.772   3.610   0.942
10289TIP3    H130808   7.839   3.677   0.954
10289TIP3    H230809   7.690   3.659   0.931
10290TIP3   OH230810   4.287   3.094   1.920
10290TIP3    H130811   4.225   3.122   1.988
10290TIP3    H230812   4.373   3.121   1.952
10291TIP3   OH230813   7.181   2.058   1.815
10291TIP3    H130814   7.118   2.072   1.745
10291TIP3    H230815   7.265   2.050   1.770
10292TIP3   OH230816   0.558   2.867   5.941
10292TIP3    H130817   0.619   2.903   6.005
10292TIP3    H230818   0.574   2.917   5.861
10293TIP3   OH230819   5.844   1.578   1.791
10293TIP3    H130820   5.933   1.562   1.760
10293TIP3    H230821   5.854   1.648   1.857
10294TIP3   OH230822   2.110   6.000   1.218
10294TIP3    H130823   2.073   5.919   1.253
10294TIP3    H230824   2.033   6.052   1.191
10295TIP3   OH230825   3.452   3.028   2.299
10295TIP3    H130826   3.527   2.977   2.270
10295TIP3    H230827   3.405   2.969   2.359
10296TIP3   OH230828   6.322   5.717   2.715
10296TIP3    H130829   6.382   5.698   2.786
10296TIP3    H230830   6.305   5.811   2.723
10297TIP3   OH230831   4.270   2.289   1.981
10297TIP3    H130832   4.309   2.203   1.998
10297TIP3    H230833   4.342   2.342   1.947
10298TIP3   OH230834   0.506   4.870   6.785
10298TIP3    H130835   0.561   4.793   6.770
10298TIP3    H230836   0.419   4.835   6.804
10299TIP3   OH230837   3.736   2.303   3.286
10299TIP3    H130838   3.815   2.357   3.288
10299TIP3    H230839   3.750   2.238   3.355
10300TIP3   OH230840   0.392   2.208   6.061
10300TIP3    H130841   0.318   2.263   6.085
10300TIP3    H230842   0.353   2.126   6.032
10301TIP3   OH230843   6.072   7.053   2.487
10301TIP3    H130844   6.031   7.101   2.415
10301TIP3    H230845   6.091   6.966   2.451
10302TIP3   OH230846   5.780   1.656   2.540
10302TIP3    H130847   5.741   1.719   2.600
10302TIP3    H230848   5.783   1.700   2.455
10303TIP3   OH230849   7.220   7.022   0.729
10303TIP3    H130850   7.218   7.020   0.825
10303TIP3    H230851   7.263   7.105   0.707
10304TIP3   OH230852   4.582   2.477   6.604
10304TIP3    H130853   4.495   2.515   6.615
10304TIP3    H230854   4.573   2.419   6.528
10305TIP3   OH230855   1.850   5.246   2.943
10305TIP3    H130856   1.925   5.192   2.919
10305TIP3    H230857   1.888   5.329   2.971
10306TIP3   OH230858   2.621   5.801   2.734
10306TIP3    H130859   2.560   5.728   2.731
10306TIP3    H230860   2.570   5.875   2.769
10307TIP3   OH230861   0.710   0.125   4.620
10307TIP3    H130862   0.643   0.135   4.553
10307TIP3    H230863   0.790   0.158   4.578
10308TIP3   OH230864   3.966   3.952   6.177
10308TIP3    H130865   3.950   4.033   6.225
10308TIP3    H230866   3.903   3.954   6.105
10309TIP3   OH230867   3.524   7.093   6.623
10309TIP3    H130868   3.488   7.036   6.691
10309TIP3    H230869   3.520   7.041   6.543
10310TIP3   OH230870   8.188   2.989   2.320
10310TIP3    H130871   8.209   3.068   2.370
10310TIP3    H230872   8.124   3.017   2.255
10311TIP3   OH230873   7.117   5.408   6.585
10311TIP3    H130874   7.176   5.369   6.521
10311TIP3    H230875   7.034   5.364   6.571
10312TIP3   OH230876   1.141   0.450   6.288
10312TIP3    H130877   1.140   0.378   6.224
10312TIP3    H230878   1.219   0.501   6.265
10313TIP3   OH230879   6.145   0.778   2.356
10313TIP3    H130880   6.179   0.828   2.282
10313TIP3    H230881   6.055   0.809   2.366
10314TIP3   OH230882   5.061   0.850   2.130
10314TIP3    H130883   5.101   0.801   2.202
10314TIP3    H230884   5.061   0.941   2.160
10315TIP3   OH230885   5.430   6.326   5.221
10315TIP3    H130886   5.484   6.353   5.296
10315TIP3    H230887   5.451   6.234   5.208
10316TIP3   OH230888   3.140   1.667   5.768
10316TIP3    H130889   3.164   1.601   5.704
10316TIP3    H230890   3.204   1.658   5.838
10317TIP3   OH230891   7.781   7.233   0.583
10317TIP3    H130892   7.687   7.230   0.570
10317TIP3    H230893   7.802   7.327   0.585
10318TIP3   OH230894   5.058   5.081   3.262
10318TIP3    H130895   5.056   5.175   3.244
10318TIP3    H230896   5.028   5.041   3.181
10319TIP3   OH230897   6.245   4.753   4.013
10319TIP3    H130898   6.161   4.733   3.972
10319TIP3    H230899   6.310   4.709   3.958
10320TIP3   OH230900   4.838   2.908   6.492
10320TIP3    H130901   4.879   2.831   6.531
10320TIP3    H230902   4.874   2.913   6.403
10321TIP3   OH230903   5.013   6.394   6.301
10321TIP3    H130904   5.021   6.467   6.240
10321TIP3    H230905   5.014   6.316   6.246
10322TIP3   OH230906   7.101   7.550   4.852
10322TIP3    H130907   7.161   7.512   4.788
10322TIP3    H230908   7.106   7.644   4.837
10323TIP3   OH230909   1.708   5.040   1.511
10323TIP3    H130910   1.727   5.075   1.598
10323TIP3    H230911   1.661   5.111   1.467
10324TIP3   OH230912   4.100   5.401   3.502
10324TIP3    H130913   4.067   5.399   3.592
10324TIP3    H230914   4.122   5.493   3.487
10325TIP3   OH230915   2.299   2.015   5.716
10325TIP3    H130916   2.346   2.061   5.647
10325TIP3    H230917   2.343   2.042   5.797
10326TIP3   OH230918   2.620   7.100   4.595
10326TIP3    H130919   2.640   7.085   4.687
10326TIP3    H230920   2.561   7.175   4.595
10327TIP3   OH230921   6.756   6.021   2.255
10327TIP3    H130922   6.731   6.107   2.287
10327TIP3    H230923   6.842   6.034   2.215
10328TIP3   OH230924   6.103   3.341   6.524
10328TIP3    H130925   6.067   3.321   6.438
10328TIP3    H230926   6.179   3.284   6.532
10329TIP3   OH230927   6.814   1.515   0.867
10329TIP3    H130928   6.893   1.470   0.896
10329TIP3    H230929   6.742   1.455   0.887
10330TIP3   OH230930   2.040   7.348   1.998
10330TIP3    H130931   2.057   7.333   2.091
10330TIP3    H230932   2.124   7.373   1.961
10331TIP3   OH230933   0.412   4.372   6.581
10331TIP3    H130934   0.380   4.461   6.569
10331TIP3    H230935   0.380   4.324   6.504
10332TIP3   OH230936   4.325   0.567   0.421
10332TIP3    H130937   4.394   0.602   0.364
10332TIP3    H230938   4.254   0.543   0.361
10333TIP3   OH230939   7.841   5.106   0.301
10333TIP3    H130940   7.802   5.138   0.220
10333TIP3    H230941   7.781   5.138   0.370
10334TIP3   OH230942   6.387   1.284   6.784
10334TIP3    H130943   6.350   1.368   6.812
10334TIP3    H230944   6.409   1.240   6.866
10335TIP3   OH230945   5.845   6.777   3.534
10335TIP3    H130946   5.771   6.828   3.500
10335TIP3    H230947   5.866   6.715   3.465
10336TIP3   OH230948   4.348   2.726   0.634
10336TIP3    H130949   4.253   2.728   0.646
10336TIP3    H230950   4.361   2.727   0.539
10337TIP3   OH230951   6.521   1.344   3.643
10337TIP3    H130952   6.494   1.319   3.732
10337TIP3    H230953   6.442   1.330   3.590
10338TIP3   OH230954   0.426   7.172   3.133
10338TIP3    H130955   0.503   7.224   3.111
10338TIP3    H230956   0.352   7.223   3.101
10339TIP3   OH230957   2.534   0.903   1.692
10339TIP3    H130958   2.524   0.858   1.608
10339TIP3    H230959   2.487   0.848   1.754
10340TIP3   OH230960   1.112   7.105   1.781
10340TIP3    H130961   1.071   7.176   1.831
10340TIP3    H230962   1.196   7.141   1.753
10341TIP3   OH230963   3.924   2.181   0.617
10341TIP3    H130964   3.955   2.260   0.661
10341TIP3    H230965   3.915   2.207   0.525
10342TIP3   OH230966   3.855   6.841   5.068
10342TIP3    H130967   3.764   6.813   5.072
10342TIP3    H230968   3.876   6.839   4.974
10343TIP3   OH230969   4.449   5.497   4.030
10343TIP3    H130970   4.543   5.482   4.018
10343TIP3    H230971   4.417   5.418   4.073
10344TIP3   OH230972   2.304   3.763   2.671
10344TIP3    H130973   2.300   3.841   2.616
10344TIP3    H230974   2.265   3.790   2.754
10345TIP3   OH230975   3.496   7.028   5.712
10345TIP3    H130976   3.427   7.060   5.654
10345TIP3    H230977   3.531   7.108   5.753
10346TIP3   OH230978   7.823   0.391   4.224
10346TIP3    H130979   7.812   0.454   4.152
10346TIP3    H230980   7.737   0.388   4.266
10347TIP3   OH230981   5.410   5.193   4.072
10347TIP3    H130982   5.500   5.161   4.084
10347TIP3    H230983   5.356   5.132   4.123
10348TIP3   OH230984   6.259   2.801   2.524
10348TIP3    H130985   6.267   2.712   2.559
10348TIP3    H230986   6.304   2.796   2.439
10349TIP3   OH230987   5.800   5.913   2.853
10349TIP3    H130988   5.835   5.836   2.809
10349TIP3    H230989   5.857   5.926   2.928
10350TIP3   OH230990   3.084   0.066   5.424
10350TIP3    H130991   3.032   0.072   5.344
10350TIP3    H230992   3.019   0.063   5.494
10351TIP3   OH230993   3.025   7.286   0.744
10351TIP3    H130994   3.033   7.226   0.818
10351TIP3    H230995   3.041   7.373   0.780
10352TIP3   OH230996   3.188   0.467   4.153
10352TIP3    H130997   3.186   0.383   4.198
10352TIP3    H230998   3.135   0.525   4.208
10353TIP3   OH230999   6.797   2.743   4.700
10353TIP3    H131000   6.754   2.673   4.651
10353TIP3    H231001   6.736   2.816   4.698
10354TIP3   OH231002   6.873   4.809   6.479
10354TIP3    H131003   6.951   4.763   6.449
10354TIP3    H231004   6.810   4.798   6.408
10355TIP3   OH231005   5.720   1.172   1.840
10355TIP3    H131006   5.659   1.231   1.795
10355TIP3    H231007   5.666   1.098   1.867
10356TIP3   OH231008   3.298   3.815   6.642
10356TIP3    H131009   3.265   3.901   6.664
10356TIP3    H231010   3.248   3.789   6.564
10357TIP3   OH231011   8.337   1.627   5.179
10357TIP3    H131012   8.242   1.616   5.184
10357TIP3    H231013   8.353   1.652   5.088
10358TIP3   OH231014   5.651   6.222   0.323
10358TIP3    H131015   5.599   6.198   0.246
10358TIP3    H231016   5.693   6.305   0.299
10359TIP3   OH231017   5.039   7.301   0.828
10359TIP3    H131018   5.097   7.225   0.826
10359TIP3    H231019   5.057   7.347   0.746
10360TIP3   OH231020   8.243   6.053   4.910
10360TIP3    H131021   8.228   6.112   4.837
10360TIP3    H231022   8.292   5.980   4.872
10361TIP3   OH231023   4.914   6.326   0.677
10361TIP3    H131024   4.975   6.353   0.608
10361TIP3    H231025   4.969   6.314   0.754
10362TIP3   OH231026   4.287   7.649   4.767
10362TIP3    H131027   4.327   7.668   4.682
10362TIP3    H231028   4.345   7.585   4.807
10363TIP3   OH231029   0.768   6.925   6.098
10363TIP3    H131030   0.776   6.833   6.072
10363TIP3    H231031   0.785   6.974   6.018
10364TIP3   OH231032   2.242   6.544   0.573
10364TIP3    H131033   2.293   6.463   0.564
10364TIP3    H231034   2.308   6.613   0.574
10365TIP3   OH231035   0.739   3.438   2.392
10365TIP3    H131036   0.814   3.388   2.359
10365TIP3    H231037   0.693   3.377   2.450
10366TIP3   OH231038   3.217   6.878   1.641
10366TIP3    H131039   3.147   6.941   1.626
10366TIP3    H231040   3.267   6.914   1.714
10367TIP3   OH231041   0.173   2.260   0.570
10367TIP3    H131042   0.263   2.285   0.593
10367TIP3    H231043   0.172   2.259   0.474
10368TIP3   OH231044   2.455   3.609   5.331
10368TIP3    H131045   2.450   3.649   5.244
10368TIP3    H231046   2.493   3.677   5.387
10369TIP3   OH231047   3.575   5.706   6.083
10369TIP3    H131048   3.634   5.745   6.019
10369TIP3    H231049   3.595   5.752   6.165
10370TIP3   OH231050   2.233   1.015   6.209
10370TIP3    H131051   2.226   1.047   6.119
10370TIP3    H231052   2.183   0.933   6.209
10371TIP3   OH231053   7.453   6.258   5.061
10371TIP3    H131054   7.402   6.220   5.132
10371TIP3    H231055   7.388   6.289   4.998
10372TIP3   OH231056   3.739   0.785   1.483
10372TIP3    H131057   3.824   0.829   1.494
10372TIP3    H231058   3.712   0.810   1.394
10373TIP3   OH231059   0.129   4.700   4.684
10373TIP3    H131060   0.152   4.793   4.691
10373TIP3    H231061   0.115   4.686   4.591
10374TIP3   OH231062   1.272   5.226   4.595
10374TIP3    H131063   1.179   5.232   4.618
10374TIP3    H231064   1.286   5.133   4.578
10375TIP3   OH231065   1.985   0.972   6.614
10375TIP3    H131066   2.042   1.014   6.550
10375TIP3    H231067   1.943   0.901   6.564
10376TIP3   OH231068   1.279   5.535   2.917
10376TIP3    H131069   1.195   5.580   2.917
10376TIP3    H231070   1.328   5.576   2.845
10377TIP3   OH231071   5.223   5.444   5.716
10377TIP3    H131072   5.262   5.461   5.630
10377TIP3    H231073   5.211   5.532   5.753
10378TIP3   OH231074   1.006   0.044   1.325
10378TIP3    H131075   1.062   0.066   1.250
10378TIP3    H231076   1.050  -0.030   1.367
10379TIP3   OH231077   5.668   6.278   3.609
10379TIP3    H131078   5.639   6.276   3.518
10379TIP3    H231079   5.690   6.370   3.625
10380TIP3   OH231080   6.841   5.147   6.126
10380TIP3    H131081   6.854   5.124   6.218
10380TIP3    H231082   6.906   5.095   6.078
10381TIP3   OH231083   6.069   3.990   1.390
10381TIP3    H131084   6.149   4.010   1.440
10381TIP3    H231085   6.098   3.927   1.324
10382TIP3   OH231086   0.028   2.640   5.588
10382TIP3    H131087   0.045   2.733   5.573
10382TIP3    H231088  -0.051   2.638   5.642
10383TIP3   OH231089   4.824   4.123   3.083
10383TIP3    H131090   4.788   4.183   3.017
10383TIP3    H231091   4.896   4.172   3.123
10384TIP3   OH231092   7.695   1.296   6.505
10384TIP3    H131093   7.698   1.201   6.511
10384TIP3    H231094   7.785   1.324   6.522
10385TIP3   OH231095   3.416   0.722   2.574
10385TIP3    H131096   3.481   0.653   2.574
10385TIP3    H231097   3.347   0.691   2.633
10386TIP3   OH231098   2.718   0.384   0.251
10386TIP3    H131099   2.789   0.380   0.187
10386TIP3    H231100   2.681   0.471   0.240
10387TIP3   OH231101   1.339   1.197   1.520
10387TIP3    H131102   1.430   1.177   1.539
10387TIP3    H231103   1.289   1.151   1.588
10388TIP3   OH231104   6.471   3.605   2.426
10388TIP3    H131105   6.449   3.512   2.438
10388TIP3    H231106   6.492   3.636   2.514
10389TIP3   OH231107   7.183   4.603   4.401
10389TIP3    H131108   7.095   4.575   4.377
10389TIP3    H231109   7.170   4.658   4.478
10390TIP3   OH231110   4.915   6.700   6.653
10390TIP3    H131111   4.881   6.694   6.564
10390TIP3    H231112   4.976   6.627   6.660
10391TIP3   OH231113   3.078   6.425   2.943
10391TIP3    H131114   3.056   6.333   2.954
10391TIP3    H231115   3.021   6.471   3.004
10392TIP3   OH231116   4.258   0.970   5.375
10392TIP3    H131117   4.197   1.027   5.421
10392TIP3    H231118   4.246   0.992   5.283
10393TIP3   OH231119   2.617   0.396   2.395
10393TIP3    H131120   2.611   0.383   2.490
10393TIP3    H231121   2.547   0.457   2.375
10394TIP3   OH231122   6.109   3.125   1.548
10394TIP3    H131123   6.132   3.061   1.481
10394TIP3    H231124   6.179   3.119   1.612
10395TIP3   OH231125   5.643   1.549   6.242
10395TIP3    H131126   5.606   1.637   6.247
10395TIP3    H231127   5.614   1.506   6.322
10396TIP3   OH231128   7.733   1.828   5.159
10396TIP3    H131129   7.705   1.900   5.103
10396TIP3    H231130   7.756   1.869   5.242
10397TIP3   OH231131   1.588   1.516   0.736
10397TIP3    H131132   1.666   1.539   0.787
10397TIP3    H231133   1.517   1.517   0.799
10398TIP3   OH231134   1.509   4.044   5.078
10398TIP3    H131135   1.485   4.107   5.010
10398TIP3    H231136   1.534   3.965   5.031
10399TIP3   OH231137   4.879   6.067   4.861
10399TIP3    H131138   4.839   6.145   4.822
10399TIP3    H231139   4.967   6.095   4.885
10400TIP3   OH231140   8.053   5.249   3.705
10400TIP3    H131141   7.973   5.280   3.747
10400TIP3    H231142   8.069   5.311   3.634
10401TIP3   OH231143   4.911   4.276   2.495
10401TIP3    H131144   4.929   4.336   2.567
10401TIP3    H231145   4.971   4.304   2.426
10402TIP3   OH231146   2.431   5.113   6.505
10402TIP3    H131147   2.481   5.139   6.428
10402TIP3    H231148   2.392   5.194   6.537
10403TIP3   OH231149   1.124   0.033   4.795
10403TIP3    H131150   1.050  -0.011   4.837
10403TIP3    H231151   1.170  -0.037   4.748
10404TIP3   OH231152   7.845   6.513   6.816
10404TIP3    H131153   7.760   6.482   6.846
10404TIP3    H231154   7.850   6.603   6.846
10405TIP3   OH231155   1.892   4.205   2.547
10405TIP3    H131156   1.814   4.213   2.492
10405TIP3    H231157   1.955   4.158   2.492
10406TIP3   OH231158   8.006   6.957   4.338
10406TIP3    H131159   8.094   6.996   4.338
10406TIP3    H231160   8.015   6.877   4.389
10407TIP3   OH231161   3.286   2.992   1.343
10407TIP3    H131162   3.270   3.043   1.422
10407TIP3    H231163   3.312   2.905   1.376
10408TIP3   OH231164   6.936   3.617   2.141
10408TIP3    H131165   6.891   3.663   2.212
10408TIP3    H231166   6.867   3.568   2.096
10409TIP3   OH231167   2.290   3.882   1.442
10409TIP3    H131168   2.255   3.828   1.372
10409TIP3    H231169   2.287   3.971   1.407
10410TIP3   OH231170   6.655   4.546   3.256
10410TIP3    H131171   6.728   4.601   3.229
10410TIP3    H231172   6.661   4.542   3.351
10411TIP3   OH231173   7.378   4.874   4.448
10411TIP3    H131174   7.384   4.858   4.354
10411TIP3    H231175   7.362   4.787   4.486
10412TIP3   OH231176   7.141   7.486   5.148
10412TIP3    H131177   7.107   7.397   5.145
10412TIP3    H231178   7.074   7.539   5.105
10413TIP3   OH231179   8.338   0.882   4.834
10413TIP3    H131180   8.290   0.935   4.771
10413TIP3    H231181   8.273   0.855   4.899
10414TIP3   OH231182   1.886   1.676   2.735
10414TIP3    H131183   1.903   1.663   2.828
10414TIP3    H231184   1.936   1.755   2.713
10415TIP3   OH231185   0.184   3.309   5.217
10415TIP3    H131186   0.273   3.279   5.197
10415TIP3    H231187   0.181   3.398   5.182
10416TIP3   OH231188   3.843   7.331   4.947
10416TIP3    H131189   3.893   7.409   4.923
10416TIP3    H231190   3.861   7.320   5.041
10417TIP3   OH231191   5.702   3.268   5.267
10417TIP3    H131192   5.608   3.284   5.276
10417TIP3    H231193   5.709   3.174   5.248
10418TIP3   OH231194   2.885   4.599   6.278
10418TIP3    H131195   2.841   4.517   6.256
10418TIP3    H231196   2.820   4.667   6.261
10419TIP3   OH231197   3.934   4.721   3.671
10419TIP3    H131198   3.992   4.695   3.600
10419TIP3    H231199   3.987   4.711   3.750
10420TIP3   OH231200   4.043   2.527   0.227
10420TIP3    H131201   3.970   2.501   0.170
10420TIP3    H231202   4.063   2.617   0.201
10421TIP3   OH231203   0.630   3.035   1.445
10421TIP3    H131204   0.653   2.942   1.445
10421TIP3    H231205   0.656   3.066   1.531
10422TIP3   OH231206   7.416   0.580   5.428
10422TIP3    H131207   7.484   0.594   5.493
10422TIP3    H231208   7.450   0.622   5.348
10423TIP3   OH231209   2.890   4.062   0.829
10423TIP3    H131210   2.884   4.063   0.734
10423TIP3    H231211   2.837   3.987   0.856
10424TIP3   OH231212   5.756   2.168   4.918
10424TIP3    H131213   5.769   2.256   4.955
10424TIP3    H231214   5.832   2.154   4.862
10425TIP3   OH231215   4.294   2.443   4.702
10425TIP3    H131216   4.251   2.527   4.684
10425TIP3    H231217   4.221   2.382   4.713
10426TIP3   OH231218   7.686   4.468   3.946
10426TIP3    H131219   7.640   4.537   3.898
10426TIP3    H231220   7.738   4.514   4.011
10427TIP3   OH231221   8.111   6.402   3.204
10427TIP3    H131222   8.145   6.446   3.282
10427TIP3    H231223   8.189   6.373   3.157
10428TIP3   OH231224   1.863   5.412   6.066
10428TIP3    H131225   1.896   5.369   6.145
10428TIP3    H231226   1.768   5.415   6.079
10429TIP3   OH231227   4.064   7.463   4.212
10429TIP3    H131228   4.124   7.470   4.286
10429TIP3    H231229   4.098   7.390   4.160
10430TIP3   OH231230   7.841   3.571   6.577
10430TIP3    H131231   7.902   3.641   6.602
10430TIP3    H231232   7.877   3.493   6.619
10431TIP3   OH231233   7.060   2.343   3.636
10431TIP3    H131234   7.150   2.371   3.655
10431TIP3    H231235   7.051   2.260   3.683
10432TIP3   OH231236   5.886   4.510   1.478
10432TIP3    H131237   5.882   4.606   1.484
10432TIP3    H231238   5.807   4.481   1.523
10433TIP3   OH231239   4.976   1.247   4.356
10433TIP3    H131240   4.946   1.156   4.354
10433TIP3    H231241   5.051   1.247   4.416
10434TIP3   OH231242   1.310   6.510   0.477
10434TIP3    H131243   1.234   6.539   0.426
10434TIP3    H231244   1.340   6.588   0.523
10435TIP3   OH231245   5.756   0.195   5.554
10435TIP3    H131246   5.669   0.160   5.569
10435TIP3    H231247   5.808   0.164   5.628
10436TIP3   OH231248   4.004   7.452   1.441
10436TIP3    H131249   4.005   7.413   1.528
10436TIP3    H231250   4.012   7.377   1.381
10437TIP3   OH231251   6.560   6.584   1.487
10437TIP3    H131252   6.498   6.642   1.532
10437TIP3    H231253   6.619   6.644   1.440
10438TIP3   OH231254   3.909   4.132   6.379
10438TIP3    H131255   3.847   4.192   6.419
10438TIP3    H231256   3.915   4.058   6.439
10439TIP3   OH231257   5.606   0.869   5.835
10439TIP3    H131258   5.604   0.808   5.761
10439TIP3    H231259   5.696   0.866   5.867
10440TIP3   OH231260   6.283   3.658   4.744
10440TIP3    H131261   6.289   3.746   4.780
10440TIP3    H231262   6.198   3.626   4.773
10441TIP3   OH231263   3.409   7.262   4.370
10441TIP3    H131264   3.400   7.340   4.425
10441TIP3    H231265   3.322   7.250   4.332
10442TIP3   OH231266   6.836   1.322   2.807
10442TIP3    H131267   6.770   1.369   2.858
10442TIP3    H231268   6.818   1.229   2.824
10443TIP3   OH231269   3.644   3.022   5.645
10443TIP3    H131270   3.558   2.981   5.633
10443TIP3    H231271   3.650   3.038   5.739
10444TIP3   OH231272   0.987   2.815   4.425
10444TIP3    H131273   1.020   2.899   4.457
10444TIP3    H231274   1.003   2.817   4.331
10445TIP3   OH231275   6.978   6.022   6.612
10445TIP3    H131276   7.053   6.081   6.622
10445TIP3    H231277   7.006   5.941   6.655
10446TIP3   OH231278   6.466   1.457   6.365
10446TIP3    H131279   6.506   1.379   6.404
10446TIP3    H231280   6.454   1.433   6.273
10447TIP3   OH231281   2.153   2.629   3.496
10447TIP3    H131282   2.231   2.654   3.546
10447TIP3    H231283   2.141   2.701   3.433
10448TIP3   OH231284   7.859   4.155   4.851
10448TIP3    H131285   7.865   4.060   4.840
10448TIP3    H231286   7.948   4.182   4.873
10449TIP3   OH231287   1.303   1.025   3.825
10449TIP3    H131288   1.290   1.094   3.760
10449TIP3    H231289   1.240   0.957   3.800
10450TIP3   OH231290   0.908   6.928   0.799
10450TIP3    H131291   0.970   7.000   0.785
10450TIP3    H231292   0.837   6.946   0.736
10451TIP3   OH231293   3.816   4.094   3.320
10451TIP3    H131294   3.883   4.113   3.385
10451TIP3    H231295   3.819   4.170   3.261
10452TIP3   OH231296   1.270   7.471   4.416
10452TIP3    H131297   1.277   7.542   4.481
10452TIP3    H231298   1.185   7.432   4.433
10453TIP3   OH231299   2.960   0.425   3.982
10453TIP3    H131300   3.048   0.406   4.014
10453TIP3    H231301   2.908   0.439   4.061
10454TIP3   OH231302   2.850   3.204   2.974
10454TIP3    H131303   2.840   3.241   2.886
10454TIP3    H231304   2.765   3.217   3.015
10455TIP3   OH231305   7.074   4.969   1.955
10455TIP3    H131306   7.060   5.038   2.019
10455TIP3    H231307   6.992   4.967   1.905
10456TIP3   OH231308   1.775   5.826   2.394
10456TIP3    H131309   1.707   5.821   2.462
10456TIP3    H231310   1.778   5.737   2.358
10457TIP3   OH231311   4.758   6.858   4.337
10457TIP3    H131312   4.741   6.918   4.409
10457TIP3    H231313   4.672   6.828   4.308
10458TIP3   OH231314   0.210   6.822   5.141
10458TIP3    H131315   0.215   6.916   5.159
10458TIP3    H231316   0.118   6.800   5.156
10459TIP3   OH231317   6.590   4.221   1.973
10459TIP3    H131318   6.663   4.282   1.973
10459TIP3    H231319   6.527   4.258   1.912
10460TIP3   OH231320   4.090   4.657   5.925
10460TIP3    H131321   4.144   4.736   5.930
10460TIP3    H231322   4.048   4.651   6.011
10461TIP3   OH231323   7.526   4.560   1.021
10461TIP3    H131324   7.620   4.568   1.039
10461TIP3    H231325   7.505   4.638   0.970
10462TIP3   OH231326   3.702   7.682   5.719
10462TIP3    H131327   3.745   7.603   5.686
10462TIP3    H231328   3.753   7.707   5.797
10463TIP3   OH231329   6.241   1.801   3.785
10463TIP3    H131330   6.157   1.773   3.820
10463TIP3    H231331   6.290   1.830   3.862
10464TIP3   OH231332   4.833   3.005   2.398
10464TIP3    H131333   4.841   3.042   2.310
10464TIP3    H231334   4.824   2.911   2.385
10465TIP3   OH231335   5.511   7.736   6.834
10465TIP3    H131336   5.531   7.713   6.743
10465TIP3    H231337   5.463   7.660   6.868
10466TIP3   OH231338   5.566   7.634   2.912
10466TIP3    H131339   5.558   7.609   3.004
10466TIP3    H231340   5.478   7.661   2.886
10467TIP3   OH231341   5.356   6.887   4.317
10467TIP3    H131342   5.291   6.951   4.291
10467TIP3    H231343   5.432   6.904   4.261
10468TIP3   OH231344   5.641   6.058   0.805
10468TIP3    H131345   5.669   5.966   0.811
10468TIP3    H231346   5.666   6.084   0.716
10469TIP3   OH231347   7.115   5.411   1.034
10469TIP3    H131348   7.142   5.322   1.055
10469TIP3    H231349   7.197   5.459   1.021
10470TIP3   OH231350   2.497   2.768   2.573
10470TIP3    H131351   2.406   2.796   2.567
10470TIP3    H231352   2.544   2.844   2.607
10471TIP3   OH231353   4.905   0.333   3.458
10471TIP3    H131354   4.867   0.329   3.546
10471TIP3    H231355   4.899   0.425   3.434
10472TIP3   OH231356   6.959   6.179   1.250
10472TIP3    H131357   6.923   6.090   1.254
10472TIP3    H231358   7.044   6.169   1.208
10473TIP3   OH231359   3.066   3.494   6.139
10473TIP3    H131360   3.064   3.574   6.086
10473TIP3    H231361   2.983   3.450   6.118
10474TIP3   OH231362   8.172   4.072   5.632
10474TIP3    H131363   8.103   4.061   5.699
10474TIP3    H231364   8.209   4.158   5.651
10475TIP3   OH231365   8.406   0.955   6.816
10475TIP3    H131366   8.334   0.991   6.868
10475TIP3    H231367   8.440   1.029   6.766
10476TIP3   OH231368   4.434   7.651   6.009
10476TIP3    H131369   4.524   7.681   6.016
10476TIP3    H231370   4.435   7.590   5.935
10477TIP3   OH231371   0.061   1.807   3.657
10477TIP3    H131372   0.002   1.745   3.702
10477TIP3    H231373   0.005   1.851   3.593
10478TIP3   OH231374   7.980   4.645   1.352
10478TIP3    H131375   7.917   4.648   1.424
10478TIP3    H231376   7.991   4.552   1.334
10479TIP3   OH231377   7.228   1.998   4.609
10479TIP3    H131378   7.314   1.988   4.568
10479TIP3    H231379   7.166   1.998   4.535
10480TIP3   OH231380   7.594   3.069   1.136
10480TIP3    H131381   7.570   3.139   1.075
10480TIP3    H231382   7.641   3.113   1.206
10481TIP3   OH231383   2.600   4.353   6.187
10481TIP3    H131384   2.527   4.411   6.211
10481TIP3    H231385   2.660   4.357   6.262
10482TIP3   OH231386   6.741   7.308   1.086
10482TIP3    H131387   6.767   7.355   1.165
10482TIP3    H231388   6.651   7.280   1.103
10483TIP3   OH231389   0.379   7.449   6.768
10483TIP3    H131390   0.287   7.432   6.749
10483TIP3    H231391   0.427   7.387   6.712
10484TIP3   OH231392   6.296   3.359   3.519
10484TIP3    H131393   6.344   3.407   3.586
10484TIP3    H231394   6.337   3.272   3.517
10485TIP3   OH231395   1.831   3.338   0.876
10485TIP3    H131396   1.744   3.375   0.888
10485TIP3    H231397   1.848   3.345   0.782
10486TIP3   OH231398   3.357   7.864   1.268
10486TIP3    H131399   3.448   7.838   1.256
10486TIP3    H231400   3.327   7.887   1.180
10487TIP3   OH231401   0.625   7.469   5.407
10487TIP3    H131402   0.564   7.513   5.466
10487TIP3    H231403   0.636   7.382   5.445
10488TIP3   OH231404   0.631   4.279   4.814
10488TIP3    H131405   0.688   4.355   4.824
10488TIP3    H231406   0.690   4.204   4.824
10489TIP3   OH231407   1.948   5.840   3.664
10489TIP3    H131408   1.888   5.786   3.613
10489TIP3    H231409   2.031   5.836   3.616
10490TIP3   OH231410   3.225   1.951   5.120
10490TIP3    H131411   3.290   1.965   5.050
10490TIP3    H231412   3.225   2.034   5.168
10491TIP3   OH231413   6.992   1.252   1.196
10491TIP3    H131414   6.909   1.212   1.170
10491TIP3    H231415   6.976   1.283   1.285
10492TIP3   OH231416   1.856   3.161   0.235
10492TIP3    H131417   1.782   3.216   0.261
10492TIP3    H231418   1.845   3.081   0.286
10493TIP3   OH231419   5.003   5.019   6.406
10493TIP3    H131420   5.021   5.083   6.474
10493TIP3    H231421   4.998   5.071   6.325
10494TIP3   OH231422   2.269   3.189   6.195
10494TIP3    H131423   2.291   3.102   6.161
10494TIP3    H231424   2.340   3.246   6.164
10495TIP3   OH231425   1.908   1.389   3.125
10495TIP3    H131426   1.816   1.373   3.147
10495TIP3    H231427   1.954   1.379   3.209
10496TIP3   OH231428   5.606   5.872   6.684
10496TIP3    H131429   5.548   5.903   6.753
10496TIP3    H231430   5.602   5.939   6.616
10497TIP3   OH231431   3.124   6.054   0.736
10497TIP3    H131432   3.154   6.088   0.820
10497TIP3    H231433   3.036   6.090   0.726
10498TIP3   OH231434   3.269   3.768   5.497
10498TIP3    H131435   3.213   3.844   5.510
10498TIP3    H231436   3.308   3.781   5.411
10499TIP3   OH231437   0.667   5.400   0.518
10499TIP3    H131438   0.635   5.459   0.450
10499TIP3    H231439   0.761   5.416   0.522
10500TIP3   OH231440   0.381   2.507   1.317
10500TIP3    H131441   0.324   2.432   1.335
10500TIP3    H231442   0.410   2.535   1.404
10501TIP3   OH231443   0.939   3.011   0.534
10501TIP3    H131444   0.862   2.968   0.571
10501TIP3    H231445   0.989   3.039   0.610
10502TIP3   OH231446   2.244   4.499   2.162
10502TIP3    H131447   2.286   4.579   2.194
10502TIP3    H231448   2.314   4.451   2.119
10503TIP3   OH231449   2.031   2.380   2.420
10503TIP3    H131450   2.115   2.360   2.460
10503TIP3    H231451   2.041   2.468   2.383
10504TIP3   OH231452   4.171   4.482   6.587
10504TIP3    H131453   4.173   4.468   6.681
10504TIP3    H231454   4.227   4.558   6.572
10505TIP3   OH231455   0.687   5.996   3.033
10505TIP3    H131456   0.668   6.007   3.126
10505TIP3    H231457   0.616   6.041   2.988
10506TIP3   OH231458   7.197   2.448   5.667
10506TIP3    H131459   7.286   2.422   5.645
10506TIP3    H231460   7.200   2.468   5.761
10507TIP3   OH231461   2.651   6.775   4.647
10507TIP3    H131462   2.621   6.694   4.687
10507TIP3    H231463   2.572   6.817   4.613
10508TIP3   OH231464   1.441   5.104   4.138
10508TIP3    H131465   1.536   5.119   4.144
10508TIP3    H231466   1.402   5.182   4.178
10509TIP3   OH231467   2.249   3.577   3.397
10509TIP3    H131468   2.261   3.672   3.393
10509TIP3    H231469   2.165   3.565   3.441
10510TIP3   OH231470   4.165   5.494   0.537
10510TIP3    H131471   4.144   5.400   0.535
10510TIP3    H231472   4.196   5.509   0.626
10511TIP3   OH231473   5.854   0.843   1.587
10511TIP3    H131474   5.946   0.865   1.598
10511TIP3    H231475   5.832   0.790   1.664
10512TIP3   OH231476   0.384   5.871   1.227
10512TIP3    H131477   0.418   5.956   1.256
10512TIP3    H231478   0.298   5.890   1.191
10513TIP3   OH231479   1.447   4.623   5.839
10513TIP3    H131480   1.394   4.698   5.867
10513TIP3    H231481   1.499   4.600   5.915
10514TIP3   OH231482   1.800   1.364   5.276
10514TIP3    H131483   1.843   1.281   5.256
10514TIP3    H231484   1.721   1.340   5.323
10515TIP3   OH231485   8.256   6.462   4.231
10515TIP3    H131486   8.244   6.400   4.158
10515TIP3    H231487   8.188   6.438   4.294
10516TIP3   OH231488   1.372   6.034   5.612
10516TIP3    H131489   1.347   6.124   5.593
10516TIP3    H231490   1.458   6.024   5.571
10517TIP3   OH231491   2.159   7.688   3.784
10517TIP3    H131492   2.251   7.663   3.780
10517TIP3    H231493   2.114   7.621   3.733
10518TIP3   OH231494   2.693   0.648   4.813
10518TIP3    H131495   2.701   0.674   4.721
10518TIP3    H231496   2.681   0.730   4.861
10519TIP3   OH231497   7.248   3.044   6.118
10519TIP3    H131498   7.267   3.040   6.212
10519TIP3    H231499   7.300   2.973   6.080
10520TIP3   OH231500   5.592   6.507   0.432
10520TIP3    H131501   5.528   6.578   0.432
10520TIP3    H231502   5.631   6.509   0.345
10521TIP3   OH231503   3.037   0.703   2.011
10521TIP3    H131504   3.016   0.630   2.069
10521TIP3    H231505   3.002   0.677   1.926
10522TIP3   OH231506   5.410   5.541   0.401
10522TIP3    H131507   5.503   5.520   0.396
10522TIP3    H231508   5.394   5.594   0.322
10523TIP3   OH231509   6.678   4.613   4.845
10523TIP3    H131510   6.641   4.696   4.814
10523TIP3    H231511   6.730   4.582   4.772
10524TIP3   OH231512   6.778   0.203   4.823
10524TIP3    H131513   6.792   0.236   4.912
10524TIP3    H231514   6.832   0.125   4.817
10525TIP3   OH231515   2.201   1.229   4.000
10525TIP3    H131516   2.115   1.220   3.958
10525TIP3    H231517   2.206   1.320   4.027
10526TIP3   OH231518   1.778   5.152   0.172
10526TIP3    H131519   1.721   5.190   0.239
10526TIP3    H231520   1.718   5.121   0.105
10527TIP3   OH231521   2.182   2.019   1.003
10527TIP3    H131522   2.238   2.004   1.080
10527TIP3    H231523   2.179   1.935   0.958
10528TIP3   OH231524   3.853   5.225   6.039
10528TIP3    H131525   3.848   5.156   6.105
10528TIP3    H231526   3.779   5.208   5.980
10529TIP3   OH231527   5.319   1.787   0.938
10529TIP3    H131528   5.242   1.843   0.951
10529TIP3    H231529   5.301   1.740   0.857
10530TIP3   OH231530   4.725   5.339   6.535
10530TIP3    H131531   4.691   5.303   6.452
10530TIP3    H231532   4.662   5.406   6.559
10531TIP3   OH231533   3.713   2.439   0.128
10531TIP3    H131534   3.761   2.452   0.046
10531TIP3    H231535   3.638   2.498   0.121
10532TIP3   OH231536   7.889   3.084   6.023
10532TIP3    H131537   7.904   3.090   5.929
10532TIP3    H231538   7.799   3.115   6.035
10533TIP3   OH231539   0.413   4.615   1.712
10533TIP3    H131540   0.500   4.627   1.676
10533TIP3    H231541   0.361   4.581   1.640
10534TIP3   OH231542   4.320   2.367   5.675
10534TIP3    H131543   4.251   2.434   5.680
10534TIP3    H231544   4.391   2.410   5.628
10535TIP3   OH231545   3.520   2.452   2.011
10535TIP3    H131546   3.505   2.391   2.083
10535TIP3    H231547   3.457   2.523   2.027
10536TIP3   OH231548   6.517   5.490   1.769
10536TIP3    H131549   6.482   5.414   1.722
10536TIP3    H231550   6.440   5.535   1.803
10537TIP3   OH231551   7.993   7.488   4.739
10537TIP3    H131552   7.960   7.573   4.767
10537TIP3    H231553   8.033   7.451   4.818
10538TIP3   OH231554   3.546   1.059   0.595
10538TIP3    H131555   3.616   1.042   0.658
10538TIP3    H231556   3.565   1.000   0.522
10539TIP3   OH231557   0.247   6.997   6.437
10539TIP3    H131558   0.247   7.074   6.380
10539TIP3    H231559   0.250   7.034   6.526
10540TIP3   OH231560   7.722   6.248   2.617
10540TIP3    H131561   7.760   6.256   2.704
10540TIP3    H231562   7.642   6.301   2.620
10541TIP3   OH231563   2.637   3.145   3.172
10541TIP3    H131564   2.543   3.141   3.188
10541TIP3    H231565   2.676   3.097   3.245
10542TIP3   OH231566   4.144   6.785   2.590
10542TIP3    H131567   4.150   6.740   2.506
10542TIP3    H231568   4.051   6.781   2.614
10543TIP3   OH231569   2.179   7.536   4.839
10543TIP3    H131570   2.184   7.444   4.813
10543TIP3    H231571   2.090   7.563   4.816
10544TIP3   OH231572   2.236   5.352   0.192
10544TIP3    H131573   2.170   5.334   0.125
10544TIP3    H231574   2.315   5.372   0.142
10545TIP3   OH231575   2.367   1.583   1.827
10545TIP3    H131576   2.332   1.657   1.778
10545TIP3    H231577   2.446   1.616   1.868
10546TIP3   OH231578   2.699   5.318   5.318
10546TIP3    H131579   2.620   5.349   5.361
10546TIP3    H231580   2.692   5.351   5.228
10547TIP3   OH231581   2.648   4.208   3.016
10547TIP3    H131582   2.571   4.260   3.037
10547TIP3    H231583   2.678   4.173   3.100
10548TIP3   OH231584   0.068   1.103   4.964
10548TIP3    H131585   0.008   1.174   4.941
10548TIP3    H231586   0.016   1.023   4.957
10549TIP3   OH231587   4.383   4.107   1.985
10549TIP3    H131588   4.460   4.130   2.036
10549TIP3    H231589   4.417   4.081   1.899
10550TIP3   OH231590   6.930   0.592   3.033
10550TIP3    H131591   6.920   0.661   2.968
10550TIP3    H231592   6.844   0.586   3.075
10551TIP3   OH231593   3.741   6.399   2.443
10551TIP3    H131594   3.832   6.371   2.441
10551TIP3    H231595   3.703   6.367   2.361
10552TIP3   OH231596   2.192   6.447   3.363
10552TIP3    H131597   2.214   6.445   3.456
10552TIP3    H231598   2.102   6.479   3.361
10553TIP3   OH231599   6.577   2.641   2.543
10553TIP3    H131600   6.498   2.644   2.489
10553TIP3    H231601   6.640   2.592   2.491
10554TIP3   OH231602   4.645   7.952   3.345
10554TIP3    H131603   4.652   7.857   3.334
10554TIP3    H231604   4.618   7.964   3.436
10555TIP3   OH231605   8.118   3.544   6.086
10555TIP3    H131606   8.046   3.516   6.029
10555TIP3    H231607   8.181   3.585   6.026
10556TIP3   OH231608   0.371   7.131   5.459
10556TIP3    H131609   0.330   7.078   5.528
10556TIP3    H231610   0.454   7.160   5.498
10557TIP3   OH231611   1.138   0.674   2.874
10557TIP3    H131612   1.182   0.697   2.956
10557TIP3    H231613   1.070   0.741   2.863
10558TIP3   OH231614   7.194   4.531   0.494
10558TIP3    H131615   7.154   4.602   0.545
10558TIP3    H231616   7.271   4.506   0.545
10559TIP3   OH231617   6.678   2.619   1.549
10559TIP3    H131618   6.639   2.651   1.630
10559TIP3    H231619   6.753   2.567   1.578
10560TIP3   OH231620   1.139   4.829   5.087
10560TIP3    H131621   1.074   4.760   5.074
10560TIP3    H231622   1.146   4.872   5.002
10561TIP3   OH231623   1.138   1.110   2.909
10561TIP3    H131624   1.060   1.125   2.854
10561TIP3    H231625   1.211   1.135   2.853
10562TIP3   OH231626   8.077   7.647   6.116
10562TIP3    H131627   8.097   7.667   6.208
10562TIP3    H231628   8.007   7.708   6.093
10563TIP3   OH231629   4.490   2.643   4.518
10563TIP3    H131630   4.420   2.621   4.455
10563TIP3    H231631   4.503   2.737   4.508
10564TIP3   OH231632   5.788   4.992   2.634
10564TIP3    H131633   5.799   4.897   2.637
10564TIP3    H231634   5.844   5.020   2.561
10565TIP3   OH231635   5.101   0.164   4.742
10565TIP3    H131636   5.066   0.175   4.653
10565TIP3    H231637   5.076   0.075   4.766
10566TIP3   OH231638   3.120   0.796   1.437
10566TIP3    H131639   3.025   0.787   1.449
10566TIP3    H231640   3.134   0.891   1.431
10567TIP3   OH231641   4.536   5.237   6.294
10567TIP3    H131642   4.534   5.206   6.203
10567TIP3    H231643   4.474   5.181   6.340
10568TIP3   OH231644   7.251   7.855   2.388
10568TIP3    H131645   7.158   7.878   2.381
10568TIP3    H231646   7.291   7.891   2.309
10569TIP3   OH231647   1.088   7.927   5.705
10569TIP3    H131648   1.039   7.913   5.785
10569TIP3    H231649   1.088   8.022   5.693
10570TIP3   OH231650   0.631   5.140   3.515
10570TIP3    H131651   0.636   5.190   3.434
10570TIP3    H231652   0.646   5.049   3.488
10571TIP3   OH231653   0.264   7.587   5.798
10571TIP3    H131654   0.267   7.680   5.820
10571TIP3    H231655   0.325   7.546   5.860
10572TIP3   OH231656   0.903   4.679   2.718
10572TIP3    H131657   0.824   4.725   2.746
10572TIP3    H231658   0.969   4.748   2.709
10573TIP3   OH231659   2.683   1.244   2.941
10573TIP3    H131660   2.671   1.336   2.915
10573TIP3    H231661   2.595   1.214   2.963
10574TIP3   OH231662   4.880   2.407   4.223
10574TIP3    H131663   4.931   2.359   4.288
10574TIP3    H231664   4.829   2.339   4.178
10575TIP3   OH231665   6.521   7.823   4.210
10575TIP3    H131666   6.557   7.806   4.297
10575TIP3    H231667   6.440   7.773   4.207
10576TIP3   OH231668   4.806   2.550   5.418
10576TIP3    H131669   4.713   2.576   5.419
10576TIP3    H231670   4.854   2.632   5.428
10577TIP3   OH231671   6.404   3.838   0.194
10577TIP3    H131672   6.419   3.744   0.187
10577TIP3    H231673   6.309   3.846   0.200
10578TIP3   OH231674   3.793   6.827   5.896
10578TIP3    H131675   3.829   6.909   5.932
10578TIP3    H231676   3.698   6.838   5.904
10579TIP3   OH231677   4.475   0.837   0.682
10579TIP3    H131678   4.423   0.917   0.680
10579TIP3    H231679   4.559   0.861   0.643
10580TIP3   OH231680   8.177   5.645   4.942
10580TIP3    H131681   8.210   5.649   5.032
10580TIP3    H231682   8.247   5.682   4.889
10581TIP3   OH231683   4.443   5.060   2.782
10581TIP3    H131684   4.440   5.067   2.686
10581TIP3    H231685   4.506   5.126   2.809
10582TIP3   OH231686   5.764   5.865   1.770
10582TIP3    H131687   5.680   5.833   1.736
10582TIP3    H231688   5.758   5.852   1.864
10583TIP3   OH231689   4.545   7.385   4.322
10583TIP3    H131690   4.522   7.466   4.277
10583TIP3    H231691   4.640   7.379   4.314
10584TIP3   OH231692   1.400   6.293   2.670
10584TIP3    H131693   1.488   6.282   2.704
10584TIP3    H231694   1.343   6.257   2.739
10585TIP3   OH231695   3.665   5.721   4.718
10585TIP3    H131696   3.716   5.674   4.785
10585TIP3    H231697   3.729   5.744   4.651
10586TIP3   OH231698   6.045   1.929   6.537
10586TIP3    H131699   6.003   1.914   6.453
10586TIP3    H231700   5.975   1.961   6.594
10587TIP3   OH231701   3.659   3.832   6.065
10587TIP3    H131702   3.689   3.916   6.100
10587TIP3    H231703   3.664   3.772   6.139
10588TIP3   OH231704   2.225   6.691   2.102
10588TIP3    H131705   2.174   6.733   2.032
10588TIP3    H231706   2.278   6.762   2.139
10589TIP3   OH231707   6.024   3.378   1.664
10589TIP3    H131708   5.943   3.349   1.623
10589TIP3    H231709   6.085   3.306   1.649
10590TIP3   OH231710   2.334   7.217   1.884
10590TIP3    H131711   2.361   7.127   1.863
10590TIP3    H231712   2.410   7.254   1.930
10591TIP3   OH231713   3.004   3.358   5.450
10591TIP3    H131714   3.069   3.427   5.456
10591TIP3    H231715   2.927   3.392   5.496
10592TIP3   OH231716   3.363   0.701   4.706
10592TIP3    H131717   3.421   0.768   4.673
10592TIP3    H231718   3.324   0.739   4.785
10593TIP3   OH231719   6.268   5.859   0.733
10593TIP3    H131720   6.327   5.842   0.806
10593TIP3    H231721   6.191   5.898   0.773
10594TIP3   OH231722   1.682   7.666   1.280
10594TIP3    H131723   1.706   7.646   1.371
10594TIP3    H231724   1.624   7.594   1.255
10595TIP3   OH231725   2.891   0.851   2.633
10595TIP3    H131726   2.967   0.822   2.583
10595TIP3    H231727   2.927   0.878   2.718
10596TIP3   OH231728   1.877   4.375   1.740
10596TIP3    H131729   1.785   4.390   1.764
10596TIP3    H231730   1.924   4.379   1.823
10597TIP3   OH231731   3.680   3.824   0.778
10597TIP3    H131732   3.616   3.892   0.755
10597TIP3    H231733   3.629   3.759   0.826
10598TIP3   OH231734   5.160   0.590   2.752
10598TIP3    H131735   5.142   0.502   2.721
10598TIP3    H231736   5.103   0.646   2.699
10599TIP3   OH231737   0.124   3.731   0.920
10599TIP3    H131738   0.197   3.694   0.870
10599TIP3    H231739   0.086   3.797   0.863
10600TIP3   OH231740   8.129   5.841   1.901
10600TIP3    H131741   8.048   5.827   1.852
10600TIP3    H231742   8.148   5.934   1.889
10601TIP3   OH231743   4.852   2.041   2.964
10601TIP3    H131744   4.819   2.091   2.889
10601TIP3    H231745   4.859   2.106   3.034
10602TIP3   OH231746   2.472   0.831   4.957
10602TIP3    H131747   2.459   0.736   4.950
10602TIP3    H231748   2.421   0.857   5.033
10603TIP3   OH231749   1.649   1.119   2.856
10603TIP3    H131750   1.679   1.110   2.765
10603TIP3    H231751   1.682   1.205   2.883
10604TIP3   OH231752   4.378   2.488   1.405
10604TIP3    H131753   4.359   2.408   1.357
10604TIP3    H231754   4.365   2.558   1.342
10605TIP3   OH231755   2.939   6.735   6.280
10605TIP3    H131756   2.900   6.802   6.224
10605TIP3    H231757   2.897   6.748   6.365
10606TIP3   OH231758   4.412   4.535   6.808
10606TIP3    H131759   4.481   4.469   6.810
10606TIP3    H231760   4.331   4.486   6.798
10607TIP3   OH231761   0.684   2.990   6.658
10607TIP3    H131762   0.601   2.944   6.671
10607TIP3    H231763   0.723   2.996   6.745
10608TIP3   OH231764   7.419   0.835   5.597
10608TIP3    H131765   7.331   0.800   5.597
10608TIP3    H231766   7.476   0.758   5.599
10609TIP3   OH231767   1.551   5.979   3.150
10609TIP3    H131768   1.641   5.975   3.118
10609TIP3    H231769   1.545   6.062   3.196
10610TIP3   OH231770   4.596   2.259   4.336
10610TIP3    H131771   4.523   2.279   4.395
10610TIP3    H231772   4.631   2.176   4.370
10611TIP3   OH231773   6.505   3.785   6.322
10611TIP3    H131774   6.531   3.874   6.345
10611TIP3    H231775   6.464   3.794   6.235
10612TIP3   OH231776   1.317   6.473   3.710
10612TIP3    H131777   1.252   6.430   3.654
10612TIP3    H231778   1.265   6.521   3.775
10613TIP3   OH231779   2.225   1.159   5.974
10613TIP3    H131780   2.244   1.250   5.953
10613TIP3    H231781   2.162   1.132   5.908
10614TIP3   OH231782   2.598   7.762   4.187
10614TIP3    H131783   2.628   7.799   4.103
10614TIP3    H231784   2.551   7.682   4.162
10615TIP3   OH231785   1.855   2.228   1.207
10615TIP3    H131786   1.824   2.140   1.229
10615TIP3    H231787   1.775   2.280   1.196
10616TIP3   OH231788   7.729   2.969   4.164
10616TIP3    H131789   7.825   2.960   4.162
10616TIP3    H231790   7.714   3.064   4.170
10617TIP3   OH231791   2.861   5.652   1.288
10617TIP3    H131792   2.893   5.571   1.248
10617TIP3    H231793   2.772   5.631   1.317
10618TIP3   OH231794   3.108   3.015   2.847
10618TIP3    H131795   3.025   3.047   2.812
10618TIP3    H231796   3.129   3.075   2.918
10619TIP3   OH231797   2.817   1.248   2.618
10619TIP3    H131798   2.791   1.169   2.572
10619TIP3    H231799   2.735   1.287   2.649
10620TIP3   OH231800   4.181   3.867   1.818
10620TIP3    H131801   4.114   3.830   1.761
10620TIP3    H231802   4.205   3.950   1.777
10621TIP3   OH231803   1.252   1.892   6.657
10621TIP3    H131804   1.277   1.825   6.593
10621TIP3    H231805   1.237   1.971   6.605
10622TIP3   OH231806   2.143   0.770   5.843
10622TIP3    H131807   2.235   0.760   5.867
10622TIP3    H231808   2.095   0.733   5.917
10623TIP3   OH231809   6.451   3.015   1.295
10623TIP3    H131810   6.515   3.047   1.231
10623TIP3    H231811   6.494   2.940   1.336
10624TIP3   OH231812   2.618   1.294   5.343
10624TIP3    H131813   2.677   1.367   5.364
10624TIP3    H231814   2.669   1.237   5.286
10625TIP3   OH231815   3.976   2.842   1.339
10625TIP3    H131816   3.977   2.760   1.388
10625TIP3    H231817   3.963   2.909   1.406
10626TIP3   OH231818   2.344   2.416   1.016
10626TIP3    H131819   2.328   2.355   0.944
10626TIP3    H231820   2.305   2.373   1.092
10627TIP3   OH231821   7.367   4.714   3.272
10627TIP3    H131822   7.360   4.658   3.195
10627TIP3    H231823   7.320   4.794   3.248
10628TIP3   OH231824   5.326   4.105   4.964
10628TIP3    H131825   5.335   4.130   4.872
10628TIP3    H231826   5.241   4.142   4.990
10629TIP3   OH231827   5.832   6.150   1.012
10629TIP3    H131828   5.808   6.164   0.920
10629TIP3    H231829   5.749   6.147   1.059
10630TIP3   OH231830   3.795   3.874   3.952
10630TIP3    H131831   3.880   3.916   3.970
10630TIP3    H231832   3.812   3.819   3.875
10631TIP3   OH231833   3.046   3.849   5.160
10631TIP3    H131834   3.010   3.937   5.166
10631TIP3    H231835   3.138   3.862   5.140
10632TIP3   OH231836   7.559   0.339   6.102
10632TIP3    H131837   7.616   0.336   6.025
10632TIP3    H231838   7.476   0.374   6.070
10633TIP3   OH231839   1.587   2.506   3.403
10633TIP3    H131840   1.640   2.515   3.482
10633TIP3    H231841   1.613   2.581   3.349
10634TIP3   OH231842   7.846   1.043   0.888
10634TIP3    H131843   7.783   1.096   0.938
10634TIP3    H231844   7.902   1.107   0.844
10635TIP3   OH231845   4.121   7.106   0.253
10635TIP3    H131846   4.051   7.107   0.319
10635TIP3    H231847   4.171   7.027   0.271
10636TIP3   OH231848   2.667   7.698   3.096
10636TIP3    H131849   2.575   7.684   3.119
10636TIP3    H231850   2.713   7.696   3.179
10637TIP3   OH231851   4.851   0.697   4.121
10637TIP3    H131852   4.870   0.620   4.175
10637TIP3    H231853   4.890   0.770   4.170
10638TIP3   OH231854   1.830   5.674   4.213
10638TIP3    H131855   1.901   5.697   4.273
10638TIP3    H231856   1.773   5.751   4.214
10639TIP3   OH231857   1.860   0.981   6.015
10639TIP3    H131858   1.816   0.956   5.934
10639TIP3    H231859   1.902   0.900   6.045
10640TIP3   OH231860   2.996   4.521   1.630
10640TIP3    H131861   3.025   4.519   1.539
10640TIP3    H231862   2.900   4.528   1.625
10641TIP3   OH231863   5.293   5.606   6.743
10641TIP3    H131864   5.332   5.621   6.657
10641TIP3    H231865   5.360   5.557   6.791
10642TIP3   OH231866   1.069   7.115   0.532
10642TIP3    H131867   1.147   7.073   0.567
10642TIP3    H231868   1.073   7.205   0.566
10643TIP3   OH231869   5.469   1.583   3.518
10643TIP3    H131870   5.376   1.564   3.507
10643TIP3    H231871   5.510   1.546   3.440
10644TIP3   OH231872   3.108   4.710   0.740
10644TIP3    H131873   3.058   4.760   0.675
10644TIP3    H231874   3.192   4.754   0.745
10645TIP3   OH231875   1.397   3.147   2.339
10645TIP3    H131876   1.410   3.200   2.261
10645TIP3    H231877   1.352   3.069   2.308
10646TIP3   OH231878   3.738   4.803   2.691
10646TIP3    H131879   3.813   4.753   2.657
10646TIP3    H231880   3.662   4.763   2.650
10647TIP3   OH231881   3.794   1.329   1.574
10647TIP3    H131882   3.715   1.382   1.569
10647TIP3    H231883   3.762   1.239   1.580
10648TIP3   OH231884   2.081   0.087   4.484
10648TIP3    H131885   2.007   0.128   4.440
10648TIP3    H231886   2.054  -0.004   4.498
10649TIP3   OH231887   2.023   4.609   6.586
10649TIP3    H131888   1.958   4.665   6.629
10649TIP3    H231889   2.087   4.590   6.655
10650TIP3   OH231890   5.405   7.948   1.936
10650TIP3    H131891   5.347   7.887   1.981
10650TIP3    H231892   5.392   8.031   1.981
10651TIP3   OH231893   7.859   6.386   2.831
10651TIP3    H131894   7.857   6.463   2.774
10651TIP3    H231895   7.794   6.404   2.898
10652TIP3   OH231896   4.905   1.303   0.659
10652TIP3    H131897   4.968   1.232   0.668
10652TIP3    H231898   4.895   1.315   0.564
10653TIP3   OH231899   4.139   7.799   2.214
10653TIP3    H131900   4.134   7.869   2.279
10653TIP3    H231901   4.218   7.750   2.237
10654TIP3   OH231902   3.853   0.628   5.088
10654TIP3    H131903   3.814   0.689   5.025
10654TIP3    H231904   3.934   0.671   5.116
10655TIP3   OH231905   5.068   4.754   2.066
10655TIP3    H131906   5.004   4.768   2.135
10655TIP3    H231907   5.018   4.760   1.985
10656TIP3   OH231908   1.491   7.847   4.252
10656TIP3    H131909   1.502   7.771   4.194
10656TIP3    H231910   1.458   7.916   4.194
10657TIP3   OH231911   5.356   0.287   2.127
10657TIP3    H131912   5.361   0.380   2.106
10657TIP3    H231913   5.420   0.274   2.197
10658TIP3   OH231914   3.313   4.059   5.738
10658TIP3    H131915   3.220   4.037   5.743
10658TIP3    H231916   3.320   4.123   5.668
10659TIP3   OH231917   6.431   3.099   0.749
10659TIP3    H131918   6.360   3.163   0.751
10659TIP3    H231919   6.396   3.024   0.797
10660TIP3   OH231920   1.385   7.862   1.812
10660TIP3    H131921   1.291   7.876   1.797
10660TIP3    H231922   1.413   7.807   1.739
10661TIP3   OH231923   0.814   1.723   6.535
10661TIP3    H131924   0.744   1.672   6.576
10661TIP3    H231925   0.893   1.696   6.582
10662TIP3   OH231926   5.798   6.529   5.611
10662TIP3    H131927   5.751   6.585   5.672
10662TIP3    H231928   5.872   6.496   5.660
10663TIP3   OH231929   0.132   3.725   4.235
10663TIP3    H131930   0.116   3.637   4.201
10663TIP3    H231931   0.215   3.752   4.196
10664TIP3   OH231932   1.381   4.092   6.158
10664TIP3    H131933   1.311   4.129   6.104
10664TIP3    H231934   1.410   4.014   6.110
10665TIP3   OH231935   8.426   1.719   0.372
10665TIP3    H131936   8.344   1.680   0.401
10665TIP3    H231937   8.468   1.650   0.319
10666TIP3   OH231938   6.877   3.477   3.784
10666TIP3    H131939   6.793   3.505   3.820
10666TIP3    H231940   6.915   3.557   3.747
10667TIP3   OH231941   0.660   5.991   5.704
10667TIP3    H131942   0.591   5.941   5.661
10667TIP3    H231943   0.737   5.934   5.701
10668TIP3   OH231944   4.871   2.931   0.863
10668TIP3    H131945   4.919   3.013   0.867
10668TIP3    H231946   4.791   2.947   0.913
10669TIP3   OH231947   7.596   2.686   0.505
10669TIP3    H131948   7.677   2.648   0.470
10669TIP3    H231949   7.533   2.678   0.433
10670TIP3   OH231950   5.378  -0.006   0.568
10670TIP3    H131951   5.349  -0.086   0.612
10670TIP3    H231952   5.306   0.017   0.510
10671TIP3   OH231953   0.130   4.348   0.048
10671TIP3    H131954   0.130   4.402   0.126
10671TIP3    H231955   0.161   4.262   0.077
10672TIP3   OH231956   7.445   0.935   6.017
10672TIP3    H131957   7.350   0.947   6.014
10672TIP3    H231958   7.457   0.856   6.071
10673TIP3   OH231959   5.733   6.942   0.556
10673TIP3    H131960   5.823   6.930   0.527
10673TIP3    H231961   5.714   7.034   0.536
10674TIP3   OH231962   7.167   7.705   6.140
10674TIP3    H131963   7.227   7.730   6.070
10674TIP3    H231964   7.089   7.672   6.095
10675TIP3   OH231965   7.147   7.418   5.686
10675TIP3    H131966   7.187   7.504   5.673
10675TIP3    H231967   7.186   7.363   5.617
10676TIP3   OH231968   7.038   2.345   2.648
10676TIP3    H131969   7.029   2.405   2.575
10676TIP3    H231970   7.080   2.396   2.717
10677TIP3   OH231971   7.566   4.354   4.182
10677TIP3    H131972   7.625   4.313   4.244
10677TIP3    H231973   7.622   4.382   4.110
10678TIP3   OH231974   3.061   2.979   3.556
10678TIP3    H131975   3.116   2.913   3.598
10678TIP3    H231976   2.984   2.986   3.612
10679TIP3   OH231977   2.194   6.966   3.079
10679TIP3    H131978   2.131   6.916   3.027
10679TIP3    H231979   2.141   7.006   3.148
10680TIP3   OH231980   5.529   3.644   0.043
10680TIP3    H131981   5.576   3.714  -0.002
10680TIP3    H231982   5.561   3.648   0.133
10681TIP3   OH231983   2.910   4.658   1.363
10681TIP3    H131984   2.921   4.574   1.317
10681TIP3    H231985   2.819   4.656   1.394
10682TIP3   OH231986   3.056   2.753   2.996
10682TIP3    H131987   2.975   2.786   3.033
10682TIP3    H231988   3.091   2.826   2.944
10683TIP3   OH231989   6.400   7.339   5.038
10683TIP3    H131990   6.381   7.246   5.047
10683TIP3    H231991   6.413   7.370   5.128
10684TIP3   OH231992   7.578   2.981   3.274
10684TIP3    H131993   7.536   2.919   3.214
10684TIP3    H231994   7.657   3.010   3.227
10685TIP3   OH231995   6.811   0.840   3.972
10685TIP3    H131996   6.768   0.925   3.974
10685TIP3    H231997   6.776   0.797   3.894
10686TIP3   OH231998   6.606   4.204   4.030
10686TIP3    H131999   6.511   4.206   4.028
10686TIP3    H232000   6.629   4.113   4.011
10687TIP3   OH232001   1.827   5.558   1.888
10687TIP3    H132002   1.792   5.548   1.799
10687TIP3    H232003   1.915   5.593   1.874
10688TIP3   OH232004   6.445   5.911   0.196
10688TIP3    H132005   6.405   5.824   0.191
10688TIP3    H232006   6.394   5.957   0.263
10689TIP3   OH232007   7.763   6.318   0.599
10689TIP3    H132008   7.766   6.410   0.573
10689TIP3    H232009   7.697   6.280   0.541
10690TIP3   OH232010   2.376   5.870   0.678
10690TIP3    H132011   2.401   5.840   0.765
10690TIP3    H232012   2.355   5.789   0.631
10691TIP3   OH232013   5.226   7.755   2.020
10691TIP3    H132014   5.275   7.679   1.987
10691TIP3    H232015   5.140   7.719   2.043
10692TIP3   OH232016  -0.036   6.598   1.658
10692TIP3    H132017   0.050   6.626   1.627
10692TIP3    H232018  -0.043   6.634   1.746
10693TIP3   OH232019   0.653   5.916   6.612
10693TIP3    H132020   0.735   5.949   6.649
10693TIP3    H232021   0.641   5.831   6.654
10694TIP3   OH232022   7.234   3.966   0.292
10694TIP3    H132023   7.201   3.937   0.377
10694TIP3    H232024   7.175   3.926   0.228
10695TIP3   OH232025   1.714   4.428   6.326
10695TIP3    H132026   1.739   4.520   6.325
10695TIP3    H232027   1.699   4.408   6.419
10696TIP3   OH232028   0.104   7.605   6.550
10696TIP3    H132029   0.124   7.517   6.584
10696TIP3    H232030   0.010   7.601   6.529
10697TIP3   OH232031   0.257   1.040   4.463
10697TIP3    H132032   0.256   1.025   4.558
10697TIP3    H232033   0.301   1.125   4.453
10698TIP3   OH232034   2.212   6.497   6.684
10698TIP3    H132035   2.261   6.523   6.762
10698TIP3    H232036   2.151   6.570   6.669
10699TIP3   OH232037   5.895   1.826   6.319
10699TIP3    H132038   5.949   1.831   6.240
10699TIP3    H232039   5.870   1.734   6.326
10700TIP3   OH232040   0.025   4.518   2.386
10700TIP3    H132041   0.056   4.444   2.334
10700TIP3    H232042   0.042   4.594   2.332
10701TIP3   OH232043   1.900   4.578   3.315
10701TIP3    H132044   1.860   4.664   3.301
10701TIP3    H232045   1.848   4.518   3.262
10702TIP3   OH232046   3.085   0.866   2.260
10702TIP3    H132047   3.081   0.811   2.338
10702TIP3    H232048   3.033   0.819   2.195
10703TIP3   OH232049   5.933   6.777   4.960
10703TIP3    H132050   6.003   6.730   5.006
10703TIP3    H232051   5.979   6.842   4.907
10704TIP3   OH232052   8.360   4.354   3.931
10704TIP3    H132053   8.422   4.281   3.925
10704TIP3    H232054   8.326   4.364   3.843
10705TIP3   OH232055   0.231   3.772   0.620
10705TIP3    H132056   0.171   3.702   0.595
10705TIP3    H232057   0.215   3.841   0.556
10706TIP3   OH232058   5.637   0.524   5.054
10706TIP3    H132059   5.687   0.447   5.082
10706TIP3    H232060   5.582   0.546   5.128
10707TIP3   OH232061   7.906   0.978   5.816
10707TIP3    H132062   7.834   1.004   5.873
10707TIP3    H232063   7.969   1.050   5.823
10708TIP3   OH232064   1.806   1.791   5.608
10708TIP3    H132065   1.880   1.800   5.668
10708TIP3    H232066   1.838   1.733   5.539
10709TIP3   OH232067   5.412   0.769   0.685
10709TIP3    H132068   5.495   0.754   0.641
10709TIP3    H232069   5.435   0.819   0.764
10710TIP3   OH232070   2.207   5.325   1.183
10710TIP3    H132071   2.176   5.302   1.096
10710TIP3    H232072   2.162   5.265   1.242
10711TIP3   OH232073   7.740   1.116   5.594
10711TIP3    H132074   7.799   1.092   5.522
10711TIP3    H232075   7.776   1.072   5.670
10712TIP3   OH232076   6.171   7.029   0.049
10712TIP3    H132077   6.128   7.032  -0.036
10712TIP3    H232078   6.249   6.976   0.035
10713TIP3   OH232079   7.896   7.188   5.062
10713TIP3    H132080   7.878   7.172   4.970
10713TIP3    H232081   7.855   7.115   5.108
10714TIP3   OH232082   3.268   2.523   4.209
10714TIP3    H132083   3.292   2.593   4.270
10714TIP3    H232084   3.220   2.567   4.139
10715TIP3   OH232085   0.362   5.873   2.189
10715TIP3    H132086   0.269   5.855   2.178
10715TIP3    H232087   0.368   5.919   2.273
10716TIP3   OH232088   6.365   4.960   4.177
10716TIP3    H132089   6.313   4.896   4.129
10716TIP3    H232090   6.427   4.907   4.227
10717TIP3   OH232091   6.877   7.368   4.535
10717TIP3    H132092   6.849   7.420   4.610
10717TIP3    H232093   6.861   7.278   4.561
10718TIP3   OH232094   4.562   5.405   4.441
10718TIP3    H132095   4.632   5.357   4.485
10718TIP3    H232096   4.506   5.436   4.512
10719TIP3   OH232097   0.303   1.189   2.817
10719TIP3    H132098   0.255   1.207   2.897
10719TIP3    H232099   0.361   1.116   2.839
10720TIP3   OH232100   3.370   1.677   3.737
10720TIP3    H132101   3.277   1.696   3.748
10720TIP3    H232102   3.415   1.757   3.764
10721TIP3   OH232103   6.575   7.889   2.084
10721TIP3    H132104   6.662   7.915   2.112
10721TIP3    H232105   6.576   7.896   1.989
10722TIP3   OH232106   4.351   7.473   5.784
10722TIP3    H132107   4.414   7.449   5.715
10722TIP3    H232108   4.272   7.498   5.736
10723TIP3   OH232109   4.022   5.532   4.301
10723TIP3    H132110   4.035   5.449   4.255
10723TIP3    H232111   4.053   5.515   4.390
10724TIP3   OH232112   7.036   6.617   5.017
10724TIP3    H132113   6.982   6.663   5.082
10724TIP3    H232114   7.123   6.657   5.025
10725TIP3   OH232115   4.001   5.624   3.856
10725TIP3    H132116   4.069   5.598   3.918
10725TIP3    H232117   3.981   5.715   3.878
10726TIP3   OH232118   5.476   5.964   3.396
10726TIP3    H132119   5.503   6.047   3.358
10726TIP3    H232120   5.443   5.987   3.483
10727TIP3   OH232121   2.563   0.703   0.775
10727TIP3    H132122   2.498   0.652   0.823
10727TIP3    H232123   2.511   0.762   0.720
10728TIP3   OH232124   3.917   3.967   0.729
10728TIP3    H132125   3.993   3.913   0.751
10728TIP3    H232126   3.841   3.913   0.753
10729TIP3   OH232127   7.903   5.746   5.030
10729TIP3    H132128   7.990   5.709   5.047
10729TIP3    H232129   7.851   5.671   4.999
10730TIP3   OH232130   5.040   0.541   1.784
10730TIP3    H132131   5.071   0.453   1.765
10730TIP3    H232132   5.115   0.584   1.827
10731TIP3   OH232133   3.068   3.359   5.166
10731TIP3    H132134   3.031   3.358   5.254
10731TIP3    H232135   3.039   3.443   5.130
10732TIP3   OH232136   6.111   2.188   3.959
10732TIP3    H132137   6.045   2.129   3.922
10732TIP3    H232138   6.108   2.171   4.053
10733TIP3   OH232139   4.499   5.042   1.534
10733TIP3    H132140   4.518   4.954   1.503
10733TIP3    H232141   4.434   5.076   1.473
10734TIP3   OH232142   2.311   3.404   2.437
10734TIP3    H132143   2.386   3.454   2.467
10734TIP3    H232144   2.245   3.470   2.416
10735TIP3   OH232145   4.010   2.648   3.046
10735TIP3    H132146   3.922   2.683   3.038
10735TIP3    H232147   4.052   2.666   2.962
10736TIP3   OH232148   4.836   5.109   0.231
10736TIP3    H132149   4.889   5.075   0.159
10736TIP3    H232150   4.887   5.180   0.269
10737TIP3   OH232151   5.320   4.933   0.242
10737TIP3    H132152   5.282   5.020   0.246
10737TIP3    H232153   5.382   4.936   0.169
10738TIP3   OH232154   4.210   0.190   4.171
10738TIP3    H132155   4.150   0.251   4.215
10738TIP3    H232156   4.278   0.245   4.134
10739TIP3   OH232157   4.175   2.351   0.391
10739TIP3    H132158   4.128   2.395   0.320
10739TIP3    H232159   4.202   2.422   0.449
10740TIP3   OH232160   5.161   6.646   3.804
10740TIP3    H132161   5.196   6.576   3.748
10740TIP3    H232162   5.070   6.654   3.776
10741TIP3   OH232163   0.181   2.810   4.673
10741TIP3    H132164   0.109   2.766   4.628
10741TIP3    H232165   0.144   2.896   4.697
10742TIP3   OH232166   4.635   7.616   2.939
10742TIP3    H132167   4.551   7.570   2.935
10742TIP3    H232168   4.674   7.587   3.021
10743TIP3   OH232169   3.942   2.391   2.731
10743TIP3    H132170   3.893   2.418   2.809
10743TIP3    H232171   3.892   2.317   2.696
10744TIP3   OH232172   4.527   1.536   3.405
10744TIP3    H132173   4.524   1.609   3.343
10744TIP3    H232174   4.616   1.502   3.397
10745TIP3   OH232175   7.859   2.259   0.179
10745TIP3    H132176   7.863   2.208   0.260
10745TIP3    H232177   7.773   2.299   0.181
10746TIP3   OH232178   2.056   4.287   2.872
10746TIP3    H132179   2.112   4.226   2.825
10746TIP3    H232180   1.980   4.300   2.815
10747TIP3   OH232181   6.813   2.985   2.484
10747TIP3    H132182   6.734   2.956   2.529
10747TIP3    H232183   6.833   3.070   2.524
10748TIP3   OH232184   2.502   7.343   0.953
10748TIP3    H132185   2.450   7.269   0.922
10748TIP3    H232186   2.518   7.323   1.046
10749TIP3   OH232187   2.595   5.538   3.174
10749TIP3    H132188   2.681   5.523   3.135
10749TIP3    H232189   2.613   5.591   3.252
10750TIP3   OH232190   7.102   7.360   1.267
10750TIP3    H132191   7.155   7.346   1.189
10750TIP3    H232192   7.144   7.432   1.313
10751TIP3   OH232193   8.111   0.853   4.101
10751TIP3    H132194   8.113   0.758   4.091
10751TIP3    H232195   8.107   0.886   4.011
10752TIP3   OH232196   4.047   0.761   6.339
10752TIP3    H132197   4.140   0.756   6.317
10752TIP3    H232198   4.019   0.848   6.309
10753TIP3   OH232199   6.020   3.436   2.264
10753TIP3    H132200   6.103   3.481   2.282
10753TIP3    H232201   5.958   3.473   2.326
10754TIP3   OH232202   1.755   4.213   3.770
10754TIP3    H132203   1.762   4.279   3.700
10754TIP3    H232204   1.715   4.137   3.727
10755TIP3   OH232205   7.910   2.183   6.048
10755TIP3    H132206   7.921   2.182   5.953
10755TIP3    H232207   7.987   2.229   6.080
10756TIP3   OH232208   8.206   2.319   6.529
10756TIP3    H132209   8.288   2.271   6.527
10756TIP3    H232210   8.158   2.288   6.452
10757TIP3   OH232211   6.407   1.558   3.390
10757TIP3    H132212   6.387   1.651   3.403
10757TIP3    H232213   6.333   1.512   3.429
10758TIP3   OH232214   5.846   7.133   1.637
10758TIP3    H132215   5.940   7.114   1.642
10758TIP3    H232216   5.841   7.222   1.601
10759TIP3   OH232217   7.777   3.168   3.705
10759TIP3    H132218   7.855   3.222   3.698
10759TIP3    H232219   7.796   3.107   3.776
10760TIP3   OH232220   0.682   5.367   6.184
10760TIP3    H132221   0.622   5.399   6.117
10760TIP3    H232222   0.679   5.434   6.252
10761TIP3   OH232223   4.698   4.456   5.184
10761TIP3    H132224   4.699   4.481   5.092
10761TIP3    H232225   4.618   4.495   5.219
10762TIP3   OH232226   5.527   1.767   2.099
10762TIP3    H132227   5.544   1.847   2.048
10762TIP3    H232228   5.505   1.701   2.033
10763TIP3   OH232229   1.744   1.744   6.181
10763TIP3    H132230   1.670   1.792   6.143
10763TIP3    H232231   1.820   1.797   6.160
10764TIP3   OH232232   7.975   1.645   1.009
10764TIP3    H132233   7.967   1.725   0.956
10764TIP3    H232234   7.891   1.600   0.997
10765TIP3   OH232235   4.425   1.637   3.936
10765TIP3    H132236   4.446   1.589   4.017
10765TIP3    H232237   4.341   1.601   3.908
10766TIP3   OH232238   2.856   2.927   3.113
10766TIP3    H132239   2.834   2.933   3.206
10766TIP3    H232240   2.842   3.015   3.079
10767TIP3   OH232241   2.134   3.163   2.014
10767TIP3    H132242   2.079   3.114   2.076
10767TIP3    H232243   2.187   3.221   2.069
10768TIP3   OH232244   7.928   6.317   6.261
10768TIP3    H132245   7.974   6.302   6.344
10768TIP3    H232246   7.879   6.237   6.246
10769TIP3   OH232247   3.027   5.480   5.146
10769TIP3    H132248   3.094   5.420   5.178
10769TIP3    H232249   3.069   5.565   5.143
10770TIP3   OH232250   5.124   1.089   6.857
10770TIP3    H132251   5.212   1.107   6.890
10770TIP3    H232252   5.138   1.036   6.779
10771TIP3   OH232253   1.869   0.194   3.532
10771TIP3    H132254   1.908   0.118   3.575
10771TIP3    H232255   1.930   0.216   3.461
10772TIP3   OH232256   0.067   7.139   1.975
10772TIP3    H132257   0.151   7.184   1.968
10772TIP3    H232258   0.009   7.184   1.914
10773TIP3   OH232259   4.802   2.116   4.825
10773TIP3    H132260   4.767   2.161   4.901
10773TIP3    H232261   4.725   2.084   4.778
10774TIP3   OH232262   5.480   4.326   2.253
10774TIP3    H132263   5.503   4.268   2.325
10774TIP3    H232264   5.393   4.297   2.227
10775TIP3   OH232265   6.229   3.428   3.849
10775TIP3    H132266   6.269   3.371   3.914
10775TIP3    H232267   6.303   3.464   3.800
10776TIP3   OH232268   0.483   4.329   4.047
10776TIP3    H132269   0.437   4.320   4.130
10776TIP3    H232270   0.522   4.417   4.050
10777TIP3   OH232271   4.279   1.787   5.629
10777TIP3    H132272   4.374   1.771   5.623
10777TIP3    H232273   4.240   1.717   5.577
10778TIP3   OH232274   0.809   0.587   5.000
10778TIP3    H132275   0.782   0.522   4.935
10778TIP3    H232276   0.745   0.658   4.990
10779TIP3   OH232277   1.550   0.386   2.518
10779TIP3    H132278   1.612   0.439   2.569
10779TIP3    H232279   1.477   0.445   2.499
10780TIP3   OH232280   3.527   3.034   2.020
10780TIP3    H132281   3.524   3.108   1.960
10780TIP3    H232282   3.472   3.060   2.094
10781TIP3   OH232283   6.435   5.801   3.763
10781TIP3    H132284   6.344   5.809   3.791
10781TIP3    H232285   6.455   5.885   3.722
10782TIP3   OH232286   2.920   4.722   2.550
10782TIP3    H132287   2.941   4.629   2.552
10782TIP3    H232288   2.932   4.751   2.640
10783TIP3   OH232289   6.947   1.112   2.402
10783TIP3    H132290   6.987   1.109   2.489
10783TIP3    H232291   6.855   1.129   2.419
10784TIP3   OH232292   1.111   7.292   4.193
10784TIP3    H132293   1.029   7.288   4.241
10784TIP3    H232294   1.125   7.203   4.161
10785TIP3   OH232295   7.417   0.696   1.417
10785TIP3    H132296   7.371   0.613   1.406
10785TIP3    H232297   7.403   0.720   1.508
10786TIP3   OH232298   7.803   4.552   2.785
10786TIP3    H132299   7.854   4.532   2.863
10786TIP3    H232300   7.823   4.480   2.724
10787TIP3   OH232301   6.961   7.934   5.678
10787TIP3    H132302   7.019   7.964   5.748
10787TIP3    H232303   7.004   7.963   5.597
10788TIP3   OH232304   0.558   5.955   3.708
10788TIP3    H132305   0.638   5.994   3.744
10788TIP3    H232306   0.511   6.029   3.669
10789TIP3   OH232307   8.233   7.341   5.275
10789TIP3    H132308   8.215   7.433   5.295
10789TIP3    H232309   8.233   7.297   5.360
10790TIP3   OH232310   8.442   0.218   1.024
10790TIP3    H132311   8.437   0.225   0.929
10790TIP3    H232312   8.371   0.158   1.047
10791TIP3   OH232313   1.332   7.250   3.061
10791TIP3    H132314   1.259   7.199   3.096
10791TIP3    H232315   1.316   7.339   3.092
10792TIP3   OH232316   1.033   1.074   6.090
10792TIP3    H132317   1.108   1.074   6.150
10792TIP3    H232318   0.957   1.061   6.147
10793TIP3   OH232319   5.204   0.247   3.984
10793TIP3    H132320   5.131   0.223   3.927
10793TIP3    H232321   5.203   0.180   4.053
10794TIP3   OH232322   3.107   4.151   4.047
10794TIP3    H132323   3.059   4.185   3.971
10794TIP3    H232324   3.147   4.228   4.087
10795TIP3   OH232325   6.407   1.512   0.735
10795TIP3    H132326   6.396   1.482   0.645
10795TIP3    H232327   6.496   1.484   0.758
10796TIP3   OH232328   5.099   4.053   0.255
10796TIP3    H132329   5.161   3.991   0.293
10796TIP3    H232330   5.100   4.128   0.314
10797TIP3   OH232331   0.074   2.181   1.875
10797TIP3    H132332   0.094   2.152   1.964
10797TIP3    H232333   0.024   2.261   1.886
10798TIP3   OH232334   8.289   7.456   1.512
10798TIP3    H132335   8.271   7.511   1.436
10798TIP3    H232336   8.321   7.517   1.579
10799TIP3   OH232337   3.373   2.884   5.996
10799TIP3    H132338   3.280   2.906   5.996
10799TIP3    H232339   3.375   2.789   5.985
10800TIP3   OH232340   5.573   4.899   5.802
10800TIP3    H132341   5.526   4.943   5.873
10800TIP3    H232342   5.540   4.941   5.723
10801TIP3   OH232343   2.063   2.645   2.318
10801TIP3    H132344   2.065   2.707   2.392
10801TIP3    H232345   2.070   2.701   2.240
10802TIP3   OH232346   3.354   4.468   6.201
10802TIP3    H132347   3.367   4.553   6.243
10802TIP3    H232348   3.436   4.452   6.154
10803TIP3   OH232349   6.043   3.871   3.038
10803TIP3    H132350   6.123   3.822   3.057
10803TIP3    H232351   6.072   3.962   3.032
10804TIP3   OH232352   1.300   7.216   6.094
10804TIP3    H132353   1.296   7.134   6.142
10804TIP3    H232354   1.379   7.259   6.126
10805TIP3   OH232355   6.999   7.400   3.454
10805TIP3    H132356   6.943   7.460   3.502
10805TIP3    H232357   6.950   7.318   3.451
10806TIP3   OH232358   4.504   2.176   4.740
10806TIP3    H132359   4.517   2.192   4.646
10806TIP3    H232360   4.409   2.180   4.752
10807TIP3   OH232361   5.021   2.100   4.998
10807TIP3    H132362   4.938   2.117   4.952
10807TIP3    H232363   5.035   2.006   4.987
10808TIP3   OH232364   6.008   1.572   1.246
10808TIP3    H132365   5.967   1.512   1.184
10808TIP3    H232366   5.976   1.658   1.221
10809TIP3   OH232367   3.245   7.605   3.858
10809TIP3    H132368   3.207   7.546   3.793
10809TIP3    H232369   3.257   7.688   3.812
10810TIP3   OH232370   2.664   4.665   2.712
10810TIP3    H132371   2.649   4.571   2.718
10810TIP3    H232372   2.671   4.682   2.618
10811TIP3   OH232373   8.140   3.326   1.485
10811TIP3    H132374   8.230   3.301   1.502
10811TIP3    H232375   8.121   3.291   1.398
10812TIP3   OH232376   8.208   6.063   3.380
10812TIP3    H132377   8.145   6.097   3.444
10812TIP3    H232378   8.166   6.080   3.295
10813TIP3   OH232379   7.937   6.261   6.792
10813TIP3    H132380   7.847   6.231   6.778
10813TIP3    H232381   7.938   6.351   6.759
10814TIP3   OH232382   1.919   6.649   5.498
10814TIP3    H132383   1.931   6.559   5.470
10814TIP3    H232384   1.996   6.668   5.553
10815TIP3   OH232385   0.826   1.736   2.894
10815TIP3    H132386   0.798   1.828   2.895
10815TIP3    H232387   0.744   1.687   2.887
10816TIP3   OH232388   1.313   1.470   5.981
10816TIP3    H132389   1.357   1.518   6.050
10816TIP3    H232390   1.296   1.535   5.913
10817TIP3   OH232391   3.780   4.441   3.477
10817TIP3    H132392   3.843   4.372   3.498
10817TIP3    H232393   3.741   4.464   3.562
10818TIP3   OH232394   6.935   6.091   0.694
10818TIP3    H132395   6.901   6.180   0.703
10818TIP3    H232396   6.937   6.076   0.600
10819TIP3   OH232397   7.542   5.283   0.284
10819TIP3    H132398   7.616   5.250   0.232
10819TIP3    H232399   7.578   5.359   0.330
10820TIP3   OH232400   3.740   1.397   0.742
10820TIP3    H132401   3.654   1.356   0.734
10820TIP3    H232402   3.722   1.483   0.781
10821TIP3   OH232403   2.654   7.748   5.363
10821TIP3    H132404   2.610   7.702   5.434
10821TIP3    H232405   2.636   7.695   5.285
10822TIP3   OH232406   1.564   5.813   2.608
10822TIP3    H132407   1.616   5.749   2.657
10822TIP3    H232408   1.549   5.884   2.670
10823TIP3   OH232409   6.277   4.841   1.690
10823TIP3    H132410   6.367   4.814   1.709
10823TIP3    H232411   6.229   4.818   1.769
10824TIP3   OH232412   1.729   2.965   5.793
10824TIP3    H132413   1.693   2.923   5.871
10824TIP3    H232414   1.668   3.036   5.774
10825TIP3   OH232415   6.329   0.007   0.619
10825TIP3    H132416   6.401   0.021   0.680
10825TIP3    H232417   6.324   0.088   0.568
10826TIP3   OH232418   5.894   4.321   2.259
10826TIP3    H132419   5.954   4.321   2.185
10826TIP3    H232420   5.932   4.382   2.322
10827TIP3   OH232421   6.431   6.982   5.581
10827TIP3    H132422   6.475   7.052   5.533
10827TIP3    H232423   6.387   7.026   5.654
10828TIP3   OH232424   4.125   7.420   4.786
10828TIP3    H132425   4.096   7.504   4.823
10828TIP3    H232426   4.164   7.443   4.702
10829TIP3   OH232427   2.194   0.209   3.020
10829TIP3    H132428   2.166   0.224   2.930
10829TIP3    H232429   2.269   0.150   3.012
10830TIP3   OH232430   2.007   2.512   6.326
10830TIP3    H132431   1.986   2.606   6.324
10830TIP3    H232432   2.081   2.503   6.265
10831TIP3   OH232433   0.235   6.187   1.603
10831TIP3    H132434   0.316   6.238   1.602
10831TIP3    H232435   0.247   6.124   1.675
10832TIP3   OH232436   6.236   2.562   3.693
10832TIP3    H132437   6.155   2.611   3.684
10832TIP3    H232438   6.239   2.537   3.786
10833TIP3   OH232439   6.500   2.287   0.923
10833TIP3    H132440   6.590   2.287   0.891
10833TIP3    H232441   6.509   2.282   1.019
10834TIP3   OH232442   4.677   7.888   2.849
10834TIP3    H132443   4.595   7.921   2.885
10834TIP3    H232444   4.677   7.794   2.870
10835TIP3   OH232445   3.698   5.896   6.316
10835TIP3    H132446   3.770   5.835   6.330
10835TIP3    H232447   3.643   5.886   6.393
10836TIP3   OH232448   3.082   6.847   3.919
10836TIP3    H132449   3.098   6.941   3.915
10836TIP3    H232450   3.110   6.814   3.834
10837TIP3   OH232451   1.622   0.769   6.108
10837TIP3    H132452   1.700   0.810   6.144
10837TIP3    H232453   1.578   0.840   6.061
10838TIP3   OH232454   7.960   6.133   2.801
10838TIP3    H132455   7.926   6.213   2.842
10838TIP3    H232456   7.920   6.062   2.850
10839TIP3   OH232457   0.733   5.655   1.149
10839TIP3    H132458   0.642   5.647   1.180
10839TIP3    H232459   0.758   5.744   1.173
10840TIP3   OH232460   1.877   2.643   5.195
10840TIP3    H132461   1.840   2.728   5.222
10840TIP3    H232462   1.967   2.664   5.169
10841TIP3   OH232463   3.921   1.197   4.331
10841TIP3    H132464   3.877   1.148   4.261
10841TIP3    H232465   3.978   1.259   4.285
10842TIP3   OH232466   5.020   1.520   3.820
10842TIP3    H132467   4.934   1.528   3.862
10842TIP3    H232468   5.082   1.522   3.893
10843TIP3   OH232469   7.442   2.809   2.743
10843TIP3    H132470   7.508   2.749   2.778
10843TIP3    H232471   7.474   2.832   2.656
10844TIP3   OH232472   3.484   3.934   0.421
10844TIP3    H132473   3.451   4.022   0.439
10844TIP3    H232474   3.574   3.935   0.454
10845TIP3   OH232475   0.393   3.377   6.343
10845TIP3    H132476   0.409   3.286   6.368
10845TIP3    H232477   0.313   3.400   6.390
10846TIP3   OH232478   7.228   1.969   4.071
10846TIP3    H132479   7.288   1.908   4.028
10846TIP3    H232480   7.271   2.055   4.061
10847TIP3   OH232481   3.504   0.910   0.257
10847TIP3    H132482   3.430   0.946   0.307
10847TIP3    H232483   3.580   0.921   0.315
10848TIP3   OH232484   2.770   6.276   3.658
10848TIP3    H132485   2.720   6.345   3.614
10848TIP3    H232486   2.850   6.267   3.605
10849TIP3   OH232487   4.266   0.970   3.727
10849TIP3    H132488   4.203   0.924   3.783
10849TIP3    H232489   4.227   1.056   3.712
10850TIP3   OH232490   2.434   2.284   3.459
10850TIP3    H132491   2.495   2.226   3.414
10850TIP3    H232492   2.371   2.225   3.500
10851TIP3   OH232493   7.119   6.147   0.172
10851TIP3    H132494   7.101   6.161   0.079
10851TIP3    H232495   7.110   6.053   0.185
10852TIP3   OH232496   5.915   1.569   4.060
10852TIP3    H132497   5.902   1.477   4.082
10852TIP3    H232498   5.951   1.608   4.140
10853TIP3   OH232499   5.525   2.471   1.219
10853TIP3    H132500   5.607   2.424   1.211
10853TIP3    H232501   5.506   2.472   1.313
10854TIP3   OH232502   0.499   5.946   0.791
10854TIP3    H132503   0.516   5.855   0.812
10854TIP3    H232504   0.416   5.945   0.744
10855TIP3   OH232505   3.096   5.401   4.229
10855TIP3    H132506   3.124   5.310   4.223
10855TIP3    H232507   3.087   5.430   4.138
10856TIP3   OH232508   1.979   6.609   2.204
10856TIP3    H132509   1.924   6.664   2.148
10856TIP3    H232510   2.069   6.636   2.184
10857TIP3   OH232511   4.340   6.561   6.486
10857TIP3    H132512   4.400   6.486   6.493
10857TIP3    H232513   4.273   6.544   6.551
10858TIP3   OH232514   1.845   1.786   4.050
10858TIP3    H132515   1.892   1.855   4.096
10858TIP3    H232516   1.798   1.831   3.980
10859TIP3   OH232517   2.341   5.171   5.587
10859TIP3    H132518   2.368   5.081   5.566
10859TIP3    H232519   2.266   5.161   5.645
10860TIP3   OH232520   5.101   3.178   5.968
10860TIP3    H132521   5.130   3.250   6.025
10860TIP3    H232522   5.160   3.106   5.989
10861TIP3   OH232523   3.388   5.994   3.065
10861TIP3    H132524   3.468   5.962   3.108
10861TIP3    H232525   3.363   5.923   3.006
10862TIP3   OH232526   6.175   4.548   0.192
10862TIP3    H132527   6.218   4.588   0.267
10862TIP3    H232528   6.246   4.525   0.133
10863TIP3   OH232529   6.644   1.299   1.514
10863TIP3    H132530   6.577   1.343   1.462
10863TIP3    H232531   6.653   1.354   1.592
10864TIP3   OH232532   4.564   4.014   6.886
10864TIP3    H132533   4.543   4.033   6.794
10864TIP3    H232534   4.603   4.095   6.918
10865TIP3   OH232535   1.596   1.511   4.741
10865TIP3    H132536   1.665   1.497   4.806
10865TIP3    H232537   1.570   1.423   4.713
10866TIP3   OH232538   1.726   5.678   3.108
10866TIP3    H132539   1.717   5.744   3.039
10866TIP3    H232540   1.732   5.729   3.189
10867TIP3   OH232541   7.530   6.275   3.115
10867TIP3    H132542   7.438   6.288   3.141
10867TIP3    H232543   7.563   6.210   3.176
10868TIP3   OH232544   1.920   1.408   4.322
10868TIP3    H132545   1.955   1.387   4.409
10868TIP3    H232546   1.881   1.326   4.292
10869TIP3   OH232547   0.875   7.268   0.962
10869TIP3    H132548   0.895   7.355   0.998
10869TIP3    H232549   0.792   7.281   0.915
10870TIP3   OH232550   0.287   0.943   0.583
10870TIP3    H132551   0.362   1.002   0.591
10870TIP3    H232552   0.217   0.985   0.633
10871TIP3   OH232553   7.835   0.529   1.005
10871TIP3    H132554   7.900   0.589   0.968
10871TIP3    H232555   7.863   0.515   1.095
10872TIP3   OH232556   3.336   2.618   6.039
10872TIP3    H132557   3.320   2.561   5.964
10872TIP3    H232558   3.249   2.650   6.064
10873TIP3   OH232559   6.556   5.237   0.556
10873TIP3    H132560   6.520   5.167   0.610
10873TIP3    H232561   6.499   5.240   0.479
10874TIP3   OH232562   0.622   6.866   0.373
10874TIP3    H132563   0.544   6.898   0.327
10874TIP3    H232564   0.693   6.872   0.309
10875TIP3   OH232565   7.366   2.331   3.238
10875TIP3    H132566   7.389   2.252   3.188
10875TIP3    H232567   7.413   2.401   3.194
10876TIP3   OH232568   7.980   6.557   4.700
10876TIP3    H132569   7.974   6.521   4.789
10876TIP3    H232570   7.944   6.488   4.644
10877TIP3   OH232571   3.133   1.273   4.354
10877TIP3    H132572   3.106   1.182   4.337
10877TIP3    H232573   3.190   1.267   4.430
10878TIP3   OH232574   7.330   4.583   6.508
10878TIP3    H132575   7.316   4.658   6.565
10878TIP3    H232576   7.321   4.507   6.566
10879TIP3   OH232577   0.385   5.037   6.149
10879TIP3    H132578   0.329   4.985   6.206
10879TIP3    H232579   0.456   5.067   6.205
10880TIP3   OH232580   5.927   5.618   1.794
10880TIP3    H132581   5.976   5.583   1.719
10880TIP3    H232582   5.859   5.673   1.755
10881TIP3   OH232583   6.187   5.454   4.791
10881TIP3    H132584   6.111   5.396   4.785
10881TIP3    H232585   6.154   5.540   4.767
10882TIP3   OH232586   8.058   1.854   6.252
10882TIP3    H132587   8.089   1.765   6.234
10882TIP3    H232588   7.969   1.856   6.218
10883TIP3   OH232589   5.142   3.084   6.337
10883TIP3    H132590   5.078   3.093   6.408
10883TIP3    H232591   5.218   3.044   6.379
10884TIP3   OH232592   1.460   5.513   4.106
10884TIP3    H132593   1.440   5.482   4.018
10884TIP3    H232594   1.411   5.455   4.164
10885TIP3   OH232595   1.149   4.081   1.473
10885TIP3    H132596   1.183   4.101   1.386
10885TIP3    H232597   1.150   3.986   1.477
10886TIP3   OH232598   6.568   1.585   6.720
10886TIP3    H132599   6.483   1.552   6.692
10886TIP3    H232600   6.563   1.587   6.816
10887TIP3   OH232601   2.964   1.283   5.476
10887TIP3    H132602   2.879   1.298   5.435
10887TIP3    H232603   3.001   1.208   5.429
10888TIP3   OH232604   7.012   1.847   6.065
10888TIP3    H132605   6.925   1.846   6.106
10888TIP3    H232606   7.009   1.922   6.006
10889TIP3   OH232607   1.393   2.242   3.123
10889TIP3    H132608   1.483   2.240   3.155
10889TIP3    H232609   1.399   2.277   3.034
10890TIP3   OH232610   5.222   1.464   3.569
10890TIP3    H132611   5.138   1.429   3.598
10890TIP3    H232612   5.246   1.409   3.494
10891TIP3   OH232613   2.016   7.224   3.640
10891TIP3    H132614   1.951   7.285   3.675
10891TIP3    H232615   1.964   7.162   3.589
10892TIP3   OH232616   5.559   0.741   1.708
10892TIP3    H132617   5.612   0.739   1.628
10892TIP3    H232618   5.503   0.663   1.701
10893TIP3   OH232619   1.611   2.907   4.463
10893TIP3    H132620   1.643   2.818   4.453
10893TIP3    H232621   1.613   2.923   4.558
10894TIP3   OH232622   2.703   7.173   6.292
10894TIP3    H132623   2.675   7.263   6.312
10894TIP3    H232624   2.775   7.156   6.354
10895TIP3   OH232625   5.963   2.515   6.720
10895TIP3    H132626   5.897   2.545   6.783
10895TIP3    H232627   6.011   2.447   6.768
10896TIP3   OH232628   2.143   6.200   5.775
10896TIP3    H132629   2.062   6.186   5.824
10896TIP3    H232630   2.209   6.147   5.821
10897TIP3   OH232631   2.479   0.529   6.781
10897TIP3    H132632   2.557   0.541   6.835
10897TIP3    H232633   2.408   0.519   6.844
10898TIP3   OH232634   3.589   1.401   1.395
10898TIP3    H132635   3.534   1.376   1.320
10898TIP3    H232636   3.528   1.442   1.456
10899TIP3   OH232637   6.077  -0.028   3.236
10899TIP3    H132638   6.101  -0.109   3.283
10899TIP3    H232639   6.118   0.042   3.287
10900TIP3   OH232640   3.342   3.905   5.249
10900TIP3    H132641   3.436   3.916   5.256
10900TIP3    H232642   3.308   3.994   5.237
10901TIP3   OH232643   1.729   5.378   4.604
10901TIP3    H132644   1.644   5.384   4.646
10901TIP3    H232645   1.721   5.303   4.545
10902TIP3   OH232646   1.841   7.366   5.466
10902TIP3    H132647   1.811   7.441   5.416
10902TIP3    H232648   1.817   7.386   5.557
10903TIP3   OH232649   4.693   3.328   1.491
10903TIP3    H132650   4.745   3.291   1.419
10903TIP3    H232651   4.635   3.256   1.517
10904TIP3   OH232652   1.222   6.465   1.132
10904TIP3    H132653   1.179   6.450   1.048
10904TIP3    H232654   1.315   6.455   1.114
10905TIP3   OH232655   2.116   4.980   0.764
10905TIP3    H132656   2.084   4.893   0.789
10905TIP3    H232657   2.122   4.977   0.668
10906TIP3   OH232658   5.378   4.351   2.995
10906TIP3    H132659   5.305   4.359   2.933
10906TIP3    H232660   5.408   4.261   2.985
10907TIP3   OH232661   6.726   6.455   6.796
10907TIP3    H132662   6.815   6.467   6.761
10907TIP3    H232663   6.676   6.420   6.722
10908TIP3   OH232664   3.879   6.305   1.221
10908TIP3    H132665   3.853   6.388   1.183
10908TIP3    H232666   3.810   6.243   1.195
10909TIP3   OH232667   4.225   6.947   4.732
10909TIP3    H132668   4.137   6.910   4.721
10909TIP3    H232669   4.244   6.936   4.825
10910TIP3   OH232670   6.646   4.537   0.840
10910TIP3    H132671   6.696   4.598   0.894
10910TIP3    H232672   6.689   4.452   0.852
10911TIP3   OH232673   7.855   1.843   3.221
10911TIP3    H132674   7.865   1.784   3.296
10911TIP3    H232675   7.772   1.817   3.181
10912TIP3   OH232676   1.094   3.166   6.163
10912TIP3    H132677   1.120   3.167   6.255
10912TIP3    H232678   1.035   3.092   6.155
10913TIP3   OH232679   3.866   2.479   4.898
10913TIP3    H132680   3.829   2.550   4.845
10913TIP3    H232681   3.810   2.476   4.975
10914TIP3   OH232682   5.862   0.249   4.067
10914TIP3    H132683   5.902   0.166   4.039
10914TIP3    H232684   5.919   0.317   4.030
10915TIP3   OH232685   7.614   4.931   0.166
10915TIP3    H132686   7.624   5.017   0.126
10915TIP3    H232687   7.616   4.870   0.093
10916TIP3   OH232688   5.954   2.736   5.187
10916TIP3    H132689   6.012   2.662   5.199
10916TIP3    H232690   5.873   2.698   5.151
10917TIP3   OH232691   4.740   5.166   1.792
10917TIP3    H132692   4.706   5.107   1.859
10917TIP3    H232693   4.669   5.229   1.776
10918TIP3   OH232694   2.435   1.331   4.397
10918TIP3    H132695   2.367   1.294   4.454
10918TIP3    H232696   2.398   1.414   4.367
10919TIP3   OH232697   5.158   4.620   1.168
10919TIP3    H132698   5.189   4.530   1.178
10919TIP3    H232699   5.171   4.659   1.255
10920TIP3   OH232700   3.977   4.592   6.200
10920TIP3    H132701   3.946   4.518   6.148
10920TIP3    H232702   4.001   4.553   6.285
10921TIP3   OH232703   5.996   5.356   1.211
10921TIP3    H132704   6.013   5.335   1.119
10921TIP3    H232705   5.945   5.437   1.208
10922TIP3   OH232706   0.872   2.493   2.631
10922TIP3    H132707   0.820   2.572   2.619
10922TIP3    H232708   0.927   2.512   2.707
10923TIP3   OH232709   2.572   0.776   5.382
10923TIP3    H132710   2.494   0.831   5.379
10923TIP3    H232711   2.631   0.815   5.317
10924TIP3   OH232712   0.973   1.509   1.670
10924TIP3    H132713   1.069   1.510   1.666
10924TIP3    H232714   0.952   1.569   1.741
10925TIP3   OH232715   1.144   6.671   0.846
10925TIP3    H132716   1.211   6.604   0.864
10925TIP3    H232717   1.172   6.747   0.897
10926TIP3   OH232718   4.615   6.851   5.038
10926TIP3    H132719   4.647   6.806   4.960
10926TIP3    H232720   4.549   6.793   5.075
10927TIP3   OH232721   4.544   5.638   3.162
10927TIP3    H132722   4.539   5.570   3.230
10927TIP3    H232723   4.565   5.589   3.082
10928TIP3   OH232724   4.335   1.607   4.582
10928TIP3    H132725   4.350   1.701   4.580
10928TIP3    H232726   4.354   1.581   4.673
10929TIP3   OH232727   1.442   2.589   5.832
10929TIP3    H132728   1.378   2.655   5.805
10929TIP3    H232729   1.433   2.520   5.767
10930TIP3   OH232730   6.979   3.667   5.484
10930TIP3    H132731   6.973   3.694   5.393
10930TIP3    H232732   7.072   3.675   5.506
10931TIP3   OH232733   7.630   7.151   2.844
10931TIP3    H132734   7.666   7.194   2.922
10931TIP3    H232735   7.539   7.180   2.840
10932TIP3   OH232736   1.709   3.945   1.087
10932TIP3    H132737   1.704   3.992   1.169
10932TIP3    H232738   1.622   3.907   1.075
10933TIP3   OH232739   3.676   2.563   5.608
10933TIP3    H132740   3.588   2.582   5.577
10933TIP3    H232741   3.664   2.499   5.678
10934TIP3   OH232742   2.359   3.883   4.057
10934TIP3    H132743   2.416   3.901   3.983
10934TIP3    H232744   2.409   3.911   4.134
10935TIP3   OH232745   2.859   5.115   4.857
10935TIP3    H132746   2.934   5.168   4.885
10935TIP3    H232747   2.897   5.041   4.811
10936TIP3   OH232748   3.513   4.096   4.546
10936TIP3    H132749   3.555   4.178   4.517
10936TIP3    H232750   3.422   4.104   4.517
10937TIP3   OH232751   6.983   6.234   3.031
10937TIP3    H132752   7.043   6.180   2.978
10937TIP3    H232753   6.940   6.291   2.967
10938TIP3   OH232754   5.129   3.644   0.695
10938TIP3    H132755   5.048   3.671   0.738
10938TIP3    H232756   5.144   3.555   0.725
10939TIP3   OH232757   5.496   7.265   2.308
10939TIP3    H132758   5.423   7.285   2.366
10939TIP3    H232759   5.471   7.306   2.224
10940TIP3   OH232760   1.965   1.402   6.505
10940TIP3    H132761   1.924   1.465   6.564
10940TIP3    H232762   1.955   1.440   6.418
10941TIP3   OH232763   0.530   3.074   1.189
10941TIP3    H132764   0.541   3.039   1.277
10941TIP3    H232765   0.564   3.004   1.132
10942TIP3   OH232766   0.833   0.302   0.669
10942TIP3    H132767   0.852   0.304   0.575
10942TIP3    H232768   0.801   0.214   0.686
10943TIP3   OH232769   7.601   4.419   5.263
10943TIP3    H132770   7.682   4.450   5.304
10943TIP3    H232771   7.577   4.341   5.313
10944TIP3   OH232772   3.759   2.141   4.035
10944TIP3    H132773   3.717   2.056   4.020
10944TIP3    H232774   3.839   2.138   3.983
10945TIP3   OH232775   4.973   1.148   4.656
10945TIP3    H132776   5.013   1.235   4.654
10945TIP3    H232777   5.039   1.091   4.617
10946TIP3   OH232778   4.353   1.875   4.589
10946TIP3    H132779   4.311   1.949   4.545
10946TIP3    H232780   4.377   1.909   4.675
10947TIP3   OH232781   7.374   6.795   5.326
10947TIP3    H132782   7.307   6.811   5.393
10947TIP3    H232783   7.337   6.728   5.270
10948TIP3   OH232784   1.422   5.996   4.580
10948TIP3    H132785   1.408   6.012   4.487
10948TIP3    H232786   1.514   5.968   4.586
10949TIP3   OH232787   6.573   0.865   2.414
10949TIP3    H132788   6.599   0.775   2.435
10949TIP3    H232789   6.589   0.914   2.494
10950TIP3   OH232790   5.384   7.149   3.627
10950TIP3    H132791   5.292   7.142   3.603
10950TIP3    H232792   5.383   7.156   3.723
10951TIP3   OH232793   5.664   6.067   4.148
10951TIP3    H132794   5.653   6.094   4.057
10951TIP3    H232795   5.632   5.977   4.151
10952TIP3   OH232796   6.331   5.147   4.892
10952TIP3    H132797   6.325   5.061   4.852
10952TIP3    H232798   6.287   5.138   4.976
10953TIP3   OH232799   6.400   0.988   6.023
10953TIP3    H132800   6.318   0.944   6.000
10953TIP3    H232801   6.438   0.934   6.092
10954TIP3   OH232802   4.941   3.928   2.092
10954TIP3    H132803   4.856   3.950   2.129
10954TIP3    H232804   4.934   3.953   1.999
10955TIP3   OH232805   0.245   3.328   3.639
10955TIP3    H132806   0.235   3.261   3.571
10955TIP3    H232807   0.326   3.374   3.616
10956TIP3   OH232808   1.281   2.369   1.401
10956TIP3    H132809   1.341   2.378   1.475
10956TIP3    H232810   1.275   2.458   1.365
10957TIP3   OH232811   7.205   7.440   4.623
10957TIP3    H132812   7.152   7.374   4.579
10957TIP3    H232813   7.285   7.445   4.570
10958TIP3   OH232814   4.817   5.395   5.632
10958TIP3    H132815   4.768   5.473   5.656
10958TIP3    H232816   4.878   5.425   5.564
10959TIP3   OH232817   0.421   7.153   4.129
10959TIP3    H132818   0.347   7.168   4.070
10959TIP3    H232819   0.381   7.140   4.215
10960TIP3   OH232820   8.032   1.890   2.923
10960TIP3    H132821   8.047   1.809   2.874
10960TIP3    H232822   8.014   1.956   2.856
10961TIP3   OH232823   7.051   6.641   5.863
10961TIP3    H132824   6.988   6.708   5.836
10961TIP3    H232825   7.022   6.614   5.950
10962TIP3   OH232826   1.084   7.096   5.819
10962TIP3    H132827   1.152   7.037   5.850
10962TIP3    H232828   1.124   7.141   5.744
10963TIP3   OH232829   6.825   5.990   4.486
10963TIP3    H132830   6.857   5.908   4.523
10963TIP3    H232831   6.817   5.972   4.392
10964TIP3   OH232832   3.804   2.871   1.655
10964TIP3    H132833   3.772   2.959   1.673
10964TIP3    H232834   3.868   2.854   1.723
10965TIP3   OH232835   3.658   7.204   3.537
10965TIP3    H132836   3.730   7.217   3.474
10965TIP3    H232837   3.688   7.249   3.616
10966TIP3   OH232838   3.121   5.450   2.778
10966TIP3    H132839   3.046   5.509   2.781
10966TIP3    H232840   3.174   5.474   2.853
10967TIP3   OH232841   2.161   6.458   3.636
10967TIP3    H132842   2.213   6.402   3.694
10967TIP3    H232843   2.095   6.497   3.693
10968TIP3   OH232844   5.749   4.644   4.267
10968TIP3    H132845   5.756   4.706   4.340
10968TIP3    H232846   5.660   4.609   4.273
10969TIP3   OH232847   1.381   3.796   3.452
10969TIP3    H132848   1.452   3.843   3.408
10969TIP3    H232849   1.322   3.865   3.483
10970TIP3   OH232850   7.261   7.153   6.166
10970TIP3    H132851   7.196   7.099   6.211
10970TIP3    H232852   7.216   7.236   6.150
10971TIP3   OH232853   7.626   6.483   2.946
10971TIP3    H132854   7.611   6.414   3.010
10971TIP3    H232855   7.574   6.557   2.978
10972TIP3   OH232856   5.757   4.814   4.991
10972TIP3    H132857   5.791   4.761   4.919
10972TIP3    H232858   5.777   4.763   5.069
10973TIP3   OH232859   1.142   3.119   6.424
10973TIP3    H132860   1.110   3.206   6.451
10973TIP3    H232861   1.199   3.091   6.496
10974TIP3   OH232862   0.863   0.397   6.340
10974TIP3    H132863   0.956   0.415   6.327
10974TIP3    H232864   0.830   0.376   6.252
10975TIP3   OH232865   2.826   0.068   6.124
10975TIP3    H132866   2.758   0.110   6.177
10975TIP3    H232867   2.838   0.127   6.050
10976TIP3   OH232868   4.647   5.546   0.291
10976TIP3    H132869   4.731   5.531   0.334
10976TIP3    H232870   4.586   5.561   0.363
10977TIP3   OH232871   3.027   3.181   3.365
10977TIP3    H132872   3.061   3.118   3.429
10977TIP3    H232873   2.952   3.222   3.409
10978TIP3   OH232874   6.797   3.997   4.409
10978TIP3    H132875   6.725   4.037   4.458
10978TIP3    H232876   6.754   3.954   4.334
10979TIP3   OH232877   6.610   7.716   3.187
10979TIP3    H132878   6.564   7.725   3.271
10979TIP3    H232879   6.557   7.765   3.125
10980TIP3   OH232880   4.707   2.456   2.619
10980TIP3    H132881   4.651   2.477   2.544
10980TIP3    H232882   4.685   2.522   2.684
10981TIP3   OH232883   4.504   6.838   4.179
10981TIP3    H132884   4.446   6.784   4.233
10981TIP3    H232885   4.528   6.781   4.106
10982TIP3   OH232886   6.214   6.008   3.533
10982TIP3    H132887   6.282   5.959   3.486
10982TIP3    H232888   6.204   6.089   3.483
10983TIP3   OH232889   1.608   3.715   2.329
10983TIP3    H132890   1.623   3.669   2.246
10983TIP3    H232891   1.518   3.694   2.352
10984TIP3   OH232892   2.863   5.592   0.651
10984TIP3    H132893   2.871   5.499   0.630
10984TIP3    H232894   2.949   5.629   0.630
10985TIP3   OH232895   2.326   0.347   4.984
10985TIP3    H132896   2.313   0.261   4.944
10985TIP3    H232897   2.382   0.330   5.060
10986TIP3   OH232898   0.565   6.630   3.869
10986TIP3    H132899   0.570   6.618   3.964
10986TIP3    H232900   0.656   6.628   3.840
10987TIP3   OH232901   3.770   2.641   0.958
10987TIP3    H132902   3.825   2.616   1.033
10987TIP3    H232903   3.817   2.609   0.882
10988TIP3   OH232904   3.503   3.466   5.697
10988TIP3    H132905   3.589   3.497   5.668
10988TIP3    H232906   3.518   3.375   5.723
10989TIP3   OH232907   5.147   6.385   1.692
10989TIP3    H132908   5.103   6.346   1.617
10989TIP3    H232909   5.210   6.446   1.654
10990TIP3   OH232910   3.962   7.606   2.217
10990TIP3    H132911   4.043   7.657   2.208
10990TIP3    H232912   3.899   7.667   2.255
10991TIP3   OH232913   3.444   1.974   0.202
10991TIP3    H132914   3.509   1.936   0.262
10991TIP3    H232915   3.372   1.912   0.202
10992TIP3   OH232916   5.643   1.614   6.749
10992TIP3    H132917   5.654   1.702   6.783
10992TIP3    H232918   5.585   1.624   6.674
10993TIP3   OH232919   3.990   7.828   3.392
10993TIP3    H132920   4.047   7.881   3.335
10993TIP3    H232921   4.014   7.855   3.480
10994TIP3   OH232922   8.204   4.394   0.098
10994TIP3    H132923   8.227   4.331   0.031
10994TIP3    H232924   8.145   4.347   0.157
10995TIP3   OH232925   7.951   6.019   3.811
10995TIP3    H132926   8.035   5.978   3.833
10995TIP3    H232927   7.915   5.962   3.742
10996TIP3   OH232928   1.379   3.512   5.672
10996TIP3    H132929   1.285   3.518   5.685
10996TIP3    H232930   1.405   3.597   5.636
10997TIP3   OH232931   7.211   1.795   6.643
10997TIP3    H132932   7.155   1.732   6.597
10997TIP3    H232933   7.291   1.799   6.591
10998TIP3   OH232934   6.482   6.488   1.130
10998TIP3    H132935   6.407   6.532   1.170
10998TIP3    H232936   6.534   6.560   1.094
10999TIP3   OH232937   5.475   7.763   2.345
10999TIP3    H132938   5.503   7.692   2.288
10999TIP3    H232939   5.380   7.757   2.347
11000TIP3   OH232940   3.329   3.632   3.199
11000TIP3    H132941   3.296   3.551   3.237
11000TIP3    H232942   3.273   3.649   3.124
11001TIP3   OH232943   1.144   3.787   2.824
11001TIP3    H132944   1.158   3.865   2.769
11001TIP3    H232945   1.118   3.719   2.762
11002TIP3   OH232946   0.236   6.181   6.518
11002TIP3    H132947   0.208   6.182   6.609
11002TIP3    H232948   0.188   6.108   6.479
11003TIP3   OH232949   4.200   5.227   0.555
11003TIP3    H132950   4.261   5.178   0.610
11003TIP3    H232951   4.237   5.221   0.467
11004TIP3   OH232952   5.754   4.826   6.062
11004TIP3    H132953   5.681   4.774   6.028
11004TIP3    H232954   5.766   4.795   6.152
11005TIP3   OH232955   1.839   3.573   5.143
11005TIP3    H132956   1.835   3.592   5.237
11005TIP3    H232957   1.749   3.581   5.113
11006TIP3   OH232958   2.788   3.930   5.753
11006TIP3    H132959   2.874   3.889   5.745
11006TIP3    H232960   2.782   3.953   5.846
11007TIP3   OH232961   3.785   4.304   1.629
11007TIP3    H132962   3.790   4.337   1.718
11007TIP3    H232963   3.725   4.364   1.584
11008TIP3   OH232964   1.195   4.047   4.218
11008TIP3    H132965   1.110   4.080   4.245
11008TIP3    H232966   1.242   4.124   4.188
11009TIP3   OH232967   3.629   3.685   5.083
11009TIP3    H132968   3.683   3.617   5.121
11009TIP3    H232969   3.539   3.659   5.103
11010TIP3   OH232970   6.329   4.427   5.342
11010TIP3    H132971   6.233   4.431   5.337
11010TIP3    H232972   6.357   4.514   5.314
11011TIP3   OH232973   0.395   0.473   1.049
11011TIP3    H132974   0.423   0.515   1.131
11011TIP3    H232975   0.445   0.518   0.981
11012TIP3   OH232976   2.264   2.837   5.835
11012TIP3    H132977   2.173   2.857   5.855
11012TIP3    H232978   2.264   2.818   5.741
11013TIP3   OH232979   4.751   5.347   6.059
11013TIP3    H132980   4.708   5.277   6.010
11013TIP3    H232981   4.799   5.397   5.993
11014TIP3   OH232982   1.594   5.404   2.595
11014TIP3    H132983   1.637   5.412   2.510
11014TIP3    H232984   1.631   5.325   2.634
11015TIP3   OH232985   5.352   0.574   6.187
11015TIP3    H132986   5.399   0.657   6.171
11015TIP3    H232987   5.387   0.543   6.270
11016TIP3   OH232988   5.131   0.448   0.230
11016TIP3    H132989   5.136   0.511   0.302
11016TIP3    H232990   5.181   0.489   0.160
11017TIP3   OH232991   5.670   1.861   5.368
11017TIP3    H132992   5.706   1.908   5.293
11017TIP3    H232993   5.672   1.769   5.342
11018TIP3   OH232994   5.264   4.641   5.098
11018TIP3    H132995   5.349   4.685   5.101
11018TIP3    H232996   5.279   4.557   5.141
11019TIP3   OH232997   6.671   6.205   5.068
11019TIP3    H132998   6.600   6.140   5.058
11019TIP3    H232999   6.733   6.183   4.998
11020TIP3   OH233000   7.660   5.436   6.374
11020TIP3    H133001   7.670   5.343   6.396
11020TIP3    H233002   7.692   5.482   6.452
11021TIP3   OH233003   1.502   5.562   0.663
11021TIP3    H133004   1.590   5.588   0.692
11021TIP3    H233005   1.507   5.563   0.567
11022TIP3   OH233006   3.782   6.682   2.203
11022TIP3    H133007   3.860   6.649   2.158
11022TIP3    H233008   3.806   6.770   2.231
11023TIP3   OH233009   1.549   3.189   4.306
11023TIP3    H133010   1.573   3.170   4.397
11023TIP3    H233011   1.485   3.260   4.313
11024TIP3   OH233012   6.962   2.005   3.627
11024TIP3    H133013   6.961   1.910   3.616
11024TIP3    H233014   6.962   2.040   3.538
11025TIP3   OH233015   7.104   3.695   4.751
11025TIP3    H133016   7.172   3.740   4.701
11025TIP3    H233017   7.026   3.750   4.739
11026TIP3   OH233018   3.248   3.721   4.876
11026TIP3    H133019   3.170   3.750   4.830
11026TIP3    H233020   3.320   3.764   4.830
11027TIP3   OH233021   2.309   5.885   2.248
11027TIP3    H133022   2.381   5.839   2.291
11027TIP3    H233023   2.297   5.838   2.165
11028TIP3   OH233024   3.160   5.892   6.628
11028TIP3    H133025   3.130   5.965   6.574
11028TIP3    H233026   3.098   5.888   6.700
11029TIP3   OH233027   5.033   5.608   1.014
11029TIP3    H133028   4.977   5.597   1.091
11029TIP3    H233029   4.978   5.649   0.948
11030TIP3   OH233030   2.312   2.952   0.556
11030TIP3    H133031   2.243   2.911   0.608
11030TIP3    H233032   2.319   3.041   0.590
11031TIP3   OH233033   4.980   0.227   1.086
11031TIP3    H133034   4.983   0.137   1.119
11031TIP3    H233035   4.951   0.218   0.995
11032TIP3   OH233036   4.113   7.338   6.582
11032TIP3    H133037   4.019   7.321   6.597
11032TIP3    H233038   4.157   7.263   6.621
11033TIP3   OH233039   6.696   1.840   6.589
11033TIP3    H133040   6.776   1.868   6.544
11033TIP3    H233041   6.705   1.745   6.597
11034TIP3   OH233042   8.251   7.233   1.218
11034TIP3    H133043   8.314   7.168   1.253
11034TIP3    H233044   8.303   7.284   1.156
11035TIP3   OH233045   3.243   1.658   4.085
11035TIP3    H133046   3.200   1.644   4.001
11035TIP3    H233047   3.225   1.750   4.107
11036TIP3   OH233048   1.847   0.055   1.690
11036TIP3    H133049   1.918   0.055   1.626
11036TIP3    H233050   1.833  -0.038   1.711
11037TIP3   OH233051   4.498   1.957   4.133
11037TIP3    H133052   4.413   1.997   4.117
11037TIP3    H233053   4.480   1.886   4.195
11038TIP3   OH233054   5.171  -0.009   5.090
11038TIP3    H133055   5.083  -0.041   5.108
11038TIP3    H233056   5.180   0.068   5.146
11039TIP3   OH233057   2.429   6.262   1.999
11039TIP3    H133058   2.425   6.336   2.059
11039TIP3    H233059   2.448   6.187   2.056
11040TIP3   OH233060   1.210   3.954   3.208
11040TIP3    H133061   1.197   3.941   3.302
11040TIP3    H233062   1.244   4.043   3.201
11041TIP3   OH233063   1.203   2.110   6.509
11041TIP3    H133064   1.266   2.088   6.440
11041TIP3    H233065   1.125   2.141   6.463
11042TIP3   OH233066   1.901   3.004   2.677
11042TIP3    H133067   1.923   3.021   2.586
11042TIP3    H233068   1.805   3.000   2.679
11043TIP3   OH233069   7.382   4.143   1.941
11043TIP3    H133070   7.327   4.075   1.902
11043TIP3    H233071   7.326   4.185   2.006
11044TIP3   OH233072   1.838   3.328   2.127
11044TIP3    H133073   1.789   3.287   2.055
11044TIP3    H233074   1.911   3.372   2.085
11045TIP3   OH233075   7.893   0.762   2.769
11045TIP3    H133076   7.908   0.714   2.850
11045TIP3    H233077   7.813   0.812   2.785
11046TIP3   OH233078   6.080   2.291   1.650
11046TIP3    H133079   6.049   2.201   1.649
11046TIP3    H233080   6.124   2.301   1.734
11047TIP3   OH233081   6.103   3.973   4.521
11047TIP3    H133082   6.085   3.951   4.612
11047TIP3    H233083   6.086   3.892   4.473
11048TIP3   OH233084   1.117   7.928   2.110
11048TIP3    H133085   1.080   7.840   2.117
11048TIP3    H233086   1.051   7.986   2.149
11049TIP3   OH233087   4.321   6.106   2.103
11049TIP3    H133088   4.358   6.156   2.029
11049TIP3    H233089   4.319   6.016   2.072
11050TIP3   OH233090   0.635   7.882   1.941
11050TIP3    H133091   0.612   7.910   2.030
11050TIP3    H233092   0.552   7.863   1.899
11051TIP3   OH233093   4.845   2.483   0.152
11051TIP3    H133094   4.817   2.415   0.213
11051TIP3    H233095   4.768   2.539   0.141
11052TIP3   OH233096   4.805   0.373   4.803
11052TIP3    H133097   4.879   0.434   4.808
11052TIP3    H233098   4.737   0.421   4.757
11053TIP3   OH233099   0.281   6.772   1.030
11053TIP3    H133100   0.365   6.806   1.060
11053TIP3    H233101   0.260   6.824   0.952
11054TIP3   OH233102   4.304   0.398   2.015
11054TIP3    H133103   4.386   0.354   2.035
11054TIP3    H233104   4.237   0.330   2.026
11055TIP3   OH233105   1.092   4.351   1.520
11055TIP3    H133106   1.051   4.374   1.603
11055TIP3    H233107   1.100   4.256   1.523
11056TIP3   OH233108   6.755   6.706   6.521
11056TIP3    H133109   6.677   6.651   6.525
11056TIP3    H233110   6.776   6.726   6.612
11057TIP3   OH233111   2.989   5.226   6.818
11057TIP3    H133112   2.981   5.133   6.837
11057TIP3    H233113   2.901   5.261   6.833
11058TIP3   OH233114   2.167   1.894   2.087
11058TIP3    H133115   2.154   1.803   2.063
11058TIP3    H233116   2.205   1.934   2.009
11059TIP3   OH233117   8.122   1.564   5.733
11059TIP3    H133118   8.140   1.502   5.662
11059TIP3    H233119   8.207   1.586   5.769
11060TIP3   OH233120   5.272   0.049   2.538
11060TIP3    H133121   5.271   0.143   2.521
11060TIP3    H233122   5.297   0.042   2.630
11061TIP3   OH233123   2.173   2.627   4.443
11061TIP3    H133124   2.141   2.538   4.456
11061TIP3    H233125   2.115   2.664   4.376
11062TIP3   OH233126   6.429   3.824   4.349
11062TIP3    H133127   6.508   3.770   4.357
11062TIP3    H233128   6.376   3.780   4.283
11063TIP3   OH233129   7.566   6.458   2.676
11063TIP3    H133130   7.584   6.453   2.770
11063TIP3    H233131   7.581   6.549   2.653
11064TIP3   OH233132   7.884   5.711   2.851
11064TIP3    H133133   7.802   5.754   2.873
11064TIP3    H233134   7.951   5.777   2.867
11065TIP3   OH233135   5.433   6.670   5.312
11065TIP3    H133136   5.431   6.632   5.400
11065TIP3    H233137   5.471   6.757   5.325
11066TIP3   OH233138   2.430   2.536   1.753
11066TIP3    H133139   2.506   2.515   1.808
11066TIP3    H233140   2.363   2.473   1.781
11067TIP3   OH233141   3.816   5.245   1.106
11067TIP3    H133142   3.766   5.165   1.088
11067TIP3    H233143   3.749   5.311   1.124
11068TIP3   OH233144   2.983   7.495   4.502
11068TIP3    H133145   2.938   7.411   4.511
11068TIP3    H233146   3.045   7.498   4.574
11069TIP3   OH233147   4.212   7.105   2.730
11069TIP3    H133148   4.242   7.182   2.682
11069TIP3    H233149   4.253   7.031   2.685
11070TIP3   OH233150   1.923   6.889   3.730
11070TIP3    H133151   1.991   6.859   3.790
11070TIP3    H233152   1.879   6.959   3.778
11071TIP3   OH233153   7.018   1.078   4.505
11071TIP3    H133154   7.035   1.101   4.414
11071TIP3    H233155   6.939   1.023   4.502
11072TIP3   OH233156   1.239   4.054   0.103
11072TIP3    H133157   1.210   4.111   0.174
11072TIP3    H233158   1.325   4.024   0.129
11073TIP3   OH233159   3.245   7.661   3.031
11073TIP3    H133160   3.225   7.752   3.010
11073TIP3    H233161   3.322   7.665   3.087
11074TIP3   OH233162   5.056   0.115   6.255
11074TIP3    H133163   5.053   0.210   6.266
11074TIP3    H233164   5.044   0.080   6.344
11075TIP3   OH233165   7.729   2.593   6.109
11075TIP3    H133166   7.665   2.663   6.123
11075TIP3    H233167   7.676   2.515   6.093
11076TIP3   OH233168   2.338   0.228   0.787
11076TIP3    H133169   2.295   0.151   0.824
11076TIP3    H233170   2.291   0.245   0.706
11077TIP3   OH233171   3.214   2.078   3.054
11077TIP3    H133172   3.147   2.146   3.045
11077TIP3    H233173   3.295   2.126   3.071
11078TIP3   OH233174   1.857   3.167   3.784
11078TIP3    H133175   1.861   3.143   3.877
11078TIP3    H233176   1.766   3.190   3.770
11079TIP3   OH233177   4.441   6.662   5.137
11079TIP3    H133178   4.437   6.651   5.232
11079TIP3    H233179   4.350   6.682   5.112
11080TIP3   OH233180   8.335   5.993   5.861
11080TIP3    H133181   8.377   5.921   5.815
11080TIP3    H233182   8.244   5.966   5.872
11081TIP3   OH233183   6.012   4.175   0.838
11081TIP3    H133184   6.002   4.093   0.790
11081TIP3    H233185   6.107   4.190   0.840
11082TIP3   OH233186   3.671   5.614   4.105
11082TIP3    H133187   3.714   5.637   4.187
11082TIP3    H233188   3.630   5.529   4.123
11083TIP3   OH233189   3.783   0.500   0.912
11083TIP3    H133190   3.703   0.447   0.912
11083TIP3    H233191   3.832   0.469   0.837
11084TIP3   OH233192   4.505   2.024   2.865
11084TIP3    H133193   4.538   2.109   2.836
11084TIP3    H233194   4.560   1.961   2.819
11085TIP3   OH233195   4.234   6.129   2.532
11085TIP3    H133196   4.145   6.102   2.556
11085TIP3    H233197   4.285   6.048   2.534
11086TIP3   OH233198   7.184   5.506   0.417
11086TIP3    H133199   7.126   5.477   0.347
11086TIP3    H233200   7.138   5.579   0.457
11087TIP3   OH233201   0.426   0.307   6.417
11087TIP3    H133202   0.503   0.250   6.410
11087TIP3    H233203   0.446   0.367   6.488
11088TIP3   OH233204   8.214   0.401   5.738
11088TIP3    H133205   8.306   0.423   5.748
11088TIP3    H233206   8.212   0.332   5.672
11089TIP3   OH233207   3.752   5.535   3.424
11089TIP3    H133208   3.692   5.527   3.350
11089TIP3    H233209   3.817   5.599   3.396
11090TIP3   OH233210   1.430   0.857   0.890
11090TIP3    H133211   1.412   0.930   0.831
11090TIP3    H233212   1.442   0.782   0.832
11091TIP3   OH233213   6.122   5.488   3.733
11091TIP3    H133214   6.050   5.508   3.674
11091TIP3    H233215   6.087   5.422   3.793
11092TIP3   OH233216   3.322   0.605   4.433
11092TIP3    H133217   3.259   0.674   4.412
11092TIP3    H233218   3.324   0.603   4.529
11093TIP3   OH233219   3.228   0.258   3.726
11093TIP3    H133220   3.310   0.217   3.699
11093TIP3    H233221   3.207   0.215   3.809
11094TIP3   OH233222   6.337   1.069   5.579
11094TIP3    H133223   6.346   1.134   5.509
11094TIP3    H233224   6.273   1.006   5.545
11095TIP3   OH233225   5.979   2.036   3.310
11095TIP3    H133226   5.900   2.045   3.363
11095TIP3    H233227   5.966   1.955   3.260
11096TIP3   OH233228   7.788   1.130   4.682
11096TIP3    H133229   7.727   1.083   4.740
11096TIP3    H233230   7.789   1.078   4.602
11097TIP3   OH233231   0.287   0.463   4.492
11097TIP3    H133232   0.258   0.545   4.453
11097TIP3    H233233   0.221   0.399   4.464
11098TIP3   OH233234   2.553   3.810   2.984
11098TIP3    H133235   2.564   3.725   2.941
11098TIP3    H233236   2.476   3.848   2.942
11099TIP3   OH233237   5.595   0.764   1.413
11099TIP3    H133238   5.574   0.811   1.332
11099TIP3    H233239   5.516   0.771   1.466
11100TIP3   OH233240   1.337   2.606   0.595
11100TIP3    H133241   1.257   2.656   0.582
11100TIP3    H233242   1.380   2.607   0.510
11101TIP3   OH233243   2.419   2.574   3.160
11101TIP3    H133244   2.447   2.664   3.142
11101TIP3    H233245   2.380   2.544   3.078
11102TIP3   OH233246   1.357   1.861   1.592
11102TIP3    H133247   1.314   1.885   1.675
11102TIP3    H233248   1.326   1.773   1.574
11103TIP3   OH233249   3.133   4.298   2.650
11103TIP3    H133250   3.218   4.314   2.691
11103TIP3    H233251   3.125   4.203   2.647
11104TIP3   OH233252   3.205   3.840   3.362
11104TIP3    H133253   3.117   3.802   3.356
11104TIP3    H233254   3.264   3.768   3.341
11105TIP3   OH233255   2.468   0.440   3.894
11105TIP3    H133256   2.479   0.411   3.985
11105TIP3    H233257   2.510   0.372   3.842
11106TIP3   OH233258   8.204   2.729   3.554
11106TIP3    H133259   8.218   2.807   3.500
11106TIP3    H233260   8.190   2.762   3.642
11107TIP3   OH233261   5.458   3.319   0.812
11107TIP3    H133262   5.490   3.253   0.873
11107TIP3    H233263   5.496   3.401   0.844
11108TIP3   OH233264   4.829   7.223   0.160
11108TIP3    H133265   4.793   7.201   0.246
11108TIP3    H233266   4.834   7.140   0.114
11109TIP3   OH233267   5.919   5.914   6.640
11109TIP3    H133268   5.871   5.993   6.663
11109TIP3    H233269   5.853   5.854   6.606
11110TIP3   OH233270   7.062   1.180   2.940
11110TIP3    H133271   6.968   1.166   2.929
11110TIP3    H233272   7.073   1.275   2.941
11111TIP3   OH233273   7.111   4.782   4.854
11111TIP3    H133274   7.181   4.830   4.899
11111TIP3    H233275   7.069   4.731   4.923
11112TIP3   OH233276   6.334   5.012   1.493
11112TIP3    H133277   6.293   4.974   1.571
11112TIP3    H233278   6.260   5.043   1.440
11113TIP3   OH233279   3.181   1.444   5.632
11113TIP3    H133280   3.134   1.378   5.683
11113TIP3    H233281   3.128   1.454   5.552
11114TIP3   OH233282   3.577   6.020   3.535
11114TIP3    H133283   3.583   6.038   3.629
11114TIP3    H233284   3.565   6.106   3.495
11115TIP3   OH233285   3.162   4.353   1.252
11115TIP3    H133286   3.211   4.405   1.189
11115TIP3    H233287   3.073   4.352   1.219
11116TIP3   OH233288   2.032   0.945   2.855
11116TIP3    H133289   1.946   0.920   2.889
11116TIP3    H233290   2.092   0.884   2.897
11117TIP3   OH233291   4.169   5.862   5.404
11117TIP3    H133292   4.236   5.839   5.467
11117TIP3    H233293   4.172   5.958   5.399
11118TIP3   OH233294   1.752   5.622   2.713
11118TIP3    H133295   1.702   5.541   2.722
11118TIP3    H233296   1.842   5.597   2.734
11119TIP3   OH233297   6.145   5.699   5.072
11119TIP3    H133298   6.126   5.693   5.165
11119TIP3    H233299   6.241   5.702   5.067
11120TIP3   OH233300   2.387   3.311   3.386
11120TIP3    H133301   2.404   3.303   3.480
11120TIP3    H233302   2.336   3.392   3.378
11121TIP3   OH233303   4.766   7.208   0.823
11121TIP3    H133304   4.838   7.267   0.846
11121TIP3    H233305   4.794   7.122   0.853
11122TIP3   OH233306   5.104   2.254   1.577
11122TIP3    H133307   5.009   2.255   1.571
11122TIP3    H233308   5.122   2.248   1.671
11123TIP3   OH233309   6.541   0.700   2.818
11123TIP3    H133310   6.542   0.685   2.912
11123TIP3    H233311   6.492   0.782   2.806
11124TIP3   OH233312   4.486   6.587   0.921
11124TIP3    H133313   4.543   6.662   0.935
11124TIP3    H233314   4.525   6.517   0.975
11125TIP3   OH233315   4.562   3.619   0.963
11125TIP3    H133316   4.641   3.589   1.009
11125TIP3    H233317   4.590   3.637   0.874
11126TIP3   OH233318   0.734   3.479   5.638
11126TIP3    H133319   0.773   3.543   5.579
11126TIP3    H233320   0.718   3.527   5.719
11127TIP3   OH233321   7.157   2.071   5.480
11127TIP3    H133322   7.074   2.044   5.440
11127TIP3    H233323   7.131   2.128   5.552
11128TIP3   OH233324   5.028   0.919   1.056
11128TIP3    H133325   5.066   0.930   0.969
11128TIP3    H233326   5.001   1.007   1.081
11129TIP3   OH233327   3.912   6.556   0.132
11129TIP3    H133328   3.996   6.511   0.135
11129TIP3    H233329   3.907   6.592   0.044
11130TIP3   OH233330   0.345   7.048   1.475
11130TIP3    H133331   0.376   7.112   1.539
11130TIP3    H233332   0.376   7.081   1.391
11131TIP3   OH233333   0.182   4.763   1.886
11131TIP3    H133334   0.235   4.732   1.813
11131TIP3    H233335   0.237   4.827   1.931
11132TIP3   OH233336   0.160   1.499   2.869
11132TIP3    H133337   0.088   1.545   2.824
11132TIP3    H233338   0.162   1.413   2.829
11133TIP3   OH233339   0.293   3.961   3.529
11133TIP3    H133340   0.297   4.051   3.495
11133TIP3    H233341   0.255   3.971   3.616
11134TIP3   OH233342   0.855   2.145   1.898
11134TIP3    H133343   0.869   2.202   1.823
11134TIP3    H233344   0.875   2.199   1.974
11135TIP3   OH233345   4.102   7.631   4.003
11135TIP3    H133346   4.191   7.595   4.005
11135TIP3    H233347   4.057   7.587   4.075
11136TIP3   OH233348   1.056   1.359   5.988
11136TIP3    H133349   1.134   1.415   5.987
11136TIP3    H233350   1.092   1.270   5.993
11137TIP3   OH233351   6.299   1.133   1.605
11137TIP3    H133352   6.216   1.144   1.558
11137TIP3    H233353   6.358   1.197   1.566
11138TIP3   OH233354   1.188   1.122   5.447
11138TIP3    H133355   1.237   1.200   5.424
11138TIP3    H233356   1.255   1.058   5.473
11139TIP3   OH233357   1.445   2.342   0.327
11139TIP3    H133358   1.376   2.347   0.394
11139TIP3    H233359   1.406   2.291   0.256
11140TIP3   OH233360   3.095   0.164   2.079
11140TIP3    H133361   3.040   0.149   2.002
11140TIP3    H233362   3.174   0.206   2.045
11141TIP3   OH233363   2.507   6.057   5.449
11141TIP3    H133364   2.417   6.023   5.450
11141TIP3    H233365   2.497   6.151   5.465
11142TIP3   OH233366   1.934   7.068   0.881
11142TIP3    H133367   1.845   7.042   0.906
11142TIP3    H233368   1.922   7.145   0.826
11143TIP3   OH233369   3.756   3.883   1.515
11143TIP3    H133370   3.688   3.887   1.581
11143TIP3    H233371   3.725   3.941   1.445
11144TIP3   OH233372   4.457   0.908  -0.057
11144TIP3    H133373   4.452   0.995  -0.017
11144TIP3    H233374   4.509   0.857   0.004
11145TIP3   OH233375   6.948   3.723   3.673
11145TIP3    H133376   6.974   3.808   3.710
11145TIP3    H233377   7.001   3.713   3.595
11146TIP3   OH233378   8.043   4.763   1.791
11146TIP3    H133379   7.963   4.795   1.751
11146TIP3    H233380   8.031   4.778   1.885
11147TIP3   OH233381   3.138   5.632   0.606
11147TIP3    H133382   3.169   5.683   0.681
11147TIP3    H233383   3.137   5.693   0.533
11148TIP3   OH233384   0.744   5.643   4.923
11148TIP3    H133385   0.777   5.729   4.896
11148TIP3    H233386   0.655   5.640   4.886
11149TIP3   OH233387   5.670   1.349   0.539
11149TIP3    H133388   5.690   1.276   0.598
11149TIP3    H233389   5.700   1.427   0.586
11150TIP3   OH233390   5.889   1.650   1.498
11150TIP3    H133391   5.909   1.662   1.406
11150TIP3    H233392   5.970   1.673   1.544
11151TIP3   OH233393   4.081   7.913   0.155
11151TIP3    H133394   4.099   7.819   0.155
11151TIP3    H233395   4.106   7.943   0.243
11152TIP3   OH233396   3.056   6.409   0.191
11152TIP3    H133397   3.019   6.492   0.160
11152TIP3    H233398   3.085   6.428   0.281
11153TIP3   OH233399   4.011   3.838   2.307
11153TIP3    H133400   3.926   3.816   2.344
11153TIP3    H233401   4.042   3.912   2.360
11154TIP3   OH233402   1.358   4.946   1.010
11154TIP3    H133403   1.339   4.980   1.098
11154TIP3    H233404   1.350   5.022   0.953
11155TIP3   OH233405   1.328   3.572   1.465
11155TIP3    H133406   1.237   3.592   1.487
11155TIP3    H233407   1.323   3.540   1.375
11156TIP3   OH233408   1.397   7.472   6.325
11156TIP3    H133409   1.363   7.534   6.390
11156TIP3    H233410   1.380   7.515   6.241
11157TIP3   OH233411   4.413   5.830   5.534
11157TIP3    H133412   4.467   5.849   5.610
11157TIP3    H233413   4.432   5.901   5.473
11158TIP3   OH233414   6.267   4.024   6.351
11158TIP3    H133415   6.362   4.023   6.347
11158TIP3    H233416   6.244   4.116   6.363
11159TIP3   OH233417   4.113   4.035   0.300
11159TIP3    H133418   4.089   4.023   0.208
11159TIP3    H233419   4.116   3.947   0.336
11160TIP3   OH233420   0.531   0.499   3.256
11160TIP3    H133421   0.504   0.483   3.166
11160TIP3    H233422   0.580   0.420   3.281
11161TIP3   OH233423   6.235   1.313   6.420
11161TIP3    H133424   6.302   1.381   6.417
11161TIP3    H233425   6.157   1.359   6.451
11162TIP3   OH233426   3.518   6.361   1.861
11162TIP3    H133427   3.467   6.404   1.792
11162TIP3    H233428   3.608   6.391   1.847
11163TIP3   OH233429   5.484   7.256   5.621
11163TIP3    H133430   5.559   7.274   5.564
11163TIP3    H233431   5.428   7.198   5.569
11164TIP3   OH233432   2.441   4.155   5.627
11164TIP3    H133433   2.365   4.178   5.573
11164TIP3    H233434   2.498   4.231   5.620
11165TIP3   OH233435   2.479   7.209   4.069
11165TIP3    H133436   2.557   7.154   4.060
11165TIP3    H233437   2.499   7.288   4.017
11166TIP3   OH233438   2.096   5.072   2.358
11166TIP3    H133439   2.102   5.117   2.443
11166TIP3    H233440   2.182   5.088   2.318
11167TIP3   OH233441   2.206   4.238   4.972
11167TIP3    H133442   2.267   4.311   4.980
11167TIP3    H233443   2.150   4.263   4.898
11168TIP3   OH233444   3.379   4.834   5.106
11168TIP3    H133445   3.295   4.839   5.060
11168TIP3    H233446   3.367   4.888   5.184
11169TIP3   OH233447   1.140   0.685   5.816
11169TIP3    H133448   1.131   0.647   5.729
11169TIP3    H233449   1.204   0.630   5.860
11170TIP3   OH233450   8.316   6.893   1.709
11170TIP3    H133451   8.409   6.908   1.690
11170TIP3    H233452   8.273   6.897   1.623
11171TIP3   OH233453   2.655   5.843   5.350
11171TIP3    H133454   2.735   5.895   5.348
11171TIP3    H233455   2.585   5.906   5.368
11172TIP3   OH233456   2.872   3.785   0.250
11172TIP3    H133457   2.777   3.792   0.249
11172TIP3    H233458   2.893   3.724   0.180
11173TIP3   OH233459   4.599   2.410   6.870
11173TIP3    H133460   4.588   2.422   6.776
11173TIP3    H233461   4.604   2.498   6.906
11174TIP3   OH233462   7.001   6.664   1.153
11174TIP3    H133463   6.942   6.730   1.117
11174TIP3    H233464   7.072   6.658   1.090
11175TIP3   OH233465   1.376   7.681   0.072
11175TIP3    H133466   1.465   7.716   0.069
11175TIP3    H233467   1.344   7.689  -0.018
11176TIP3   OH233468   1.016   3.169   6.869
11176TIP3    H133469   1.003   3.146   6.777
11176TIP3    H233470   1.092   3.118   6.897
11177TIP3   OH233471   0.697   7.520   0.215
11177TIP3    H133472   0.655   7.494   0.133
11177TIP3    H233473   0.790   7.509   0.200
11178TIP3   OH233474   6.749   3.980   0.350
11178TIP3    H133475   6.725   3.964   0.441
11178TIP3    H233476   6.843   3.961   0.346
11179TIP3   OH233477   2.652   7.573   1.646
11179TIP3    H133478   2.607   7.628   1.710
11179TIP3    H233479   2.745   7.584   1.666
11180TIP3   OH233480   1.237   3.921   2.297
11180TIP3    H133481   1.259   4.009   2.328
11180TIP3    H233482   1.167   3.892   2.356
11181TIP3   OH233483   1.401   5.216   0.631
11181TIP3    H133484   1.474   5.183   0.685
11181TIP3    H233485   1.425   5.193   0.542
11182TIP3   OH233486   0.382   2.991   2.282
11182TIP3    H133487   0.381   3.071   2.229
11182TIP3    H233488   0.318   3.007   2.351
11183TIP3   OH233489   7.249   6.562   4.331
11183TIP3    H133490   7.344   6.563   4.340
11183TIP3    H233491   7.217   6.537   4.417
11184TIP3   OH233492   6.793   3.039   3.688
11184TIP3    H133493   6.776   3.005   3.600
11184TIP3    H233494   6.868   3.099   3.675
11185TIP3   OH233495   5.103   3.574   6.186
11185TIP3    H133496   5.015   3.547   6.161
11185TIP3    H233497   5.160   3.531   6.122
11186TIP3   OH233498   2.282   6.273   3.803
11186TIP3    H133499   2.283   6.266   3.898
11186TIP3    H233500   2.333   6.198   3.773
11187TIP3   OH233501   1.561   2.056   1.031
11187TIP3    H133502   1.504   2.070   1.107
11187TIP3    H233503   1.579   2.145   0.998
11188TIP3   OH233504   7.838   5.599   2.599
11188TIP3    H133505   7.851   5.613   2.693
11188TIP3    H233506   7.744   5.607   2.586
11189TIP3   OH233507   7.580   6.407   5.330
11189TIP3    H133508   7.531   6.332   5.365
11189TIP3    H233509   7.665   6.402   5.374
11190TIP3   OH233510   0.594   2.452   3.235
11190TIP3    H133511   0.670   2.502   3.264
11190TIP3    H233512   0.519   2.507   3.258
11191TIP3   OH233513   4.494   4.202   0.051
11191TIP3    H133514   4.494   4.297   0.039
11191TIP3    H233515   4.477   4.190   0.144
11192TIP3   OH233516   5.178   5.288   2.302
11192TIP3    H133517   5.097   5.339   2.316
11192TIP3    H233518   5.151   5.216   2.245
11193TIP3   OH233519   7.457   0.368   1.726
11193TIP3    H133520   7.539   0.395   1.767
11193TIP3    H233521   7.396   0.357   1.799
11194TIP3   OH233522   7.782   4.865   1.506
11194TIP3    H133523   7.791   4.952   1.544
11194TIP3    H233524   7.744   4.879   1.420
11195TIP3   OH233525   5.054   3.228   0.502
11195TIP3    H133526   5.068   3.189   0.416
11195TIP3    H233527   5.057   3.153   0.562
11196TIP3   OH233528   1.198   4.792   6.231
11196TIP3    H133529   1.189   4.720   6.293
11196TIP3    H233530   1.122   4.847   6.246
11197TIP3   OH233531   0.301   1.054   6.229
11197TIP3    H133532   0.378   1.105   6.205
11197TIP3    H233533   0.335   0.965   6.241
11198TIP3   OH233534   4.057   0.268   2.027
11198TIP3    H133535   4.067   0.292   1.934
11198TIP3    H233536   4.014   0.183   2.025
11199TIP3   OH233537   5.392   0.447   0.799
11199TIP3    H133538   5.366   0.473   0.710
11199TIP3    H233539   5.471   0.393   0.786
11200TIP3   OH233540   7.702   4.385   2.031
11200TIP3    H133541   7.745   4.452   2.085
11200TIP3    H233542   7.621   4.365   2.078
11201TIP3   OH233543   2.505   5.583   2.097
11201TIP3    H133544   2.555   5.571   2.177
11201TIP3    H233545   2.427   5.528   2.109
11202TIP3   OH233546   4.545   2.382   5.497
11202TIP3    H133547   4.513   2.462   5.455
11202TIP3    H233548   4.619   2.412   5.550
11203TIP3   OH233549   0.979   7.256   6.874
11203TIP3    H133550   1.042   7.260   6.801
11203TIP3    H233551   0.896   7.281   6.835
11204TIP3   OH233552   0.918   4.060   3.244
11204TIP3    H133553   0.838   4.027   3.202
11204TIP3    H233554   0.990   4.025   3.192
11205TIP3   OH233555   1.084   7.819   4.643
11205TIP3    H133556   1.144   7.761   4.691
11205TIP3    H233557   1.120   7.824   4.555
11206TIP3   OH233558   2.877   5.754   3.085
11206TIP3    H133559   2.866   5.664   3.054
11206TIP3    H233560   2.972   5.768   3.085
11207TIP3   OH233561   0.143   4.272   5.265
11207TIP3    H133562   0.220   4.291   5.319
11207TIP3    H233563   0.071   4.317   5.310
11208TIP3   OH233564   0.217   4.640   3.341
11208TIP3    H133565   0.262   4.649   3.425
11208TIP3    H233566   0.139   4.695   3.350
11209TIP3   OH233567   2.166   4.639   4.359
11209TIP3    H133568   2.233   4.572   4.346
11209TIP3    H233569   2.142   4.666   4.270
11210TIP3   OH233570   8.143   5.618   3.274
11210TIP3    H133571   8.206   5.672   3.226
11210TIP3    H233572   8.148   5.649   3.364
11211TIP3   OH233573   3.321   5.455   3.322
11211TIP3    H133574   3.356   5.544   3.323
11211TIP3    H233575   3.355   5.415   3.402
11212TIP3   OH233576   3.752   5.889   1.615
11212TIP3    H133577   3.705   5.805   1.620
11212TIP3    H233578   3.727   5.925   1.529
11213TIP3   OH233579   6.480   3.583   4.604
11213TIP3    H133580   6.419   3.622   4.666
11213TIP3    H233581   6.560   3.636   4.611
11214TIP3   OH233582   0.523   1.807   3.051
11214TIP3    H133583   0.576   1.742   3.004
11214TIP3    H233584   0.446   1.818   2.996
11215TIP3   OH233585   0.181   3.178   1.108
11215TIP3    H133586   0.150   3.101   1.060
11215TIP3    H233587   0.109   3.241   1.102
11216TIP3   OH233588   3.778   1.051   1.092
11216TIP3    H133589   3.778   1.085   1.182
11216TIP3    H233590   3.737   0.965   1.100
11217TIP3   OH233591   2.745   7.588   5.118
11217TIP3    H133592   2.782   7.501   5.132
11217TIP3    H233593   2.702   7.583   5.033
11218TIP3   OH233594   8.042   5.747   0.910
11218TIP3    H133595   8.025   5.757   0.816
11218TIP3    H233596   7.956   5.731   0.949
11219TIP3   OH233597   6.833   2.743   6.507
11219TIP3    H133598   6.756   2.700   6.469
11219TIP3    H233599   6.849   2.695   6.589
11220TIP3   OH233600   0.430   5.312   6.052
11220TIP3    H133601   0.415   5.223   6.083
11220TIP3    H233602   0.376   5.367   6.109
11221TIP3   OH233603   1.892   7.410   6.224
11221TIP3    H133604   1.837   7.395   6.300
11221TIP3    H233605   1.935   7.495   6.241
11222TIP3   OH233606   2.567   3.417   0.645
11222TIP3    H133607   2.531   3.368   0.571
11222TIP3    H233608   2.632   3.357   0.684
11223TIP3   OH233609   1.037   7.240   0.012
11223TIP3    H133610   0.950   7.203   0.007
11223TIP3    H233611   1.042   7.280   0.099
11224TIP3   OH233612   6.503   2.715   5.441
11224TIP3    H133613   6.431   2.685   5.496
11224TIP3    H233614   6.569   2.747   5.502
11225TIP3   OH233615   2.475   3.019   2.680
11225TIP3    H133616   2.498   2.972   2.760
11225TIP3    H233617   2.476   3.112   2.706
11226TIP3   OH233618   8.318   7.223   1.770
11226TIP3    H133619   8.303   7.313   1.800
11226TIP3    H233620   8.242   7.203   1.715
11227TIP3   OH233621   0.911   3.552   0.124
11227TIP3    H133622   0.821   3.555   0.093
11227TIP3    H233623   0.964   3.572   0.047
11228TIP3   OH233624   1.307   7.586   1.035
11228TIP3    H133625   1.399   7.606   1.018
11228TIP3    H233626   1.276   7.659   1.089
11229TIP3   OH233627   0.480   1.284   5.305
11229TIP3    H133628   0.445   1.235   5.231
11229TIP3    H233629   0.506   1.217   5.368
11230TIP3   OH233630   6.330   0.877   6.683
11230TIP3    H133631   6.424   0.894   6.692
11230TIP3    H233632   6.295   0.955   6.640
11231TIP3   OH233633   2.288   6.422   3.117
11231TIP3    H133634   2.248   6.429   3.204
11231TIP3    H233635   2.239   6.484   3.063
11232TIP3   OH233636   6.628   1.630   5.441
11232TIP3    H133637   6.708   1.677   5.414
11232TIP3    H233638   6.656   1.580   5.518
11233TIP3   OH233639   3.436   2.177   6.782
11233TIP3    H133640   3.358   2.168   6.728
11233TIP3    H233641   3.422   2.115   6.854
11234TIP3   OH233642   6.022   6.643   0.365
11234TIP3    H133643   5.955   6.709   0.382
11234TIP3    H233644   6.067   6.632   0.448
11235TIP3   OH233645   4.839   7.513   0.521
11235TIP3    H133646   4.788   7.456   0.578
11235TIP3    H233647   4.780   7.533   0.448
11236TIP3   OH233648   1.360   4.915   5.576
11236TIP3    H133649   1.355   4.904   5.670
11236TIP3    H233650   1.385   5.006   5.563
11237TIP3   OH233651   7.658   6.120   3.322
11237TIP3    H133652   7.710   6.187   3.366
11237TIP3    H233653   7.723   6.058   3.288
11238TIP3   OH233654   3.272   1.780   3.123
11238TIP3    H133655   3.258   1.874   3.134
11238TIP3    H233656   3.355   1.773   3.077
11239TIP3   OH233657   5.167   3.878   4.404
11239TIP3    H133658   5.259   3.903   4.393
11239TIP3    H233659   5.154   3.808   4.340
11240TIP3   OH233660   1.038   3.713   3.270
11240TIP3    H133661   0.980   3.712   3.346
11240TIP3    H233662   1.100   3.783   3.289
11241TIP3   OH233663   2.691   6.840   2.925
11241TIP3    H133664   2.768   6.840   2.869
11241TIP3    H233665   2.718   6.794   3.004
11242TIP3   OH233666   1.755   2.892   0.800
11242TIP3    H133667   1.724   2.816   0.752
11242TIP3    H233668   1.717   2.884   0.887
11243TIP3   OH233669   3.563   1.158   3.721
11243TIP3    H133670   3.636   1.175   3.779
11243TIP3    H233671   3.489   1.203   3.761
11244TIP3   OH233672   5.186   1.032   6.115
11244TIP3    H133673   5.123   1.050   6.045
11244TIP3    H233674   5.154   0.951   6.156
11245TIP3   OH233675   2.861   6.832   1.342
11245TIP3    H133676   2.818   6.779   1.410
11245TIP3    H233677   2.953   6.809   1.350
11246TIP3   OH233678   1.774   1.601   4.951
11246TIP3    H133679   1.864   1.589   4.983
11246TIP3    H233680   1.720   1.547   5.008
11247TIP3   OH233681   2.643   7.340   0.117
11247TIP3    H133682   2.707   7.379   0.177
11247TIP3    H233683   2.561   7.385   0.137
11248TIP3   OH233684   5.708   5.497   0.405
11248TIP3    H133685   5.702   5.423   0.344
11248TIP3    H233686   5.772   5.469   0.470
11249TIP3   OH233687   4.184   1.341   2.244
11249TIP3    H133688   4.093   1.327   2.220
11249TIP3    H233689   4.230   1.265   2.207
11250TIP3   OH233690   2.507   1.282   4.771
11250TIP3    H133691   2.507   1.316   4.861
11250TIP3    H233692   2.484   1.357   4.717
11251TIP3   OH233693   0.730   7.081   1.126
11251TIP3    H133694   0.747   7.149   1.061
11251TIP3    H233695   0.777   7.110   1.204
11252TIP3   OH233696   0.435   2.800   3.805
11252TIP3    H133697   0.529   2.813   3.797
11252TIP3    H233698   0.399   2.828   3.721
11253TIP3   OH233699   6.926   4.671   0.902
11253TIP3    H133700   6.938   4.579   0.879
11253TIP3    H233701   7.009   4.697   0.943
11254TIP3   OH233702   5.161   7.713   1.201
11254TIP3    H133703   5.196   7.788   1.153
11254TIP3    H233704   5.188   7.637   1.149
11255TIP3   OH233705   6.244   2.137   5.965
11255TIP3    H133706   6.272   2.131   5.874
11255TIP3    H233707   6.244   2.046   5.996
11256TIP3   OH233708   1.918   5.085   4.587
11256TIP3    H133709   1.931   5.088   4.492
11256TIP3    H233710   1.826   5.062   4.597
11257TIP3   OH233711   1.792   5.949   1.787
11257TIP3    H133712   1.812   5.921   1.698
11257TIP3    H233713   1.878   5.967   1.827
11258TIP3   OH233714   3.135   2.653   0.577
11258TIP3    H133715   3.156   2.598   0.502
11258TIP3    H233716   3.180   2.736   0.559
11259TIP3   OH233717   2.706   2.102   1.033
11259TIP3    H133718   2.670   2.190   1.046
11259TIP3    H233719   2.712   2.065   1.121
11260TIP3   OH233720   6.095   7.355   6.006
11260TIP3    H133721   6.041   7.354   5.927
11260TIP3    H233722   6.031   7.355   6.078
11261TIP3   OH233723   8.285   5.202   6.518
11261TIP3    H133724   8.314   5.145   6.447
11261TIP3    H233725   8.253   5.281   6.474
11262TIP3   OH233726   8.113   2.554   5.168
11262TIP3    H133727   8.101   2.485   5.232
11262TIP3    H233728   8.156   2.511   5.094
11263TIP3   OH233729   5.121   6.381   2.846
11263TIP3    H133730   5.076   6.297   2.856
11263TIP3    H233731   5.134   6.412   2.935
11264TIP3   OH233732   3.629   7.593   2.187
11264TIP3    H133733   3.720   7.585   2.160
11264TIP3    H233734   3.632   7.647   2.266
11265TIP3   OH233735   0.904   6.973   2.059
11265TIP3    H133736   0.834   7.033   2.035
11265TIP3    H233737   0.894   6.898   2.000
11266TIP3   OH233738   3.144   7.496   1.276
11266TIP3    H133739   3.181   7.447   1.202
11266TIP3    H233740   3.220   7.531   1.323
11267TIP3   OH233741   5.080   5.312   1.267
11267TIP3    H133742   5.127   5.243   1.313
11267TIP3    H233743   5.089   5.389   1.323
11268TIP3   OH233744   3.331   0.099   3.470
11268TIP3    H133745   3.275   0.039   3.519
11268TIP3    H233746   3.302   0.090   3.379
11269TIP3   OH233747   6.429   5.704   5.061
11269TIP3    H133748   6.431   5.627   5.117
11269TIP3    H233749   6.502   5.758   5.090
11270TIP3   OH233750   7.210   6.993   6.786
11270TIP3    H133751   7.177   6.911   6.749
11270TIP3    H233752   7.167   7.062   6.735
11271TIP3   OH233753   7.723   1.742   0.261
11271TIP3    H133754   7.656   1.676   0.278
11271TIP3    H233755   7.709   1.808   0.329
11272TIP3   OH233756   3.791   5.493   5.099
11272TIP3    H133757   3.852   5.531   5.163
11272TIP3    H233758   3.734   5.567   5.074
11273TIP3   OH233759   2.509   1.911   1.473
11273TIP3    H133760   2.422   1.875   1.489
11273TIP3    H233761   2.556   1.841   1.428
11274TIP3   OH233762   3.007   1.046   4.294
11274TIP3    H133763   2.938   1.028   4.358
11274TIP3    H233764   2.960   1.076   4.216
11275TIP3   OH233765   2.530   0.425   3.499
11275TIP3    H133766   2.462   0.371   3.458
11275TIP3    H233767   2.604   0.365   3.511
11276TIP3   OH233768   1.897   3.653   0.704
11276TIP3    H133769   1.941   3.733   0.677
11276TIP3    H233770   1.810   3.681   0.733
11277TIP3   OH233771   1.179   1.060   1.691
11277TIP3    H133772   1.124   1.043   1.614
11277TIP3    H233773   1.215   0.974   1.714
11278TIP3   OH233774   3.588   1.479   4.359
11278TIP3    H133775   3.511   1.477   4.302
11278TIP3    H233776   3.591   1.569   4.391
11279TIP3   OH233777   2.934   7.059   6.440
11279TIP3    H133778   3.000   7.076   6.506
11279TIP3    H233779   2.900   6.972   6.462
11280TIP3   OH233780   0.102   6.534   5.078
11280TIP3    H133781   0.044   6.603   5.109
11280TIP3    H233782   0.107   6.546   4.984
11281TIP3   OH233783   0.476   0.902   2.232
11281TIP3    H133784   0.526   0.859   2.163
11281TIP3    H233785   0.411   0.955   2.186
11282TIP3   OH233786   6.746   4.816   2.852
11282TIP3    H133787   6.829   4.840   2.894
11282TIP3    H233788   6.773   4.765   2.776
11283TIP3   OH233789   4.042   0.386   4.278
11283TIP3    H133790   3.984   0.456   4.309
11283TIP3    H233791   4.129   0.411   4.310
11284TIP3   OH233792   4.122   6.443   5.628
11284TIP3    H133793   4.212   6.412   5.640
11284TIP3    H233794   4.077   6.419   5.709
11285TIP3   OH233795   2.075   3.120   3.049
11285TIP3    H133796   1.996   3.174   3.046
11285TIP3    H233797   2.100   3.108   2.958
11286TIP3   OH233798   2.150   4.064   1.984
11286TIP3    H133799   2.118   3.977   2.007
11286TIP3    H233800   2.070   4.117   1.976
11287TIP3   OH233801   8.165   3.603   1.864
11287TIP3    H133802   8.212   3.555   1.933
11287TIP3    H233803   8.086   3.551   1.849
11288TIP3   OH233804   6.520   2.826   5.062
11288TIP3    H133805   6.604   2.823   5.017
11288TIP3    H233806   6.455   2.805   4.995
11289TIP3   OH233807   7.889   5.589   3.474
11289TIP3    H133808   7.822   5.527   3.504
11289TIP3    H233809   7.908   5.642   3.551
11290TIP3   OH233810   6.274   3.728   2.993
11290TIP3    H133811   6.279   3.733   2.898
11290TIP3    H233812   6.252   3.636   3.011
11291TIP3   OH233813   8.372   5.002   5.722
11291TIP3    H133814   8.456   5.025   5.761
11291TIP3    H233815   8.317   4.976   5.797
11292TIP3   OH233816   1.616   2.253   3.288
11292TIP3    H133817   1.706   2.223   3.302
11292TIP3    H233818   1.607   2.330   3.345
11293TIP3   OH233819   8.353   6.761   5.175
11293TIP3    H133820   8.353   6.790   5.266
11293TIP3    H233821   8.260   6.754   5.152
11294TIP3   OH233822   1.527   6.032   2.278
11294TIP3    H133823   1.619   6.057   2.275
11294TIP3    H233824   1.488   6.092   2.342
11295TIP3   OH233825   2.843   3.172   5.084
11295TIP3    H133826   2.785   3.247   5.094
11295TIP3    H233827   2.925   3.199   5.127
11296TIP3   OH233828   7.783   1.167   5.013
11296TIP3    H133829   7.736   1.099   4.964
11296TIP3    H233830   7.713   1.223   5.048
11297TIP3   OH233831   7.505   3.877   5.074
11297TIP3    H133832   7.425   3.850   5.119
11297TIP3    H233833   7.572   3.817   5.107
11298TIP3   OH233834   0.849   0.367   6.613
11298TIP3    H133835   0.849   0.385   6.519
11298TIP3    H233836   0.877   0.450   6.653
11299TIP3   OH233837   3.180   0.859   4.430
11299TIP3    H133838   3.120   0.901   4.368
11299TIP3    H233839   3.127   0.846   4.509
11300TIP3   OH233840   4.046   6.615   1.537
11300TIP3    H133841   3.957   6.650   1.531
11300TIP3    H233842   4.082   6.625   1.448
11301TIP3   OH233843   2.193   3.960   4.889
11301TIP3    H133844   2.180   4.035   4.947
11301TIP3    H233845   2.107   3.919   4.883
11302TIP3   OH233846   1.895   3.791   4.243
11302TIP3    H133847   1.884   3.884   4.226
11302TIP3    H233848   1.985   3.772   4.218
11303TIP3   OH233849   4.653   7.260   0.487
11303TIP3    H133850   4.718   7.191   0.473
11303TIP3    H233851   4.575   7.215   0.520
11304TIP3   OH233852   7.884   3.196   0.081
11304TIP3    H133853   7.890   3.231   0.170
11304TIP3    H233854   7.975   3.193   0.051
11305TIP3   OH233855   0.671   0.770   2.089
11305TIP3    H133856   0.707   0.789   2.002
11305TIP3    H233857   0.735   0.712   2.130
11306TIP3   OH233858   1.456   0.966   5.959
11306TIP3    H133859   1.445   1.061   5.950
11306TIP3    H233860   1.368   0.933   5.975
11307TIP3   OH233861   0.615   1.433   4.426
11307TIP3    H133862   0.572   1.505   4.381
11307TIP3    H233863   0.667   1.475   4.494
11308TIP3   OH233864   5.726   7.187   6.093
11308TIP3    H133865   5.669   7.238   6.151
11308TIP3    H233866   5.683   7.190   6.008
11309TIP3   OH233867   1.271   0.836   3.068
11309TIP3    H133868   1.270   0.898   3.141
11309TIP3    H233869   1.306   0.886   2.994
11310TIP3   OH233870   5.458   4.571   3.118
11310TIP3    H133871   5.409   4.583   3.199
11310TIP3    H233872   5.441   4.481   3.092
11311TIP3   OH233873   4.327   4.337   1.752
11311TIP3    H133874   4.262   4.373   1.812
11311TIP3    H233875   4.328   4.399   1.678
11312TIP3   OH233876   0.174   1.773   3.905
11312TIP3    H133877   0.153   1.800   3.815
11312TIP3    H233878   0.265   1.743   3.900
11313TIP3   OH233879   2.437   3.413   1.847
11313TIP3    H133880   2.414   3.331   1.802
11313TIP3    H233881   2.424   3.394   1.940
11314TIP3   OH233882   1.082   7.848   5.985
11314TIP3    H133883   0.997   7.808   6.005
11314TIP3    H233884   1.124   7.858   6.071
11315TIP3   OH233885   4.327   2.937   1.584
11315TIP3    H133886   4.271   2.954   1.508
11315TIP3    H233887   4.286   2.862   1.628
11316TIP3   OH233888   6.700   3.583   3.990
11316TIP3    H133889   6.615   3.626   3.979
11316TIP3    H233890   6.754   3.649   4.034
11317TIP3   OH233891   6.276   7.328   2.058
11317TIP3    H133892   6.257   7.261   2.123
11317TIP3    H233893   6.324   7.282   1.990
11318TIP3   OH233894   1.117   6.800   6.824
11318TIP3    H133895   1.111   6.717   6.870
11318TIP3    H233896   1.208   6.807   6.797
11319TIP3   OH233897   3.412   7.793   2.759
11319TIP3    H133898   3.424   7.714   2.707
11319TIP3    H233899   3.355   7.766   2.831
11320TIP3   OH233900   7.239   3.255   5.901
11320TIP3    H133901   7.233   3.199   5.979
11320TIP3    H233902   7.326   3.295   5.908
11321TIP3   OH233903   7.181   3.321   0.765
11321TIP3    H133904   7.103   3.315   0.709
11321TIP3    H233905   7.156   3.274   0.845
11322TIP3   OH233906   3.132   0.136   2.674
11322TIP3    H133907   3.100   0.221   2.645
11322TIP3    H233908   3.058   0.077   2.663
11323TIP3   OH233909   7.304   0.255   0.235
11323TIP3    H133910   7.208   0.261   0.234
11323TIP3    H233911   7.324   0.174   0.189
11324TIP3   OH233912   6.916   7.859   6.493
11324TIP3    H133913   6.917   7.863   6.588
11324TIP3    H233914   7.009   7.860   6.468
11325TIP3   OH233915   7.626   4.629   6.429
11325TIP3    H133916   7.703   4.658   6.478
11325TIP3    H233917   7.606   4.703   6.371
11326TIP3   OH233918   5.758   1.406   5.793
11326TIP3    H133919   5.780   1.336   5.732
11326TIP3    H233920   5.809   1.387   5.871
11327TIP3   OH233921   6.884   4.371   0.237
11327TIP3    H133922   6.857   4.335   0.321
11327TIP3    H233923   6.904   4.463   0.255
11328TIP3   OH233924   3.201   6.428   0.416
11328TIP3    H133925   3.265   6.498   0.429
11328TIP3    H233926   3.250   6.347   0.432
11329TIP3   OH233927   5.978   5.678   1.097
11329TIP3    H133928   5.934   5.643   1.019
11329TIP3    H233929   5.915   5.739   1.135
11330TIP3   OH233930   2.315   2.870   2.353
11330TIP3    H133931   2.235   2.854   2.402
11330TIP3    H233932   2.345   2.956   2.382
11331TIP3   OH233933   0.128   1.180   6.684
11331TIP3    H133934   0.143   1.141   6.598
11331TIP3    H233935   0.060   1.246   6.669
11332TIP3   OH233936   3.477   7.319   0.335
11332TIP3    H133937   3.441   7.240   0.375
11332TIP3    H233938   3.401   7.377   0.326
11333TIP3   OH233939   7.004   2.904   2.178
11333TIP3    H133940   7.081   2.939   2.225
11333TIP3    H233941   6.953   2.982   2.155
11334TIP3   OH233942   3.367   6.201   2.831
11334TIP3    H133943   3.362   6.163   2.919
11334TIP3    H233944   3.287   6.171   2.788
11335TIP3   OH233945   5.405   2.219   1.785
11335TIP3    H133946   5.450   2.234   1.869
11335TIP3    H233947   5.411   2.303   1.739
11336TIP3   OH233948   0.567   6.676   1.711
11336TIP3    H133949   0.575   6.722   1.627
11336TIP3    H233950   0.586   6.743   1.776
11337TIP3   OH233951   5.911   3.582   4.186
11337TIP3    H133952   5.895   3.605   4.095
11337TIP3    H233953   5.964   3.502   4.181
11338TIP3   OH233954   5.450   1.479   5.716
11338TIP3    H133955   5.510   1.449   5.785
11338TIP3    H233956   5.442   1.573   5.731
11339TIP3   OH233957   1.635   2.016   5.320
11339TIP3    H133958   1.557   1.961   5.330
11339TIP3    H233959   1.608   2.086   5.261
11340TIP3   OH233960   1.771   6.161   2.992
11340TIP3    H133961   1.840   6.206   3.039
11340TIP3    H233962   1.725   6.230   2.944
11341TIP3   OH233963   7.582   2.244   4.466
11341TIP3    H133964   7.529   2.305   4.517
11341TIP3    H233965   7.541   2.159   4.479
11342TIP3   OH233966   0.917   5.467   1.164
11342TIP3    H133967   0.978   5.482   1.092
11342TIP3    H233968   0.855   5.539   1.158
11343TIP3   OH233969   7.882   6.065   5.608
11343TIP3    H133970   7.917   6.073   5.520
11343TIP3    H233971   7.925   5.988   5.645
11344TIP3   OH233972   3.757   0.465   0.395
11344TIP3    H133973   3.816   0.538   0.414
11344TIP3    H233974   3.670   0.499   0.414
11345TIP3   OH233975   4.679   7.345   1.992
11345TIP3    H133976   4.605   7.406   1.995
11345TIP3    H233977   4.705   7.335   2.084
11346TIP3   OH233978   3.673   4.786   6.277
11346TIP3    H133979   3.605   4.737   6.322
11346TIP3    H233980   3.631   4.819   6.197
11347TIP3   OH233981   3.371   0.884   0.022
11347TIP3    H133982   3.438   0.906   0.087
11347TIP3    H233983   3.314   0.822   0.067
11348TIP3   OH233984   7.222   2.318   0.470
11348TIP3    H133985   7.216   2.266   0.550
11348TIP3    H233986   7.231   2.408   0.500
11349TIP3   OH233987   7.681   5.971   1.640
11349TIP3    H133988   7.652   6.062   1.639
11349TIP3    H233989   7.601   5.921   1.625
11350TIP3   OH233990   7.387   5.072   0.431
11350TIP3    H133991   7.440   5.146   0.401
11350TIP3    H233992   7.305   5.112   0.461
11351TIP3   OH233993   4.579   6.247   2.175
11351TIP3    H133994   4.636   6.196   2.118
11351TIP3    H233995   4.496   6.200   2.175
11352TIP3   OH233996   7.234   5.663   2.332
11352TIP3    H133997   7.316   5.637   2.373
11352TIP3    H233998   7.170   5.598   2.363
11353TIP3   OH233999   2.389   5.892   6.894
11353TIP3    H134000   2.296   5.906   6.875
11353TIP3    H234001   2.390   5.838   6.973
11354TIP3   OH234002   0.151   3.498   0.603
11354TIP3    H134003   0.174   3.462   0.688
11354TIP3    H234004   0.096   3.431   0.562
11355TIP3   OH234005   2.076   7.099   3.310
11355TIP3    H134006   2.100   7.081   3.401
11355TIP3    H234007   1.983   7.075   3.305
11356TIP3   OH234008   6.092   7.606   5.309
11356TIP3    H134009   6.067   7.515   5.294
11356TIP3    H234010   6.011   7.648   5.337
11357TIP3   OH234011   6.868   7.577   5.070
11357TIP3    H134012   6.842   7.584   5.162
11357TIP3    H234013   6.846   7.663   5.032
11358TIP3   OH234014   6.703   3.846   2.044
11358TIP3    H134015   6.656   3.767   2.072
11358TIP3    H234016   6.635   3.903   2.008
11359TIP3   OH234017   4.195   7.450   5.279
11359TIP3    H134018   4.185   7.454   5.184
11359TIP3    H234019   4.285   7.419   5.292
11360TIP3   OH234020   0.497   2.526   2.107
11360TIP3    H134021   0.540   2.516   2.191
11360TIP3    H234022   0.442   2.448   2.099
11361TIP3   OH234023   6.717   6.035   0.868
11361TIP3    H134024   6.720   5.939   0.870
11361TIP3    H234025   6.801   6.060   0.828
11362TIP3   OH234026   6.441   7.817   5.834
11362TIP3    H134027   6.414   7.811   5.742
11362TIP3    H234028   6.513   7.754   5.841
11363TIP3   OH234029   1.182   6.029   2.365
11363TIP3    H134030   1.252   6.092   2.384
11363TIP3    H234031   1.113   6.051   2.428
11364TIP3   OH234032   7.461   1.919   5.908
11364TIP3    H134033   7.436   1.916   6.000
11364TIP3    H234034   7.384   1.954   5.863
11365TIP3   OH234035   3.213   1.687   0.879
11365TIP3    H134036   3.233   1.780   0.876
11365TIP3    H234037   3.175   1.673   0.966
11366TIP3   OH234038   3.351   5.429   3.973
11366TIP3    H134039   3.295   5.365   3.929
11366TIP3    H234040   3.395   5.476   3.902
11367TIP3   OH234041   3.834   6.466   2.817
11367TIP3    H134042   3.785   6.483   2.737
11367TIP3    H234043   3.905   6.407   2.790
11368TIP3   OH234044   7.047   1.480   2.982
11368TIP3    H134045   6.987   1.474   3.056
11368TIP3    H234046   7.009   1.548   2.926
11369TIP3   OH234047   7.806   3.109   2.605
11369TIP3    H134048   7.881   3.136   2.657
11369TIP3    H234049   7.833   3.026   2.566
11370TIP3   OH234050   5.416   2.795   5.613
11370TIP3    H134051   5.431   2.856   5.541
11370TIP3    H234052   5.414   2.709   5.572
11371TIP3   OH234053   3.566   7.474   2.908
11371TIP3    H134054   3.525   7.390   2.930
11371TIP3    H234055   3.537   7.534   2.976
11372TIP3   OH234056   2.855   7.270   5.962
11372TIP3    H134057   2.883   7.213   5.890
11372TIP3    H234058   2.892   7.230   6.040
11373TIP3   OH234059   2.961   7.068   5.802
11373TIP3    H134060   3.054   7.075   5.824
11373TIP3    H234061   2.959   7.043   5.710
11374TIP3   OH234062   4.894   6.989   3.327
11374TIP3    H134063   4.987   6.971   3.318
11374TIP3    H234064   4.854   6.948   3.250
11375TIP3   OH234065   0.323   2.794   2.710
11375TIP3    H134066   0.385   2.725   2.686
11375TIP3    H234067   0.337   2.806   2.804
11376TIP3   OH234068   2.167   2.812   4.164
11376TIP3    H134069   2.123   2.844   4.085
11376TIP3    H234070   2.095   2.792   4.224
11377TIP3   OH234071   5.169   7.242   4.373
11377TIP3    H134072   5.107   7.218   4.303
11377TIP3    H234073   5.114   7.256   4.450
11378TIP3   OH234074   3.553   6.620   3.299
11378TIP3    H134075   3.565   6.530   3.328
11378TIP3    H234076   3.461   6.626   3.275
11379TIP3   OH234077   7.335   2.118   6.516
11379TIP3    H134078   7.356   2.025   6.510
11379TIP3    H234079   7.239   2.121   6.512
11380TIP3   OH234080   2.331   1.577   4.310
11380TIP3    H134081   2.376   1.632   4.245
11380TIP3    H234082   2.242   1.570   4.277
11381TIP3   OH234083   2.242   1.519   3.917
11381TIP3    H134084   2.273   1.572   3.991
11381TIP3    H234085   2.283   1.559   3.841
11382TIP3   OH234086   7.002   6.961   3.599
11382TIP3    H134087   7.062   6.929   3.667
11382TIP3    H234088   6.918   6.919   3.620
11383TIP3   OH234089   6.076   2.905   4.100
11383TIP3    H134090   6.102   2.826   4.146
11383TIP3    H234091   6.090   2.975   4.164
11384TIP3   OH234092   1.131   5.147   3.274
11384TIP3    H134093   1.198   5.212   3.258
11384TIP3    H234094   1.090   5.175   3.356
11385TIP3   OH234095   5.012   4.447   1.735
11385TIP3    H134096   5.094   4.453   1.685
11385TIP3    H234097   4.949   4.497   1.685
11386TIP3   OH234098   0.514   0.125   3.128
11386TIP3    H134099   0.436   0.179   3.114
11386TIP3    H234100   0.585   0.176   3.089
11387TIP3   OH234101   2.482   7.002   2.842
11387TIP3    H134102   2.430   6.935   2.797
11387TIP3    H234103   2.551   6.952   2.887
11388TIP3   OH234104   6.854   5.724   4.875
11388TIP3    H134105   6.791   5.651   4.869
11388TIP3    H234106   6.875   5.745   4.784
11389TIP3   OH234107   1.283   7.462   5.521
11389TIP3    H134108   1.268   7.533   5.583
11389TIP3    H234109   1.198   7.447   5.480
11390TIP3   OH234110   3.331   1.605   2.568
11390TIP3    H134111   3.337   1.514   2.539
11390TIP3    H234112   3.328   1.601   2.663
11391TIP3   OH234113   8.297   7.496   4.111
11391TIP3    H134114   8.202   7.512   4.113
11391TIP3    H234115   8.314   7.471   4.020
11392TIP3   OH234116   0.722   4.102   3.683
11392TIP3    H134117   0.687   4.191   3.685
11392TIP3    H234118   0.802   4.108   3.631
11393TIP3   OH234119   5.774   2.355   5.474
11393TIP3    H134120   5.693   2.328   5.430
11393TIP3    H234121   5.844   2.315   5.422
11394TIP3   OH234122   8.203   5.357   4.257
11394TIP3    H134123   8.108   5.361   4.271
11394TIP3    H234124   8.214   5.316   4.172
11395TIP3   OH234125   8.189   6.626   1.279
11395TIP3    H134126   8.103   6.587   1.291
11395TIP3    H234127   8.220   6.643   1.368
11396TIP3   OH234128   7.430   2.257   0.122
11396TIP3    H134129   7.494   2.269   0.192
11396TIP3    H234130   7.459   2.178   0.076
11397TIP3   OH234131   0.346   0.532   5.010
11397TIP3    H134132   0.309   0.452   4.972
11397TIP3    H234133   0.440   0.524   4.997
11398TIP3   OH234134   8.068   7.251   2.310
11398TIP3    H134135   8.135   7.205   2.259
11398TIP3    H234136   7.992   7.192   2.308
11399TIP3   OH234137   4.111   4.672   3.877
11399TIP3    H134138   4.112   4.761   3.912
11399TIP3    H234139   4.095   4.616   3.953
11400TIP3   OH234140   0.085   0.956   3.600
11400TIP3    H134141   0.076   1.016   3.673
11400TIP3    H234142   0.019   0.888   3.616
11401TIP3   OH234143   1.067   1.390   4.873
11401TIP3    H134144   1.026   1.334   4.807
11401TIP3    H234145   0.999   1.453   4.896
11402TIP3   OH234146   0.212   6.891   0.738
11402TIP3    H134147   0.238   6.895   0.646
11402TIP3    H234148   0.121   6.860   0.736
11403TIP3   OH234149   6.698   3.274   0.295
11403TIP3    H134150   6.647   3.267   0.214
11403TIP3    H234151   6.772   3.216   0.282
11404TIP3   OH234152   1.560   7.898   3.076
11404TIP3    H134153   1.464   7.900   3.080
11404TIP3    H234154   1.586   7.870   3.164
11405TIP3   OH234155   0.117   5.092   0.172
11405TIP3    H134156   0.050   5.045   0.223
11405TIP3    H234157   0.073   5.172   0.145
11406TIP3   OH234158   5.999   6.578   3.974
11406TIP3    H134159   5.922   6.604   3.923
11406TIP3    H234160   5.976   6.493   4.011
11407TIP3   OH234161   4.316   2.881   4.483
11407TIP3    H134162   4.312   2.926   4.398
11407TIP3    H234163   4.235   2.830   4.486
11408TIP3   OH234164   3.285   7.247   3.364
11408TIP3    H134165   3.213   7.301   3.398
11408TIP3    H234166   3.259   7.157   3.384
11409TIP3   OH234167   6.860   3.431   4.344
11409TIP3    H134168   6.863   3.372   4.268
11409TIP3    H234169   6.806   3.505   4.315
11410TIP3   OH234170   3.150   2.771   5.764
11410TIP3    H134171   3.116   2.805   5.847
11410TIP3    H234172   3.090   2.805   5.698
11411TIP3   OH234173   6.719   0.832   0.338
11411TIP3    H134174   6.770   0.762   0.377
11411TIP3    H234175   6.695   0.799   0.251
11412TIP3   OH234176   0.165   2.091   5.496
11412TIP3    H134177   0.132   2.066   5.583
11412TIP3    H234178   0.209   2.012   5.464
11413TIP3   OH234179   1.853   3.790   4.527
11413TIP3    H134180   1.939   3.769   4.563
11413TIP3    H234181   1.867   3.795   4.432
11414TIP3   OH234182   0.150   5.370   2.117
11414TIP3    H134183   0.134   5.373   2.023
11414TIP3    H234184   0.074   5.325   2.153
11415TIP3   OH234185   2.220   5.840   5.746
11415TIP3    H134186   2.242   5.903   5.815
11415TIP3    H234187   2.163   5.889   5.686
11416TIP3   OH234188   0.344   7.215   2.427
11416TIP3    H134189   0.281   7.154   2.388
11416TIP3    H234190   0.372   7.172   2.508
11417TIP3   OH234191   0.373   0.562   0.207
11417TIP3    H134192   0.364   0.657   0.206
11417TIP3    H234193   0.302   0.530   0.152
11418TIP3   OH234194   7.554   0.377   1.018
11418TIP3    H134195   7.533   0.468   1.038
11418TIP3    H234196   7.596   0.380   0.932
11419TIP3   OH234197   4.651   2.683   3.078
11419TIP3    H134198   4.719   2.645   3.133
11419TIP3    H234199   4.571   2.635   3.101
11420TIP3   OH234200   1.909   1.194   4.933
11420TIP3    H134201   1.857   1.272   4.954
11420TIP3    H234202   1.994   1.209   4.975
11421TIP3   OH234203   8.049   7.029   5.774
11421TIP3    H134204   8.119   7.014   5.837
11421TIP3    H234205   7.968   7.023   5.826
11422TIP3   OH234206   7.418   1.765   2.785
11422TIP3    H134207   7.367   1.714   2.848
11422TIP3    H234208   7.449   1.700   2.721
11423TIP3   OH234209   1.551   3.865   5.297
11423TIP3    H134210   1.479   3.871   5.360
11423TIP3    H234211   1.532   3.932   5.232
11424TIP3   OH234212   1.191   5.324   0.213
11424TIP3    H134213   1.215   5.410   0.177
11424TIP3    H234214   1.274   5.278   0.223
11425TIP3   OH234215   0.636   7.621   2.226
11425TIP3    H134216   0.580   7.549   2.255
11425TIP3    H234217   0.654   7.602   2.134
11426TIP3   OH234218   6.797   0.140   1.609
11426TIP3    H134219   6.865   0.201   1.579
11426TIP3    H234220   6.778   0.168   1.698
11427TIP3   OH234221   3.422   0.177   1.737
11427TIP3    H134222   3.393   0.190   1.828
11427TIP3    H234223   3.392   0.089   1.714
11428TIP3   OH234224   7.538   4.469   5.011
11428TIP3    H134225   7.604   4.406   4.980
11428TIP3    H234226   7.529   4.449   5.104
11429TIP3   OH234227   0.966   2.887   1.185
11429TIP3    H134228   1.006   2.890   1.098
11429TIP3    H234229   0.917   2.805   1.186
11430TIP3   OH234230   7.860   4.821   2.798
11430TIP3    H134231   7.840   4.727   2.799
11430TIP3    H234232   7.934   4.830   2.858
11431TIP3   OH234233   7.564   4.609   4.412
11431TIP3    H134234   7.533   4.630   4.500
11431TIP3    H234235   7.605   4.523   4.421
11432TIP3   OH234236   5.901   5.283   1.763
11432TIP3    H134237   5.910   5.368   1.720
11432TIP3    H234238   5.990   5.251   1.773
11433TIP3   OH234239   5.100   3.387   2.782
11433TIP3    H134240   5.080   3.440   2.859
11433TIP3    H234241   5.018   3.343   2.761
11434TIP3   OH234242   5.708   2.485   4.511
11434TIP3    H134243   5.629   2.540   4.510
11434TIP3    H234244   5.769   2.533   4.568
11435TIP3   OH234245   1.808   5.598   0.725
11435TIP3    H134246   1.903   5.590   0.735
11435TIP3    H234247   1.790   5.690   0.740
11436TIP3   OH234248   1.128   5.061   0.251
11436TIP3    H134249   1.138   5.149   0.216
11436TIP3    H234250   1.133   5.071   0.346
11437TIP3   OH234251   5.549   5.576   3.757
11437TIP3    H134252   5.594   5.636   3.697
11437TIP3    H234253   5.586   5.490   3.735
11438TIP3   OH234254   6.164   5.806   3.857
11438TIP3    H134255   6.130   5.838   3.774
11438TIP3    H234256   6.127   5.718   3.867
11439TIP3   OH234257   6.998   4.742   3.669
11439TIP3    H134258   6.942   4.700   3.604
11439TIP3    H234259   6.938   4.768   3.739
11440TIP3   OH234260   6.135   3.767   0.880
11440TIP3    H134261   6.103   3.828   0.814
11440TIP3    H234262   6.191   3.706   0.831
11441TIP3   OH234263   2.006   1.848   5.101
11441TIP3    H134264   2.061   1.774   5.125
11441TIP3    H234265   2.008   1.848   5.005
11442TIP3   OH234266   5.376   0.437   1.311
11442TIP3    H134267   5.376   0.472   1.222
11442TIP3    H234268   5.467   0.408   1.324
11443TIP3   OH234269   4.564   3.694   1.478
11443TIP3    H134270   4.555   3.777   1.524
11443TIP3    H234271   4.656   3.671   1.487
11444TIP3   OH234272   0.373   6.054   0.031
11444TIP3    H134273   0.462   6.084   0.014
11444TIP3    H234274   0.377   5.959   0.017
11445TIP3   OH234275   8.356   0.078   6.198
11445TIP3    H134276   8.431   0.066   6.141
11445TIP3    H234277   8.283   0.038   6.152
11446TIP3   OH234278   6.821   1.495   6.656
11446TIP3    H134279   6.818   1.424   6.719
11446TIP3    H234280   6.730   1.526   6.651
11447TIP3   OH234281   1.425   7.358   4.730
11447TIP3    H134282   1.332   7.350   4.752
11447TIP3    H234283   1.445   7.277   4.683
11448TIP3   OH234284   2.647   2.876   2.829
11448TIP3    H134285   2.591   2.803   2.803
11448TIP3    H234286   2.704   2.839   2.897
11449TIP3   OH234287   6.399   7.391   5.319
11449TIP3    H134288   6.355   7.438   5.390
11449TIP3    H234289   6.369   7.301   5.328
11450TIP3   OH234290   2.262   6.617   0.865
11450TIP3    H134291   2.305   6.650   0.786
11450TIP3    H234292   2.322   6.639   0.936
11451TIP3   OH234293   6.604   3.939   1.742
11451TIP3    H134294   6.552   3.891   1.677
11451TIP3    H234295   6.551   3.936   1.822
11452TIP3   OH234296   2.670   0.361   0.864
11452TIP3    H134297   2.733   0.422   0.904
11452TIP3    H234298   2.673   0.381   0.771
11453TIP3   OH234299   7.498   5.550   5.149
11453TIP3    H134300   7.513   5.522   5.239
11453TIP3    H234301   7.403   5.546   5.138
11454TIP3   OH234302   7.505   3.240   0.942
11454TIP3    H134303   7.530   3.309   0.880
11454TIP3    H234304   7.425   3.273   0.984
11455TIP3   OH234305   1.363   0.462   1.896
11455TIP3    H134306   1.304   0.531   1.927
11455TIP3    H234307   1.425   0.449   1.968
11456TIP3   OH234308   5.445   3.202   3.890
11456TIP3    H134309   5.456   3.271   3.824
11456TIP3    H234310   5.402   3.131   3.843
11457TIP3   OH234311   1.146   7.639   1.598
11457TIP3    H134312   1.175   7.639   1.507
11457TIP3    H234313   1.220   7.675   1.647
11458TIP3   OH234314   0.730   2.642   4.642
11458TIP3    H134315   0.724   2.557   4.597
11458TIP3    H234316   0.777   2.622   4.723
11459TIP3   OH234317   4.017   5.117   0.277
11459TIP3    H134318   4.091   5.070   0.237
11459TIP3    H234319   4.026   5.101   0.371
11460TIP3   OH234320   7.531   0.990   3.891
11460TIP3    H134321   7.502   1.046   3.820
11460TIP3    H234322   7.462   0.996   3.957
11461TIP3   OH234323   4.554   1.767   5.544
11461TIP3    H134324   4.607   1.740   5.469
11461TIP3    H234325   4.618   1.797   5.609
11462TIP3   OH234326   4.715   6.550   6.316
11462TIP3    H134327   4.641   6.494   6.339
11462TIP3    H234328   4.792   6.502   6.344
11463TIP3   OH234329   7.751   2.208   0.951
11463TIP3    H134330   7.823   2.254   0.909
11463TIP3    H234331   7.706   2.276   1.002
11464TIP3   OH234332   2.526   3.086   5.143
11464TIP3    H134333   2.475   3.157   5.184
11464TIP3    H234334   2.598   3.132   5.099
11465TIP3   OH234335   4.449   3.716   3.476
11465TIP3    H134336   4.517   3.740   3.539
11465TIP3    H234337   4.451   3.786   3.411
11466TIP3   OH234338   7.408   2.314   1.775
11466TIP3    H134339   7.465   2.292   1.701
11466TIP3    H234340   7.335   2.362   1.736
11467TIP3   OH234341   1.163   7.849  -0.053
11467TIP3    H134342   1.074   7.883  -0.044
11467TIP3    H234343   1.190   7.829   0.037
11468TIP3   OH234344   5.726   2.863   0.316
11468TIP3    H134345   5.677   2.788   0.282
11468TIP3    H234346   5.813   2.828   0.334
11469TIP3   OH234347   8.018   2.963   1.632
11469TIP3    H134348   7.979   2.907   1.699
11469TIP3    H234349   7.958   3.037   1.623
11470TIP3   OH234350   3.111   0.075   6.093
11470TIP3    H134351   3.178   0.020   6.135
11470TIP3    H234352   3.030   0.052   6.139
11471TIP3   OH234353   4.837   6.447   4.900
11471TIP3    H134354   4.909   6.511   4.902
11471TIP3    H234355   4.788   6.465   4.980
11472TIP3   OH234356   1.895   4.206  -0.034
11472TIP3    H134357   1.811   4.246  -0.057
11472TIP3    H234358   1.959   4.275  -0.049
11473TIP3   OH234359   4.893   0.926   5.139
11473TIP3    H134360   4.924   0.841   5.171
11473TIP3    H234361   4.961   0.954   5.077
11474TIP3   OH234362   4.442   2.896   0.861
11474TIP3    H134363   4.411   2.823   0.807
11474TIP3    H234364   4.489   2.953   0.800
11475TIP3   OH234365   6.552   7.016   0.373
11475TIP3    H134366   6.551   6.924   0.347
11475TIP3    H234367   6.571   7.064   0.293
11476TIP3   OH234368   4.711   5.515   5.339
11476TIP3    H134369   4.797   5.518   5.381
11476TIP3    H234370   4.685   5.606   5.330
11477TIP3   OH234371   0.605   5.353   1.330
11477TIP3    H134372   0.538   5.421   1.326
11477TIP3    H234373   0.638   5.346   1.240
11478TIP3   OH234374   7.960   3.811   0.976
11478TIP3    H134375   8.024   3.763   1.028
11478TIP3    H234376   8.009   3.839   0.898
11479TIP3   OH234377   4.495   5.324   4.826
11479TIP3    H134378   4.499   5.230   4.810
11479TIP3    H234379   4.433   5.357   4.760
11480TIP3   OH234380   2.246   1.819   6.533
11480TIP3    H134381   2.329   1.866   6.544
11480TIP3    H234382   2.261   1.735   6.576
11481TIP3   OH234383   8.394   6.252   5.922
11481TIP3    H134384   8.355   6.165   5.917
11481TIP3    H234385   8.387   6.277   6.014
11482TIP3   OH234386   0.837   7.303   1.353
11482TIP3    H134387   0.858   7.366   1.422
11482TIP3    H234388   0.915   7.248   1.346
11483TIP3   OH234389   6.804   5.350   5.927
11483TIP3    H134390   6.875   5.414   5.935
11483TIP3    H234391   6.828   5.281   5.988
11484TIP3   OH234392   1.789   7.028   1.363
11484TIP3    H134393   1.793   7.104   1.422
11484TIP3    H234394   1.881   7.007   1.345
11485TIP3   OH234395   7.230   0.887   3.494
11485TIP3    H134396   7.264   0.838   3.419
11485TIP3    H234397   7.140   0.856   3.504
11486TIP3   OH234398   0.947   5.581   3.298
11486TIP3    H134399   0.957   5.645   3.228
11486TIP3    H234400   1.006   5.612   3.367
11487TIP3   OH234401   2.605   1.532   2.937
11487TIP3    H134402   2.611   1.579   3.021
11487TIP3    H234403   2.525   1.565   2.897
11488TIP3   OH234404   2.036   6.538   6.100
11488TIP3    H134405   2.042   6.634   6.093
11488TIP3    H234406   1.997   6.511   6.017
11489TIP3   OH234407   8.206   3.728   0.371
11489TIP3    H134408   8.211   3.817   0.404
11489TIP3    H234409   8.221   3.736   0.277
11490TIP3   OH234410   0.994   0.365   2.501
11490TIP3    H134411   0.907   0.346   2.536
11490TIP3    H234412   0.992   0.458   2.481
11491TIP3   OH234413   3.218   0.808   0.561
11491TIP3    H134414   3.159   0.745   0.520
11491TIP3    H234415   3.228   0.878   0.496
11492TIP3   OH234416   5.652   1.794   3.404
11492TIP3    H134417   5.560   1.821   3.401
11492TIP3    H234418   5.648   1.698   3.409
11493TIP3   OH234419   6.384   5.573   5.308
11493TIP3    H134420   6.426   5.577   5.394
11493TIP3    H234421   6.370   5.480   5.293
11494TIP3   OH234422   2.809   4.106   4.050
11494TIP3    H134423   2.852   4.164   3.988
11494TIP3    H234424   2.751   4.162   4.100
11495TIP3   OH234425   8.005   3.770   2.832
11495TIP3    H134426   7.961   3.854   2.823
11495TIP3    H234427   8.065   3.781   2.905
11496TIP3   OH234428   6.510   0.384   4.344
11496TIP3    H134429   6.585   0.390   4.403
11496TIP3    H234430   6.527   0.305   4.292
11497TIP3   OH234431   3.281   1.458   3.577
11497TIP3    H134432   3.323   1.528   3.626
11497TIP3    H234433   3.272   1.493   3.488
11498TIP3   OH234434   8.128   1.264   1.890
11498TIP3    H134435   8.103   1.172   1.898
11498TIP3    H234436   8.082   1.295   1.812
11499TIP3   OH234437   6.196   6.492   2.286
11499TIP3    H134438   6.284   6.457   2.301
11499TIP3    H234439   6.143   6.414   2.270
11500TIP3   OH234440   6.069   2.543   6.001
11500TIP3    H134441   6.040   2.487   5.929
11500TIP3    H234442   6.068   2.485   6.078
11501TIP3   OH234443   4.902   5.359   3.613
11501TIP3    H134444   4.905   5.273   3.571
11501TIP3    H234445   4.992   5.374   3.642
11502TIP3   OH234446   1.667   4.729   5.111
11502TIP3    H134447   1.606   4.663   5.144
11502TIP3    H234448   1.636   4.812   5.149
11503TIP3   OH234449   0.504   3.979   4.276
11503TIP3    H134450   0.444   3.991   4.350
11503TIP3    H234451   0.449   3.950   4.204
11504TIP3   OH234452   4.091   0.515   3.948
11504TIP3    H134453   4.130   0.577   3.886
11504TIP3    H234454   4.163   0.457   3.972
11505TIP3   OH234455   2.504   5.237   3.088
11505TIP3    H134456   2.547   5.319   3.112
11505TIP3    H234457   2.516   5.181   3.164
11506TIP3   OH234458   4.658   5.039   5.169
11506TIP3    H134459   4.578   4.989   5.189
11506TIP3    H234460   4.641   5.126   5.206
11507TIP3   OH234461   7.212   0.266   1.655
11507TIP3    H134462   7.202   0.193   1.594
11507TIP3    H234463   7.305   0.265   1.677
11508TIP3   OH234464   1.320   3.543   1.195
11508TIP3    H134465   1.252   3.499   1.143
11508TIP3    H234466   1.397   3.543   1.138
11509TIP3   OH234467   8.108   3.841   0.756
11509TIP3    H134468   8.189   3.853   0.805
11509TIP3    H234469   8.123   3.884   0.672
11510TIP3   OH234470   1.612   3.839   4.908
11510TIP3    H134471   1.638   3.749   4.926
11510TIP3    H234472   1.622   3.848   4.813
11511TIP3   OH234473   3.046   2.042   3.672
11511TIP3    H134474   3.034   2.105   3.602
11511TIP3    H234475   3.107   2.085   3.733
11512TIP3   OH234476   5.450   7.560   3.925
11512TIP3    H134477   5.483   7.528   3.841
11512TIP3    H234478   5.456   7.485   3.984
11513TIP3   OH234479   0.724   5.509   6.490
11513TIP3    H134480   0.779   5.437   6.459
11513TIP3    H234481   0.778   5.553   6.556
11514TIP3   OH234482   3.771   5.629   4.406
11514TIP3    H134483   3.796   5.704   4.461
11514TIP3    H234484   3.854   5.586   4.386
11515TIP3   OH234485   7.941   4.271   5.558
11515TIP3    H134486   7.948   4.365   5.573
11515TIP3    H234487   7.962   4.231   5.642
11516TIP3   OH234488   4.572   1.155   4.384
11516TIP3    H134489   4.564   1.248   4.405
11516TIP3    H234490   4.548   1.110   4.464
11517TIP3   OH234491   4.053   0.744   5.254
11517TIP3    H134492   4.143   0.720   5.276
11517TIP3    H234493   4.009   0.751   5.339
11518TIP3   OH234494   5.663   4.496   4.996
11518TIP3    H134495   5.637   4.542   5.076
11518TIP3    H234496   5.710   4.419   5.027
11519TIP3   OH234497   5.104   2.559   4.270
11519TIP3    H134498   5.025   2.507   4.259
11519TIP3    H234499   5.172   2.509   4.225
11520TIP3   OH234500   7.527   4.204   4.465
11520TIP3    H134501   7.621   4.207   4.486
11520TIP3    H234502   7.484   4.212   4.550
11521TIP3   OH234503   3.675   6.223   2.784
11521TIP3    H134504   3.723   6.148   2.748
11521TIP3    H234505   3.728   6.251   2.859
11522TIP3   OH234506   5.565   2.519   1.829
11522TIP3    H134507   5.603   2.527   1.916
11522TIP3    H234508   5.617   2.451   1.786
11523TIP3   OH234509   8.032   7.465   2.100
11523TIP3    H134510   8.090   7.540   2.086
11523TIP3    H234511   8.081   7.408   2.160
11524TIP3   OH234512   5.342   2.776   3.459
11524TIP3    H134513   5.400   2.795   3.385
11524TIP3    H234514   5.261   2.745   3.419
11525TIP3   OH234515   0.393   4.691   3.853
11525TIP3    H134516   0.327   4.747   3.895
11525TIP3    H234517   0.415   4.627   3.920
11526TIP3   OH234518   5.617   3.587   3.538
11526TIP3    H134519   5.598   3.495   3.522
11526TIP3    H234520   5.551   3.634   3.487
11527TIP3   OH234521   6.579   7.238   4.594
11527TIP3    H134522   6.643   7.167   4.604
11527TIP3    H234523   6.526   7.234   4.674
11528TIP3   OH234524   4.647   4.571   4.941
11528TIP3    H134525   4.673   4.496   4.887
11528TIP3    H234526   4.694   4.645   4.902
11529TIP3   OH234527   2.698   5.886   5.052
11529TIP3    H134528   2.652   5.937   5.119
11529TIP3    H234529   2.629   5.853   4.994
11530TIP3   OH234530   1.485   7.748   2.046
11530TIP3    H134531   1.443   7.663   2.052
11530TIP3    H234532   1.435   7.795   1.979
11531TIP3   OH234533   4.771   3.736   3.339
11531TIP3    H134534   4.759   3.697   3.425
11531TIP3    H234535   4.841   3.800   3.351
11532TIP3   OH234536   1.895   6.584   5.860
11532TIP3    H134537   1.904   6.677   5.839
11532TIP3    H234538   1.968   6.543   5.813
11533TIP3   OH234539   3.434   1.658   0.534
11533TIP3    H134540   3.439   1.739   0.586
11533TIP3    H234541   3.400   1.593   0.595
11534TIP3   OH234542   2.803   0.811   5.205
11534TIP3    H134543   2.842   0.894   5.230
11534TIP3    H234544   2.870   0.746   5.226
11535TIP3   OH234545   4.979  -0.073   4.211
11535TIP3    H134546   4.956  -0.075   4.304
11535TIP3    H234547   5.051  -0.010   4.206
11536TIP3   OH234548   0.446   4.308   5.081
11536TIP3    H134549   0.420   4.242   5.016
11536TIP3    H234550   0.529   4.342   5.049
11537TIP3   OH234551   5.616   5.538   5.120
11537TIP3    H134552   5.626   5.630   5.144
11537TIP3    H234553   5.608   5.492   5.203
11538TIP3   OH234554   1.028   5.162   5.050
11538TIP3    H134555   1.090   5.230   5.078
11538TIP3    H234556   1.026   5.101   5.123
11539TIP3   OH234557   2.944   5.114   2.067
11539TIP3    H134558   2.861   5.096   2.023
11539TIP3    H234559   2.976   5.194   2.026
11540TIP3   OH234560   4.989   4.648   5.156
11540TIP3    H134561   4.973   4.613   5.068
11540TIP3    H234562   5.083   4.664   5.158
11541TIP3   OH234563   7.590   3.658   2.094
11541TIP3    H134564   7.551   3.574   2.070
11541TIP3    H234565   7.555   3.720   2.030
11542TIP3   OH234566   3.364   7.695   4.990
11542TIP3    H134567   3.310   7.637   5.044
11542TIP3    H234568   3.339   7.783   5.016
11543TIP3   OH234569   3.872   7.221   3.367
11543TIP3    H134570   3.930   7.296   3.358
11543TIP3    H234571   3.868   7.183   3.279
11544TIP3   OH234572   7.148   3.074   1.340
11544TIP3    H134573   7.220   3.021   1.306
11544TIP3    H234574   7.079   3.012   1.358
11545TIP3   OH234575   0.679   6.483   5.704
11545TIP3    H134576   0.742   6.534   5.652
11545TIP3    H234577   0.699   6.392   5.683
11546TIP3   OH234578   0.386   7.287   1.868
11546TIP3    H134579   0.438   7.223   1.917
11546TIP3    H234580   0.342   7.339   1.934
11547TIP3   OH234581   0.588   2.044   1.757
11547TIP3    H134582   0.545   2.041   1.672
11547TIP3    H234583   0.671   1.998   1.744
11548TIP3   OH234584   5.020   4.012   4.117
11548TIP3    H134585   5.092   3.966   4.073
11548TIP3    H234586   5.052   4.102   4.128
11549TIP3   OH234587   5.195   4.221   4.218
11549TIP3    H134588   5.222   4.194   4.306
11549TIP3    H234589   5.221   4.313   4.211
11550TIP3   OH234590   7.353   7.608   5.623
11550TIP3    H134591   7.330   7.634   5.534
11550TIP3    H234592   7.422   7.669   5.648
11551TIP3   OH234593   1.153   1.199   6.627
11551TIP3    H134594   1.170   1.108   6.602
11551TIP3    H234595   1.222   1.220   6.690
11552TIP3   OH234596   5.922   6.017   6.355
11552TIP3    H134597   5.927   6.037   6.449
11552TIP3    H234598   5.963   6.091   6.312
11553TIP3   OH234599   5.192   3.667   6.437
11553TIP3    H134600   5.164   3.639   6.351
11553TIP3    H234601   5.224   3.588   6.480
11554TIP3   OH234602   2.114   5.110   5.985
11554TIP3    H134603   2.093   5.193   5.943
11554TIP3    H234604   2.182   5.133   6.049
11555TIP3   OH234605   3.056   1.683   6.063
11555TIP3    H134606   3.096   1.666   6.148
11555TIP3    H234607   3.097   1.619   6.005
11556TIP3   OH234608   6.875   6.202   3.403
11556TIP3    H134609   6.814   6.162   3.466
11556TIP3    H234610   6.943   6.136   3.390
11557TIP3   OH234611   5.614   0.703   0.473
11557TIP3    H134612   5.690   0.686   0.529
11557TIP3    H234613   5.625   0.645   0.399
11558TIP3   OH234614   4.997   4.600   6.222
11558TIP3    H134615   5.012   4.513   6.258
11558TIP3    H234616   5.083   4.628   6.190
11559TIP3   OH234617   2.254   6.909   4.297
11559TIP3    H134618   2.271   6.993   4.253
11559TIP3    H234619   2.166   6.918   4.333
11560TIP3   OH234620   5.684   6.877   0.861
11560TIP3    H134621   5.681   6.898   0.768
11560TIP3    H234622   5.776   6.859   0.879
11561TIP3   OH234623   6.347   0.897   5.024
11561TIP3    H134624   6.315   0.808   5.007
11561TIP3    H234625   6.301   0.951   4.960
11562TIP3   OH234626   7.948   2.681   5.381
11562TIP3    H134627   8.011   2.698   5.310
11562TIP3    H234628   8.003   2.667   5.458
11563TIP3   OH234629   3.970   2.023   5.223
11563TIP3    H134630   3.935   2.075   5.151
11563TIP3    H234631   4.045   2.074   5.255
11564TIP3   OH234632   4.518   2.771   2.592
11564TIP3    H134633   4.590   2.740   2.646
11564TIP3    H234634   4.498   2.697   2.535
11565TIP3   OH234635   1.648   2.639   4.972
11565TIP3    H134636   1.637   2.610   4.882
11565TIP3    H234637   1.561   2.667   4.999
11566TIP3   OH234638   5.629   6.194   3.279
11566TIP3    H134639   5.718   6.217   3.306
11566TIP3    H234640   5.639   6.165   3.188
11567TIP3   OH234641   4.779   2.315   1.633
11567TIP3    H134642   4.810   2.350   1.716
11567TIP3    H234643   4.724   2.385   1.597
11568TIP3   OH234644   7.651   2.421   1.111
11568TIP3    H134645   7.606   2.480   1.050
11568TIP3    H234646   7.665   2.474   1.189
11569TIP3   OH234647   6.961   1.649   2.752
11569TIP3    H134648   6.994   1.732   2.717
11569TIP3    H234649   6.869   1.665   2.771
11570TIP3   OH234650   5.177   0.953   4.624
11570TIP3    H134651   5.213   0.942   4.536
11570TIP3    H234652   5.176   0.865   4.661
11571TIP3   OH234653   4.314   0.515   0.902
11571TIP3    H134654   4.358   0.555   0.827
11571TIP3    H234655   4.221   0.529   0.884
11572TIP3   OH234656   7.929   5.724   3.736
11572TIP3    H134657   7.997   5.688   3.793
11572TIP3    H234658   7.847   5.707   3.783
11573TIP3   OH234659   7.595   1.577   5.273
11573TIP3    H134660   7.611   1.670   5.255
11573TIP3    H234661   7.596   1.535   5.187
11574TIP3   OH234662   0.927   3.035   1.511
11574TIP3    H134663   0.846   3.083   1.496
11574TIP3    H234664   0.976   3.090   1.572
11575TIP3   OH234665   4.826   0.825   1.272
11575TIP3    H134666   4.759   0.871   1.223
11575TIP3    H234667   4.830   0.738   1.232
11576TIP3   OH234668   1.572   3.743   1.355
11576TIP3    H134669   1.548   3.835   1.358
11576TIP3    H234670   1.492   3.696   1.378
11577TIP3   OH234671   7.716   5.584   4.959
11577TIP3    H134672   7.665   5.582   5.039
11577TIP3    H234673   7.651   5.576   4.889
11578TIP3   OH234674   8.275   2.358   4.487
11578TIP3    H134675   8.318   2.318   4.411
11578TIP3    H234676   8.188   2.382   4.456
11579TIP3   OH234677   4.530   0.004   3.598
11579TIP3    H134678   4.572  -0.052   3.533
11579TIP3    H234679   4.588   0.079   3.606
11580TIP3   OH234680   7.782   6.173   0.000
11580TIP3    H134681   7.736   6.245   0.044
11580TIP3    H234682   7.730   6.156  -0.079
11581TIP3   OH234683   5.417   2.141   0.873
11581TIP3    H134684   5.511   2.124   0.883
11581TIP3    H234685   5.400   2.216   0.930
11582TIP3   OH234686   0.122   4.736   0.102
11582TIP3    H134687   0.054   4.754   0.037
11582TIP3    H234688   0.097   4.653   0.141
11583TIP3   OH234689   3.388   7.126   1.258
11583TIP3    H134690   3.445   7.200   1.234
11583TIP3    H234691   3.436   7.081   1.328
11584TIP3   OH234692   3.799   5.241   1.587
11584TIP3    H134693   3.721   5.295   1.570
11584TIP3    H234694   3.869   5.305   1.600
11585TIP3   OH234695   1.750   2.670   2.738
11585TIP3    H134696   1.693   2.746   2.726
11585TIP3    H234697   1.772   2.642   2.650
11586TIP3   OH234698   0.851   3.516   6.496
11586TIP3    H134699   0.762   3.553   6.493
11586TIP3    H234700   0.908   3.592   6.499
11587TIP3   OH234701   0.217   7.600   3.021
11587TIP3    H134702   0.245   7.517   3.058
11587TIP3    H234703   0.298   7.642   2.991
11588TIP3   OH234704   1.083   7.512   6.061
11588TIP3    H134705   1.084   7.416   6.057
11588TIP3    H234706   1.053   7.539   5.974
11589TIP3   OH234707   7.019   7.908   0.298
11589TIP3    H134708   7.113   7.925   0.306
11589TIP3    H234709   6.983   7.990   0.265
11590TIP3   OH234710   2.800   3.395   4.575
11590TIP3    H134711   2.856   3.380   4.652
11590TIP3    H234712   2.858   3.439   4.512
11591TIP3   OH234713   0.462   4.826   3.220
11591TIP3    H134714   0.514   4.802   3.143
11591TIP3    H234715   0.378   4.854   3.184
11592TIP3   OH234716   2.890   1.595   4.956
11592TIP3    H134717   2.923   1.668   5.009
11592TIP3    H234718   2.947   1.522   4.978
11593TIP3   OH234719   0.885   3.165   5.404
11593TIP3    H134720   0.871   3.194   5.494
11593TIP3    H234721   0.808   3.197   5.356
11594TIP3   OH234722   2.880   6.383   3.331
11594TIP3    H134723   2.970   6.416   3.326
11594TIP3    H234724   2.888   6.289   3.321
11595TIP3   OH234725   8.318   3.897   2.858
11595TIP3    H134726   8.257   3.896   2.932
11595TIP3    H234727   8.383   3.830   2.881
11596TIP3   OH234728   1.492   2.311   6.637
11596TIP3    H134729   1.464   2.382   6.578
11596TIP3    H234730   1.467   2.341   6.724
11597TIP3   OH234731   0.421   0.142   6.130
11597TIP3    H134732   0.484   0.083   6.087
11597TIP3    H234733   0.447   0.141   6.222
11598TIP3   OH234734   7.544   6.678   5.763
11598TIP3    H134735   7.522   6.587   5.785
11598TIP3    H234736   7.587   6.672   5.678
11599TIP3   OH234737   5.620   4.074   4.804
11599TIP3    H134738   5.565   3.997   4.794
11599TIP3    H234739   5.685   4.048   4.870
11600TIP3   OH234740   7.572   1.273   5.392
11600TIP3    H134741   7.605   1.208   5.455
11600TIP3    H234742   7.504   1.227   5.343
11601TIP3   OH234743   3.257   5.174   1.523
11601TIP3    H134744   3.202   5.128   1.587
11601TIP3    H234745   3.204   5.175   1.443
11602TIP3   OH234746   6.867   6.760   5.164
11602TIP3    H134747   6.869   6.743   5.258
11602TIP3    H234748   6.774   6.762   5.142
11603TIP3   OH234749   2.716   3.254   1.786
11603TIP3    H134750   2.625   3.232   1.765
11603TIP3    H234751   2.744   3.186   1.847
11604TIP3   OH234752   6.036   4.935   0.294
11604TIP3    H134753   5.990   4.998   0.239
11604TIP3    H234754   6.127   4.965   0.295
11605TIP3   OH234755   0.132   5.559   5.810
11605TIP3    H134756   0.127   5.487   5.748
11605TIP3    H234757   0.129   5.517   5.896
11606TIP3   OH234758   7.904   0.063   6.082
11606TIP3    H134759   7.964  -0.011   6.088
11606TIP3    H234760   7.933   0.112   6.005
11607TIP3   OH234761   5.990   3.238   3.845
11607TIP3    H134762   6.070   3.291   3.850
11607TIP3    H234763   6.021   3.148   3.847
11608TIP3   OH234764   7.514   4.347   2.225
11608TIP3    H134765   7.427   4.308   2.227
11608TIP3    H234766   7.560   4.306   2.298
11609TIP3   OH234767   6.880   5.691   5.866
11609TIP3    H134768   6.966   5.726   5.842
11609TIP3    H234769   6.894   5.650   5.951
11610TIP3   OH234770   0.151   3.628   0.020
11610TIP3    H134771   0.072   3.657   0.067
11610TIP3    H234772   0.219   3.626   0.087
11611TIP3   OH234773   6.627   5.333   6.572
11611TIP3    H134774   6.625   5.333   6.477
11611TIP3    H234775   6.560   5.398   6.597
11612TIP3   OH234776   5.121   5.080   2.132
11612TIP3    H134777   5.208   5.077   2.093
11612TIP3    H234778   5.061   5.058   2.061
11613TIP3   OH234779   2.152   6.999   1.571
11613TIP3    H134780   2.211   7.069   1.543
11613TIP3    H234781   2.107   7.034   1.648
11614TIP3   OH234782   4.480   6.835   4.664
11614TIP3    H134783   4.393   6.863   4.694
11614TIP3    H234784   4.507   6.769   4.727
11615TIP3   OH234785   1.841   4.373   4.931
11615TIP3    H134786   1.771   4.418   4.885
11615TIP3    H234787   1.797   4.327   5.003
11616TIP3   OH234788   7.302   2.820   5.956
11616TIP3    H134789   7.222   2.823   5.904
11616TIP3    H234790   7.368   2.862   5.901
11617TIP3   OH234791   3.289   0.116   5.613
11617TIP3    H134792   3.263   0.189   5.670
11617TIP3    H234793   3.225   0.118   5.542
11618TIP3   OH234794   4.676   1.490   1.488
11618TIP3    H134795   4.603   1.444   1.446
11618TIP3    H234796   4.645   1.506   1.578
11619TIP3   OH234797   1.335   5.277   6.179
11619TIP3    H134798   1.341   5.182   6.193
11619TIP3    H234799   1.281   5.308   6.252
11620TIP3   OH234800   0.254   7.350   0.060
11620TIP3    H134801   0.192   7.417   0.032
11620TIP3    H234802   0.282   7.307  -0.021
11621TIP3   OH234803   8.282   4.803   4.226
11621TIP3    H134804   8.308   4.815   4.135
11621TIP3    H234805   8.270   4.892   4.261
11622TIP3   OH234806   2.860   4.888   6.333
11622TIP3    H134807   2.859   4.897   6.428
11622TIP3    H234808   2.810   4.963   6.301
11623TIP3   OH234809   3.431   5.345   4.910
11623TIP3    H134810   3.367   5.341   4.839
11623TIP3    H234811   3.399   5.415   4.967
11624TIP3   OH234812   2.227   2.293   1.218
11624TIP3    H134813   2.202   2.201   1.205
11624TIP3    H234814   2.236   2.302   1.313
11625TIP3   OH234815   2.312   1.722   0.572
11625TIP3    H134816   2.359   1.661   0.628
11625TIP3    H234817   2.229   1.738   0.618
11626TIP3   OH234818   2.895   7.611   1.724
11626TIP3    H134819   2.871   7.614   1.816
11626TIP3    H234820   2.987   7.583   1.723
11627TIP3   OH234821   7.082   2.365   6.644
11627TIP3    H134822   7.058   2.331   6.558
11627TIP3    H234823   7.176   2.380   6.638
11628TIP3   OH234824   7.126   0.223   4.493
11628TIP3    H134825   7.054   0.164   4.471
11628TIP3    H234826   7.163   0.248   4.408
11629TIP3   OH234827   3.258   1.464   5.955
11629TIP3    H134828   3.340   1.513   5.949
11629TIP3    H234829   3.270   1.405   6.030
11630TIP3   OH234830   5.729   1.895   3.709
11630TIP3    H134831   5.765   1.807   3.717
11630TIP3    H234832   5.634   1.882   3.710
11631TIP3   OH234833   2.105   5.366   5.544
11631TIP3    H134834   2.150   5.374   5.628
11631TIP3    H234835   2.121   5.275   5.517
11632TIP3   OH234836   2.480   3.988   4.990
11632TIP3    H134837   2.396   3.944   4.973
11632TIP3    H234838   2.474   4.018   5.080
11633TIP3   OH234839   6.805   1.861   0.506
11633TIP3    H134840   6.850   1.906   0.578
11633TIP3    H234841   6.752   1.795   0.550
11634TIP3   OH234842   2.671   2.096   3.401
11634TIP3    H134843   2.634   2.016   3.438
11634TIP3    H234844   2.757   2.069   3.368
11635TIP3   OH234845   2.103   4.761   4.123
11635TIP3    H134846   2.067   4.835   4.172
11635TIP3    H234847   2.047   4.755   4.046
11636TIP3   OH234848   7.422   4.172   5.445
11636TIP3    H134849   7.501   4.145   5.492
11636TIP3    H234850   7.446   4.167   5.353
11637TIP3   OH234851   2.793   7.836   1.561
11637TIP3    H134852   2.832   7.764   1.610
11637TIP3    H234853   2.819   7.821   1.470
11638TIP3   OH234854   5.608   3.146   2.272
11638TIP3    H134855   5.610   3.232   2.230
11638TIP3    H234856   5.594   3.165   2.365
11639TIP3   OH234857   2.008   1.150   0.859
11639TIP3    H134858   1.955   1.112   0.929
11639TIP3    H234859   2.053   1.224   0.900
11640TIP3   OH234860   7.657   2.265   0.583
11640TIP3    H134861   7.612   2.211   0.648
11640TIP3    H234862   7.662   2.352   0.624
11641TIP3   OH234863   2.035   6.735   6.455
11641TIP3    H134864   1.963   6.783   6.495
11641TIP3    H234865   2.007   6.643   6.456
11642TIP3   OH234866   5.732   3.309   0.531
11642TIP3    H134867   5.647   3.265   0.524
11642TIP3    H234868   5.796   3.238   0.524
11643TIP3   OH234869   4.008   1.923   6.401
11643TIP3    H134870   3.964   1.996   6.443
11643TIP3    H234871   3.995   1.849   6.461
11644TIP3   OH234872   6.882   3.296   4.962
11644TIP3    H134873   6.920   3.209   4.949
11644TIP3    H234874   6.914   3.323   5.048
11645TIP3   OH234875   8.045   4.163   2.276
11645TIP3    H134876   8.079   4.075   2.290
11645TIP3    H234877   8.075   4.213   2.351
11646TIP3   OH234878   3.461   5.363   5.360
11646TIP3    H134879   3.478   5.437   5.301
11646TIP3    H234880   3.544   5.348   5.405
11647TIP3   OH234881   0.332   6.329   4.054
11647TIP3    H134882   0.394   6.257   4.062
11647TIP3    H234883   0.329   6.368   4.142
11648TIP3   OH234884   3.542   2.555   1.209
11648TIP3    H134885   3.609   2.514   1.264
11648TIP3    H234886   3.550   2.509   1.125
11649TIP3   OH234887   5.024   5.798   4.592
11649TIP3    H134888   5.071   5.730   4.545
11649TIP3    H234889   5.092   5.848   4.636
11650TIP3   OH234890   5.425   1.161   2.482
11650TIP3    H134891   5.420   1.231   2.417
11650TIP3    H234892   5.347   1.108   2.465
11651TIP3   OH234893   7.231   3.520   6.697
11651TIP3    H134894   7.225   3.526   6.793
11651TIP3    H234895   7.196   3.602   6.665
11652TIP3   OH234896   5.397   7.364   6.506
11652TIP3    H134897   5.309   7.394   6.530
11652TIP3    H234898   5.394   7.269   6.518
11653TIP3   OH234899   4.782   7.289   3.782
11653TIP3    H134900   4.699   7.336   3.768
11653TIP3    H234901   4.791   7.284   3.877
11654TIP3   OH234902   1.468   7.618   0.709
11654TIP3    H134903   1.462   7.660   0.795
11654TIP3    H234904   1.562   7.616   0.690
11655TIP3   OH234905   6.664   5.274   3.329
11655TIP3    H134906   6.676   5.356   3.280
11655TIP3    H234907   6.695   5.294   3.417
11656TIP3   OH234908   7.307   0.533   1.976
11656TIP3    H134909   7.256   0.532   2.057
11656TIP3    H234910   7.383   0.587   1.996
11657TIP3   OH234911   5.750   4.152   5.642
11657TIP3    H134912   5.660   4.177   5.662
11657TIP3    H234913   5.800   4.174   5.721
11658TIP3   OH234914   0.634   1.882   6.397
11658TIP3    H134915   0.655   1.969   6.431
11658TIP3    H234916   0.706   1.827   6.427
11659TIP3   OH234917   2.608   2.695   3.815
11659TIP3    H134918   2.683   2.670   3.869
11659TIP3    H234919   2.555   2.750   3.872
11660TIP3   OH234920   7.880   0.945   3.480
11660TIP3    H134921   7.932   1.020   3.452
11660TIP3    H234922   7.944   0.878   3.503
11661TIP3   OH234923   8.284   6.304   1.328
11661TIP3    H134924   8.312   6.229   1.275
11661TIP3    H234925   8.198   6.327   1.293
11662TIP3   OH234926   6.921   0.201   0.993
11662TIP3    H134927   6.893   0.164   0.910
11662TIP3    H234928   7.000   0.250   0.973
11663TIP3   OH234929   4.152   5.138   4.533
11663TIP3    H134930   4.185   5.093   4.611
11663TIP3    H234931   4.085   5.198   4.566
11664TIP3   OH234932   0.026   7.206   2.380
11664TIP3    H134933   0.107   7.198   2.429
11664TIP3    H234934   0.016   7.122   2.335
11665TIP3   OH234935   0.443   5.494   1.988
11665TIP3    H134936   0.407   5.405   1.991
11665TIP3    H234937   0.527   5.485   1.945
11666TIP3   OH234938   6.419   4.570   4.956
11666TIP3    H134939   6.515   4.577   4.954
11666TIP3    H234940   6.392   4.594   4.868
11667TIP3   OH234941   1.971   0.248   1.853
11667TIP3    H134942   2.062   0.227   1.873
11667TIP3    H234943   1.934   0.168   1.817
11668TIP3   OH234944   6.351   1.259   4.147
11668TIP3    H134945   6.327   1.213   4.227
11668TIP3    H234946   6.442   1.234   4.131
11669TIP3   OH234947   2.437   7.837   3.584
11669TIP3    H134948   2.463   7.746   3.569
11669TIP3    H234949   2.404   7.866   3.499
11670TIP3   OH234950   0.652   4.897   1.489
11670TIP3    H134951   0.700   4.918   1.408
11670TIP3    H234952   0.598   4.975   1.505
11671TIP3   OH234953   3.679   2.331   6.582
11671TIP3    H134954   3.720   2.409   6.620
11671TIP3    H234955   3.663   2.274   6.657
11672TIP3   OH234956   6.727   3.570   5.423
11672TIP3    H134957   6.802   3.525   5.461
11672TIP3    H234958   6.726   3.656   5.467
11673TIP3   OH234959   5.286   4.305   4.470
11673TIP3    H134960   5.276   4.377   4.532
11673TIP3    H234961   5.379   4.285   4.471
11674TIP3   OH234962   6.834   3.022   0.119
11674TIP3    H134963   6.787   2.944   0.088
11674TIP3    H234964   6.844   3.007   0.214
11675TIP3   OH234965   4.434   4.591   0.768
11675TIP3    H134966   4.351   4.551   0.741
11675TIP3    H234967   4.501   4.528   0.741
11676TIP3   OH234968   8.318   7.717   0.475
11676TIP3    H134969   8.231   7.689   0.503
11676TIP3    H234970   8.379   7.666   0.528
11677TIP3   OH234971   2.955   3.722   5.984
11677TIP3    H134972   2.896   3.653   5.953
11677TIP3    H234973   2.915   3.754   6.065
11678TIP3   OH234974   0.201   2.475   6.027
11678TIP3    H134975   0.246   2.538   5.970
11678TIP3    H234976   0.143   2.427   5.968
11679TIP3   OH234977   7.524   5.210   3.997
11679TIP3    H134978   7.576   5.287   4.016
11679TIP3    H234979   7.588   5.141   3.976
11680TIP3   OH234980   8.328   0.623   3.970
11680TIP3    H134981   8.375   0.595   4.049
11680TIP3    H234982   8.392   0.615   3.900
11681TIP3   OH234983   7.039   0.863   4.941
11681TIP3    H134984   7.046   0.767   4.944
11681TIP3    H234985   6.947   0.879   4.919
11682TIP3   OH234986   8.346   7.903   2.629
11682TIP3    H134987   8.297   7.940   2.555
11682TIP3    H234988   8.305   7.819   2.646
11683TIP3   OH234989   8.372   7.273   3.072
11683TIP3    H134990   8.309   7.203   3.088
11683TIP3    H234991   8.326   7.333   3.012
11684TIP3   OH234992   5.976   0.009   5.677
11684TIP3    H134993   6.045   0.075   5.683
11684TIP3    H234994   5.935   0.009   5.764
11685TIP3   OH234995   8.029   5.305   0.217
11685TIP3    H134996   7.979   5.302   0.299
11685TIP3    H234997   7.974   5.261   0.153
11686TIP3   OH234998   6.132   0.921   1.317
11686TIP3    H134999   6.217   0.960   1.297
11686TIP3    H235000   6.144   0.827   1.299
11687TIP3   OH235001   5.257   0.927   0.521
11687TIP3    H135002   5.261   0.842   0.566
11687TIP3    H235003   5.344   0.938   0.484
11688TIP3   OH235004   6.500   1.947   2.746
11688TIP3    H135005   6.551   2.017   2.788
11688TIP3    H235006   6.537   1.866   2.783
11689TIP3   OH235007   7.332   2.556   3.585
11689TIP3    H135008   7.277   2.632   3.566
11689TIP3    H235009   7.397   2.555   3.516
11690TIP3   OH235010   6.440   5.945   5.651
11690TIP3    H135011   6.389   6.002   5.709
11690TIP3    H235012   6.490   5.889   5.710
11691TIP3   OH235013   0.412   7.589   2.554
11691TIP3    H135014   0.413   7.522   2.622
11691TIP3    H235015   0.448   7.667   2.597
11692TIP3   OH235016   4.647   2.889   1.039
11692TIP3    H135017   4.589   2.891   0.963
11692TIP3    H235018   4.589   2.899   1.114
11693TIP3   OH235019   8.149   3.541   5.358
11693TIP3    H135020   8.140   3.504   5.446
11693TIP3    H235021   8.170   3.633   5.373
11694TIP3   OH235022   3.348   3.268   5.544
11694TIP3    H135023   3.282   3.337   5.555
11694TIP3    H235024   3.422   3.312   5.503
11695TIP3   OH235025   8.191   0.869   4.355
11695TIP3    H135026   8.172   0.838   4.266
11695TIP3    H235027   8.266   0.927   4.344
11696TIP3   OH235028   5.395   3.379   6.504
11696TIP3    H135029   5.432   3.467   6.494
11696TIP3    H235030   5.425   3.332   6.426
11697TIP3   OH235031   4.708   2.217   3.836
11697TIP3    H135032   4.710   2.122   3.846
11697TIP3    H235033   4.643   2.246   3.900
11698TIP3   OH235034   5.345   2.248   2.460
11698TIP3    H135035   5.310   2.173   2.412
11698TIP3    H235036   5.422   2.275   2.410
11699TIP3   OH235037   1.758   6.351   5.528
11699TIP3    H135038   1.841   6.395   5.542
11699TIP3    H235039   1.711   6.362   5.611
11700TIP3   OH235040   8.215   0.783   1.035
11700TIP3    H135041   8.172   0.718   0.980
11700TIP3    H235042   8.298   0.800   0.990
11701TIP3   OH235043   7.140   4.837   2.645
11701TIP3    H135044   7.208   4.903   2.633
11701TIP3    H235045   7.122   4.805   2.557
11702TIP3   OH235046   3.243   4.052   2.670
11702TIP3    H135047   3.325   4.065   2.622
11702TIP3    H235048   3.225   3.959   2.661
11703TIP3   OH235049   5.138   7.712   6.836
11703TIP3    H135050   5.090   7.793   6.854
11703TIP3    H235051   5.110   7.686   6.749
11704TIP3   OH235052   4.672   7.267   6.001
11704TIP3    H135053   4.764   7.264   5.974
11704TIP3    H235054   4.665   7.201   6.070
11705TIP3   OH235055   5.207   2.100   1.180
11705TIP3    H135056   5.121   2.133   1.207
11705TIP3    H235057   5.187   2.032   1.116
11706TIP3   OH235058   1.715   7.601   1.925
11706TIP3    H135059   1.676   7.689   1.927
11706TIP3    H235060   1.805   7.616   1.897
11707TIP3   OH235061   0.668   7.743   5.331
11707TIP3    H135062   0.660   7.652   5.358
11707TIP3    H235063   0.686   7.739   5.237
11708TIP3   OH235064   3.202   6.343   6.470
11708TIP3    H135065   3.208   6.274   6.404
11708TIP3    H235066   3.192   6.423   6.419
11709TIP3   OH235067   3.564   3.675   3.619
11709TIP3    H135068   3.621   3.747   3.591
11709TIP3    H235069   3.601   3.597   3.577
11710TIP3   OH235070   3.880   0.721   0.418
11710TIP3    H135071   3.871   0.799   0.364
11710TIP3    H235072   3.903   0.651   0.356
11711TIP3   OH235073   0.809   3.044   3.912
11711TIP3    H135074   0.852   3.111   3.858
11711TIP3    H235075   0.878   2.981   3.931
11712TIP3   OH235076   1.690   0.661   5.530
11712TIP3    H135077   1.758   0.608   5.488
11712TIP3    H235078   1.633   0.689   5.459
11713TIP3   OH235079   3.771   7.706   2.408
11713TIP3    H135080   3.841   7.662   2.457
11713TIP3    H235081   3.798   7.798   2.404
11714TIP3   OH235082   8.448   1.087   0.647
11714TIP3    H135083   8.424   1.017   0.586
11714TIP3    H235084   8.368   1.103   0.698
11715TIP3   OH235085   6.292   2.116   0.486
11715TIP3    H135086   6.262   2.171   0.558
11715TIP3    H235087   6.315   2.033   0.526
11716TIP3   OH235088   0.840   0.986   1.616
11716TIP3    H135089   0.849   1.079   1.594
11716TIP3    H235090   0.928   0.950   1.603
11717TIP3   OH235091   0.189   4.691   2.896
11717TIP3    H135092   0.253   4.630   2.933
11717TIP3    H235093   0.163   4.651   2.813
11718TIP3   OH235094   5.400   3.027   6.451
11718TIP3    H135095   5.382   3.004   6.542
11718TIP3    H235096   5.494   3.044   6.449
11719TIP3   OH235097   7.118   6.743   6.718
11719TIP3    H135098   7.026   6.760   6.739
11719TIP3    H235099   7.140   6.665   6.768
11720TIP3   OH235100   1.932   5.433   1.205
11720TIP3    H135101   1.916   5.496   1.135
11720TIP3    H235102   2.013   5.462   1.246
11721TIP3   OH235103   0.376   2.899   5.609
11721TIP3    H135104   0.465   2.914   5.578
11721TIP3    H235105   0.328   2.977   5.582
11722TIP3   OH235106   3.850   1.492   1.177
11722TIP3    H135107   3.759   1.510   1.153
11722TIP3    H235108   3.845   1.411   1.229
11723TIP3   OH235109   0.503   1.611   0.769
11723TIP3    H135110   0.536   1.608   0.679
11723TIP3    H235111   0.547   1.538   0.813
11724TIP3   OH235112   5.419   3.043   4.666
11724TIP3    H135113   5.403   3.136   4.678
11724TIP3    H235114   5.397   3.003   4.750
11725TIP3   OH235115   4.663   5.989   5.059
11725TIP3    H135116   4.750   6.008   5.026
11725TIP3    H235117   4.635   6.071   5.100
11726TIP3   OH235118   7.183   0.893   6.274
11726TIP3    H135119   7.109   0.841   6.305
11726TIP3    H235120   7.157   0.924   6.187
11727TIP3   OH235121   3.499   0.458   5.872
11727TIP3    H135122   3.416   0.479   5.829
11727TIP3    H235123   3.531   0.380   5.827
11728TIP3   OH235124   3.783   4.463   5.912
11728TIP3    H135125   3.852   4.420   5.962
11728TIP3    H235126   3.808   4.449   5.821
11729TIP3   OH235127   2.828   1.428   6.704
11729TIP3    H135128   2.759   1.385   6.653
11729TIP3    H235129   2.788   1.444   6.789
11730TIP3   OH235130   6.884   4.643   2.688
11730TIP3    H135131   6.839   4.633   2.605
11730TIP3    H235132   6.977   4.640   2.666
11731TIP3   OH235133   6.653   6.183   4.205
11731TIP3    H135134   6.713   6.252   4.234
11731TIP3    H235135   6.708   6.106   4.192
11732TIP3   OH235136   0.492   5.022   2.950
11732TIP3    H135137   0.533   5.044   3.033
11732TIP3    H235138   0.564   4.991   2.895
11733TIP3   OH235139   4.797   3.948   6.225
11733TIP3    H135140   4.770   3.868   6.269
11733TIP3    H235141   4.840   3.918   6.145
11734TIP3   OH235142   3.433   0.993   0.939
11734TIP3    H135143   3.423   0.996   1.034
11734TIP3    H235144   3.362   1.047   0.906
11735TIP3   OH235145   5.814   0.421   0.177
11735TIP3    H135146   5.789   0.510   0.152
11735TIP3    H235147   5.787   0.413   0.268
11736TIP3   OH235148   7.033   7.150   6.636
11736TIP3    H135149   6.956   7.123   6.587
11736TIP3    H235150   7.079   7.211   6.578
11737TIP3   OH235151   6.810   7.569   0.997
11737TIP3    H135152   6.888   7.546   0.947
11737TIP3    H235153   6.775   7.486   1.027
11738TIP3   OH235154   7.025   1.202   4.059
11738TIP3    H135155   6.933   1.208   4.035
11738TIP3    H235156   7.054   1.292   4.070
11739TIP3   OH235157   2.409   4.645   5.881
11739TIP3    H135158   2.329   4.658   5.933
11739TIP3    H235159   2.454   4.729   5.885
11740TIP3   OH235160   2.206   4.356   1.784
11740TIP3    H135161   2.135   4.308   1.827
11740TIP3    H235162   2.276   4.291   1.775
11741TIP3   OH235163   5.798   4.244   2.608
11741TIP3    H135164   5.829   4.283   2.690
11741TIP3    H235165   5.785   4.151   2.630
11742TIP3   OH235166   4.958   1.693   4.327
11742TIP3    H135167   5.039   1.643   4.338
11742TIP3    H235168   4.901   1.634   4.277
11743TIP3   OH235169   0.928   3.212   4.744
11743TIP3    H135170   0.918   3.134   4.689
11743TIP3    H235171   0.975   3.274   4.688
11744TIP3   OH235172   1.809   6.095   3.312
11744TIP3    H135173   1.812   6.185   3.281
11744TIP3    H235174   1.880   6.090   3.377
11745TIP3   OH235175   5.592   2.538   3.351
11745TIP3    H135176   5.661   2.585   3.304
11745TIP3    H235177   5.511   2.565   3.309
11746TIP3   OH235178   2.509   6.322   0.791
11746TIP3    H135179   2.426   6.296   0.830
11746TIP3    H235180   2.507   6.286   0.703
11747TIP3   OH235181   5.281   3.731   1.012
11747TIP3    H135182   5.204   3.768   0.968
11747TIP3    H235183   5.353   3.746   0.951
11748TIP3   OH235184   0.240   2.508   2.934
11748TIP3    H135185   0.311   2.447   2.956
11748TIP3    H235186   0.170   2.451   2.901
11749TIP3   OH235187   2.385   5.453   4.613
11749TIP3    H135188   2.292   5.457   4.636
11749TIP3    H235189   2.428   5.424   4.693
11750TIP3   OH235190   0.480   3.581   3.098
11750TIP3    H135191   0.454   3.674   3.101
11750TIP3    H235192   0.553   3.579   3.036
11751TIP3   OH235193   6.021   1.036   6.561
11751TIP3    H135194   6.113   1.043   6.584
11751TIP3    H235195   5.981   1.116   6.595
11752TIP3   OH235196   7.929   5.741   4.554
11752TIP3    H135197   7.877   5.662   4.570
11752TIP3    H235198   7.918   5.793   4.633
11753TIP3   OH235199   8.064   2.749   0.644
11753TIP3    H135200   8.049   2.734   0.551
11753TIP3    H235201   8.149   2.793   0.648
11754TIP3   OH235202   4.867   5.881   4.166
11754TIP3    H135203   4.839   5.847   4.251
11754TIP3    H235204   4.802   5.847   4.104
11755TIP3   OH235205   0.176   7.644   4.547
11755TIP3    H135206   0.164   7.573   4.484
11755TIP3    H235207   0.088   7.678   4.563
11756TIP3   OH235208   3.793   5.989   2.697
11756TIP3    H135209   3.831   5.988   2.609
11756TIP3    H235210   3.784   5.896   2.719
11757TIP3   OH235211   7.362   4.566   1.278
11757TIP3    H135212   7.389   4.569   1.186
11757TIP3    H235213   7.357   4.658   1.304
11758TIP3   OH235214   5.043   0.011   0.094
11758TIP3    H135215   4.993   0.074   0.041
11758TIP3    H235216   5.095   0.065   0.153
11759TIP3   OH235217   7.617   4.078   3.358
11759TIP3    H135218   7.593   4.117   3.442
11759TIP3    H235219   7.681   4.139   3.321
11760TIP3   OH235220   5.097   2.012   3.831
11760TIP3    H135221   5.073   1.964   3.911
11760TIP3    H235222   5.044   2.092   3.835
11761TIP3   OH235223   1.611   0.918   4.326
11761TIP3    H135224   1.667   0.843   4.346
11761TIP3    H235225   1.600   0.963   4.409
11762TIP3   OH235226   3.915   3.492   3.412
11762TIP3    H135227   3.949   3.411   3.374
11762TIP3    H235228   3.993   3.539   3.442
11763TIP3   OH235229   0.090   3.162   2.112
11763TIP3    H135230   0.075   3.213   2.192
11763TIP3    H235231   0.176   3.191   2.081
11764TIP3   OH235232   4.237   6.846   5.003
11764TIP3    H135233   4.158   6.846   5.057
11764TIP3    H235234   4.293   6.914   5.041
11765TIP3   OH235235   2.184   0.649   0.046
11765TIP3    H135236   2.088   0.646   0.040
11765TIP3    H235237   2.210   0.720  -0.013
11766TIP3   OH235238   1.305   3.313   0.903
11766TIP3    H135239   1.379   3.269   0.860
11766TIP3    H235240   1.281   3.383   0.843
11767TIP3   OH235241   8.019   0.281   4.675
11767TIP3    H135242   8.023   0.217   4.604
11767TIP3    H235243   7.969   0.354   4.639
11768TIP3   OH235244   6.722   3.413   4.755
11768TIP3    H135245   6.786   3.425   4.684
11768TIP3    H235246   6.767   3.357   4.818
11769TIP3   OH235247   1.043   7.108   5.323
11769TIP3    H135248   1.045   7.088   5.230
11769TIP3    H235249   0.970   7.170   5.333
11770TIP3   OH235250   7.101   7.210   3.243
11770TIP3    H135251   7.064   7.264   3.312
11770TIP3    H235252   7.026   7.176   3.195
11771TIP3   OH235253   1.428   2.397   2.899
11771TIP3    H135254   1.465   2.357   2.820
11771TIP3    H235255   1.417   2.489   2.876
11772TIP3   OH235256   1.595   7.357   1.066
11772TIP3    H135257   1.672   7.404   1.099
11772TIP3    H235258   1.618   7.335   0.976
11773TIP3   OH235259   3.089   1.997   1.980
11773TIP3    H135260   3.054   1.948   2.055
11773TIP3    H235261   3.124   1.929   1.922
11774TIP3   OH235262   3.726   2.853   6.243
11774TIP3    H135263   3.800   2.912   6.259
11774TIP3    H235264   3.756   2.795   6.173
11775TIP3   OH235265  -0.069   1.974   3.976
11775TIP3    H135266  -0.014   1.953   4.052
11775TIP3    H235267  -0.015   2.035   3.924
11776TIP3   OH235268   4.069   2.024   2.093
11776TIP3    H135269   4.034   2.078   2.023
11776TIP3    H235270   3.996   2.012   2.154
11777TIP3   OH235271   0.825   6.906   0.178
11777TIP3    H135272   0.885   6.935   0.109
11777TIP3    H235273   0.747   6.878   0.131
11778TIP3   OH235274   7.480   2.879   5.765
11778TIP3    H135275   7.521   2.826   5.697
11778TIP3    H235276   7.469   2.965   5.724
11779TIP3   OH235277   1.929   1.197   5.604
11779TIP3    H135278   1.933   1.158   5.692
11779TIP3    H235279   1.910   1.290   5.621
11780TIP3   OH235280   1.992   7.955   3.730
11780TIP3    H135281   2.003   7.969   3.824
11780TIP3    H235282   1.943   7.872   3.724
11781TIP3   OH235283   7.909   1.750   3.720
11781TIP3    H135284   7.937   1.811   3.651
11781TIP3    H235285   7.949   1.783   3.800
11782TIP3   OH235286   5.120   5.262   0.717
11782TIP3    H135287   5.041   5.308   0.746
11782TIP3    H235288   5.102   5.170   0.735
11783TIP3   OH235289   4.637   2.752   3.920
11783TIP3    H135290   4.643   2.662   3.887
11783TIP3    H235291   4.711   2.761   3.980
11784TIP3   OH235292   1.922   0.889   1.491
11784TIP3    H135293   1.912   0.881   1.396
11784TIP3    H235294   1.836   0.865   1.526
11785TIP3   OH235295   4.687   7.822   5.727
11785TIP3    H135296   4.752   7.892   5.729
11785TIP3    H235297   4.700   7.780   5.642
11786TIP3   OH235298   1.852   5.524   5.574
11786TIP3    H135299   1.845   5.476   5.492
11786TIP3    H235300   1.907   5.468   5.630
11787TIP3   OH235301   5.217   0.700   0.337
11787TIP3    H135302   5.287   0.688   0.273
11787TIP3    H235303   5.192   0.792   0.327
11788TIP3   OH235304   2.032   5.837   6.198
11788TIP3    H135305   2.032   5.759   6.143
11788TIP3    H235306   1.944   5.840   6.236
11789TIP3   OH235307   1.233   3.606   6.541
11789TIP3    H135308   1.299   3.651   6.594
11789TIP3    H235309   1.150   3.626   6.584
11790TIP3   OH235310   2.222   4.678   6.758
11790TIP3    H135311   2.299   4.621   6.747
11790TIP3    H235312   2.253   4.765   6.733
11791TIP3   OH235313   6.473   3.350   4.818
11791TIP3    H135314   6.440   3.397   4.895
11791TIP3    H235315   6.552   3.397   4.793
11792TIP3   OH235316   4.362   6.382   0.812
11792TIP3    H135317   4.331   6.350   0.897
11792TIP3    H235318   4.410   6.462   0.832
11793TIP3   OH235319   6.199   6.268   3.486
11793TIP3    H135320   6.245   6.341   3.444
11793TIP3    H235321   6.149   6.308   3.557
11794TIP3   OH235322   6.365   5.074   3.401
11794TIP3    H135323   6.355   4.982   3.377
11794TIP3    H235324   6.454   5.096   3.373
11795TIP3   OH235325   2.605   7.181   6.025
11795TIP3    H135326   2.666   7.224   5.965
11795TIP3    H235327   2.657   7.166   6.104
11796TIP3   OH235328   5.412   4.294   6.013
11796TIP3    H135329   5.329   4.270   6.053
11796TIP3    H235330   5.462   4.335   6.084
11797TIP3   OH235331   6.296   2.370   6.374
11797TIP3    H135332   6.219   2.334   6.419
11797TIP3    H235333   6.319   2.447   6.425
11798TIP3   OH235334   1.951   0.515   2.850
11798TIP3    H135335   1.973   0.576   2.921
11798TIP3    H235336   1.981   0.430   2.882
11799TIP3   OH235337   1.236   5.637   1.407
11799TIP3    H135338   1.287   5.718   1.409
11799TIP3    H235339   1.270   5.589   1.332
11800TIP3   OH235340   0.609   7.872   2.324
11800TIP3    H135341   0.611   7.786   2.281
11800TIP3    H235342   0.690   7.877   2.373
11801TIP3   OH235343   3.972   3.107   1.448
11801TIP3    H135344   3.996   3.146   1.531
11801TIP3    H235345   3.917   3.173   1.405
11802TIP3   OH235346   3.550   6.935   6.384
11802TIP3    H135347   3.550   6.964   6.293
11802TIP3    H235348   3.543   6.840   6.379
11803TIP3   OH235349   5.852   2.417   3.253
11803TIP3    H135350   5.882   2.423   3.344
11803TIP3    H235351   5.923   2.456   3.202
11804TIP3   OH235352   6.986   2.584   3.850
11804TIP3    H135353   7.081   2.582   3.860
11804TIP3    H235354   6.963   2.676   3.861
11805TIP3   OH235355   6.182   2.874   4.424
11805TIP3    H135356   6.183   2.875   4.520
11805TIP3    H235357   6.131   2.796   4.401
11806TIP3   OH235358   1.784   2.509   1.024
11806TIP3    H135359   1.762   2.566   1.098
11806TIP3    H235360   1.875   2.484   1.040
11807TIP3   OH235361   7.345   1.375   2.184
11807TIP3    H135362   7.256   1.370   2.220
11807TIP3    H235363   7.342   1.452   2.126
11808TIP3   OH235364   7.433   1.198   3.676
11808TIP3    H135365   7.357   1.234   3.722
11808TIP3    H235366   7.405   1.189   3.585
11809TIP3   OH235367   4.322   1.277   0.314
11809TIP3    H135368   4.262   1.318   0.377
11809TIP3    H235369   4.291   1.308   0.228
11810TIP3   OH235370   4.809   4.280   1.546
11810TIP3    H135371   4.718   4.299   1.524
11810TIP3    H235372   4.860   4.344   1.497
11811TIP3   OH235373   3.804   3.569   1.700
11811TIP3    H135374   3.821   3.501   1.634
11811TIP3    H235375   3.829   3.528   1.783
11812TIP3   OH235376   1.601   4.143   4.619
11812TIP3    H135377   1.544   4.150   4.543
11812TIP3    H235378   1.628   4.233   4.637
11813TIP3   OH235379   7.198   7.252   0.281
11813TIP3    H135380   7.213   7.343   0.307
11813TIP3    H235381   7.161   7.210   0.359
11814TIP3   OH235382   4.084   7.664   2.870
11814TIP3    H135383   4.121   7.750   2.891
11814TIP3    H235384   4.149   7.624   2.812
11815TIP3   OH235385   0.803   5.544   5.582
11815TIP3    H135386   0.815   5.638   5.595
11815TIP3    H235387   0.852   5.503   5.653
11816TIP3   OH235388   5.882   2.452   3.592
11816TIP3    H135389   5.911   2.535   3.632
11816TIP3    H235390   5.868   2.394   3.666
11817TIP3   OH235391   8.299   2.421   1.948
11817TIP3    H135392   8.351   2.490   1.991
11817TIP3    H235393   8.230   2.401   2.011
11818TIP3   OH235394   1.903   1.609   0.433
11818TIP3    H135395   1.873   1.681   0.377
11818TIP3    H235396   1.858   1.532   0.400
11819TIP3   OH235397   3.254   6.940   0.241
11819TIP3    H135398   3.186   6.874   0.229
11819TIP3    H235399   3.327   6.891   0.279
11820TIP3   OH235400   4.879   0.661   3.670
11820TIP3    H135401   4.789   0.640   3.693
11820TIP3    H235402   4.930   0.640   3.748
11821TIP3   OH235403   7.931   5.824   0.592
11821TIP3    H135404   7.986   5.871   0.529
11821TIP3    H235405   7.867   5.889   0.622
11822TIP3   OH235406   2.824   5.130   0.822
11822TIP3    H135407   2.777   5.177   0.891
11822TIP3    H235408   2.759   5.069   0.787
11823TIP3   OH235409   5.497   1.858   0.293
11823TIP3    H135410   5.403   1.873   0.291
11823TIP3    H235411   5.511   1.800   0.368
11824TIP3   OH235412   1.949   0.223   5.121
11824TIP3    H135413   1.920   0.222   5.030
11824TIP3    H235414   1.869   0.209   5.171
11825TIP3   OH235415   0.230   7.183   4.324
11825TIP3    H135416   0.152   7.238   4.322
11825TIP3    H235417   0.248   7.170   4.417
11826TIP3   OH235418   3.797   0.197   4.484
11826TIP3    H135419   3.788   0.216   4.578
11826TIP3    H235420   3.706   0.190   4.453
11827TIP3   OH235421   2.166   5.791   1.627
11827TIP3    H135422   2.148   5.883   1.609
11827TIP3    H235423   2.243   5.770   1.574
11828TIP3   OH235424   8.284   2.004   1.047
11828TIP3    H135425   8.362   2.052   1.020
11828TIP3    H235426   8.222   2.017   0.975
11829TIP3   OH235427   4.801   7.294   4.063
11829TIP3    H135428   4.770   7.206   4.085
11829TIP3    H235429   4.809   7.339   4.147
11830TIP3   OH235430   6.597   0.351   3.018
11830TIP3    H135431   6.604   0.349   3.113
11830TIP3    H235432   6.504   0.367   3.001
11831TIP3   OH235433   6.645   5.529   0.092
11831TIP3    H135434   6.565   5.571   0.061
11831TIP3    H235435   6.622   5.492   0.178
11832TIP3   OH235436   4.075   7.125   0.731
11832TIP3    H135437   3.994   7.096   0.688
11832TIP3    H235438   4.064   7.219   0.743
11833TIP3   OH235439   0.418   1.633   0.018
11833TIP3    H135440   0.447   1.542   0.030
11833TIP3    H235441   0.445   1.677   0.099
11834TIP3   OH235442   8.232   2.281   3.343
11834TIP3    H135443   8.221   2.267   3.437
11834TIP3    H235444   8.143   2.276   3.307
11835TIP3   OH235445   3.654   0.935   0.036
11835TIP3    H135446   3.749   0.934   0.032
11835TIP3    H235447   3.633   0.893   0.119
11836TIP3   OH235448   5.077   2.179   5.917
11836TIP3    H135449   5.034   2.219   5.842
11836TIP3    H235450   5.171   2.192   5.901
11837TIP3   OH235451   6.751   3.167   1.710
11837TIP3    H135452   6.785   3.217   1.784
11837TIP3    H235453   6.814   3.096   1.699
11838TIP3   OH235454   6.151   0.213   1.475
11838TIP3    H135455   6.105   0.132   1.499
11838TIP3    H235456   6.225   0.218   1.536
11839TIP3   OH235457   1.719   4.911   3.640
11839TIP3    H135458   1.757   4.993   3.610
11839TIP3    H235459   1.648   4.937   3.699
11840TIP3   OH235460   7.193   1.792   0.529
11840TIP3    H135461   7.139   1.778   0.450
11840TIP3    H235462   7.271   1.836   0.496
11841TIP3   OH235463   2.372   3.565   2.093
11841TIP3    H135464   2.461   3.580   2.063
11841TIP3    H235465   2.345   3.647   2.133
11842TIP3   OH235466   4.222   4.053   1.403
11842TIP3    H135467   4.150   4.087   1.350
11842TIP3    H235468   4.288   4.028   1.339
11843TIP3   OH235469   7.162   2.921   0.887
11843TIP3    H135470   7.166   2.862   0.811
11843TIP3    H235471   7.148   2.862   0.962
11844TIP3   OH235472   6.881   0.729   1.363
11844TIP3    H135473   6.909   0.706   1.452
11844TIP3    H235474   6.849   0.647   1.326
11845TIP3   OH235475   6.125   1.501   5.266
11845TIP3    H135476   6.055   1.512   5.330
11845TIP3    H235477   6.205   1.517   5.314
11846TIP3   OH235478   1.319   2.246   0.118
11846TIP3    H135479   1.227   2.272   0.121
11846TIP3    H235480   1.330   2.207   0.032
11847TIP3   OH235481   3.970   1.926   4.708
11847TIP3    H135482   3.910   1.989   4.667
11847TIP3    H235483   4.021   1.979   4.769
11848TIP3   OH235484   1.171   4.177   6.360
11848TIP3    H135485   1.256   4.140   6.336
11848TIP3    H235486   1.107   4.127   6.310
11849TIP3   OH235487   5.159   4.442   2.372
11849TIP3    H135488   5.175   4.460   2.279
11849TIP3    H235489   5.102   4.513   2.400
11850TIP3   OH235490   4.519   2.096   6.314
11850TIP3    H135491   4.533   2.044   6.235
11850TIP3    H235492   4.431   2.074   6.343
11851TIP3   OH235493   6.815   7.836   0.872
11851TIP3    H135494   6.781   7.753   0.839
11851TIP3    H235495   6.906   7.838   0.840
11852TIP3   OH235496   3.189   5.423   5.730
11852TIP3    H135497   3.127   5.470   5.675
11852TIP3    H235498   3.136   5.359   5.777
11853TIP3   OH235499   2.045   2.736   5.640
11853TIP3    H135500   1.987   2.810   5.623
11853TIP3    H235501   1.994   2.678   5.697
11854TIP3   OH235502   1.474   5.906   0.280
11854TIP3    H135503   1.486   5.819   0.318
11854TIP3    H235504   1.562   5.944   0.278
11855TIP3   OH235505   4.576   1.521   1.751
11855TIP3    H135506   4.541   1.566   1.828
11855TIP3    H235507   4.617   1.442   1.786
11856TIP3   OH235508   7.515   1.411   6.348
11856TIP3    H135509   7.468   1.339   6.308
11856TIP3    H235510   7.593   1.371   6.386
11857TIP3   OH235511   1.052   4.063   1.086
11857TIP3    H135512   0.999   3.983   1.086
11857TIP3    H235513   1.012   4.119   1.152
11858TIP3   OH235514   5.598   1.226   1.461
11858TIP3    H135515   5.618   1.306   1.510
11858TIP3    H235516   5.673   1.170   1.474
11859TIP3   OH235517   2.175   0.949   4.037
11859TIP3    H135518   2.190   1.043   4.024
11859TIP3    H235519   2.178   0.912   3.949
11860TIP3   OH235520   1.240   1.797   1.139
11860TIP3    H135521   1.217   1.839   1.221
11860TIP3    H235522   1.155   1.775   1.099
11861TIP3   OH235523   8.009   6.358   4.317
11861TIP3    H135524   8.025   6.307   4.238
11861TIP3    H235525   8.004   6.292   4.387
11862TIP3   OH235526   3.302   1.460   4.235
11862TIP3    H135527   3.273   1.525   4.172
11862TIP3    H235528   3.230   1.398   4.242
11863TIP3   OH235529   5.971   5.445   2.196
11863TIP3    H135530   5.896   5.411   2.148
11863TIP3    H235531   6.008   5.369   2.241
11864TIP3   OH235532   4.426   3.433   2.529
11864TIP3    H135533   4.455   3.450   2.440
11864TIP3    H235534   4.356   3.496   2.544
11865TIP3   OH235535   3.895   7.345   6.142
11865TIP3    H135536   3.916   7.429   6.182
11865TIP3    H235537   3.937   7.350   6.056
11866TIP3   OH235538   0.365   2.663   5.940
11866TIP3    H135539   0.414   2.737   5.975
11866TIP3    H235540   0.401   2.649   5.853
11867TIP3   OH235541   5.729   2.311   1.153
11867TIP3    H135542   5.715   2.231   1.102
11867TIP3    H235543   5.823   2.314   1.169
11868TIP3   OH235544   7.976   6.538   6.520
11868TIP3    H135545   7.951   6.503   6.605
11868TIP3    H235546   8.012   6.624   6.538
11869TIP3   OH235547   4.715   2.435   3.663
11869TIP3    H135548   4.721   2.352   3.710
11869TIP3    H235549   4.751   2.500   3.724
11870TIP3   OH235550   3.780   7.616   5.194
11870TIP3    H135551   3.778   7.591   5.102
11870TIP3    H235552   3.780   7.712   5.192
11871TIP3   OH235553   0.964   2.069   1.450
11871TIP3    H135554   0.929   2.064   1.361
11871TIP3    H235555   1.055   2.039   1.441
11872TIP3   OH235556   0.994   0.738  -0.034
11872TIP3    H135557   0.990   0.700   0.054
11872TIP3    H235558   1.088   0.739  -0.055
11873TIP3   OH235559   7.766   3.924   1.825
11873TIP3    H135560   7.799   3.835   1.811
11873TIP3    H235561   7.770   3.936   1.920
11874TIP3   OH235562   7.174   2.216   0.220
11874TIP3    H135563   7.174   2.259   0.306
11874TIP3    H235564   7.263   2.228   0.188
11875TIP3   OH235565   4.192   4.159   2.947
11875TIP3    H135566   4.120   4.095   2.941
11875TIP3    H235567   4.246   4.128   3.019
11876TIP3   OH235568   6.906   1.019   5.166
11876TIP3    H135569   6.944   1.017   5.078
11876TIP3    H235570   6.981   1.031   5.224
11877TIP3   OH235571   2.677   4.419   3.256
11877TIP3    H135572   2.745   4.355   3.236
11877TIP3    H235573   2.615   4.412   3.183
11878TIP3   OH235574   1.580   5.527   0.024
11878TIP3    H135575   1.588   5.578   0.104
11878TIP3    H235576   1.632   5.575  -0.041
11879TIP3   OH235577   2.792   6.944   6.151
11879TIP3    H135578   2.808   7.011   6.218
11879TIP3    H235579   2.700   6.919   6.164
11880TIP3   OH235580   4.040   4.706   0.839
11880TIP3    H135581   4.001   4.622   0.814
11880TIP3    H235582   3.976   4.771   0.810
11881TIP3   OH235583   3.783   1.686   4.097
11881TIP3    H135584   3.691   1.700   4.073
11881TIP3    H235585   3.802   1.757   4.159
11882TIP3   OH235586   6.900   4.079   5.238
11882TIP3    H135587   6.934   4.087   5.327
11882TIP3    H235588   6.971   4.036   5.190
11883TIP3   OH235589   5.134   3.445   5.748
11883TIP3    H135590   5.191   3.423   5.821
11883TIP3    H235591   5.051   3.401   5.768
11884TIP3   OH235592   1.672   6.572   3.908
11884TIP3    H135593   1.593   6.594   3.957
11884TIP3    H235594   1.743   6.586   3.971
11885TIP3   OH235595   2.786   1.598   4.680
11885TIP3    H135596   2.837   1.619   4.758
11885TIP3    H235597   2.735   1.677   4.662
11886TIP3   OH235598   1.423   5.190   0.246
11886TIP3    H135599   1.500   5.218   0.296
11886TIP3    H235600   1.459   5.151   0.166
11887TIP3   OH235601   6.036   3.558   4.767
11887TIP3    H135602   6.063   3.474   4.730
11887TIP3    H235603   5.954   3.579   4.722
11888TIP3   OH235604   2.586   1.200   4.009
11888TIP3    H135605   2.625   1.267   4.064
11888TIP3    H235606   2.528   1.151   4.067
11889TIP3   OH235607   4.572   0.456   3.461
11889TIP3    H135608   4.490   0.410   3.478
11889TIP3    H235609   4.615   0.406   3.391
11890TIP3   OH235610   1.359   1.589   6.744
11890TIP3    H135611   1.424   1.649   6.708
11890TIP3    H235612   1.312   1.640   6.809
11891TIP3   OH235613   5.365   1.133   4.761
11891TIP3    H135614   5.296   1.093   4.708
11891TIP3    H235615   5.385   1.215   4.717
11892TIP3   OH235616   7.652   4.196   3.851
11892TIP3    H135617   7.654   4.280   3.897
11892TIP3    H235618   7.682   4.216   3.763
11893TIP3   OH235619   1.370   4.888   0.182
11893TIP3    H135620   1.349   4.848   0.266
11893TIP3    H235621   1.368   4.982   0.199
11894TIP3   OH235622   2.019   5.064   4.262
11894TIP3    H135623   2.021   5.143   4.316
11894TIP3    H235624   2.073   5.086   4.185
11895TIP3   OH235625   1.614   2.891   6.045
11895TIP3    H135626   1.533   2.871   6.092
11895TIP3    H235627   1.674   2.921   6.113
11896TIP3   OH235628   8.326   5.498   3.567
11896TIP3    H135629   8.324   5.570   3.504
11896TIP3    H235630   8.252   5.443   3.544
11897TIP3   OH235631   2.193   5.742   3.553
11897TIP3    H135632   2.270   5.781   3.511
11897TIP3    H235633   2.189   5.653   3.517
11898TIP3   OH235634   3.464   3.739   3.874
11898TIP3    H135635   3.500   3.714   3.790
11898TIP3    H235636   3.441   3.832   3.863
11899TIP3   OH235637   2.221   7.038   0.374
11899TIP3    H135638   2.261   6.964   0.327
11899TIP3    H235639   2.133   7.044   0.338
11900TIP3   OH235640   2.779   6.066   0.472
11900TIP3    H135641   2.751   6.112   0.393
11900TIP3    H235642   2.831   5.992   0.441
11901TIP3   OH235643   4.504   5.168   3.845
11901TIP3    H135644   4.572   5.220   3.802
11901TIP3    H235645   4.537   5.155   3.934
11902TIP3   OH235646   4.240   5.620   1.005
11902TIP3    H135647   4.265   5.695   1.058
11902TIP3    H235648   4.291   5.547   1.041
11903TIP3   OH235649   0.649   3.502   6.187
11903TIP3    H135650   0.608   3.427   6.229
11903TIP3    H235651   0.724   3.523   6.243
11904TIP3   OH235652   5.001   3.120   3.949
11904TIP3    H135653   5.023   3.189   4.012
11904TIP3    H235654   5.086   3.084   3.923
11905TIP3   OH235655   4.460   0.651   0.161
11905TIP3    H135656   4.378   0.630   0.117
11905TIP3    H235657   4.525   0.594   0.119
11906TIP3   OH235658   3.835   0.529   3.759
11906TIP3    H135659   3.842   0.436   3.736
11906TIP3    H235660   3.901   0.542   3.827
11907TIP3   OH235661   2.085   3.573   2.449
11907TIP3    H135662   2.064   3.500   2.507
11907TIP3    H235663   2.001   3.598   2.410
11908TIP3   OH235664   2.026   5.337   6.632
11908TIP3    H135665   1.957   5.358   6.694
11908TIP3    H235666   1.981   5.331   6.547
11909TIP3   OH235667   6.479   6.606   6.244
11909TIP3    H135668   6.434   6.537   6.195
11909TIP3    H235669   6.547   6.637   6.184
11910TIP3   OH235670   3.364   6.579   3.572
11910TIP3    H135671   3.422   6.650   3.544
11910TIP3    H235672   3.402   6.500   3.533
11911TIP3   OH235673   1.666   1.848   4.907
11911TIP3    H135674   1.616   1.855   4.825
11911TIP3    H235675   1.733   1.782   4.889
11912TIP3   OH235676   5.071   7.383   3.202
11912TIP3    H135677   5.067   7.357   3.110
11912TIP3    H235678   5.092   7.302   3.249
11913TIP3   OH235679   6.295   7.122   4.125
11913TIP3    H135680   6.322   7.205   4.163
11913TIP3    H235681   6.230   7.087   4.186
11914TIP3   OH235682   1.191   5.919   3.729
11914TIP3    H135683   1.123   5.871   3.775
11914TIP3    H235684   1.213   5.991   3.788
11915TIP3   OH235685   7.732   4.713   6.180
11915TIP3    H135686   7.650   4.663   6.174
11915TIP3    H235687   7.795   4.651   6.216
11916TIP3   OH235688   7.004   5.240   1.274
11916TIP3    H135689   7.004   5.290   1.356
11916TIP3    H235690   6.943   5.287   1.217
11917TIP3   OH235691   5.773   2.045   3.485
11917TIP3    H135692   5.735   1.977   3.430
11917TIP3    H235693   5.761   2.013   3.575
11918TIP3   OH235694   4.628   6.874   6.697
11918TIP3    H135695   4.625   6.836   6.609
11918TIP3    H235696   4.547   6.844   6.738
11919TIP3   OH235697   6.468   0.940   2.169
11919TIP3    H135698   6.509   0.900   2.245
11919TIP3    H235699   6.481   1.034   2.181
11920TIP3   OH235700   7.607   1.374   0.805
11920TIP3    H135701   7.629   1.338   0.719
11920TIP3    H235702   7.536   1.436   0.787
11921TIP3   OH235703   0.678   5.695   6.298
11921TIP3    H135704   0.709   5.637   6.367
11921TIP3    H235705   0.583   5.690   6.303
11922TIP3   OH235706   7.138   4.324   6.075
11922TIP3    H135707   7.216   4.316   6.020
11922TIP3    H235708   7.091   4.242   6.063
11923TIP3   OH235709   4.957   7.906   3.043
11923TIP3    H135710   4.884   7.910   2.981
11923TIP3    H235711   4.997   7.821   3.028
11924TIP3   OH235712   7.485   1.110   3.076
11924TIP3    H135713   7.414   1.061   3.118
11924TIP3    H235714   7.551   1.044   3.054
11925TIP3   OH235715   1.104   3.268   2.463
11925TIP3    H135716   1.058   3.287   2.381
11925TIP3    H235717   1.180   3.216   2.436
11926TIP3   OH235718   2.963   5.315   5.410
11926TIP3    H135719   2.877   5.334   5.374
11926TIP3    H235720   2.987   5.394   5.459
11927TIP3   OH235721   0.168   5.964   1.817
11927TIP3    H135722   0.184   5.893   1.879
11927TIP3    H235723   0.166   6.043   1.871
11928TIP3   OH235724   0.906   3.952   4.387
11928TIP3    H135725   0.892   3.931   4.294
11928TIP3    H235726   0.861   4.035   4.399
11929TIP3   OH235727   6.840   6.823   1.598
11929TIP3    H135728   6.904   6.813   1.526
11929TIP3    H235729   6.769   6.873   1.559
11930TIP3   OH235730   6.523   7.554   4.884
11930TIP3    H135731   6.520   7.576   4.977
11930TIP3    H235732   6.508   7.460   4.882
11931TIP3   OH235733   3.646   3.885   0.056
11931TIP3    H135734   3.739   3.906   0.046
11931TIP3    H235735   3.601   3.944  -0.004
11932TIP3   OH235736   5.955   6.963   1.199
11932TIP3    H135737   5.973   7.032   1.262
11932TIP3    H235738   5.881   6.915   1.237
11933TIP3   OH235739   1.457   0.785   6.637
11933TIP3    H135740   1.514   0.717   6.672
11933TIP3    H235741   1.489   0.866   6.677
11934TIP3   OH235742   3.247   1.634   2.825
11934TIP3    H135743   3.267   1.613   2.916
11934TIP3    H235744   3.264   1.728   2.817
11935TIP3   OH235745   3.909   2.612   0.731
11935TIP3    H135746   3.919   2.623   0.637
11935TIP3    H235747   3.963   2.682   0.769
11936TIP3   OH235748   8.324   5.789   4.509
11936TIP3    H135749   8.262   5.859   4.529
11936TIP3    H235750   8.355   5.808   4.420
11937TIP3   OH235751   6.177   0.790   6.042
11937TIP3    H135752   6.085   0.764   6.031
11937TIP3    H235753   6.198   0.764   6.132
11938TIP3   OH235754   4.348   1.674   1.874
11938TIP3    H135755   4.337   1.582   1.897
11938TIP3    H235756   4.266   1.716   1.901
11939TIP3   OH235757   0.740   2.517   4.900
11939TIP3    H135758   0.645   2.516   4.913
11939TIP3    H235759   0.756   2.447   4.837
11940TIP3   OH235760   2.165   4.466   0.809
11940TIP3    H135761   2.228   4.396   0.791
11940TIP3    H235762   2.083   4.421   0.826
11941TIP3   OH235763   3.503   1.071   6.317
11941TIP3    H135764   3.506   0.978   6.297
11941TIP3    H235765   3.490   1.074   6.412
11942TIP3   OH235766   5.316   4.401   1.900
11942TIP3    H135767   5.373   4.436   1.832
11942TIP3    H235768   5.283   4.319   1.864
11943TIP3   OH235769   6.330   2.432   3.458
11943TIP3    H135770   6.329   2.477   3.542
11943TIP3    H235771   6.269   2.359   3.469
11944TIP3   OH235772   1.757   0.724   2.256
11944TIP3    H135773   1.677   0.763   2.220
11944TIP3    H235774   1.816   0.719   2.181
11945TIP3   OH235775   8.256   7.505   0.265
11945TIP3    H135776   8.174   7.486   0.311
11945TIP3    H235777   8.265   7.600   0.270
11946TIP3   OH235778   2.077   6.156   3.457
11946TIP3    H135779   2.075   6.247   3.428
11946TIP3    H235780   2.043   6.158   3.547
11947TIP3   OH235781   4.218   5.804   4.447
11947TIP3    H135782   4.138   5.817   4.395
11947TIP3    H235783   4.263   5.888   4.442
11948TIP3   OH235784   6.176   7.368   2.524
11948TIP3    H135785   6.102   7.371   2.463
11948TIP3    H235786   6.138   7.394   2.608
11949TIP3   OH235787   2.324   3.760   1.042
11949TIP3    H135788   2.325   3.673   1.002
11949TIP3    H235789   2.277   3.748   1.125
11950TIP3   OH235790   1.765   7.189   4.915
11950TIP3    H135791   1.734   7.138   4.841
11950TIP3    H235792   1.702   7.261   4.923
11951TIP3   OH235793   4.109   6.311   1.349
11951TIP3    H135794   4.034   6.302   1.290
11951TIP3    H235795   4.115   6.405   1.366
11952TIP3   OH235796   6.743   2.582   5.616
11952TIP3    H135797   6.825   2.600   5.661
11952TIP3    H235798   6.718   2.666   5.577
11953TIP3   OH235799   5.370   3.021   0.030
11953TIP3    H135800   5.340   3.033   0.120
11953TIP3    H235801   5.351   3.104  -0.013
11954TIP3   OH235802   7.928   3.587   4.604
11954TIP3    H135803   8.019   3.575   4.576
11954TIP3    H235804   7.878   3.530   4.546
11955TIP3   OH235805   7.159   1.148   6.871
11955TIP3    H135806   7.174   1.085   6.800
11955TIP3    H235807   7.124   1.226   6.826
11956TIP3   OH235808   7.586   2.521   3.417
11956TIP3    H135809   7.644   2.460   3.462
11956TIP3    H235810   7.629   2.539   3.334
11957TIP3   OH235811   1.025   4.128   3.937
11957TIP3    H135812   0.997   4.097   4.023
11957TIP3    H235813   0.954   4.185   3.908
11958TIP3   OH235814   6.863   3.178   2.146
11958TIP3    H135815   6.809   3.254   2.123
11958TIP3    H235816   6.914   3.208   2.222
11959TIP3   OH235817   1.302   5.470   3.245
11959TIP3    H135818   1.334   5.405   3.182
11959TIP3    H235819   1.310   5.426   3.330
11960TIP3   OH235820   3.701   4.994   5.052
11960TIP3    H135821   3.715   5.065   5.114
11960TIP3    H235822   3.608   5.001   5.029
11961TIP3   OH235823   5.874   6.079   0.159
11961TIP3    H135824   5.816   6.109   0.229
11961TIP3    H235825   5.832   6.110   0.079
11962TIP3   OH235826   6.097   6.863   5.816
11962TIP3    H135827   6.109   6.925   5.744
11962TIP3    H235828   6.039   6.908   5.878
11963TIP3   OH235829   4.879   7.494   4.689
11963TIP3    H135830   4.899   7.403   4.667
11963TIP3    H235831   4.939   7.515   4.761
11964TIP3   OH235832   0.199   0.118   1.733
11964TIP3    H135833   0.182   0.096   1.641
11964TIP3    H235834   0.244   0.202   1.730
11965TIP3   OH235835   7.090   3.932   5.998
11965TIP3    H135836   7.028   3.925   6.071
11965TIP3    H235837   7.072   3.855   5.944
11966TIP3   OH235838   3.349   6.130   1.864
11966TIP3    H135839   3.416   6.066   1.840
11966TIP3    H235840   3.395   6.214   1.864
11967TIP3   OH235841   1.340   4.371   1.410
11967TIP3    H135842   1.261   4.360   1.464
11967TIP3    H235843   1.412   4.377   1.473
11968TIP3   OH235844   3.000   2.315   1.004
11968TIP3    H135845   2.923   2.349   0.958
11968TIP3    H235846   3.067   2.306   0.936
11969TIP3   OH235847   8.128   6.501   2.002
11969TIP3    H135848   8.141   6.587   1.961
11969TIP3    H235849   8.216   6.474   2.028
11970TIP3   OH235850   8.426   4.569   2.670
11970TIP3    H135851   8.426   4.529   2.583
11970TIP3    H235852   8.367   4.513   2.722
11971TIP3   OH235853   7.012   4.399   3.786
11971TIP3    H135854   6.925   4.358   3.781
11971TIP3    H235855   7.000   4.472   3.846
11972TIP3   OH235856   5.179   6.661   1.490
11972TIP3    H135857   5.260   6.622   1.524
11972TIP3    H235858   5.208   6.742   1.447
11973TIP3   OH235859   7.696   4.750   0.726
11973TIP3    H135860   7.619   4.744   0.783
11973TIP3    H235861   7.669   4.709   0.644
11974TIP3   OH235862   0.771   1.583   4.574
11974TIP3    H135863   0.713   1.656   4.554
11974TIP3    H235864   0.840   1.622   4.629
11975TIP3   OH235865   6.407   6.720   3.056
11975TIP3    H135866   6.383   6.813   3.056
11975TIP3    H235867   6.492   6.718   3.011
11976TIP3   OH235868   1.512   7.850   6.362
11976TIP3    H135869   1.441   7.866   6.425
11976TIP3    H235870   1.474   7.872   6.277
11977TIP3   OH235871   4.909   0.932   3.771
11977TIP3    H135872   4.992   0.896   3.740
11977TIP3    H235873   4.876   0.985   3.698
11978TIP3   OH235874   2.448   4.331   2.048
11978TIP3    H135875   2.527   4.317   2.100
11978TIP3    H235876   2.468   4.291   1.963
11979TIP3   OH235877   5.012   5.770   2.696
11979TIP3    H135878   5.023   5.800   2.786
11979TIP3    H235879   5.000   5.850   2.645
11980TIP3   OH235880   3.316   3.712   6.105
11980TIP3    H135881   3.366   3.761   6.040
11980TIP3    H235882   3.242   3.676   6.056
11981TIP3   OH235883   5.471   6.031   2.196
11981TIP3    H135884   5.510   6.066   2.276
11981TIP3    H235885   5.410   6.099   2.168
11982TIP3   OH235886   7.284   2.237   1.042
11982TIP3    H135887   7.193   2.217   1.024
11982TIP3    H235888   7.307   2.183   1.118
11983TIP3   OH235889   6.507   6.615   2.158
11983TIP3    H135890   6.499   6.521   2.172
11983TIP3    H235891   6.524   6.624   2.064
11984TIP3   OH235892   3.347   5.176   4.418
11984TIP3    H135893   3.386   5.264   4.418
11984TIP3    H235894   3.269   5.184   4.472
11985TIP3   OH235895   7.673   7.949   3.389
11985TIP3    H135896   7.737   7.880   3.406
11985TIP3    H235897   7.615   7.947   3.464
11986TIP3   OH235898   0.956   7.681   3.615
11986TIP3    H135899   0.991   7.757   3.661
11986TIP3    H235900   1.028   7.618   3.616
11987TIP3   OH235901   4.750   7.119   6.471
11987TIP3    H135902   4.810   7.192   6.489
11987TIP3    H235903   4.746   7.071   6.553
11988TIP3   OH235904   7.054   3.131   6.800
11988TIP3    H135905   7.122   3.158   6.738
11988TIP3    H235906   7.063   3.191   6.874
11989TIP3   OH235907   4.792   3.706   6.344
11989TIP3    H135908   4.826   3.671   6.427
11989TIP3    H235909   4.791   3.631   6.285
11990TIP3   OH235910   4.064   0.071   0.263
11990TIP3    H135911   4.059   0.121   0.181
11990TIP3    H235912   4.150   0.029   0.260
11991TIP3   OH235913   4.395   4.444   0.069
11991TIP3    H135914   4.366   4.442   0.160
11991TIP3    H235915   4.326   4.399   0.021
11992TIP3   OH235916   3.606   5.044   1.103
11992TIP3    H135917   3.591   5.111   1.169
11992TIP3    H235918   3.519   5.010   1.083
11993TIP3   OH235919   7.812   4.952   1.821
11993TIP3    H135920   7.723   4.921   1.801
11993TIP3    H235921   7.800   5.012   1.895
11994TIP3   OH235922   6.877   7.095   3.073
11994TIP3    H135923   6.826   7.038   3.131
11994TIP3    H235924   6.913   7.035   3.007
11995TIP3   OH235925   5.232   7.066   1.004
11995TIP3    H135926   5.284   6.991   1.033
11995TIP3    H235927   5.193   7.038   0.921
11996TIP3   OH235928   2.340   5.128   6.183
11996TIP3    H135929   2.311   5.209   6.224
11996TIP3    H235930   2.417   5.153   6.132
11997TIP3   OH235931   0.593   4.510   0.220
11997TIP3    H135932   0.526   4.576   0.203
11997TIP3    H235933   0.671   4.560   0.245
11998TIP3   OH235934   3.738   6.629   5.735
11998TIP3    H135935   3.804   6.564   5.757
11998TIP3    H235936   3.753   6.700   5.798
11999TIP3   OH235937   4.120   5.516   5.038
11999TIP3    H135938   4.072   5.493   5.118
11999TIP3    H235939   4.211   5.521   5.064
12000TIP3   OH235940   1.699   6.945   2.186
12000TIP3    H135941   1.761   6.879   2.153
12000TIP3    H235942   1.681   6.999   2.109
12001TIP3   OH235943   5.275   3.199   4.416
12001TIP3    H135944   5.333   3.170   4.345
12001TIP3    H235945   5.223   3.269   4.376
12002TIP3   OH235946   0.927   1.339   0.659
12002TIP3    H135947   0.900   1.308   0.746
12002TIP3    H235948   0.849   1.331   0.605
12003TIP3   OH235949  -0.002   6.331   2.833
12003TIP3    H135950   0.066   6.327   2.766
12003TIP3    H235951  -0.066   6.392   2.799
12004TIP3   OH235952   8.337   7.048   3.782
12004TIP3    H135953   8.430   7.056   3.762
12004TIP3    H235954   8.326   7.095   3.864
12005TIP3   OH235955   8.378   5.801   4.794
12005TIP3    H135956   8.463   5.792   4.837
12005TIP3    H235957   8.397   5.794   4.701
12006TIP3   OH235958   8.249   0.260   0.421
12006TIP3    H135959   8.206   0.335   0.461
12006TIP3    H235960   8.187   0.228   0.356
12007TIP3   OH235961   2.024   5.014   3.858
12007TIP3    H135962   2.077   4.990   3.782
12007TIP3    H235963   2.088   5.036   3.926
12008TIP3   OH235964   7.457   0.187   5.632
12008TIP3    H135965   7.416   0.194   5.719
12008TIP3    H235966   7.383   0.186   5.571
12009TIP3   OH235967   7.345   5.296   1.365
12009TIP3    H135968   7.432   5.335   1.362
12009TIP3    H235969   7.341   5.239   1.288
12010TIP3   OH235970   0.633   4.979   4.407
12010TIP3    H135971   0.565   5.024   4.357
12010TIP3    H235972   0.650   5.037   4.481
12011TIP3   OH235973   6.072   2.903   4.723
12011TIP3    H135974   6.028   2.986   4.743
12011TIP3    H235975   6.102   2.871   4.808
12012TIP3   OH235976   7.710   3.119   2.918
12012TIP3    H135977   7.777   3.074   2.867
12012TIP3    H235978   7.754   3.147   2.998
12013TIP3   OH235979   2.060   4.896   3.526
12013TIP3    H135980   1.975   4.857   3.505
12013TIP3    H235981   2.122   4.851   3.469
12014TIP3   OH235982   2.660   3.699   2.339
12014TIP3    H135983   2.624   3.771   2.288
12014TIP3    H235984   2.724   3.658   2.280
12015TIP3   OH235985   7.053   5.799   4.165
12015TIP3    H135986   7.063   5.716   4.119
12015TIP3    H235987   7.142   5.831   4.178
12016TIP3   OH235988   4.289   0.353   3.789
12016TIP3    H135989   4.321   0.321   3.704
12016TIP3    H235990   4.307   0.447   3.787
12017TIP3   OH235991   5.410   3.467   2.575
12017TIP3    H135992   5.322   3.474   2.539
12017TIP3    H235993   5.397   3.427   2.661
12018TIP3   OH235994   2.262   6.813   3.641
12018TIP3    H135995   2.246   6.889   3.586
12018TIP3    H235996   2.215   6.832   3.723
12019TIP3   OH235997   5.622   3.261   2.558
12019TIP3    H135998   5.529   3.279   2.576
12019TIP3    H235999   5.663   3.262   2.645
12020TIP3   OH236000   7.705   2.496   0.742
12020TIP3    H136001   7.797   2.500   0.769
12020TIP3    H236002   7.667   2.576   0.777
12021TIP3   OH236003   1.663   1.396   2.833
12021TIP3    H136004   1.757   1.404   2.815
12021TIP3    H236005   1.636   1.484   2.857
12022TIP3   OH236006   2.358   7.449   0.696
12022TIP3    H136007   2.308   7.444   0.614
12022TIP3    H236008   2.331   7.371   0.745
12023TIP3   OH236009   7.374   2.245   2.521
12023TIP3    H136010   7.333   2.318   2.567
12023TIP3    H236011   7.347   2.167   2.571
12024TIP3   OH236012   3.065   1.804   5.489
12024TIP3    H136013   3.146   1.753   5.479
12024TIP3    H236014   3.001   1.757   5.436
12025TIP3   OH236015   8.240   1.094   5.741
12025TIP3    H136016   8.267   1.170   5.794
12025TIP3    H236017   8.210   1.133   5.659
12026TIP3   OH236018   8.342   4.245   3.418
12026TIP3    H136019   8.282   4.180   3.455
12026TIP3    H236020   8.353   4.218   3.327
12027TIP3   OH236021   0.593   4.250   0.066
12027TIP3    H136022   0.593   4.293  -0.020
12027TIP3    H236023   0.588   4.322   0.129
12028TIP3   OH236024   5.848   2.156   0.822
12028TIP3    H136025   5.782   2.126   0.884
12028TIP3    H236026   5.815   2.130   0.736
12029TIP3   OH236027   7.569   1.933   6.232
12029TIP3    H136028   7.503   1.863   6.237
12029TIP3    H236029   7.519   2.012   6.212
12030TIP3   OH236030   5.860   4.852   1.032
12030TIP3    H136031   5.779   4.898   1.054
12030TIP3    H236032   5.842   4.807   0.950
12031TIP3   OH236033   7.259   0.966   0.182
12031TIP3    H136034   7.327   0.935   0.242
12031TIP3    H236035   7.178   0.961   0.233
12032TIP3   OH236036   7.946   4.980   0.938
12032TIP3    H136037   7.930   5.039   0.865
12032TIP3    H236038   8.028   4.936   0.916
12033TIP3   OH236039   4.690   5.773   3.994
12033TIP3    H136040   4.717   5.746   3.907
12033TIP3    H236041   4.616   5.832   3.979
12034TIP3   OH236042   7.157   0.504   4.335
12034TIP3    H136043   7.105   0.542   4.406
12034TIP3    H236044   7.196   0.579   4.291
12035TIP3   OH236045   6.947   0.360   1.704
12035TIP3    H136046   7.035   0.320   1.703
12035TIP3    H236047   6.924   0.370   1.612
12036TIP3   OH236048   2.589   3.816   3.680
12036TIP3    H136049   2.614   3.725   3.664
12036TIP3    H236050   2.493   3.815   3.678
12037TIP3   OH236051   4.776   0.899   5.900
12037TIP3    H136052   4.780   0.909   5.995
12037TIP3    H236053   4.855   0.942   5.867
12038TIP3   OH236054   3.595   7.574   6.265
12038TIP3    H136055   3.544   7.502   6.303
12038TIP3    H236056   3.618   7.543   6.177
12039TIP3   OH236057   4.830   6.844   2.459
12039TIP3    H136058   4.893   6.840   2.531
12039TIP3    H236059   4.776   6.766   2.470
12040TIP3   OH236060   1.857   7.485   6.623
12040TIP3    H136061   1.837   7.444   6.706
12040TIP3    H236062   1.814   7.571   6.627
12041TIP3   OH236063   7.673   6.730   0.304
12041TIP3    H136064   7.728   6.752   0.229
12041TIP3    H236065   7.644   6.815   0.338
12042TIP3   OH236066   7.339   1.684   5.773
12042TIP3    H136067   7.434   1.689   5.785
12042TIP3    H236068   7.315   1.769   5.734
12043TIP3   OH236069   5.226   7.313   1.509
12043TIP3    H136070   5.211   7.243   1.446
12043TIP3    H236071   5.255   7.387   1.456
12044TIP3   OH236072   1.670   6.462   1.709
12044TIP3    H136073   1.639   6.449   1.619
12044TIP3    H236074   1.663   6.376   1.750
12045TIP3   OH236075   6.792   5.414   3.848
12045TIP3    H136076   6.811   5.378   3.762
12045TIP3    H236077   6.746   5.496   3.830
12046TIP3   OH236078   5.942   3.384   0.899
12046TIP3    H136079   5.893   3.453   0.943
12046TIP3    H236080   5.891   3.304   0.916
12047TIP3   OH236081   4.769   4.357   5.555
12047TIP3    H136082   4.682   4.396   5.558
12047TIP3    H236083   4.755   4.268   5.524
12048TIP3   OH236084   8.241   2.649   2.566
12048TIP3    H136085   8.308   2.692   2.512
12048TIP3    H236086   8.290   2.600   2.631
12049TIP3   OH236087   3.465   7.810   3.934
12049TIP3    H136088   3.523   7.885   3.917
12049TIP3    H236089   3.523   7.734   3.929
12050TIP3   OH236090   1.712   7.607   4.596
12050TIP3    H136091   1.683   7.690   4.634
12050TIP3    H236092   1.775   7.632   4.529
12051TIP3   OH236093   4.820   2.569   4.925
12051TIP3    H136094   4.908   2.605   4.928
12051TIP3    H236095   4.790   2.586   4.836
12052TIP3   OH236096   6.848   2.877   1.682
12052TIP3    H136097   6.943   2.873   1.689
12052TIP3    H236098   6.816   2.876   1.772
12053TIP3   OH236099   6.020   7.244   3.966
12053TIP3    H136100   6.103   7.290   3.958
12053TIP3    H236101   6.041   7.161   4.009
12054TIP3   OH236102   3.568   4.945   2.879
12054TIP3    H136103   3.627   5.019   2.895
12054TIP3    H236104   3.626   4.876   2.846
12055TIP3   OH236105   1.551   0.070   0.980
12055TIP3    H136106   1.498   0.149   0.988
12055TIP3    H236107   1.512   0.021   0.908
12056TIP3   OH236108   6.661   5.389   5.724
12056TIP3    H136109   6.701   5.368   5.808
12056TIP3    H236110   6.666   5.308   5.673
12057TIP3   OH236111   0.864   3.142   1.214
12057TIP3    H136112   0.901   3.055   1.232
12057TIP3    H236113   0.782   3.124   1.168
12058TIP3   OH236114   6.677   6.078   5.993
12058TIP3    H136115   6.752   6.126   5.958
12058TIP3    H236116   6.669   6.001   5.938
12059TIP3   OH236117   6.707   1.732   0.997
12059TIP3    H136118   6.759   1.683   0.932
12059TIP3    H236119   6.646   1.784   0.944
12060TIP3   OH236120   4.397   4.065   6.214
12060TIP3    H136121   4.461   4.135   6.200
12060TIP3    H236122   4.386   4.026   6.127
12061TIP3   OH236123   7.582   5.567   1.960
12061TIP3    H136124   7.668   5.552   1.921
12061TIP3    H236125   7.579   5.505   2.034
12062TIP3   OH236126   1.866   4.262   4.374
12062TIP3    H136127   1.926   4.266   4.448
12062TIP3    H236128   1.819   4.346   4.376
12063TIP3   OH236129   0.893   3.894   5.392
12063TIP3    H136130   0.954   3.873   5.321
12063TIP3    H236131   0.807   3.883   5.352
12064TIP3   OH236132   5.138   7.731   4.298
12064TIP3    H136133   5.213   7.678   4.323
12064TIP3    H236134   5.155   7.817   4.337
12065TIP3   OH236135   5.991   7.565   2.408
12065TIP3    H136136   6.060   7.616   2.366
12065TIP3    H236137   5.913   7.618   2.399
12066TIP3   OH236138   4.420   7.151   2.054
12066TIP3    H136139   4.325   7.149   2.045
12066TIP3    H236140   4.445   7.060   2.065
12067TIP3   OH236141   0.459   2.933   0.494
12067TIP3    H136142   0.395   2.878   0.540
12067TIP3    H236143   0.406   3.001   0.452
12068TIP3   OH236144   3.604   0.830   1.828
12068TIP3    H136145   3.532   0.892   1.817
12068TIP3    H236146   3.573   0.750   1.786
12069TIP3   OH236147   6.424   6.334   1.374
12069TIP3    H136148   6.444   6.324   1.281
12069TIP3    H236149   6.478   6.408   1.402
12070TIP3   OH236150   5.205   2.012   2.373
12070TIP3    H136151   5.201   1.969   2.458
12070TIP3    H236152   5.121   1.990   2.332
12071TIP3   OH236153   3.199   1.120   0.841
12071TIP3    H136154   3.143   1.043   0.839
12071TIP3    H236155   3.168   1.174   0.769
12072TIP3   OH236156   5.557   1.724   0.551
12072TIP3    H136157   5.563   1.707   0.644
12072TIP3    H236158   5.498   1.656   0.517
12073TIP3   OH236159   6.038   2.962   3.831
12073TIP3    H136160   5.945   2.937   3.829
12073TIP3    H236161   6.067   2.936   3.919
12074TIP3   OH236162   7.311   5.273   2.796
12074TIP3    H136163   7.314   5.361   2.759
12074TIP3    H236164   7.393   5.264   2.844
12075TIP3   OH236165   3.833   7.265   5.270
12075TIP3    H136166   3.880   7.188   5.238
12075TIP3    H236167   3.891   7.302   5.337
12076TIP3   OH236168   4.388   2.018   0.121
12076TIP3    H136169   4.404   1.924   0.125
12076TIP3    H236170   4.377   2.045   0.212
12077TIP3   OH236171   7.353   0.761   3.286
12077TIP3    H136172   7.444   0.742   3.305
12077TIP3    H236173   7.326   0.693   3.225
12078TIP3   OH236174   7.834   3.058   6.848
12078TIP3    H136175   7.880   3.135   6.880
12078TIP3    H236176   7.806   3.081   6.760
12079TIP3   OH236177   7.284   7.306   0.650
12079TIP3    H136178   7.202   7.352   0.633
12079TIP3    H236179   7.308   7.332   0.739
12080TIP3   OH236180   4.122   3.231   2.103
12080TIP3    H136181   4.157   3.307   2.058
12080TIP3    H236182   4.032   3.255   2.125
12081TIP3   OH236183   6.354   0.074   3.034
12081TIP3    H136184   6.422   0.046   2.972
12081TIP3    H236185   6.395   0.069   3.120
12082TIP3   OH236186   0.069   2.146   0.801
12082TIP3    H136187   0.076   2.197   0.721
12082TIP3    H236188   0.114   2.198   0.867
12083TIP3   OH236189   7.877   3.216   3.107
12083TIP3    H136190   7.900   3.219   3.199
12083TIP3    H236191   7.954   3.250   3.061
12084TIP3   OH236192   0.389   0.402   5.755
12084TIP3    H136193   0.430   0.396   5.841
12084TIP3    H236194   0.446   0.460   5.705
12085TIP3   OH236195   7.375   2.963   1.248
12085TIP3    H136196   7.412   2.884   1.287
12085TIP3    H236197   7.445   2.998   1.193
12086TIP3   OH236198   2.209   7.234   4.828
12086TIP3    H136199   2.267   7.250   4.754
12086TIP3    H236200   2.268   7.227   4.903
12087TIP3   OH236201   5.949   3.134   2.203
12087TIP3    H136202   5.866   3.164   2.164
12087TIP3    H236203   5.956   3.182   2.285
12088TIP3   OH236204   0.282   1.585   4.397
12088TIP3    H136205   0.241   1.501   4.417
12088TIP3    H236206   0.211   1.639   4.363
12089TIP3   OH236207   3.848   6.100   6.195
12089TIP3    H136208   3.926   6.044   6.187
12089TIP3    H236209   3.780   6.041   6.230
12090TIP3   OH236210   5.377   1.203   6.557
12090TIP3    H136211   5.301   1.203   6.500
12090TIP3    H236212   5.376   1.289   6.598
12091TIP3   OH236213   4.059   0.105   3.368
12091TIP3    H136214   3.981   0.067   3.409
12091TIP3    H236215   4.131   0.080   3.426
12092TIP3   OH236216   6.247   7.176   6.113
12092TIP3    H136217   6.299   7.139   6.041
12092TIP3    H236218   6.202   7.251   6.075
12093TIP3   OH236219   2.611   6.936   2.293
12093TIP3    H136220   2.598   7.013   2.348
12093TIP3    H236221   2.703   6.914   2.304
12094TIP3   OH236222   7.505   0.709   5.868
12094TIP3    H136223   7.500   0.798   5.834
12094TIP3    H236224   7.548   0.659   5.798
12095TIP3   OH236225   3.891   4.063   1.740
12095TIP3    H136226   3.817   4.105   1.696
12095TIP3    H236227   3.955   4.048   1.670
12096TIP3   OH236228   3.080   7.584   3.248
12096TIP3    H136229   3.143   7.623   3.309
12096TIP3    H236230   3.119   7.597   3.161
12097TIP3   OH236231   5.720   6.164   3.001
12097TIP3    H136232   5.764   6.084   3.030
12097TIP3    H236233   5.726   6.161   2.906
12098TIP3   OH236234   0.159   5.396   6.606
12098TIP3    H136235   0.073   5.387   6.566
12098TIP3    H236236   0.141   5.424   6.696
12099TIP3   OH236237   5.182   0.836   1.276
12099TIP3    H136238   5.162   0.882   1.357
12099TIP3    H236239   5.126   0.877   1.211
12100TIP3   OH236240   1.237   7.082   6.590
12100TIP3    H136241   1.316   7.128   6.560
12100TIP3    H236242   1.201   7.139   6.658
12101TIP3   OH236243   1.313   4.177   3.947
12101TIP3    H136244   1.360   4.099   3.918
12101TIP3    H236245   1.221   4.160   3.924
12102TIP3   OH236246   4.152   2.717   6.847
12102TIP3    H136247   4.187   2.806   6.846
12102TIP3    H236248   4.067   2.723   6.803
12103TIP3   OH236249   1.300   7.877   6.543
12103TIP3    H136250   1.340   7.943   6.599
12103TIP3    H236251   1.206   7.888   6.556
12104TIP3   OH236252   6.418   0.227   4.655
12104TIP3    H136253   6.346   0.271   4.609
12104TIP3    H236254   6.394   0.231   4.747
12105TIP3   OH236255   4.505   7.725   0.900
12105TIP3    H136256   4.496   7.820   0.912
12105TIP3    H236257   4.501   7.689   0.988
12106TIP3   OH236258   3.323   2.779   4.323
12106TIP3    H136259   3.397   2.816   4.275
12106TIP3    H236260   3.285   2.854   4.370
12107TIP3   OH236261   4.117   3.073   3.028
12107TIP3    H136262   4.204   3.048   3.057
12107TIP3    H236263   4.080   3.121   3.101
12108TIP3   OH236264   1.046   5.505   5.441
12108TIP3    H136265   0.969   5.561   5.432
12108TIP3    H236266   1.022   5.423   5.397
12109TIP3   OH236267   6.493   2.270   4.698
12109TIP3    H136268   6.585   2.295   4.690
12109TIP3    H236269   6.449   2.316   4.626
12110TIP3   OH236270   3.351   4.741   4.358
12110TIP3    H136271   3.385   4.806   4.418
12110TIP3    H236272   3.257   4.736   4.378
12111TIP3   OH236273   0.198   0.684   0.574
12111TIP3    H136274   0.141   0.654   0.644
12111TIP3    H236275   0.220   0.774   0.596
12112TIP3   OH236276   4.067   2.855   0.783
12112TIP3    H136277   4.129   2.927   0.778
12112TIP3    H236278   3.983   2.892   0.755
12113TIP3   OH236279   5.180   1.801   4.842
12113TIP3    H136280   5.168   1.732   4.907
12113TIP3    H236281   5.094   1.808   4.799
12114TIP3   OH236282   5.803   1.623   3.094
12114TIP3    H136283   5.787   1.529   3.084
12114TIP3    H236284   5.760   1.663   3.019
12115TIP3   OH236285   0.493   5.642   1.330
12115TIP3    H136286   0.493   5.655   1.425
12115TIP3    H236287   0.428   5.704   1.297
12116TIP3   OH236288   2.954   2.603   4.788
12116TIP3    H136289   2.900   2.659   4.733
12116TIP3    H236290   2.959   2.520   4.741
12117TIP3   OH236291   8.257   5.333   2.063
12117TIP3    H136292   8.253   5.274   1.988
12117TIP3    H236293   8.222   5.416   2.030
12118TIP3   OH236294   5.130   7.105   3.611
12118TIP3    H136295   5.061   7.087   3.547
12118TIP3    H236296   5.094   7.176   3.665
12119TIP3   OH236297   8.247   0.577   1.842
12119TIP3    H136298   8.184   0.616   1.782
12119TIP3    H236299   8.221   0.485   1.848
12120TIP3   OH236300   4.116   7.823   1.746
12120TIP3    H136301   4.075   7.882   1.810
12120TIP3    H236302   4.139   7.880   1.673
12121TIP3   OH236303   5.881   7.351   4.658
12121TIP3    H136304   5.966   7.335   4.699
12121TIP3    H236305   5.894   7.326   4.566
12122TIP3   OH236306   0.530   1.071   0.609
12122TIP3    H136307   0.491   1.093   0.524
12122TIP3    H236308   0.622   1.095   0.599
12123TIP3   OH236309   8.320   5.015   1.957
12123TIP3    H136310   8.321   4.944   1.893
12123TIP3    H236311   8.409   5.050   1.956
12124TIP3   OH236312   0.623   1.885   5.071
12124TIP3    H136313   0.642   1.953   5.006
12124TIP3    H236314   0.709   1.858   5.104
12125TIP3   OH236315   2.520   3.551   2.557
12125TIP3    H136316   2.579   3.585   2.491
12125TIP3    H236317   2.479   3.628   2.596
12126TIP3   OH236318   0.959   4.103   3.541
12126TIP3    H136319   0.936   4.108   3.448
12126TIP3    H236320   0.958   4.194   3.571
12127TIP3   OH236321   1.688   5.958   4.587
12127TIP3    H136322   1.765   5.919   4.628
12127TIP3    H236323   1.704   6.052   4.591
12128TIP3   OH236324   0.669   5.321   5.471
12128TIP3    H136325   0.655   5.319   5.376
12128TIP3    H236326   0.710   5.406   5.487
12129TIP3   OH236327  -0.005   0.780   0.835
12129TIP3    H136328  -0.002   0.690   0.802
12129TIP3    H236329   0.084   0.797   0.866
12130TIP3   OH236330   3.176   0.760   5.866
12130TIP3    H136331   3.182   0.842   5.915
12130TIP3    H236332   3.117   0.779   5.793
12131TIP3   OH236333   8.345   1.489   4.237
12131TIP3    H136334   8.330   1.416   4.178
12131TIP3    H236335   8.397   1.452   4.308
12132TIP3   OH236336   1.991   3.188   1.770
12132TIP3    H136337   1.901   3.213   1.791
12132TIP3    H236338   2.038   3.194   1.854
12133TIP3   OH236339   3.798   4.566   5.331
12133TIP3    H136340   3.808   4.532   5.243
12133TIP3    H236341   3.789   4.661   5.319
12134TIP3   OH236342   7.486   1.471   3.414
12134TIP3    H136343   7.577   1.448   3.427
12134TIP3    H236344   7.464   1.438   3.327
12135TIP3   OH236345   2.707   7.871   2.246
12135TIP3    H136346   2.737   7.829   2.327
12135TIP3    H236347   2.782   7.863   2.186
12136TIP3   OH236348   7.535   2.579   5.370
12136TIP3    H136349   7.624   2.557   5.340
12136TIP3    H236350   7.477   2.532   5.309
12137TIP3   OH236351   3.741   0.210   0.690
12137TIP3    H136352   3.825   0.254   0.702
12137TIP3    H236353   3.722   0.218   0.597
12138TIP3   OH236354   6.438   7.850   3.753
12138TIP3    H136355   6.451   7.756   3.763
12138TIP3    H236356   6.343   7.862   3.757
12139TIP3   OH236357   2.290   6.713   1.821
12139TIP3    H136358   2.224   6.714   1.752
12139TIP3    H236359   2.303   6.620   1.841
12140TIP3   OH236360   5.414   5.663   6.497
12140TIP3    H136361   5.415   5.757   6.515
12140TIP3    H236362   5.475   5.652   6.424
12141TIP3   OH236363   6.773   5.438   0.359
12141TIP3    H136364   6.687   5.400   0.342
12141TIP3    H236365   6.759   5.498   0.433
12142TIP3   OH236366   6.709   2.378   0.264
12142TIP3    H136367   6.677   2.342   0.181
12142TIP3    H236368   6.676   2.319   0.331
12143TIP3   OH236369   8.099   7.010   1.883
12143TIP3    H136370   8.187   6.981   1.860
12143TIP3    H236371   8.041   6.943   1.847
12144TIP3   OH236372   3.192   0.544   1.584
12144TIP3    H136373   3.273   0.570   1.627
12144TIP3    H236374   3.176   0.613   1.520
12145TIP3   OH236375   5.568   2.979   3.144
12145TIP3    H136376   5.653   2.970   3.187
12145TIP3    H236377   5.516   3.033   3.203
12146TIP3   OH236378   1.890   5.635   6.463
12146TIP3    H136379   1.796   5.652   6.471
12146TIP3    H236380   1.896   5.559   6.406
12147TIP3   OH236381   5.535   6.331   4.709
12147TIP3    H136382   5.628   6.333   4.728
12147TIP3    H236383   5.493   6.362   4.789
12148TIP3   OH236384   6.746   5.864   3.356
12148TIP3    H136385   6.732   5.803   3.429
12148TIP3    H236386   6.840   5.861   3.341
12149TIP3   OH236387   4.831   4.186   3.482
12149TIP3    H136388   4.921   4.218   3.487
12149TIP3    H236389   4.817   4.141   3.565
12150TIP3   OH236390   6.593   1.905   5.683
12150TIP3    H136391   6.544   1.861   5.752
12150TIP3    H236392   6.682   1.870   5.690
12151TIP3   OH236393   6.660   6.228   1.222
12151TIP3    H136394   6.661   6.281   1.301
12151TIP3    H236395   6.746   6.186   1.219
12152TIP3   OH236396   5.897   2.907   0.055
12152TIP3    H136397   5.922   2.831   0.108
12152TIP3    H236398   5.802   2.900   0.045
12153TIP3   OH236399   5.901   2.473   1.553
12153TIP3    H136400   5.986   2.445   1.589
12153TIP3    H236401   5.837   2.443   1.617
12154TIP3   OH236402   0.291   4.039   2.862
12154TIP3    H136403   0.249   4.114   2.820
12154TIP3    H236404   0.300   4.064   2.954
12155TIP3   OH236405   6.885   5.503   4.438
12155TIP3    H136406   6.836   5.465   4.365
12155TIP3    H236407   6.964   5.449   4.445
12156TIP3   OH236408   6.783   6.490   5.312
12156TIP3    H136409   6.871   6.454   5.302
12156TIP3    H236410   6.748   6.492   5.222
12157TIP3   OH236411   7.869   7.543   6.347
12157TIP3    H136412   7.784   7.584   6.361
12157TIP3    H236413   7.925   7.578   6.416
12158TIP3   OH236414   8.031   3.462   2.397
12158TIP3    H136415   8.044   3.526   2.327
12158TIP3    H236416   8.023   3.514   2.477
12159TIP3   OH236417   2.628   7.787   6.115
12159TIP3    H136418   2.671   7.705   6.090
12159TIP3    H236419   2.545   7.759   6.155
12160TIP3   OH236420   2.631   5.549   3.764
12160TIP3    H136421   2.674   5.500   3.835
12160TIP3    H236422   2.569   5.606   3.809
12161TIP3   OH236423   0.002   3.039   4.771
12161TIP3    H136424  -0.044   3.011   4.850
12161TIP3    H236425   0.082   3.080   4.804
12162TIP3   OH236426   1.555   1.910   2.355
12162TIP3    H136427   1.638   1.876   2.387
12162TIP3    H236428   1.489   1.872   2.414
12163TIP3   OH236429   5.858   0.649   5.150
12163TIP3    H136430   5.907   0.571   5.174
12163TIP3    H236431   5.784   0.616   5.099
12164TIP3   OH236432   5.387   0.095   5.367
12164TIP3    H136433   5.409   0.002   5.368
12164TIP3    H236434   5.353   0.112   5.455
12165TIP3   OH236435   0.289   0.755   6.759
12165TIP3    H136436   0.348   0.749   6.834
12165TIP3    H236437   0.207   0.788   6.795
12166TIP3   OH236438   2.607   4.647   2.005
12166TIP3    H136439   2.677   4.650   1.939
12166TIP3    H236440   2.570   4.559   1.997
12167TIP3   OH236441   0.321   2.834   1.149
12167TIP3    H136442   0.255   2.865   1.088
12167TIP3    H236443   0.399   2.820   1.095
12168TIP3   OH236444   0.993   3.224   3.816
12168TIP3    H136445   1.022   3.309   3.784
12168TIP3    H236446   1.052   3.161   3.774
12169TIP3   OH236447   2.394   2.216   4.980
12169TIP3    H136448   2.460   2.198   5.046
12169TIP3    H236449   2.438   2.271   4.915
12170TIP3   OH236450   3.510   1.795   3.003
12170TIP3    H136451   3.472   1.855   2.939
12170TIP3    H236452   3.580   1.845   3.044
12171TIP3   OH236453   7.882   4.771   0.066
12171TIP3    H136454   7.895   4.849   0.119
12171TIP3    H236455   7.918   4.700   0.119
12172TIP3   OH236456   4.403   6.738   0.251
12172TIP3    H136457   4.377   6.651   0.283
12172TIP3    H236458   4.402   6.794   0.328
12173TIP3   OH236459   2.381   1.851   3.911
12173TIP3    H136460   2.427   1.934   3.920
12173TIP3    H236461   2.346   1.852   3.822
12174TIP3   OH236462   5.533   3.744   1.745
12174TIP3    H136463   5.472   3.731   1.817
12174TIP3    H236464   5.580   3.661   1.738
12175TIP3   OH236465   3.910   2.190   2.980
12175TIP3    H136466   3.878   2.202   2.891
12175TIP3    H236467   3.904   2.277   3.019
12176TIP3   OH236468   3.439   6.577   5.196
12176TIP3    H136469   3.446   6.566   5.291
12176TIP3    H236470   3.358   6.626   5.184
12177TIP3   OH236471   5.515   3.948   1.541
12177TIP3    H136472   5.596   3.984   1.578
12177TIP3    H236473   5.495   3.872   1.596
12178TIP3   OH236474   4.410   2.969   2.426
12178TIP3    H136475   4.442   2.889   2.467
12178TIP3    H236476   4.479   3.033   2.440
12179TIP3   OH236477   4.496   1.317   2.873
12179TIP3    H136478   4.434   1.361   2.931
12179TIP3    H236479   4.451   1.313   2.788
12180TIP3   OH236480   8.333   6.035   0.840
12180TIP3    H136481   8.335   6.101   0.770
12180TIP3    H236482   8.243   6.037   0.872
12181TIP3   OH236483   7.766   3.630   5.957
12181TIP3    H136484   7.671   3.617   5.949
12181TIP3    H236485   7.779   3.656   6.049
12182TIP3   OH236486   1.426   7.118   1.737
12182TIP3    H136487   1.370   7.104   1.661
12182TIP3    H236488   1.496   7.175   1.705
12183TIP3   OH236489   3.916   2.355   4.151
12183TIP3    H136490   3.871   2.431   4.116
12183TIP3    H236491   3.856   2.282   4.134
12184TIP3   OH236492   6.730   5.265   1.481
12184TIP3    H136493   6.677   5.299   1.410
12184TIP3    H236494   6.669   5.213   1.534
12185TIP3   OH236495   2.456   5.086   3.593
12185TIP3    H136496   2.478   5.062   3.503
12185TIP3    H236497   2.542   5.097   3.636
12186TIP3   OH236498   4.612   7.513   3.544
12186TIP3    H136499   4.673   7.525   3.471
12186TIP3    H236500   4.632   7.584   3.605
12187TIP3   OH236501   7.948   6.427   1.797
12187TIP3    H136502   7.980   6.502   1.747
12187TIP3    H236503   8.003   6.424   1.875
12188TIP3   OH236504   2.444   1.097   1.359
12188TIP3    H136505   2.364   1.046   1.349
12188TIP3    H236506   2.509   1.033   1.387
12189TIP3   OH236507   5.920   7.219   2.315
12189TIP3    H136508   5.930   7.187   2.226
12189TIP3    H236509   5.872   7.301   2.306
12190TIP3   OH236510   5.998   7.643   2.680
12190TIP3    H136511   5.989   7.625   2.586
12190TIP3    H236512   6.035   7.563   2.716
12191TIP3   OH236513   4.717   3.342   0.842
12191TIP3    H136514   4.698   3.388   0.761
12191TIP3    H236515   4.797   3.384   0.875
12192TIP3   OH236516   3.304   2.265   6.230
12192TIP3    H136517   3.241   2.234   6.164
12192TIP3    H236518   3.389   2.233   6.199
12193TIP3   OH236519   8.232   4.378   6.695
12193TIP3    H136520   8.262   4.287   6.699
12193TIP3    H236521   8.220   4.404   6.787
12194TIP3   OH236522   4.670   6.177   1.809
12194TIP3    H136523   4.606   6.108   1.822
12194TIP3    H236524   4.621   6.258   1.825
12195TIP3   OH236525   4.400   2.390   3.543
12195TIP3    H136526   4.437   2.386   3.455
12195TIP3    H236527   4.444   2.319   3.591
12196TIP3   OH236528   2.362   2.427   5.857
12196TIP3    H136529   2.406   2.487   5.796
12196TIP3    H236530   2.287   2.476   5.890
12197TIP3   OH236531   4.902   6.673   2.945
12197TIP3    H136532   4.924   6.580   2.940
12197TIP3    H236533   4.810   6.675   2.972
12198TIP3   OH236534   4.248   5.905   5.777
12198TIP3    H136535   4.229   5.867   5.863
12198TIP3    H236536   4.197   5.852   5.716
12199TIP3   OH236537   2.348   6.199   6.221
12199TIP3    H136538   2.341   6.239   6.308
12199TIP3    H236539   2.349   6.274   6.161
12200TIP3   OH236540   0.663   3.360   4.288
12200TIP3    H136541   0.585   3.390   4.241
12200TIP3    H236542   0.727   3.345   4.219
12201TIP3   OH236543   7.332   6.774   5.989
12201TIP3    H136544   7.240   6.752   5.977
12201TIP3    H236545   7.335   6.821   6.072
12202TIP3   OH236546   4.573   5.397   3.308
12202TIP3    H136547   4.547   5.379   3.399
12202TIP3    H236548   4.553   5.316   3.262
12203TIP3   OH236549   0.745   4.368   6.687
12203TIP3    H136550   0.744   4.314   6.608
12203TIP3    H236551   0.662   4.415   6.685
12204TIP3   OH236552   4.788   3.403   2.520
12204TIP3    H136553   4.720   3.351   2.477
12204TIP3    H236554   4.855   3.414   2.453
12205TIP3   OH236555   5.783   3.380   4.674
12205TIP3    H136556   5.853   3.392   4.610
12205TIP3    H236557   5.728   3.458   4.663
12206TIP3   OH236558   3.905   4.113   3.765
12206TIP3    H136559   3.949   4.034   3.797
12206TIP3    H236560   3.945   4.184   3.814
12207TIP3   OH236561   7.438   0.159   4.664
12207TIP3    H136562   7.438   0.069   4.697
12207TIP3    H236563   7.531   0.177   4.648
12208TIP3   OH236564   5.935   4.586   3.047
12208TIP3    H136565   5.900   4.671   3.019
12208TIP3    H236566   6.007   4.569   2.986
12209TIP3   OH236567   3.490   5.056   6.520
12209TIP3    H136568   3.567   5.108   6.494
12209TIP3    H236569   3.525   4.968   6.532
12210TIP3   OH236570   8.236   0.301   6.337
12210TIP3    H136571   8.267   0.226   6.286
12210TIP3    H236572   8.217   0.264   6.424
12211TIP3   OH236573   2.033   2.466   1.077
12211TIP3    H136574   2.085   2.546   1.078
12211TIP3    H236575   2.078   2.408   1.139
12212TIP3   OH236576   3.428   1.899   1.413
12212TIP3    H136577   3.400   1.976   1.364
12212TIP3    H236578   3.498   1.930   1.470
12213TIP3   OH236579   0.983   6.199   5.506
12213TIP3    H136580   0.898   6.232   5.533
12213TIP3    H236581   0.963   6.130   5.443
12214TIP3   OH236582   5.170   1.715   6.418
12214TIP3    H136583   5.199   1.766   6.494
12214TIP3    H236584   5.134   1.780   6.358
12215TIP3   OH236585   3.562   3.177   6.438
12215TIP3    H136586   3.539   3.102   6.384
12215TIP3    H236587   3.480   3.226   6.449
12216TIP3   OH236588   0.988   0.710   1.700
12216TIP3    H136589   1.069   0.757   1.722
12216TIP3    H236590   1.018   0.634   1.651
12217TIP3   OH236591   2.641   2.352   5.390
12217TIP3    H136592   2.588   2.316   5.461
12217TIP3    H236593   2.599   2.436   5.369
12218TIP3   OH236594   1.523   4.127   5.632
12218TIP3    H136595   1.578   4.051   5.615
12218TIP3    H236596   1.583   4.194   5.663
12219TIP3   OH236597   7.761   5.833   5.445
12219TIP3    H136598   7.725   5.747   5.424
12219TIP3    H236599   7.689   5.894   5.426
12220TIP3   OH236600   7.642   2.311   6.375
12220TIP3    H136601   7.681   2.399   6.373
12220TIP3    H236602   7.548   2.327   6.365
12221TIP3   OH236603   4.609   0.669   2.918
12221TIP3    H136604   4.594   0.584   2.960
12221TIP3    H236605   4.594   0.733   2.988
12222TIP3   OH236606   2.141   6.247   2.420
12222TIP3    H136607   2.234   6.246   2.444
12222TIP3    H236608   2.121   6.340   2.404
12223TIP3   OH236609   6.720   2.630   0.143
12223TIP3    H136610   6.801   2.667   0.177
12223TIP3    H236611   6.708   2.549   0.193
12224TIP3   OH236612   7.545   4.425   1.424
12224TIP3    H136613   7.509   4.370   1.494
12224TIP3    H236614   7.469   4.469   1.387
12225TIP3   OH236615   1.478   2.602   3.922
12225TIP3    H136616   1.536   2.654   3.978
12225TIP3    H236617   1.482   2.514   3.959
12226TIP3   OH236618   2.723   1.948   2.259
12226TIP3    H136619   2.794   1.906   2.210
12226TIP3    H236620   2.662   1.878   2.279
12227TIP3   OH236621   4.514   5.599   0.066
12227TIP3    H136622   4.537   5.536  -0.003
12227TIP3    H236623   4.578   5.582   0.135
12228TIP3   OH236624   6.925   6.853   5.554
12228TIP3    H136625   6.900   6.850   5.646
12228TIP3    H236626   6.843   6.842   5.506
12229TIP3   OH236627   7.351   3.418   4.011
12229TIP3    H136628   7.313   3.382   4.092
12229TIP3    H236629   7.302   3.375   3.941
12230TIP3   OH236630   0.559   4.094   1.390
12230TIP3    H136631   0.479   4.106   1.338
12230TIP3    H236632   0.628   4.130   1.336
12231TIP3   OH236633   7.860   2.134   1.999
12231TIP3    H136634   7.797   2.181   1.945
12231TIP3    H236635   7.865   2.186   2.080
12232TIP3   OH236636   6.868   3.810   1.789
12232TIP3    H136637   6.802   3.850   1.732
12232TIP3    H236638   6.842   3.834   1.877
12233TIP3   OH236639   7.727   4.654   4.172
12233TIP3    H136640   7.809   4.696   4.199
12233TIP3    H236641   7.673   4.655   4.251
12234TIP3   OH236642   4.526   6.753   3.749
12234TIP3    H136643   4.548   6.841   3.781
12234TIP3    H236644   4.525   6.699   3.828
12235TIP3   OH236645   7.285   7.224   5.516
12235TIP3    H136646   7.355   7.266   5.467
12235TIP3    H236647   7.260   7.149   5.461
12236TIP3   OH236648   5.009   7.828   3.703
12236TIP3    H136649   5.035   7.857   3.791
12236TIP3    H236650   5.029   7.903   3.647
12237TIP3   OH236651   4.641   6.790   6.451
12237TIP3    H136652   4.679   6.720   6.398
12237TIP3    H236653   4.593   6.844   6.389
12238TIP3   OH236654   0.955   0.600   6.727
12238TIP3    H136655   1.049   0.596   6.711
12238TIP3    H236656   0.930   0.688   6.697
12239TIP3   OH236657   0.256   7.805   2.033
12239TIP3    H136658   0.270   7.900   2.024
12239TIP3    H236659   0.297   7.782   2.116
12240TIP3   OH236660   4.422   3.986   3.763
12240TIP3    H136661   4.353   3.933   3.723
12240TIP3    H236662   4.381   4.025   3.840
12241TIP3   OH236663   5.389   5.880   4.444
12241TIP3    H136664   5.375   5.852   4.353
12241TIP3    H236665   5.404   5.974   4.438
12242TIP3   OH236666   1.748   6.733   6.717
12242TIP3    H136667   1.743   6.713   6.811
12242TIP3    H236668   1.751   6.647   6.675
12243TIP3   OH236669   2.154   7.457   3.606
12243TIP3    H136670   2.110   7.373   3.609
12243TIP3    H236671   2.239   7.441   3.647
12244TIP3   OH236672   8.357   1.886   0.790
12244TIP3    H136673   8.426   1.824   0.767
12244TIP3    H236674   8.403   1.970   0.803
12245TIP3   OH236675   5.853   2.821   6.113
12245TIP3    H136676   5.851   2.832   6.018
12245TIP3    H236677   5.942   2.845   6.138
12246TIP3   OH236678   4.697   4.812   4.001
12246TIP3    H136679   4.753   4.870   4.053
12246TIP3    H236680   4.744   4.801   3.918
12247TIP3   OH236681   0.991   1.441   5.293
12247TIP3    H136682   1.032   1.518   5.254
12247TIP3    H236683   1.019   1.368   5.237
12248TIP3   OH236684   6.266   4.675   1.204
12248TIP3    H136685   6.232   4.690   1.292
12248TIP3    H236686   6.187   4.671   1.148
12249TIP3   OH236687   3.929   2.381   2.278
12249TIP3    H136688   3.906   2.290   2.260
12249TIP3    H236689   3.982   2.408   2.203
12250TIP3   OH236690   5.255   2.284   3.940
12250TIP3    H136691   5.291   2.210   3.891
12250TIP3    H236692   5.173   2.306   3.895
12251TIP3   OH236693   2.506   7.473   6.174
12251TIP3    H136694   2.469   7.453   6.088
12251TIP3    H236695   2.600   7.479   6.158
12252TIP3   OH236696   8.326   1.250   4.595
12252TIP3    H136697   8.337   1.190   4.521
12252TIP3    H236698   8.263   1.206   4.652
12253TIP3   OH236699   0.933   5.797   3.145
12253TIP3    H136700   0.938   5.886   3.181
12253TIP3    H236701   1.007   5.793   3.083
12254TIP3   OH236702   8.198   1.106   5.471
12254TIP3    H136703   8.121   1.056   5.442
12254TIP3    H236704   8.261   1.097   5.400
12255TIP3   OH236705   5.532   7.185   3.412
12255TIP3    H136706   5.577   7.268   3.424
12255TIP3    H236707   5.493   7.166   3.497
12256TIP3   OH236708   2.307   7.227   4.306
12256TIP3    H136709   2.381   7.231   4.246
12256TIP3    H236710   2.342   7.257   4.390
12257TIP3   OH236711   6.186   2.779   6.034
12257TIP3    H136712   6.169   2.834   5.958
12257TIP3    H236713   6.139   2.697   6.016
12258TIP3   OH236714   4.588   5.415   5.072
12258TIP3    H136715   4.586   5.346   5.139
12258TIP3    H236716   4.578   5.367   4.989
12259TIP3   OH236717   4.290   2.619   1.635
12259TIP3    H136718   4.367   2.597   1.687
12259TIP3    H236719   4.314   2.595   1.545
12260TIP3   OH236720   6.600   0.059   4.533
12260TIP3    H136721   6.576   0.083   4.622
12260TIP3    H236722   6.518   0.026   4.495
12261TIP3   OH236723   4.179   3.591   3.923
12261TIP3    H136724   4.180   3.496   3.914
12261TIP3    H236725   4.164   3.606   4.016
12262TIP3   OH236726   8.227   6.577   0.686
12262TIP3    H136727   8.167   6.518   0.642
12262TIP3    H236728   8.309   6.528   0.693
12263TIP3   OH236729   4.992   4.547   0.635
12263TIP3    H136730   5.009   4.528   0.727
12263TIP3    H236731   4.975   4.462   0.596
12264TIP3   OH236732   2.299   0.619   4.272
12264TIP3    H136733   2.343   0.701   4.246
12264TIP3    H236734   2.215   0.622   4.228
12265TIP3   OH236735   3.386   4.912   6.124
12265TIP3    H136736   3.301   4.894   6.165
12265TIP3    H236737   3.421   4.986   6.174
12266TIP3   OH236738   4.216   7.707   1.080
12266TIP3    H136739   4.261   7.701   1.164
12266TIP3    H236740   4.140   7.764   1.098
12267TIP3   OH236741   7.713   6.236   6.652
12267TIP3    H136742   7.638   6.271   6.604
12267TIP3    H236743   7.762   6.186   6.587
12268TIP3   OH236744   1.675   1.911   0.688
12268TIP3    H136745   1.705   1.895   0.777
12268TIP3    H236746   1.750   1.952   0.644
12269TIP3   OH236747   0.420   0.730   4.595
12269TIP3    H136748   0.481   0.801   4.613
12269TIP3    H236749   0.402   0.691   4.680
12270TIP3   OH236750   4.781   4.639   1.910
12270TIP3    H136751   4.837   4.658   1.835
12270TIP3    H236752   4.754   4.548   1.899
12271TIP3   OH236753   1.227   1.834   0.223
12271TIP3    H136754   1.264   1.886   0.295
12271TIP3    H236755   1.203   1.898   0.156
12272TIP3   OH236756   4.774   1.226   3.576
12272TIP3    H136757   4.758   1.141   3.534
12272TIP3    H236758   4.693   1.246   3.621
12273TIP3   OH236759   0.257   4.522   0.473
12273TIP3    H136760   0.313   4.593   0.441
12273TIP3    H236761   0.172   4.564   0.489
12274TIP3   OH236762   5.364   6.179   4.447
12274TIP3    H136763   5.458   6.191   4.433
12274TIP3    H236764   5.324   6.199   4.362
12275TIP3   OH236765   6.048   5.012   4.686
12275TIP3    H136766   6.074   4.926   4.719
12275TIP3    H236767   6.090   5.074   4.746
12276TIP3   OH236768   2.223   3.322   0.942
12276TIP3    H136769   2.230   3.238   0.897
12276TIP3    H236770   2.314   3.348   0.956
12277TIP3   OH236771   6.980   7.018   4.403
12277TIP3    H136772   6.945   7.019   4.492
12277TIP3    H236773   7.054   6.957   4.408
12278TIP3   OH236774   3.761   7.548   3.534
12278TIP3    H136775   3.846   7.551   3.491
12278TIP3    H236776   3.778   7.502   3.617
12279TIP3   OH236777   3.978   5.058   3.229
12279TIP3    H136778   3.949   5.129   3.172
12279TIP3    H236779   4.047   5.096   3.282
12280TIP3   OH236780   0.755   4.379   4.552
12280TIP3    H136781   0.681   4.324   4.580
12280TIP3    H236782   0.753   4.373   4.457
12281TIP3   OH236783   5.122   7.495   4.513
12281TIP3    H136784   5.205   7.486   4.466
12281TIP3    H236785   5.124   7.426   4.579
12282TIP3   OH236786   7.183   2.900   4.625
12282TIP3    H136787   7.142   2.848   4.695
12282TIP3    H236788   7.185   2.841   4.550
12283TIP3   OH236789   1.304   2.903   0.580
12283TIP3    H136790   1.330   2.883   0.670
12283TIP3    H236791   1.211   2.882   0.576
12284TIP3   OH236792   7.712   5.231   3.520
12284TIP3    H136793   7.653   5.218   3.446
12284TIP3    H236794   7.780   5.166   3.509
12285TIP3   OH236795   4.896   7.361   5.282
12285TIP3    H136796   4.843   7.311   5.220
12285TIP3    H236797   4.894   7.308   5.362
12286TIP3   OH236798   1.603   3.478   0.780
12286TIP3    H136799   1.595   3.423   0.703
12286TIP3    H236800   1.579   3.566   0.749
12287TIP3   OH236801   6.385   7.761   1.429
12287TIP3    H136802   6.343   7.777   1.345
12287TIP3    H236803   6.478   7.762   1.410
12288TIP3   OH236804   3.886   7.587   6.779
12288TIP3    H136805   3.869   7.681   6.772
12288TIP3    H236806   3.863   7.552   6.693
12289TIP3   OH236807   4.629   5.223   5.765
12289TIP3    H136808   4.673   5.292   5.715
12289TIP3    H236809   4.677   5.143   5.744
12290TIP3   OH236810   3.162   5.750   3.041
12290TIP3    H136811   3.156   5.814   2.971
12290TIP3    H236812   3.211   5.677   3.003
12291TIP3   OH236813   7.507   4.860   2.881
12291TIP3    H136814   7.577   4.900   2.829
12291TIP3    H236815   7.501   4.770   2.848
12292TIP3   OH236816   3.544   5.153   6.148
12292TIP3    H136817   3.585   5.239   6.164
12292TIP3    H236818   3.617   5.097   6.122
12293TIP3   OH236819   3.153   4.913   3.995
12293TIP3    H136820   3.113   4.924   3.909
12293TIP3    H236821   3.129   4.992   4.043
12294TIP3   OH236822   7.602   0.524   0.471
12294TIP3    H136823   7.604   0.540   0.376
12294TIP3    H236824   7.523   0.472   0.485
12295TIP3   OH236825   3.318   4.443   5.841
12295TIP3    H136826   3.342   4.529   5.877
12295TIP3    H236827   3.401   4.397   5.831
12296TIP3   OH236828   5.447   0.128   3.011
12296TIP3    H136829   5.528   0.080   3.029
12296TIP3    H236830   5.463   0.215   3.047
12297TIP3   OH236831   2.754   4.216   4.471
12297TIP3    H136832   2.723   4.129   4.497
12297TIP3    H236833   2.845   4.218   4.501
12298TIP3   OH236834   1.170   7.201   1.262
12298TIP3    H136835   1.234   7.224   1.194
12298TIP3    H236836   1.104   7.149   1.217
12299TIP3   OH236837   3.852   4.294   5.378
12299TIP3    H136838   3.856   4.387   5.354
12299TIP3    H236839   3.764   4.282   5.413
12300TIP3   OH236840   5.869   4.791   1.617
12300TIP3    H136841   5.813   4.820   1.545
12300TIP3    H236842   5.928   4.865   1.633
12301TIP3   OH236843   4.965   3.134   6.530
12301TIP3    H136844   4.905   3.060   6.525
12301TIP3    H236845   4.986   3.143   6.623
12302TIP3   OH236846   1.142   3.715   4.510
12302TIP3    H136847   1.115   3.654   4.579
12302TIP3    H236848   1.080   3.699   4.439
12303TIP3   OH236849   8.167   1.683   4.109
12303TIP3    H136850   8.107   1.631   4.056
12303TIP3    H236851   8.211   1.620   4.165
12304TIP3   OH236852   0.132   6.549   5.545
12304TIP3    H136853   0.141   6.629   5.596
12304TIP3    H236854   0.048   6.511   5.573
12305TIP3   OH236855   7.081   4.234   6.369
12305TIP3    H136856   7.127   4.205   6.290
12305TIP3    H236857   7.051   4.153   6.411
12306TIP3   OH236858   2.699   1.415   4.133
12306TIP3    H136859   2.656   1.429   4.218
12306TIP3    H236860   2.790   1.441   4.148
12307TIP3   OH236861   1.790   7.781   4.075
12307TIP3    H136862   1.793   7.754   4.167
12307TIP3    H236863   1.864   7.736   4.034
12308TIP3   OH236864   6.179   7.590   0.026
12308TIP3    H136865   6.266   7.577   0.064
12308TIP3    H236866   6.187   7.672  -0.023
12309TIP3   OH236867   1.633   5.158   6.201
12309TIP3    H136868   1.622   5.251   6.180
12309TIP3    H236869   1.714   5.133   6.155
12310TIP3   OH236870   4.797   0.975   3.088
12310TIP3    H136871   4.735   0.966   3.160
12310TIP3    H236872   4.746   1.010   3.015
12311TIP3   OH236873   2.150   3.260   6.430
12311TIP3    H136874   2.190   3.231   6.348
12311TIP3    H236875   2.108   3.181   6.464
12312TIP3   OH236876   0.601   5.865   5.370
12312TIP3    H136877   0.603   5.904   5.282
12312TIP3    H236878   0.619   5.772   5.355
12313TIP3   OH236879   0.245   5.267   5.165
12313TIP3    H136880   0.190   5.243   5.090
12313TIP3    H236881   0.224   5.202   5.232
12314TIP3   OH236882   2.200   1.277   0.414
12314TIP3    H136883   2.217   1.322   0.331
12314TIP3    H236884   2.284   1.237   0.437
12315TIP3   OH236885   4.446   2.115   3.648
12315TIP3    H136886   4.530   2.104   3.602
12315TIP3    H236887   4.444   2.043   3.711
12316TIP3   OH236888   1.169   6.521   5.717
12316TIP3    H136889   1.152   6.612   5.692
12316TIP3    H236890   1.108   6.504   5.789
12317TIP3   OH236891   8.039   7.855   6.730
12317TIP3    H136892   8.038   7.894   6.817
12317TIP3    H236893   8.113   7.898   6.686
12318TIP3   OH236894   5.537   4.143   2.460
12318TIP3    H136895   5.485   4.111   2.534
12318TIP3    H236896   5.628   4.136   2.490
12319TIP3   OH236897   0.092   5.331   1.839
12319TIP3    H136898   0.010   5.281   1.839
12319TIP3    H236899   0.148   5.285   1.777
12320TIP3   OH236900   0.707   0.298   2.278
12320TIP3    H136901   0.740   0.268   2.193
12320TIP3    H236902   0.623   0.339   2.257
12321TIP3   OH236903   2.134   4.766   4.943
12321TIP3    H136904   2.216   4.737   4.902
12321TIP3    H236905   2.072   4.695   4.928
12322TIP3   OH236906   3.175   2.522   6.730
12322TIP3    H136907   3.244   2.584   6.754
12322TIP3    H236908   3.094   2.567   6.752
12323TIP3   OH236909   1.295   2.203   6.078
12323TIP3    H136910   1.206   2.231   6.060
12323TIP3    H236911   1.346   2.284   6.084
12324TIP3   OH236912   3.434   3.516   6.270
12324TIP3    H136913   3.391   3.576   6.209
12324TIP3    H236914   3.434   3.562   6.354
12325TIP3   OH236915   4.993   6.398   3.887
12325TIP3    H136916   4.918   6.434   3.934
12325TIP3    H236917   4.983   6.429   3.797
12326TIP3   OH236918   1.918   4.510   1.503
12326TIP3    H136919   1.899   4.455   1.579
12326TIP3    H236920   1.882   4.595   1.525
12327TIP3   OH236921   0.918   2.617   1.114
12327TIP3    H136922   1.013   2.610   1.104
12327TIP3    H236923   0.885   2.536   1.076
12328TIP3   OH236924   4.544   3.562   5.421
12328TIP3    H136925   4.591   3.632   5.467
12328TIP3    H236926   4.581   3.563   5.333
12329TIP3   OH236927   0.615   2.482   2.373
12329TIP3    H136928   0.698   2.434   2.378
12329TIP3    H236929   0.603   2.520   2.460
12330TIP3   OH236930   4.025   4.301   0.192
12330TIP3    H136931   3.936   4.302   0.227
12330TIP3    H236932   4.037   4.213   0.158
12331TIP3   OH236933   0.063   1.368   5.190
12331TIP3    H136934   0.038   1.360   5.098
12331TIP3    H236935   0.018   1.446   5.221
12332TIP3   OH236936   1.218   1.522   1.790
12332TIP3    H136937   1.227   1.579   1.866
12332TIP3    H236938   1.304   1.523   1.749
12333TIP3   OH236939   7.168   4.241   1.331
12333TIP3    H136940   7.086   4.240   1.381
12333TIP3    H236941   7.213   4.320   1.360
12334TIP3   OH236942   1.129   1.753   2.339
12334TIP3    H136943   1.117   1.677   2.281
12334TIP3    H236944   1.127   1.716   2.427
12335TIP3   OH236945   7.678   7.220   4.430
12335TIP3    H136946   7.666   7.290   4.494
12335TIP3    H236947   7.621   7.150   4.459
12336TIP3   OH236948   0.599   6.228   2.110
12336TIP3    H136949   0.567   6.246   2.199
12336TIP3    H236950   0.530   6.176   2.070
12337TIP3   OH236951   7.167   2.049   3.423
12337TIP3    H136952   7.258   2.075   3.408
12337TIP3    H236953   7.174   1.964   3.467
12338TIP3   OH236954   5.818   5.164   3.606
12338TIP3    H136955   5.866   5.120   3.535
12338TIP3    H236956   5.886   5.185   3.670
12339TIP3   OH236957   2.467   2.661   1.105
12339TIP3    H136958   2.418   2.590   1.063
12339TIP3    H236959   2.400   2.726   1.125
12340TIP3   OH236960   0.397   0.782   1.166
12340TIP3    H136961   0.428   0.828   1.243
12340TIP3    H236962   0.471   0.785   1.104
12341TIP3   OH236963   3.122   6.279   3.710
12341TIP3    H136964   3.170   6.242   3.636
12341TIP3    H236965   3.126   6.211   3.777
12342TIP3   OH236966   3.283   5.067   0.381
12342TIP3    H136967   3.349   5.076   0.312
12342TIP3    H236968   3.245   5.154   0.390
12343TIP3   OH236969   4.403   4.416   4.908
12343TIP3    H136970   4.377   4.336   4.954
12343TIP3    H236971   4.472   4.453   4.963
12344TIP3   OH236972   3.884   7.662   1.344
12344TIP3    H136973   3.920   7.739   1.388
12344TIP3    H236974   3.936   7.589   1.378
12345TIP3   OH236975   7.788   6.352   5.495
12345TIP3    H136976   7.866   6.299   5.509
12345TIP3    H236977   7.811   6.438   5.530
12346TIP3   OH236978   0.182   2.449   0.019
12346TIP3    H136979   0.097   2.440  -0.023
12346TIP3    H236980   0.191   2.543   0.036
12347TIP3   OH236981   8.084   3.242   5.194
12347TIP3    H136982   8.078   3.310   5.127
12347TIP3    H236983   8.131   3.283   5.266
12348TIP3   OH236984   5.130   3.680   3.202
12348TIP3    H136985   5.112   3.619   3.130
12348TIP3    H236986   5.106   3.631   3.281
12349TIP3   OH236987   5.106   6.511   1.272
12349TIP3    H136988   5.105   6.577   1.341
12349TIP3    H236989   5.138   6.557   1.194
12350TIP3   OH236990   6.437   3.247   1.405
12350TIP3    H136991   6.363   3.288   1.360
12350TIP3    H236992   6.421   3.153   1.397
12351TIP3   OH236993   7.629   3.731   0.312
12351TIP3    H136994   7.631   3.745   0.217
12351TIP3    H236995   7.690   3.659   0.327
12352TIP3   OH236996   4.007   6.491   0.806
12352TIP3    H136997   3.928   6.438   0.814
12352TIP3    H236998   3.974   6.580   0.790
12353TIP3   OH236999   3.043   7.398   3.476
12353TIP3    H137000   2.965   7.350   3.447
12353TIP3    H237001   3.028   7.488   3.448
12354TIP3   OH237002   0.015   2.613   2.094
12354TIP3    H137003   0.080   2.607   2.024
12354TIP3    H237004   0.039   2.692   2.142
12355TIP3   OH237005   1.994   0.620   0.731
12355TIP3    H137006   2.030   0.608   0.819
12355TIP3    H237007   1.916   0.564   0.729
12356TIP3   OH237008   2.570   4.790   6.350
12356TIP3    H137009   2.592   4.771   6.259
12356TIP3    H237010   2.592   4.882   6.362
12357TIP3   OH237011   8.267   1.874   2.287
12357TIP3    H137012   8.351   1.850   2.327
12357TIP3    H237013   8.290   1.900   2.198
12358TIP3   OH237014   7.256   0.419   6.315
12358TIP3    H137015   7.179   0.364   6.330
12358TIP3    H237016   7.270   0.416   6.221
12359TIP3   OH237017   3.508   3.045   4.699
12359TIP3    H137018   3.527   3.137   4.681
12359TIP3    H237019   3.452   3.047   4.777
12360TIP3   OH237020   5.144   3.489   1.953
12360TIP3    H137021   5.130   3.576   1.916
12360TIP3    H237022   5.199   3.504   2.030
12361TIP3   OH237023   0.694   2.362   0.594
12361TIP3    H137024   0.780   2.404   0.587
12361TIP3    H237025   0.651   2.408   0.666
12362TIP3   OH237026   0.793   3.956   4.071
12362TIP3    H137027   0.714   3.923   4.027
12362TIP3    H237028   0.762   4.034   4.118
12363TIP3   OH237029   4.956   1.504   5.911
12363TIP3    H137030   4.899   1.544   5.845
12363TIP3    H237031   4.941   1.554   5.990
12364TIP3   OH237032   4.452   7.723   5.551
12364TIP3    H137033   4.476   7.632   5.567
12364TIP3    H237034   4.360   7.719   5.526
12365TIP3   OH237035   1.411   0.585   2.404
12365TIP3    H137036   1.445   0.568   2.317
12365TIP3    H237037   1.352   0.660   2.393
12366TIP3   OH237038   1.924   5.872   2.122
12366TIP3    H137039   1.889   5.890   2.034
12366TIP3    H237040   2.019   5.874   2.110
12367TIP3   OH237041   5.728   1.803   2.778
12367TIP3    H137042   5.693   1.864   2.713
12367TIP3    H237043   5.822   1.821   2.780
12368TIP3   OH237044   2.435   6.586   3.518
12368TIP3    H137045   2.399   6.590   3.606
12368TIP3    H237046   2.388   6.653   3.469
12369TIP3   OH237047   0.525   5.460   2.952
12369TIP3    H137048   0.562   5.513   2.881
12369TIP3    H237049   0.481   5.388   2.908
12370TIP3   OH237050   1.286   3.830   5.406
12370TIP3    H137051   1.223   3.788   5.348
12370TIP3    H237052   1.246   3.825   5.493
12371TIP3   OH237053   2.227   3.663   1.300
12371TIP3    H137054   2.142   3.622   1.282
12371TIP3    H237055   2.273   3.600   1.356
12372TIP3   OH237056   6.811   7.037   6.481
12372TIP3    H137057   6.735   7.071   6.529
12372TIP3    H237058   6.791   6.944   6.467
12373TIP3   OH237059   7.790   5.485   0.092
12373TIP3    H137060   7.793   5.425   0.017
12373TIP3    H237061   7.745   5.562   0.058
12374TIP3   OH237062   2.648   6.677   5.758
12374TIP3    H137063   2.670   6.770   5.757
12374TIP3    H237064   2.726   6.633   5.725
12375TIP3   OH237065   3.614   1.557   1.032
12375TIP3    H137066   3.642   1.593   0.948
12375TIP3    H237067   3.532   1.602   1.052
12376TIP3   OH237068   6.287   5.491   6.116
12376TIP3    H137069   6.331   5.413   6.082
12376TIP3    H237070   6.250   5.464   6.200
12377TIP3   OH237071   7.726   1.832   2.189
12377TIP3    H137072   7.718   1.821   2.284
12377TIP3    H237073   7.676   1.911   2.170
12378TIP3   OH237074   3.698   1.438   4.737
12378TIP3    H137075   3.722   1.527   4.764
12378TIP3    H237076   3.779   1.400   4.703
12379TIP3   OH237077   5.783   6.520   0.672
12379TIP3    H137078   5.711   6.544   0.731
12379TIP3    H237079   5.739   6.492   0.591
12380TIP3   OH237080   5.958   5.741   0.070
12380TIP3    H137081   5.944   5.766  -0.021
12380TIP3    H237082   5.880   5.771   0.116
12381TIP3   OH237083   7.808   2.790   6.628
12381TIP3    H137084   7.754   2.797   6.706
12381TIP3    H237085   7.892   2.755   6.659
12382TIP3   OH237086   2.815   0.624   5.754
12382TIP3    H137087   2.752   0.697   5.758
12382TIP3    H237088   2.859   0.625   5.839
12383TIP3   OH237089   6.442   0.373   3.795
12383TIP3    H137090   6.521   0.380   3.849
12383TIP3    H237091   6.456   0.295   3.742
12384TIP3   OH237092   5.492   4.165   5.389
12384TIP3    H137093   5.490   4.198   5.299
12384TIP3    H237094   5.579   4.126   5.399
12385TIP3   OH237095   1.521   0.178   2.320
12385TIP3    H137096   1.491   0.223   2.399
12385TIP3    H237097   1.611   0.206   2.309
12386TIP3   OH237098   5.205   1.396   0.817
12386TIP3    H137099   5.136   1.448   0.858
12386TIP3    H237100   5.159   1.340   0.754
12387TIP3   OH237101   8.062   7.140   3.040
12387TIP3    H137102   8.005   7.168   2.968
12387TIP3    H237103   8.002   7.128   3.114
12388TIP3   OH237104   0.844   2.216   3.800
12388TIP3    H137105   0.910   2.200   3.732
12388TIP3    H237106   0.891   2.264   3.868
12389TIP3   OH237107   5.364   2.028   1.582
12389TIP3    H137108   5.354   2.074   1.499
12389TIP3    H237109   5.396   2.095   1.643
12390TIP3   OH237110   0.255   1.258   0.571
12390TIP3    H137111   0.275   1.296   0.657
12390TIP3    H237112   0.178   1.202   0.587
12391TIP3   OH237113   1.025   4.988   4.435
12391TIP3    H137114   1.090   4.948   4.493
12391TIP3    H237115   0.945   4.937   4.451
12392TIP3   OH237116   1.565   1.281   4.572
12392TIP3    H137117   1.643   1.227   4.580
12392TIP3    H237118   1.583   1.338   4.497
12393TIP3   OH237119   1.940   4.034   5.974
12393TIP3    H137120   1.943   3.971   6.045
12393TIP3    H237121   2.026   4.028   5.932
12394TIP3   OH237122   1.061   5.163   4.102
12394TIP3    H137123   1.103   5.110   4.035
12394TIP3    H237124   0.993   5.107   4.138
12395TIP3   OH237125   3.575   0.221   6.569
12395TIP3    H137126   3.667   0.240   6.588
12395TIP3    H237127   3.537   0.196   6.653
12396TIP3   OH237128   6.352   0.798   5.301
12396TIP3    H137129   6.446   0.785   5.309
12396TIP3    H237130   6.342   0.856   5.225
12397TIP3   OH237131   1.189   1.279   0.616
12397TIP3    H137132   1.100   1.304   0.642
12397TIP3    H237133   1.233   1.362   0.597
12398TIP3   OH237134   3.632   1.131   5.888
12398TIP3    H137135   3.721   1.155   5.913
12398TIP3    H237136   3.596   1.211   5.849
12399TIP3   OH237137   7.114   5.519   4.891
12399TIP3    H137138   7.019   5.527   4.892
12399TIP3    H237139   7.145   5.595   4.842
12400TIP3   OH237140   4.432   7.052   0.355
12400TIP3    H137141   4.371   6.987   0.390
12400TIP3    H237142   4.517   7.025   0.390
12401TIP3   OH237143   7.036   3.440   5.204
12401TIP3    H137144   7.030   3.429   5.299
12401TIP3    H237145   6.973   3.510   5.184
12402TIP3   OH237146   0.192   5.063   1.981
12402TIP3    H137147   0.234   5.136   1.935
12402TIP3    H237148   0.265   5.010   2.013
12403TIP3   OH237149   0.615   7.371   3.959
12403TIP3    H137150   0.549   7.303   3.946
12403TIP3    H237151   0.565   7.449   3.982
12404TIP3   OH237152   1.296   3.363   4.805
12404TIP3    H137153   1.294   3.271   4.778
12404TIP3    H237154   1.376   3.371   4.857
12405TIP3   OH237155   7.413   6.910   6.256
12405TIP3    H137156   7.382   6.979   6.197
12405TIP3    H237157   7.421   6.953   6.341
12406TIP3   OH237158   5.557   3.618   0.327
12406TIP3    H137159   5.597   3.634   0.413
12406TIP3    H237160   5.512   3.535   0.336
12407TIP3   OH237161   1.018   5.223   4.658
12407TIP3    H137162   0.985   5.174   4.582
12407TIP3    H237163   0.954   5.206   4.727
12408TIP3   OH237164   1.432   3.332   2.141
12408TIP3    H137165   1.364   3.308   2.079
12408TIP3    H237166   1.468   3.413   2.107
12409TIP3   OH237167   5.125   2.510   3.684
12409TIP3    H137168   5.180   2.446   3.639
12409TIP3    H237169   5.121   2.585   3.624
12410TIP3   OH237170   1.558   0.853   1.656
12410TIP3    H137171   1.610   0.934   1.662
12410TIP3    H237172   1.513   0.861   1.571
12411TIP3   OH237173   3.563   0.109   3.787
12411TIP3    H137174   3.578   0.020   3.820
12411TIP3    H237175   3.605   0.166   3.852
12412TIP3   OH237176   6.172   3.230   3.210
12412TIP3    H137177   6.098   3.285   3.234
12412TIP3    H237178   6.194   3.183   3.290
12413TIP3   OH237179   7.559   3.848   4.185
12413TIP3    H137180   7.562   3.766   4.235
12413TIP3    H237181   7.549   3.821   4.094
12414TIP3   OH237182   8.181   7.197   4.697
12414TIP3    H137183   8.211   7.115   4.736
12414TIP3    H237184   8.104   7.173   4.645
12415TIP3   OH237185   0.311   3.847   1.350
12415TIP3    H137186   0.333   3.844   1.257
12415TIP3    H237187   0.217   3.828   1.353
12416TIP3   OH237188   7.944   4.798   6.060
12416TIP3    H137189   7.859   4.793   6.105
12416TIP3    H237190   7.921   4.797   5.967
12417TIP3   OH237191   4.843   2.404   0.511
12417TIP3    H137192   4.835   2.459   0.590
12417TIP3    H237193   4.925   2.431   0.471
12418TIP3   OH237194   5.424   7.595   3.183
12418TIP3    H137195   5.447   7.685   3.205
12418TIP3    H237196   5.386   7.559   3.263
12419TIP3   OH237197   4.187   7.529   6.392
12419TIP3    H137198   4.268   7.570   6.423
12419TIP3    H237199   4.168   7.462   6.457
12420TIP3   OH237200   5.100   3.598   2.251
12420TIP3    H137201   5.058   3.679   2.223
12420TIP3    H237202   5.103   3.605   2.347
12421TIP3   OH237203   8.074   0.480   1.649
12421TIP3    H137204   8.137   0.453   1.582
12421TIP3    H237205   8.047   0.398   1.691
12422TIP3   OH237206   4.194   3.250   0.969
12422TIP3    H137207   4.285   3.262   0.942
12422TIP3    H237208   4.144   3.262   0.888
12423TIP3   OH237209   3.311   4.529   1.849
12423TIP3    H137210   3.282   4.448   1.807
12423TIP3    H237211   3.237   4.589   1.839
12424TIP3   OH237212   5.872   7.005   4.542
12424TIP3    H137213   5.921   6.924   4.554
12424TIP3    H237214   5.781   6.978   4.536
12425TIP3   OH237215   0.791   7.886   1.183
12425TIP3    H137216   0.713   7.905   1.131
12425TIP3    H237217   0.829   7.972   1.201
12426TIP3   OH237218   6.744   2.484   1.997
12426TIP3    H137219   6.819   2.437   1.960
12426TIP3    H237220   6.779   2.529   2.073
12427TIP3   OH237221   4.215   5.032   2.558
12427TIP3    H137222   4.275   4.966   2.524
12427TIP3    H237223   4.179   4.993   2.638
12428TIP3   OH237224   1.316   5.777   4.319
12428TIP3    H137225   1.277   5.772   4.232
12428TIP3    H237226   1.410   5.766   4.305
12429TIP3   OH237227   5.152   0.461   6.038
12429TIP3    H137228   5.110   0.435   6.120
12429TIP3    H237229   5.238   0.492   6.065
12430TIP3   OH237230   7.238   7.520   3.490
12430TIP3    H137231   7.295   7.466   3.434
12430TIP3    H237232   7.151   7.481   3.481
12431TIP3   OH237233   4.783   2.511   3.908
12431TIP3    H137234   4.871   2.519   3.944
12431TIP3    H237235   4.759   2.420   3.922
12432TIP3   OH237236   1.360   6.152   2.960
12432TIP3    H137237   1.345   6.243   2.934
12432TIP3    H237238   1.358   6.153   3.055
12433TIP3   OH237239   6.654   6.787   0.778
12433TIP3    H137240   6.706   6.841   0.719
12433TIP3    H237241   6.600   6.733   0.721
12434TIP3   OH237242   6.635   3.993   5.590
12434TIP3    H137243   6.673   3.923   5.643
12434TIP3    H237244   6.640   3.960   5.500
12435TIP3   OH237245   3.893   6.589   5.213
12435TIP3    H137246   3.862   6.563   5.127
12435TIP3    H237247   3.955   6.660   5.196
12436TIP3   OH237248   0.751   0.449   4.221
12436TIP3    H137249   0.815   0.379   4.232
12436TIP3    H237250   0.711   0.459   4.307
12437TIP3   OH237251   4.496   1.216   6.447
12437TIP3    H137252   4.525   1.142   6.501
12437TIP3    H237253   4.568   1.278   6.450
12438TIP3   OH237254   6.118   3.031   0.383
12438TIP3    H137255   6.198   3.007   0.428
12438TIP3    H237256   6.065   2.951   0.383
12439TIP3   OH237257   7.373   5.875   0.711
12439TIP3    H137258   7.417   5.917   0.638
12439TIP3    H237259   7.323   5.945   0.753
12440TIP3   OH237260   5.754   3.703   6.079
12440TIP3    H137261   5.695   3.713   6.154
12440TIP3    H237262   5.796   3.788   6.071
12441TIP3   OH237263   4.571   4.091   3.480
12441TIP3    H137264   4.561   4.066   3.388
12441TIP3    H237265   4.660   4.127   3.485
12442TIP3   OH237266   7.504   6.050   6.315
12442TIP3    H137267   7.444   6.008   6.376
12442TIP3    H237268   7.549   5.977   6.272
12443TIP3   OH237269   5.527   4.810   5.187
12443TIP3    H137270   5.524   4.890   5.135
12443TIP3    H237271   5.570   4.835   5.269
12444TIP3   OH237272   5.583   6.247   6.687
12444TIP3    H137273   5.515   6.209   6.743
12444TIP3    H237274   5.553   6.337   6.672
12445TIP3   OH237275   7.679   0.491   1.987
12445TIP3    H137276   7.636   0.573   1.964
12445TIP3    H237277   7.667   0.483   2.081
12446TIP3   OH237278   2.437   4.029   3.407
12446TIP3    H137279   2.408   4.119   3.392
12446TIP3    H237280   2.506   4.015   3.343
12447TIP3   OH237281   7.037   7.170   5.831
12447TIP3    H137282   6.998   7.151   5.746
12447TIP3    H237283   7.050   7.265   5.831
12448TIP3   OH237284   6.863   2.061   5.444
12448TIP3    H137285   6.833   2.085   5.356
12448TIP3    H237286   6.801   2.103   5.503
12449TIP3   OH237287   3.172   3.312   4.380
12449TIP3    H137288   3.237   3.242   4.370
12449TIP3    H237289   3.160   3.319   4.475
12450TIP3   OH237290   1.564   3.148   1.667
12450TIP3    H137291   1.597   3.177   1.582
12450TIP3    H237292   1.481   3.195   1.678
12451TIP3   OH237293   0.603   4.618   6.713
12451TIP3    H137294   0.521   4.608   6.761
12451TIP3    H237295   0.577   4.640   6.624
12452TIP3   OH237296   4.325   3.561   0.347
12452TIP3    H137297   4.276   3.616   0.286
12452TIP3    H237298   4.298   3.472   0.326
12453TIP3   OH237299   7.230   0.324   3.831
12453TIP3    H137300   7.319   0.336   3.799
12453TIP3    H237301   7.188   0.270   3.764
12454TIP3   OH237302   7.390   7.705   0.218
12454TIP3    H137303   7.413   7.796   0.236
12454TIP3    H237304   7.311   7.711   0.165
12455TIP3   OH237305   6.177   5.547   2.920
12455TIP3    H137306   6.258   5.596   2.927
12455TIP3    H237307   6.150   5.557   2.828
12456TIP3   OH237308   3.766   6.997   5.573
12456TIP3    H137309   3.696   7.031   5.517
12456TIP3    H237310   3.720   6.958   5.648
12457TIP3   OH237311   6.290   3.374   1.239
12457TIP3    H137312   6.269   3.425   1.161
12457TIP3    H237313   6.212   3.320   1.253
12458TIP3   OH237314   7.565   7.039   4.674
12458TIP3    H137315   7.637   7.003   4.623
12458TIP3    H237316   7.569   6.991   4.757
12459TIP3   OH237317   1.169   5.960   2.094
12459TIP3    H137318   1.234   6.024   2.064
12459TIP3    H237319   1.168   5.971   2.189
12460TIP3   OH237320   0.128   7.155   5.900
12460TIP3    H137321   0.054   7.193   5.851
12460TIP3    H237322   0.154   7.223   5.961
12461TIP3   OH237323   7.662   3.099   4.436
12461TIP3    H137324   7.739   3.087   4.492
12461TIP3    H237325   7.610   3.020   4.451
12462TIP3   OH237326   7.905   1.365   6.237
12462TIP3    H137327   7.984   1.361   6.182
12462TIP3    H237328   7.860   1.445   6.208
12463TIP3   OH237329   7.015   6.900   6.009
12463TIP3    H137330   7.055   6.967   6.064
12463TIP3    H237331   6.969   6.949   5.940
12464TIP3   OH237332   3.412   3.516   0.345
12464TIP3    H137333   3.370   3.586   0.395
12464TIP3    H237334   3.405   3.439   0.402
12465TIP3   OH237335   0.404   0.899   4.254
12465TIP3    H137336   0.347   0.906   4.331
12465TIP3    H237337   0.451   0.983   4.251
12466TIP3   OH237338   7.374   0.869   1.640
12466TIP3    H137339   7.371   0.947   1.584
12466TIP3    H237340   7.374   0.904   1.729
12467TIP3   OH237341   1.335   1.779   6.423
12467TIP3    H137342   1.277   1.706   6.403
12467TIP3    H237343   1.307   1.848   6.363
12468TIP3   OH237344   1.797   0.898   3.461
12468TIP3    H137345   1.705   0.920   3.471
12468TIP3    H237346   1.815   0.912   3.368
12469TIP3   OH237347   0.444   3.492   1.330
12469TIP3    H137348   0.489   3.408   1.324
12469TIP3    H237349   0.493   3.541   1.396
12470TIP3   OH237350   6.737   7.140   0.536
12470TIP3    H137351   6.762   7.202   0.468
12470TIP3    H237352   6.654   7.103   0.505
12471TIP3   OH237353   2.906   5.693   4.235
12471TIP3    H137354   2.939   5.607   4.261
12471TIP3    H237355   2.843   5.716   4.303
12472TIP3   OH237356   0.508   6.068   1.030
12472TIP3    H137357   0.423   6.108   1.048
12472TIP3    H237358   0.495   6.018   0.949
12473TIP3   OH237359   2.406   2.419   4.502
12473TIP3    H137360   2.367   2.377   4.579
12473TIP3    H237361   2.432   2.505   4.533
12474TIP3   OH237362   4.285   7.078   5.358
12474TIP3    H137363   4.292   6.987   5.386
12474TIP3    H237364   4.326   7.080   5.272
12475TIP3   OH237365   0.701   4.494   4.300
12475TIP3    H137366   0.771   4.555   4.277
12475TIP3    H237367   0.638   4.547   4.350
12476TIP3   OH237368   5.026   3.403   3.833
12476TIP3    H137369   4.978   3.329   3.870
12476TIP3    H237370   4.959   3.461   3.799
12477TIP3   OH237371   4.606   3.864   2.516
12477TIP3    H137372   4.517   3.830   2.519
12477TIP3    H237373   4.638   3.857   2.606
12478TIP3   OH237374   5.083   2.519   5.857
12478TIP3    H137375   5.086   2.583   5.786
12478TIP3    H237376   5.117   2.566   5.933
12479TIP3   OH237377   1.214   6.894   0.975
12479TIP3    H137378   1.244   6.985   0.965
12479TIP3    H237379   1.286   6.850   1.021
12480TIP3   OH237380   3.847   5.368   4.858
12480TIP3    H137381   3.828   5.416   4.939
12480TIP3    H237382   3.768   5.380   4.804
12481TIP3   OH237383   5.850   3.152   5.649
12481TIP3    H137384   5.788   3.163   5.577
12481TIP3    H237385   5.934   3.133   5.606
12482TIP3   OH237386   3.986   3.191   3.637
12482TIP3    H137387   3.940   3.160   3.715
12482TIP3    H237388   3.923   3.180   3.566
12483TIP3   OH237389   8.429   3.643   2.908
12483TIP3    H137390   8.364   3.574   2.895
12483TIP3    H237391   8.511   3.605   2.876
12484TIP3   OH237392   6.940   2.026   0.688
12484TIP3    H137393   7.012   2.085   0.668
12484TIP3    H237394   6.977   1.965   0.752
12485TIP3   OH237395   2.168   1.577   2.029
12485TIP3    H137396   2.081   1.562   1.993
12485TIP3    H237397   2.223   1.589   1.951
12486TIP3   OH237398   6.056   7.670   4.983
12486TIP3    H137399   6.078   7.581   5.011
12486TIP3    H237400   6.095   7.678   4.896
12487TIP3   OH237401   1.605   2.133   5.974
12487TIP3    H137402   1.598   2.227   5.992
12487TIP3    H237403   1.649   2.129   5.889
12488TIP3   OH237404   3.231   2.100   6.555
12488TIP3    H137405   3.303   2.154   6.523
12488TIP3    H237406   3.172   2.090   6.480
12489TIP3   OH237407   1.798   1.493   2.548
12489TIP3    H137408   1.841   1.409   2.534
12489TIP3    H237409   1.843   1.531   2.624
12490TIP3   OH237410   0.389   5.684   5.808
12490TIP3    H137411   0.386   5.748   5.738
12490TIP3    H237412   0.298   5.661   5.824
12491TIP3   OH237413   5.269   5.897   4.690
12491TIP3    H137414   5.291   5.882   4.598
12491TIP3    H237415   5.301   5.986   4.708
12492TIP3   OH237416   0.795   1.988   5.852
12492TIP3    H137417   0.736   1.969   5.780
12492TIP3    H237418   0.738   2.017   5.923
12493TIP3   OH237419   6.937   1.643   1.371
12493TIP3    H137420   6.862   1.599   1.332
12493TIP3    H237421   7.013   1.602   1.331
12494TIP3   OH237422   5.816   4.460   0.086
12494TIP3    H137423   5.743   4.436   0.028
12494TIP3    H237424   5.777   4.464   0.173
12495TIP3   OH237425   4.243   3.417   4.240
12495TIP3    H137426   4.199   3.332   4.236
12495TIP3    H237427   4.327   3.403   4.197
12496TIP3   OH237428   6.778   4.539   1.282
12496TIP3    H137429   6.873   4.535   1.267
12496TIP3    H237430   6.744   4.460   1.242
12497TIP3   OH237431   6.510   6.640   5.331
12497TIP3    H137432   6.454   6.703   5.375
12497TIP3    H237433   6.519   6.568   5.393
12498TIP3   OH237434   5.843   3.659   4.571
12498TIP3    H137435   5.887   3.602   4.508
12498TIP3    H237436   5.763   3.687   4.526
12499TIP3   OH237437   7.402   6.353   6.690
12499TIP3    H137438   7.332   6.412   6.717
12499TIP3    H237439   7.409   6.289   6.761
12500TIP3   OH237440   5.262   3.207   2.251
12500TIP3    H137441   5.313   3.126   2.245
12500TIP3    H237442   5.194   3.187   2.316
12501TIP3   OH237443   4.648   2.680   0.079
12501TIP3    H137444   4.641   2.737   0.002
12501TIP3    H237445   4.576   2.618   0.068
12502TIP3   OH237446   0.555   4.292   2.765
12502TIP3    H137447   0.530   4.257   2.680
12502TIP3    H237448   0.473   4.324   2.803
12503TIP3   OH237449   8.373   7.367   4.614
12503TIP3    H137450   8.312   7.304   4.652
12503TIP3    H237451   8.426   7.397   4.689
12504TIP3   OH237452   5.150   4.682   0.393
12504TIP3    H137453   5.122   4.621   0.462
12504TIP3    H237454   5.225   4.728   0.430
12505TIP3   OH237455   3.261   3.425   2.220
12505TIP3    H137456   3.247   3.518   2.238
12505TIP3    H237457   3.246   3.416   2.126
12506TIP3   OH237458   1.138   2.293   6.708
12506TIP3    H137459   1.166   2.230   6.641
12506TIP3    H237460   1.170   2.378   6.676
12507TIP3   OH237461   3.708   5.627   2.528
12507TIP3    H137462   3.756   5.545   2.530
12507TIP3    H237463   3.651   5.620   2.452
12508TIP3   OH237464   3.830   3.927   5.832
12508TIP3    H137465   3.779   4.008   5.844
12508TIP3    H237466   3.801   3.869   5.902
12509TIP3   OH237467   4.098   4.940   2.783
12509TIP3    H137468   4.011   4.957   2.819
12509TIP3    H237469   4.154   4.930   2.860
12510TIP3   OH237470   4.028   1.568   2.370
12510TIP3    H137471   3.994   1.539   2.286
12510TIP3    H237472   3.969   1.639   2.397
12511TIP3   OH237473   2.709   4.938   0.545
12511TIP3    H137474   2.632   4.994   0.556
12511TIP3    H237475   2.753   4.973   0.468
12512TIP3   OH237476   6.246   6.694   0.905
12512TIP3    H137477   6.161   6.652   0.892
12512TIP3    H237478   6.274   6.720   0.817
12513TIP3   OH237479   6.743   0.520   0.798
12513TIP3    H137480   6.812   0.517   0.732
12513TIP3    H237481   6.787   0.552   0.877
12514TIP3   OH237482   7.438   1.387   3.934
12514TIP3    H137483   7.416   1.294   3.935
12514TIP3    H237484   7.435   1.414   4.025
12515TIP3   OH237485   6.957   2.420   0.405
12515TIP3    H137486   7.050   2.398   0.411
12515TIP3    H237487   6.933   2.399   0.314
12516TIP3   OH237488   7.522   5.900   0.274
12516TIP3    H137489   7.499   5.932   0.186
12516TIP3    H237490   7.475   5.958   0.333
12517TIP3   OH237491   2.294   5.341   6.586
12517TIP3    H137492   2.306   5.425   6.543
12517TIP3    H237493   2.215   5.352   6.639
12518TIP3   OH237494   0.696   6.845   2.249
12518TIP3    H137495   0.747   6.912   2.295
12518TIP3    H237496   0.606   6.857   2.281
12519TIP3   OH237497   2.845   2.624   6.244
12519TIP3    H137498   2.771   2.575   6.208
12519TIP3    H237499   2.846   2.600   6.337
12520TIP3   OH237500   7.634   6.560   2.076
12520TIP3    H137501   7.578   6.536   2.150
12520TIP3    H237502   7.580   6.615   2.020
12521TIP3   OH237503   0.482   7.596   5.963
12521TIP3    H137504   0.523   7.652   6.029
12521TIP3    H237505   0.530   7.513   5.968
12522TIP3   OH237506   5.509   3.371   3.334
12522TIP3    H137507   5.421   3.332   3.329
12522TIP3    H237508   5.511   3.433   3.261
12523TIP3   OH237509   3.236   1.512   0.683
12523TIP3    H137510   3.223   1.554   0.768
12523TIP3    H237511   3.173   1.440   0.682
12524TIP3   OH237512   4.654   1.574   6.647
12524TIP3    H137513   4.696   1.653   6.683
12524TIP3    H237514   4.632   1.522   6.724
12525TIP3   OH237515   6.663   3.684   3.608
12525TIP3    H137516   6.753   3.716   3.615
12525TIP3    H237517   6.612   3.762   3.587
12526TIP3   OH237518   1.888   4.118   6.799
12526TIP3    H137519   1.958   4.150   6.742
12526TIP3    H237520   1.914   4.145   6.887
12527TIP3   OH237521   0.989   5.340   1.659
12527TIP3    H137522   1.012   5.402   1.589
12527TIP3    H237523   0.961   5.396   1.732
12528TIP3   OH237524   2.473   5.488   5.826
12528TIP3    H137525   2.444   5.549   5.894
12528TIP3    H237526   2.530   5.540   5.770
12529TIP3   OH237527   3.912   0.731   1.009
12529TIP3    H137528   3.871   0.728   0.923
12529TIP3    H237529   3.839   0.722   1.071
12530TIP3   OH237530   5.708   6.331   2.085
12530TIP3    H137531   5.681   6.373   2.002
12530TIP3    H237532   5.663   6.382   2.152
12531TIP3   OH237533   2.004   1.483   5.045
12531TIP3    H137534   2.028   1.519   5.131
12531TIP3    H237535   2.056   1.402   5.039
12532TIP3   OH237536   0.090   0.923   3.064
12532TIP3    H137537   0.030   0.964   3.127
12532TIP3    H237538   0.177   0.948   3.094
12533TIP3   OH237539   2.449   3.107   3.836
12533TIP3    H137540   2.356   3.127   3.829
12533TIP3    H237541   2.489   3.154   3.763
12534TIP3   OH237542   5.588   2.884   2.134
12534TIP3    H137543   5.627   2.966   2.165
12534TIP3    H237544   5.516   2.912   2.078
12535TIP3   OH237545   2.703   1.994   2.957
12535TIP3    H137546   2.709   2.080   2.998
12535TIP3    H237547   2.634   2.004   2.891
12536TIP3   OH237548   4.919   6.102   4.390
12536TIP3    H137549   4.914   6.121   4.296
12536TIP3    H237550   5.007   6.129   4.416
12537TIP3   OH237551   7.403   6.031   6.681
12537TIP3    H137552   7.377   5.942   6.703
12537TIP3    H237553   7.473   6.051   6.743
12538TIP3   OH237554   0.002   1.034   4.341
12538TIP3    H137555   0.041   1.027   4.254
12538TIP3    H237556   0.075   1.051   4.400
12539TIP3   OH237557   5.708   0.031   1.299
12539TIP3    H137558   5.708  -0.018   1.217
12539TIP3    H237559   5.741   0.118   1.275
12540TIP3   OH237560   5.031   2.491   3.091
12540TIP3    H137561   5.093   2.419   3.107
12540TIP3    H237562   5.080   2.554   3.038
12541TIP3   OH237563   1.693   2.644   2.468
12541TIP3    H137564   1.616   2.592   2.492
12541TIP3    H237565   1.659   2.730   2.445
12542TIP3   OH237566   5.913   1.564   6.354
12542TIP3    H137567   5.980   1.526   6.411
12542TIP3    H237568   5.830   1.540   6.395
12543TIP3   OH237569   1.581   0.242   0.282
12543TIP3    H137570   1.653   0.218   0.223
12543TIP3    H237571   1.560   0.332   0.258
12544TIP3   OH237572   0.466   1.824   2.284
12544TIP3    H137573   0.447   1.742   2.237
12544TIP3    H237574   0.552   1.850   2.251
12545TIP3   OH237575   5.716   6.917   1.329
12545TIP3    H137576   5.655   6.844   1.337
12545TIP3    H237577   5.672   6.991   1.372
12546TIP3   OH237578   0.777   2.371   4.652
12546TIP3    H137579   0.829   2.315   4.710
12546TIP3    H237580   0.818   2.362   4.567
12547TIP3   OH237581   3.084  -0.024   3.584
12547TIP3    H137582   3.029  -0.015   3.507
12547TIP3    H237583   3.057  -0.107   3.623
12548TIP3   OH237584   2.216   4.464   4.693
12548TIP3    H137585   2.232   4.414   4.613
12548TIP3    H237586   2.184   4.549   4.662
12549TIP3   OH237587   3.675   6.979   1.227
12549TIP3    H137588   3.703   6.991   1.318
12549TIP3    H237589   3.739   7.029   1.176
12550TIP3   OH237590   7.938   1.069   2.301
12550TIP3    H137591   7.988   1.018   2.366
12550TIP3    H237592   7.941   1.159   2.334
12551TIP3   OH237593   4.114   0.025   5.018
12551TIP3    H137594   4.160   0.045   5.099
12551TIP3    H237595   4.106   0.109   4.973
12552TIP3   OH237596   1.222   5.311   2.475
12552TIP3    H137597   1.186   5.329   2.561
12552TIP3    H237598   1.311   5.280   2.492
12553TIP3   OH237599   0.771   7.344   5.762
12553TIP3    H137600   0.833   7.417   5.758
12553TIP3    H237601   0.807   7.285   5.827
12554TIP3   OH237602   0.639   3.883   5.291
12554TIP3    H137603   0.654   3.942   5.217
12554TIP3    H237604   0.563   3.831   5.264
12555TIP3   OH237605   7.949   4.013   1.265
12555TIP3    H137606   8.011   3.947   1.297
12555TIP3    H237607   7.997   4.058   1.195
12556TIP3   OH237608   6.759   6.297   2.297
12556TIP3    H137609   6.813   6.340   2.363
12556TIP3    H237610   6.757   6.359   2.224
12557TIP3   OH237611   1.406   0.455   4.520
12557TIP3    H137612   1.337   0.400   4.481
12557TIP3    H237613   1.359   0.512   4.581
12558TIP3   OH237614   7.352   4.394   6.294
12558TIP3    H137615   7.272   4.385   6.242
12558TIP3    H237616   7.333   4.466   6.355
12559TIP3   OH237617   2.521   3.221   0.445
12559TIP3    H137618   2.455   3.227   0.376
12559TIP3    H237619   2.597   3.182   0.402
12560TIP3   OH237620   7.163   3.660   1.547
12560TIP3    H137621   7.119   3.590   1.498
12560TIP3    H237622   7.256   3.638   1.543
12561TIP3   OH237623   2.159   6.745   5.592
12561TIP3    H137624   2.230   6.794   5.551
12561TIP3    H237625   2.191   6.725   5.680
12562TIP3   OH237626   4.874   1.305   5.622
12562TIP3    H137627   4.964   1.292   5.653
12562TIP3    H237628   4.820   1.275   5.696
12563TIP3   OH237629   1.076   5.509   4.729
12563TIP3    H137630   1.047   5.421   4.703
12563TIP3    H237631   1.147   5.494   4.791
12564TIP3   OH237632   4.450   5.523   6.037
12564TIP3    H137633   4.451   5.492   6.128
12564TIP3    H237634   4.527   5.579   6.030
12565TIP3   OH237635   5.822   2.038   6.632
12565TIP3    H137636   5.776   2.122   6.635
12565TIP3    H237637   5.787   1.989   6.707
12566TIP3   OH237638   4.508   4.132   1.746
12566TIP3    H137639   4.564   4.188   1.799
12566TIP3    H237640   4.446   4.192   1.705
12567TIP3   OH237641   1.857   5.068   6.096
12567TIP3    H137642   1.851   4.974   6.081
12567TIP3    H237643   1.942   5.093   6.061
12568TIP3   OH237644   1.491   0.136   5.882
12568TIP3    H137645   1.480   0.212   5.939
12568TIP3    H237646   1.578   0.102   5.904
12569TIP3   OH237647   5.209   3.316   5.514
12569TIP3    H137648   5.226   3.364   5.595
12569TIP3    H237649   5.116   3.331   5.495
12570TIP3   OH237650   7.825   1.462   4.063
12570TIP3    H137651   7.765   1.454   3.990
12570TIP3    H237652   7.910   1.482   4.023
12571TIP3   OH237653   2.085   1.013   4.297
12571TIP3    H137654   2.000   1.042   4.264
12571TIP3    H237655   2.126   0.970   4.222
12572TIP3   OH237656   6.747   0.371   2.807
12572TIP3    H137657   6.700   0.391   2.888
12572TIP3    H237658   6.830   0.335   2.836
12573TIP3   OH237659   1.541   6.252   0.358
12573TIP3    H137660   1.475   6.208   0.411
12573TIP3    H237661   1.540   6.205   0.275
12574TIP3   OH237662   2.437   5.766   0.931
12574TIP3    H137663   2.501   5.817   0.982
12574TIP3    H237664   2.378   5.729   0.997
12575TIP3   OH237665   5.921   5.380   4.401
12575TIP3    H137666   5.959   5.295   4.419
12575TIP3    H237667   5.847   5.387   4.461
12576TIP3   OH237668   7.303   7.080   5.747
12576TIP3    H137669   7.239   7.122   5.804
12576TIP3    H237670   7.311   7.138   5.671
12577TIP3   OH237671   4.329   4.893   4.144
12577TIP3    H137672   4.382   4.813   4.148
12577TIP3    H237673   4.368   4.950   4.211
12578TIP3   OH237674   8.408   4.438   4.577
12578TIP3    H137675   8.351   4.512   4.599
12578TIP3    H237676   8.364   4.396   4.503
12579TIP3   OH237677   6.859   2.443   5.407
12579TIP3    H137678   6.831   2.471   5.319
12579TIP3    H237679   6.783   2.460   5.463
12580TIP3   OH237680   4.210   3.052   1.326
12580TIP3    H137681   4.195   3.042   1.232
12580TIP3    H237682   4.124   3.072   1.362
12581TIP3   OH237683   4.381   5.559   5.194
12581TIP3    H137684   4.390   5.522   5.281
12581TIP3    H237685   4.460   5.532   5.148
12582TIP3   OH237686   4.017   1.939   0.956
12582TIP3    H137687   3.993   1.857   1.000
12582TIP3    H237688   4.100   1.964   0.997
12583TIP3   OH237689   0.494   2.611   1.566
12583TIP3    H137690   0.479   2.553   1.641
12583TIP3    H237691   0.412   2.660   1.557
12584TIP3   OH237692   4.384   7.519   0.688
12584TIP3    H137693   4.317   7.507   0.756
12584TIP3    H237694   4.356   7.461   0.617
12585TIP3   OH237695   3.511   7.003   3.395
12585TIP3    H137696   3.438   7.053   3.432
12585TIP3    H237697   3.584   7.064   3.394
12586TIP3   OH237698   2.199   4.021   4.305
12586TIP3    H137699   2.211   3.969   4.385
12586TIP3    H237700   2.285   4.020   4.263
12587TIP3   OH237701   6.254   6.001   2.345
12587TIP3    H137702   6.231   6.067   2.279
12587TIP3    H237703   6.182   6.004   2.408
12588TIP3   OH237704   2.070   4.355   6.103
12588TIP3    H137705   2.156   4.314   6.095
12588TIP3    H237706   2.072   4.398   6.189
12589TIP3   OH237707   0.412   6.812   6.006
12589TIP3    H137708   0.361   6.762   6.071
12589TIP3    H237709   0.445   6.746   5.945
12590TIP3   OH237710   3.321   2.704   5.005
12590TIP3    H137711   3.311   2.776   4.942
12590TIP3    H237712   3.371   2.743   5.077
12591TIP3   OH237713   4.709   1.486   2.761
12591TIP3    H137714   4.650   1.417   2.793
12591TIP3    H237715   4.744   1.526   2.840
12592TIP3   OH237716   8.122   6.882   5.041
12592TIP3    H137717   8.161   6.968   5.026
12592TIP3    H237718   8.060   6.871   4.969
12593TIP3   OH237719   5.928   4.743   1.277
12593TIP3    H137720   5.919   4.786   1.192
12593TIP3    H237721   5.841   4.752   1.317
12594TIP3   OH237722   6.829   4.370   4.639
12594TIP3    H137723   6.810   4.464   4.638
12594TIP3    H237724   6.916   4.364   4.677
12595TIP3   OH237725   7.737   5.437   4.079
12595TIP3    H137726   7.809   5.417   4.138
12595TIP3    H237727   7.769   5.410   3.992
12596TIP3   OH237728   6.926   4.963   3.161
12596TIP3    H137729   6.975   4.938   3.083
12596TIP3    H237730   6.988   5.016   3.212
12597TIP3   OH237731   8.057   3.825   5.953
12597TIP3    H137732   8.117   3.898   5.941
12597TIP3    H237733   8.005   3.848   6.029
12598TIP3   OH237734   5.898   3.269   5.045
12598TIP3    H137735   5.908   3.216   5.124
12598TIP3    H237736   5.871   3.355   5.076
12599TIP3   OH237737   6.647   4.302   1.228
12599TIP3    H137738   6.634   4.212   1.199
12599TIP3    H237739   6.561   4.331   1.257
12600TIP3   OH237740   0.596   6.274   5.349
12600TIP3    H137741   0.585   6.198   5.293
12600TIP3    H237742   0.513   6.281   5.396
12601TIP3   OH237743   3.917   1.717   0.351
12601TIP3    H137744   3.964   1.656   0.409
12601TIP3    H237745   3.909   1.797   0.403
12602TIP3   OH237746   1.462   3.806   1.852
12602TIP3    H137747   1.413   3.724   1.849
12602TIP3    H237748   1.469   3.827   1.945
12603TIP3   OH237749   3.947   2.555   2.477
12603TIP3    H137750   3.928   2.489   2.544
12603TIP3    H237751   3.944   2.506   2.395
12604TIP3   OH237752   1.545   3.316   3.339
12604TIP3    H137753   1.461   3.339   3.298
12604TIP3    H237754   1.552   3.376   3.413
12605TIP3   OH237755   4.051   2.198   0.168
12605TIP3    H137756   3.989   2.126   0.176
12605TIP3    H237757   4.095   2.202   0.253
12606TIP3   OH237758   0.752   4.046   6.755
12606TIP3    H137759   0.690   4.035   6.684
12606TIP3    H237760   0.768   4.141   6.759
12607TIP3   OH237761   3.478   2.829   5.212
12607TIP3    H137762   3.448   2.896   5.273
12607TIP3    H237763   3.523   2.877   5.143
12608TIP3   OH237764   5.126   4.613   5.856
12608TIP3    H137765   5.189   4.542   5.842
12608TIP3    H237766   5.056   4.596   5.794
12609TIP3   OH237767   5.443   0.307   6.675
12609TIP3    H137768   5.516   0.250   6.650
12609TIP3    H237769   5.384   0.250   6.725
12610TIP3   OH237770   1.843   7.438   5.950
12610TIP3    H137771   1.752   7.462   5.966
12610TIP3    H237772   1.875   7.409   6.036
12611TIP3   OH237773   5.686   0.169   4.642
12611TIP3    H137774   5.654   0.108   4.709
12611TIP3    H237775   5.665   0.127   4.559
12612TIP3   OH237776   8.265   4.345   4.377
12612TIP3    H137777   8.185   4.392   4.403
12612TIP3    H237778   8.233   4.268   4.330
12613TIP3   OH237779   0.934   7.821   4.355
12613TIP3    H137780   1.027   7.825   4.379
12613TIP3    H237781   0.888   7.853   4.432
12614TIP3   OH237782   6.471   7.425   6.205
12614TIP3    H137783   6.480   7.329   6.210
12614TIP3    H237784   6.478   7.455   6.295
12615TIP3   OH237785   4.659   7.074   4.125
12615TIP3    H137786   4.566   7.073   4.105
12615TIP3    H237787   4.666   7.031   4.211
12616TIP3   OH237788   8.292   7.875   5.209
12616TIP3    H137789   8.267   7.890   5.300
12616TIP3    H237790   8.285   7.780   5.198
12617TIP3   OH237791   7.161   2.469   4.877
12617TIP3    H137792   7.153   2.432   4.789
12617TIP3    H237793   7.169   2.392   4.934
12618TIP3   OH237794   7.516   5.064   5.066
12618TIP3    H137795   7.571   5.142   5.058
12618TIP3    H237796   7.575   4.997   5.101
12619TIP3   OH237797   2.138   0.046   5.858
12619TIP3    H137798   2.078   0.119   5.842
12619TIP3    H237799   2.223   0.079   5.831
12620TIP3   OH237800   4.045   7.393   0.423
12620TIP3    H137801   4.123   7.344   0.398
12620TIP3    H237802   4.076   7.456   0.489
12621TIP3   OH237803   0.187   1.491   5.794
12621TIP3    H137804   0.223   1.407   5.765
12621TIP3    H237805   0.256   1.554   5.774
12622TIP3   OH237806   1.176   2.603   5.587
12622TIP3    H137807   1.110   2.571   5.526
12622TIP3    H237808   1.149   2.692   5.607
12623TIP3   OH237809   1.534   7.348   4.987
12623TIP3    H137810   1.499   7.345   4.899
12623TIP3    H237811   1.464   7.386   5.040
12624TIP3   OH237812   5.120   0.475   1.089
12624TIP3    H137813   5.136   0.381   1.084
12624TIP3    H237814   5.029   0.486   1.063
12625TIP3   OH237815   4.987   1.579   0.741
12625TIP3    H137816   5.077   1.604   0.722
12625TIP3    H237817   4.940   1.592   0.658
12626TIP3   OH237818   4.623   7.182   1.308
12626TIP3    H137819   4.585   7.260   1.348
12626TIP3    H237820   4.706   7.212   1.272
12627TIP3   OH237821   0.197   7.074   6.702
12627TIP3    H137822   0.203   6.980   6.721
12627TIP3    H237823   0.249   7.116   6.770
12628TIP3   OH237824   0.983   6.129   4.672
12628TIP3    H137825   0.947   6.040   4.679
12628TIP3    H237826   1.070   6.122   4.712
12629TIP3   OH237827   2.474   6.119   3.634
12629TIP3    H137828   2.441   6.184   3.573
12629TIP3    H237829   2.565   6.104   3.606
12630TIP3   OH237830   0.950   3.054   6.628
12630TIP3    H137831   1.000   3.048   6.547
12630TIP3    H237832   0.859   3.038   6.601
12631TIP3   OH237833   0.141   1.980   1.693
12631TIP3    H137834   0.104   2.031   1.765
12631TIP3    H237835   0.192   1.911   1.735
12632TIP3   OH237836   3.168   3.788   2.608
12632TIP3    H137837   3.073   3.783   2.600
12632TIP3    H237838   3.192   3.710   2.659
12633TIP3   OH237839   5.019   6.739   1.730
12633TIP3    H137840   5.064   6.713   1.649
12633TIP3    H237841   5.078   6.801   1.771
12634TIP3   OH237842   0.894   7.476   5.185
12634TIP3    H137843   0.814   7.522   5.158
12634TIP3    H237844   0.943   7.465   5.103
12635TIP3   OH237845   4.010   3.651   6.324
12635TIP3    H137846   4.047   3.569   6.291
12635TIP3    H237847   4.068   3.719   6.291
12636TIP3   OH237848   7.795   6.048   0.737
12636TIP3    H137849   7.767   6.136   0.711
12636TIP3    H237850   7.738   6.026   0.810
12637TIP3   OH237851   2.522   5.954   1.715
12637TIP3    H137852   2.544   5.862   1.700
12637TIP3    H237853   2.596   6.002   1.677
12638TIP3   OH237854   5.084   4.228   5.012
12638TIP3    H137855   5.100   4.319   5.036
12638TIP3    H237856   5.062   4.184   5.094
12639TIP3   OH237857   4.874   3.393   4.098
12639TIP3    H137858   4.820   3.459   4.055
12639TIP3    H237859   4.831   3.379   4.183
12640TIP3   OH237860   2.664   4.994   5.056
12640TIP3    H137861   2.725   5.030   4.991
12640TIP3    H237862   2.704   5.016   5.140
12641TIP3   OH237863   1.391   3.363   0.344
12641TIP3    H137864   1.442   3.316   0.278
12641TIP3    H237865   1.358   3.440   0.298
12642TIP3   OH237866   5.175   4.157   6.500
12642TIP3    H137867   5.123   4.091   6.453
12642TIP3    H237868   5.171   4.129   6.592
12643TIP3   OH237869   5.898   0.209   2.120
12643TIP3    H137870   5.816   0.222   2.072
12643TIP3    H237871   5.914   0.294   2.162
12644TIP3   OH237872   2.136   1.402   0.175
12644TIP3    H137873   2.162   1.494   0.175
12644TIP3    H237874   2.090   1.390   0.092
12645TIP3   OH237875   0.348   6.061   6.278
12645TIP3    H137876   0.432   6.018   6.293
12645TIP3    H237877   0.322   6.094   6.363
12646TIP3   OH237878   3.187   5.577   3.734
12646TIP3    H137879   3.201   5.623   3.651
12646TIP3    H237880   3.248   5.503   3.731
12647TIP3   OH237881   0.864   5.748   0.582
12647TIP3    H137882   0.909   5.672   0.546
12647TIP3    H237883   0.923   5.783   0.648
12648TIP3   OH237884   5.077   3.000   1.385
12648TIP3    H137885   5.133   3.017   1.310
12648TIP3    H237886   5.012   2.936   1.354
12649TIP3   OH237887   0.185   2.430   4.256
12649TIP3    H137888   0.129   2.438   4.179
12649TIP3    H237889   0.229   2.345   4.245
12650TIP3   OH237890   0.290   5.693   3.603
12650TIP3    H137891   0.279   5.681   3.509
12650TIP3    H237892   0.242   5.774   3.623
12651TIP3   OH237893   6.841   6.490   0.199
12651TIP3    H137894   6.903   6.535   0.256
12651TIP3    H237895   6.830   6.549   0.125
12652TIP3   OH237896   0.518   7.794   0.627
12652TIP3    H137897   0.467   7.839   0.694
12652TIP3    H237898   0.574   7.863   0.590
12653TIP3   OH237899   1.034   6.537   4.721
12653TIP3    H137900   1.040   6.613   4.663
12653TIP3    H237901   1.124   6.523   4.752
12654TIP3   OH237902   7.036   7.474   0.887
12654TIP3    H137903   7.084   7.553   0.911
12654TIP3    H237904   7.085   7.403   0.927
12655TIP3   OH237905   3.253   6.024   1.240
12655TIP3    H137906   3.276   5.943   1.195
12655TIP3    H237907   3.288   6.014   1.328
12656TIP3   OH237908   5.254   5.289   3.434
12656TIP3    H137909   5.188   5.220   3.427
12656TIP3    H237910   5.243   5.323   3.523
12657TIP3   OH237911   4.914   0.669   1.055
12657TIP3    H137912   4.954   0.744   1.099
12657TIP3    H237913   4.841   0.707   1.006
12658TIP3   OH237914   0.710   5.568   1.532
12658TIP3    H137915   0.803   5.556   1.548
12658TIP3    H237916   0.698   5.544   1.440
12659TIP3   OH237917   0.070   5.232   4.415
12659TIP3    H137918   0.094   5.314   4.457
12659TIP3    H237919  -0.017   5.247   4.378
12660TIP3   OH237920   2.491   1.683   4.104
12660TIP3    H137921   2.533   1.761   4.138
12660TIP3    H237922   2.457   1.708   4.018
12661TIP3   OH237923   4.126   6.669   1.913
12661TIP3    H137924   4.063   6.733   1.881
12661TIP3    H237925   4.101   6.587   1.870
12662TIP3   OH237926   3.862   1.244   3.953
12662TIP3    H137927   3.890   1.166   4.001
12662TIP3    H237928   3.855   1.312   4.020
12663TIP3   OH237929   3.770   6.705   3.162
12663TIP3    H137930   3.817   6.623   3.150
12663TIP3    H237931   3.681   6.679   3.185
12664TIP3   OH237932   6.608   5.787   2.027
12664TIP3    H137933   6.656   5.858   2.071
12664TIP3    H237934   6.517   5.816   2.026
12665TIP3   OH237935   4.687   1.412   6.435
12665TIP3    H137936   4.713   1.453   6.518
12665TIP3    H237937   4.747   1.449   6.370
12666TIP3   OH237938   3.776   4.188   4.831
12666TIP3    H137939   3.694   4.225   4.798
12666TIP3    H237940   3.748   4.112   4.882
12667TIP3   OH237941   2.696   5.655   4.436
12667TIP3    H137942   2.686   5.560   4.426
12667TIP3    H237943   2.675   5.672   4.527
12668TIP3   OH237944   8.379   2.353   6.809
12668TIP3    H137945   8.442   2.294   6.850
12668TIP3    H237946   8.379   2.326   6.717
12669TIP3   OH237947   8.402   3.057   4.091
12669TIP3    H137948   8.370   2.997   4.159
12669TIP3    H237949   8.497   3.056   4.101
12670TIP3   OH237950   7.982   1.303   5.819
12670TIP3    H137951   7.888   1.306   5.806
12670TIP3    H237952   8.012   1.393   5.800
12671TIP3   OH237953   4.519   7.069   3.624
12671TIP3    H137954   4.552   7.146   3.577
12671TIP3    H237955   4.436   7.049   3.581
12672TIP3   OH237956   6.913   4.650   3.184
12672TIP3    H137957   6.876   4.622   3.101
12672TIP3    H237958   6.944   4.739   3.168
12673TIP3   OH237959  -0.023   7.723   4.218
12673TIP3    H137960  -0.087   7.767   4.275
12673TIP3    H237961  -0.063   7.639   4.198
12674TIP3   OH237962   0.612   4.061   2.555
12674TIP3    H137963   0.635   4.030   2.643
12674TIP3    H237964   0.676   4.020   2.498
12675TIP3   OH237965   6.136   5.724   1.625
12675TIP3    H137966   6.170   5.798   1.676
12675TIP3    H237967   6.095   5.765   1.549
12676TIP3   OH237968   5.980   2.784   0.397
12676TIP3    H137969   6.074   2.766   0.403
12676TIP3    H237970   5.945   2.756   0.481
12677TIP3   OH237971   5.096   2.244   2.657
12677TIP3    H137972   5.178   2.227   2.611
12677TIP3    H237973   5.096   2.338   2.673
12678TIP3   OH237974   3.679   5.338   5.518
12678TIP3    H137975   3.720   5.405   5.572
12678TIP3    H237976   3.735   5.261   5.530
12679TIP3   OH237977   2.922   2.347   5.921
12679TIP3    H137978   2.947   2.424   5.871
12679TIP3    H237979   2.833   2.367   5.953
12680TIP3   OH237980   8.195   6.626   2.794
12680TIP3    H137981   8.102   6.622   2.771
12680TIP3    H237982   8.241   6.617   2.710
12681TIP3   OH237983   7.578   2.061   3.275
12681TIP3    H137984   7.523   2.100   3.344
12681TIP3    H237985   7.515   2.021   3.215
12682TIP3   OH237986   3.319   0.909   2.106
12682TIP3    H137987   3.346   0.819   2.090
12682TIP3    H237988   3.238   0.901   2.157
12683TIP3   OH237989   3.308   3.692   2.013
12683TIP3    H137990   3.241   3.720   2.076
12683TIP3    H237991   3.347   3.774   1.982
12684TIP3   OH237992   3.249   5.800   5.556
12684TIP3    H137993   3.322   5.823   5.499
12684TIP3    H237994   3.186   5.757   5.498
12685TIP3   OH237995   5.304   2.053   0.431
12685TIP3    H137996   5.288   2.034   0.523
12685TIP3    H237997   5.217   2.067   0.393
12686TIP3   OH237998   3.883   6.806   2.649
12686TIP3    H137999   3.870   6.870   2.579
12686TIP3    H238000   3.809   6.820   2.708
12687TIP3   OH238001   1.611   0.808   6.390
12687TIP3    H138002   1.537   0.835   6.445
12687TIP3    H238003   1.605   0.863   6.312
12688TIP3   OH238004   4.338   7.001   2.344
12688TIP3    H138005   4.362   6.952   2.266
12688TIP3    H238006   4.273   7.065   2.314
12689TIP3   OH238007   7.069   6.444   3.206
12689TIP3    H138008   7.035   6.495   3.280
12689TIP3    H238009   6.999   6.383   3.185
12690TIP3   OH238010   8.360   0.071   4.518
12690TIP3    H138011   8.323   0.043   4.434
12690TIP3    H238012   8.338   0.000   4.579
12691TIP3   OH238013   8.114   2.057   0.847
12691TIP3    H138014   8.082   2.142   0.878
12691TIP3    H238015   8.148   2.075   0.759
12692TIP3   OH238016   6.829   5.404   4.181
12692TIP3    H138017   6.818   5.411   4.086
12692TIP3    H238018   6.887   5.328   4.193
12693TIP3   OH238019   2.017   2.625   3.160
12693TIP3    H138020   1.933   2.662   3.134
12693TIP3    H238021   2.076   2.700   3.164
12694TIP3   OH238022   7.623   3.730   3.921
12694TIP3    H138023   7.664   3.644   3.911
12694TIP3    H238024   7.533   3.717   3.893
12695TIP3   OH238025   8.193   4.644   4.527
12695TIP3    H138026   8.120   4.586   4.504
12695TIP3    H238027   8.162   4.693   4.603
12696TIP3   OH238028   5.926   4.121   4.355
12696TIP3    H138029   6.014   4.100   4.386
12696TIP3    H238030   5.882   4.159   4.432
12697TIP3   OH238031   5.510   4.892   1.733
12697TIP3    H138032   5.554   4.833   1.794
12697TIP3    H238033   5.568   4.895   1.657
12698TIP3   OH238034   2.745   3.125   0.348
12698TIP3    H138035   2.781   3.122   0.260
12698TIP3    H238036   2.820   3.112   0.406
12699TIP3   OH238037   5.690   7.116   6.613
12699TIP3    H138038   5.599   7.088   6.618
12699TIP3    H238039   5.724   7.075   6.534
12700TIP3   OH238040   1.831   6.176   1.444
12700TIP3    H138041   1.804   6.201   1.355
12700TIP3    H238042   1.821   6.081   1.446
12701TIP3   OH238043   3.303   0.323   1.426
12701TIP3    H138044   3.397   0.318   1.444
12701TIP3    H238045   3.268   0.376   1.497
12702TIP3   OH238046   2.111   4.787   2.126
12702TIP3    H138047   2.060   4.706   2.133
12702TIP3    H238048   2.198   4.764   2.156
12703TIP3   OH238049   2.112   7.505   6.486
12703TIP3    H138050   2.058   7.544   6.417
12703TIP3    H238051   2.049   7.474   6.551
12704TIP3   OH238052   0.101   7.676   3.966
12704TIP3    H138053   0.097   7.582   3.950
12704TIP3    H238054   0.088   7.685   4.060
12705TIP3   OH238055   6.382   4.425   4.082
12705TIP3    H138056   6.310   4.480   4.114
12705TIP3    H238057   6.459   4.456   4.132
12706TIP3   OH238058   1.142   2.540   2.124
12706TIP3    H138059   1.198   2.561   2.050
12706TIP3    H238060   1.202   2.522   2.196
12707TIP3   OH238061   7.287   0.659   3.782
12707TIP3    H138062   7.217   0.682   3.844
12707TIP3    H238063   7.240   0.626   3.705
12708TIP3   OH238064   0.621   0.588   6.228
12708TIP3    H138065   0.662   0.659   6.178
12708TIP3    H238066   0.694   0.546   6.275
12709TIP3   OH238067   4.239   2.594   3.673
12709TIP3    H138068   4.253   2.580   3.766
12709TIP3    H238069   4.303   2.537   3.630
12710TIP3   OH238070   1.556   1.235   0.669
12710TIP3    H138071   1.646   1.209   0.687
12710TIP3    H238072   1.555   1.330   0.683
12711TIP3   OH238073   1.863   3.740   1.736
12711TIP3    H138074   1.790   3.787   1.696
12711TIP3    H238075   1.894   3.798   1.805
12712TIP3   OH238076   7.087   7.289   4.383
12712TIP3    H138077   7.001   7.306   4.422
12712TIP3    H238078   7.091   7.194   4.373
12713TIP3   OH238079   3.768   7.714   3.885
12713TIP3    H138080   3.750   7.636   3.938
12713TIP3    H238081   3.846   7.691   3.835
12714TIP3   OH238082   4.786   3.357   4.374
12714TIP3    H138083   4.749   3.439   4.407
12714TIP3    H238084   4.826   3.316   4.450
12715TIP3   OH238085   5.784   7.698   5.661
12715TIP3    H138086   5.775   7.620   5.716
12715TIP3    H238087   5.701   7.744   5.670
12716TIP3   OH238088   6.687   7.396   6.731
12716TIP3    H138089   6.766   7.402   6.678
12716TIP3    H238090   6.717   7.360   6.815
12717TIP3   OH238091   4.122   4.218   1.015
12717TIP3    H138092   4.199   4.226   0.959
12717TIP3    H238093   4.100   4.308   1.038
12718TIP3   OH238094   6.039   6.412   1.806
12718TIP3    H138095   6.002   6.491   1.846
12718TIP3    H238096   5.972   6.345   1.819
12719TIP3   OH238097   1.529   0.396   5.289
12719TIP3    H138098   1.455   0.413   5.231
12719TIP3    H238099   1.603   0.441   5.248
12720TIP3   OH238100   1.719   0.105   5.275
12720TIP3    H138101   1.669   0.183   5.300
12720TIP3    H238102   1.652   0.039   5.257
12721TIP3   OH238103   0.819   1.195   3.733
12721TIP3    H138104   0.805   1.284   3.767
12721TIP3    H238105   0.807   1.204   3.639
12722TIP3   OH238106   4.685   6.369   1.323
12722TIP3    H138107   4.598   6.367   1.365
12722TIP3    H238108   4.746   6.353   1.395
12723TIP3   OH238109   4.314   7.021   0.869
12723TIP3    H138110   4.394   7.052   0.827
12723TIP3    H238111   4.243   7.059   0.817
12724TIP3   OH238112   1.558   7.864   3.834
12724TIP3    H138113   1.607   7.845   3.914
12724TIP3    H238114   1.618   7.840   3.763
12725TIP3   OH238115   6.984   0.810   3.439
12725TIP3    H138116   6.945   0.853   3.514
12725TIP3    H238117   6.923   0.740   3.416
12726TIP3   OH238118   1.787   0.471   5.075
12726TIP3    H138119   1.880   0.451   5.075
12726TIP3    H238120   1.749   0.411   5.012
12727TIP3   OH238121   4.849   3.490   6.120
12727TIP3    H138122   4.786   3.423   6.148
12727TIP3    H238123   4.819   3.518   6.034
12728TIP3   OH238124   3.032   0.840   6.673
12728TIP3    H138125   2.943   0.818   6.698
12728TIP3    H238126   3.080   0.840   6.756
12729TIP3   OH238127   1.457   1.161   4.916
12729TIP3    H138128   1.398   1.120   4.978
12729TIP3    H238129   1.491   1.088   4.863
12730TIP3   OH238130   5.303   1.616   0.433
12730TIP3    H138131   5.283   1.541   0.377
12730TIP3    H238132   5.286   1.693   0.379
12731TIP3   OH238133   7.169   1.046   4.247
12731TIP3    H138134   7.104   1.075   4.184
12731TIP3    H238135   7.159   0.951   4.250
12732TIP3   OH238136   7.177   6.894   3.030
12732TIP3    H138137   7.245   6.961   3.030
12732TIP3    H238138   7.173   6.863   3.121
12733TIP3   OH238139   5.894   7.448   0.465
12733TIP3    H138140   5.971   7.394   0.446
12733TIP3    H238141   5.877   7.434   0.558
12734TIP3   OH238142   4.099   6.064   6.364
12734TIP3    H138143   4.067   5.982   6.404
12734TIP3    H238144   4.168   6.036   6.304
12735TIP3   OH238145   2.823   4.636   2.938
12735TIP3    H138146   2.770   4.673   2.867
12735TIP3    H238147   2.780   4.552   2.958
12736TIP3   OH238148   1.065   3.991   5.155
12736TIP3    H138149   1.137   4.045   5.186
12736TIP3    H238150   0.986   4.038   5.183
12737TIP3   OH238151   7.233   6.929   4.817
12737TIP3    H138152   7.272   7.011   4.786
12737TIP3    H238153   7.144   6.953   4.843
12738TIP3   OH238154   7.706   5.485   0.357
12738TIP3    H138155   7.681   5.572   0.388
12738TIP3    H238156   7.729   5.499   0.265
12739TIP3   OH238157   2.188   7.549   6.031
12739TIP3    H138158   2.182   7.488   5.958
12739TIP3    H238159   2.123   7.516   6.094
12740TIP3   OH238160   8.301   4.128   6.663
12740TIP3    H138161   8.284   4.040   6.698
12740TIP3    H238162   8.337   4.112   6.576
12741TIP3   OH238163   3.883   7.233   2.233
12741TIP3    H138164   3.826   7.290   2.181
12741TIP3    H238165   3.916   7.290   2.303
12742TIP3   OH238166   2.050   0.569   1.212
12742TIP3    H138167   2.002   0.643   1.175
12742TIP3    H238168   2.037   0.577   1.307
12743TIP3   OH238169   5.980   3.627   1.760
12743TIP3    H138170   5.966   3.680   1.681
12743TIP3    H238171   5.976   3.537   1.730
12744TIP3   OH238172   5.541   7.597   4.602
12744TIP3    H138173   5.634   7.606   4.585
12744TIP3    H238174   5.518   7.674   4.655
12745TIP3   OH238175   1.355   5.563   3.554
12745TIP3    H138176   1.386   5.558   3.644
12745TIP3    H238177   1.406   5.498   3.507
12746TIP3   OH238178   3.681   5.105   2.078
12746TIP3    H138179   3.750   5.151   2.126
12746TIP3    H238180   3.712   5.104   1.987
12747TIP3   OH238181   7.840   2.419   6.668
12747TIP3    H138182   7.901   2.453   6.734
12747TIP3    H238183   7.870   2.330   6.652
12748TIP3   OH238184   2.886   1.898   6.169
12748TIP3    H138185   2.835   1.930   6.095
12748TIP3    H238186   2.929   1.818   6.137
12749TIP3   OH238187   4.865   2.926   2.764
12749TIP3    H138188   4.850   3.012   2.726
12749TIP3    H238189   4.941   2.892   2.717
12750TIP3   OH238190   7.489   2.793   3.075
12750TIP3    H138191   7.551   2.772   3.005
12750TIP3    H238192   7.446   2.873   3.045
12751TIP3   OH238193   0.886   5.282   0.791
12751TIP3    H138194   0.850   5.252   0.875
12751TIP3    H238195   0.881   5.378   0.796
12752TIP3   OH238196   4.060   2.672   3.938
12752TIP3    H138197   4.136   2.623   3.969
12752TIP3    H238198   4.018   2.615   3.874
12753TIP3   OH238199   7.248   2.573   3.036
12753TIP3    H138200   7.333   2.568   2.993
12753TIP3    H238201   7.217   2.662   3.017
12754TIP3   OH238202   7.658   7.848   5.011
12754TIP3    H138203   7.649   7.941   4.993
12754TIP3    H238204   7.678   7.809   4.925
12755TIP3   OH238205   2.191   5.690   2.674
12755TIP3    H138206   2.273   5.652   2.706
12755TIP3    H238207   2.215   5.779   2.647
12756TIP3   OH238208   8.094   3.989   4.956
12756TIP3    H138209   8.054   3.903   4.965
12756TIP3    H238210   8.142   4.002   5.037
12757TIP3   OH238211   4.463   6.975   1.603
12757TIP3    H138212   4.450   6.907   1.537
12757TIP3    H238213   4.379   7.020   1.608
12758TIP3   OH238214   8.279   0.912   6.083
12758TIP3    H138215   8.251   1.002   6.100
12758TIP3    H238216   8.334   0.889   6.158
12759TIP3   OH238217   1.501   5.246   1.133
12759TIP3    H138218   1.455   5.188   1.072
12759TIP3    H238219   1.576   5.195   1.163
12760TIP3   OH238220   1.259   3.249   0.073
12760TIP3    H138221   1.343   3.221   0.111
12760TIP3    H238222   1.236   3.179   0.013
12761TIP3   OH238223   4.897   5.422   2.115
12761TIP3    H138224   4.921   5.464   2.198
12761TIP3    H238225   4.975   5.431   2.060
12762TIP3   OH238226   7.120   1.755   1.124
12762TIP3    H138227   7.204   1.738   1.081
12762TIP3    H238228   7.087   1.668   1.148
12763TIP3   OH238229   4.272   2.494   3.958
12763TIP3    H138230   4.334   2.516   4.027
12763TIP3    H238231   4.294   2.404   3.933
12764TIP3   OH238232   8.357   5.326   1.371
12764TIP3    H138233   8.305   5.372   1.305
12764TIP3    H238234   8.301   5.255   1.401
12765TIP3   OH238235   3.377   4.719   0.841
12765TIP3    H138236   3.358   4.636   0.885
12765TIP3    H238237   3.469   4.711   0.814
12766TIP3   OH238238   5.110   0.355   5.478
12766TIP3    H138239   5.174   0.285   5.465
12766TIP3    H238240   5.099   0.359   5.573
12767TIP3   OH238241   2.745   5.338   5.670
12767TIP3    H138242   2.743   5.359   5.576
12767TIP3    H238243   2.698   5.410   5.712
12768TIP3   OH238244   0.423   5.502   3.735
12768TIP3    H138245   0.399   5.416   3.700
12768TIP3    H238246   0.372   5.564   3.683
12769TIP3   OH238247   1.391   5.734   1.734
12769TIP3    H138248   1.386   5.642   1.760
12769TIP3    H238249   1.446   5.775   1.801
12770TIP3   OH238250   6.119   3.598   0.138
12770TIP3    H138251   6.060   3.541   0.186
12770TIP3    H238252   6.103   3.578   0.046
12771TIP3   OH238253   7.789   4.315   2.588
12771TIP3    H138254   7.730   4.282   2.656
12771TIP3    H238255   7.759   4.273   2.507
12772TIP3   OH238256   2.597   2.675   4.266
12772TIP3    H138257   2.503   2.659   4.266
12772TIP3    H238258   2.634   2.597   4.307
12773TIP3   OH238259   7.376   1.491   5.462
12773TIP3    H138260   7.322   1.443   5.525
12773TIP3    H238261   7.316   1.552   5.420
12774TIP3   OH238262   1.753   5.987   0.327
12774TIP3    H138263   1.800   5.928   0.268
12774TIP3    H238264   1.812   6.062   0.339
12775TIP3   OH238265   2.614   6.532   4.104
12775TIP3    H138266   2.691   6.487   4.069
12775TIP3    H238267   2.639   6.624   4.106
12776TIP3   OH238268   8.037   4.829   2.397
12776TIP3    H138269   8.080   4.883   2.331
12776TIP3    H238270   7.949   4.867   2.405
12777TIP3   OH238271   2.325   0.305   2.194
12777TIP3    H138272   2.325   0.394   2.231
12777TIP3    H238273   2.316   0.249   2.271
12778TIP3   OH238274   5.511   4.249   5.721
12778TIP3    H138275   5.454   4.242   5.644
12778TIP3    H238276   5.450   4.256   5.794
12779TIP3   OH238277   2.937   1.157   0.457
12779TIP3    H138278   2.950   1.079   0.402
12779TIP3    H238279   2.842   1.170   0.457
12780TIP3   OH238280   7.805   0.432   4.871
12780TIP3    H138281   7.868   0.487   4.825
12780TIP3    H238282   7.803   0.467   4.960
12781TIP3   OH238283   3.769   2.122   4.610
12781TIP3    H138284   3.706   2.110   4.539
12781TIP3    H238285   3.716   2.146   4.686
12782TIP3   OH238286   1.873   2.197   1.814
12782TIP3    H138287   1.894   2.131   1.747
12782TIP3    H238288   1.939   2.184   1.882
12783TIP3   OH238289   6.401   5.204   4.401
12783TIP3    H138290   6.317   5.248   4.413
12783TIP3    H238291   6.457   5.271   4.361
12784TIP3   OH238292   2.997   3.815   1.352
12784TIP3    H138293   2.957   3.891   1.309
12784TIP3    H238294   2.998   3.838   1.445
12785TIP3   OH238295   2.890   3.838   3.491
12785TIP3    H138296   2.810   3.810   3.535
12785TIP3    H238297   2.903   3.774   3.420
12786TIP3   OH238298   3.765   3.234   0.309
12786TIP3    H138299   3.694   3.241   0.245
12786TIP3    H238300   3.723   3.198   0.387
12787TIP3   OH238301   1.817   7.205   1.544
12787TIP3    H138302   1.816   7.231   1.636
12787TIP3    H238303   1.891   7.253   1.507
12788TIP3   OH238304   1.750   7.334   6.434
12788TIP3    H138305   1.787   7.385   6.506
12788TIP3    H238306   1.687   7.276   6.477
12789TIP3   OH238307   6.480   1.810   2.067
12789TIP3    H138308   6.386   1.794   2.069
12789TIP3    H238309   6.519   1.730   2.100
12790TIP3   OH238310   1.611   6.205   4.994
12790TIP3    H138311   1.692   6.248   5.021
12790TIP3    H238312   1.631   6.169   4.907
12791TIP3   OH238313   0.447   6.246   6.075
12791TIP3    H138314   0.399   6.195   6.140
12791TIP3    H238315   0.526   6.194   6.057
12792TIP3   OH238316   6.385   6.155   2.994
12792TIP3    H138317   6.325   6.195   3.057
12792TIP3    H238318   6.463   6.211   2.997
12793TIP3   OH238319   3.176   6.432   5.972
12793TIP3    H138320   3.239   6.377   5.926
12793TIP3    H238321   3.213   6.521   5.967
12794TIP3   OH238322   5.020   2.821   5.905
12794TIP3    H138323   5.025   2.820   6.000
12794TIP3    H238324   4.938   2.776   5.884
12795TIP3   OH238325   2.615   2.428   6.715
12795TIP3    H138326   2.641   2.424   6.807
12795TIP3    H238327   2.553   2.356   6.704
12796TIP3   OH238328   0.140   7.669   5.326
12796TIP3    H138329   0.172   7.671   5.416
12796TIP3    H238330   0.045   7.670   5.334
12797TIP3   OH238331   4.834   5.214   1.178
12797TIP3    H138332   4.911   5.263   1.205
12797TIP3    H238333   4.767   5.281   1.163
12798TIP3   OH238334   4.865   0.373   0.175
12798TIP3    H138335   4.948   0.396   0.217
12798TIP3    H238336   4.887   0.296   0.121
12799TIP3   OH238337   5.081   6.227   5.332
12799TIP3    H138338   5.093   6.263   5.244
12799TIP3    H238339   5.169   6.208   5.362
12800TIP3   OH238340   2.102   6.741   3.391
12800TIP3    H138341   2.155   6.737   3.470
12800TIP3    H238342   2.165   6.740   3.319
12801TIP3   OH238343   1.644   3.440   3.927
12801TIP3    H138344   1.700   3.499   3.976
12801TIP3    H238345   1.654   3.356   3.971
12802TIP3   OH238346   0.357   4.638   6.785
12802TIP3    H138347   0.327   4.613   6.872
12802TIP3    H238348   0.293   4.599   6.725
12803TIP3   OH238349   0.440   2.882   4.741
12803TIP3    H138350   0.490   2.847   4.668
12803TIP3    H238351   0.349   2.864   4.719
12804TIP3   OH238352   5.245   5.501   1.164
12804TIP3    H138353   5.198   5.419   1.178
12804TIP3    H238354   5.203   5.540   1.088
12805TIP3   OH238355   2.504   5.220   4.510
12805TIP3    H138356   2.463   5.288   4.564
12805TIP3    H238357   2.575   5.265   4.465
12806TIP3   OH238358   4.038   5.510   2.387
12806TIP3    H138359   4.012   5.476   2.302
12806TIP3    H238360   4.054   5.433   2.441
12807TIP3   OH238361   5.434   4.436   0.378
12807TIP3    H138362   5.504   4.370   0.382
12807TIP3    H238363   5.460   4.502   0.442
12808TIP3   OH238364   4.713   0.322   1.053
12808TIP3    H138365   4.805   0.349   1.049
12808TIP3    H238366   4.683   0.330   0.962
12809TIP3   OH238367   8.065   3.946   3.799
12809TIP3    H138368   7.990   3.928   3.856
12809TIP3    H238369   8.083   3.863   3.755
12810TIP3   OH238370   6.666   5.577   3.254
12810TIP3    H138371   6.631   5.527   3.180
12810TIP3    H238372   6.689   5.662   3.216
12811TIP3   OH238373   6.933   0.812   0.094
12811TIP3    H138374   7.021   0.781   0.075
12811TIP3    H238375   6.876   0.742   0.063
12812TIP3   OH238376   6.433   1.269   2.792
12812TIP3    H138377   6.363   1.214   2.757
12812TIP3    H238378   6.420   1.268   2.886
12813TIP3   OH238379   7.998   7.021   0.515
12813TIP3    H138380   7.960   7.092   0.566
12813TIP3    H238381   8.066   7.063   0.462
12814TIP3   OH238382   3.006   0.402   0.160
12814TIP3    H138383   2.976   0.456   0.087
12814TIP3    H238384   3.086   0.360   0.127
12815TIP3   OH238385   7.137   6.383   3.911
12815TIP3    H138386   7.119   6.426   3.995
12815TIP3    H238387   7.101   6.443   3.845
12816TIP3   OH238388   2.415   1.896   3.233
12816TIP3    H138389   2.380   1.965   3.177
12816TIP3    H238390   2.360   1.820   3.215
12817TIP3   OH238391   3.353   1.184   5.275
12817TIP3    H138392   3.261   1.176   5.299
12817TIP3    H238393   3.393   1.102   5.304
12818TIP3   OH238394   5.987   6.946   2.230
12818TIP3    H138395   5.972   6.855   2.207
12818TIP3    H238396   6.018   6.987   2.150
12819TIP3   OH238397   1.282   4.333   4.226
12819TIP3    H138398   1.197   4.372   4.204
12819TIP3    H238399   1.345   4.380   4.172
12820TIP3   OH238400   5.992   2.681   3.648
12820TIP3    H138401   5.980   2.758   3.703
12820TIP3    H238402   6.002   2.717   3.559
12821TIP3   OH238403   5.693   4.725   2.803
12821TIP3    H138404   5.778   4.746   2.765
12821TIP3    H238405   5.689   4.630   2.803
12822TIP3   OH238406   5.650   1.033   6.756
12822TIP3    H138407   5.602   0.964   6.711
12822TIP3    H238408   5.729   0.989   6.789
12823TIP3   OH238409   8.142   5.076   4.902
12823TIP3    H138410   8.147   5.103   4.810
12823TIP3    H238411   8.076   5.135   4.940
12824TIP3   OH238412   7.059   2.859   5.300
12824TIP3    H138413   7.136   2.863   5.244
12824TIP3    H238414   7.092   2.825   5.384
12825TIP3   OH238415   5.355   5.219   6.758
12825TIP3    H138416   5.350   5.153   6.828
12825TIP3    H238417   5.379   5.300   6.803
12826TIP3   OH238418   6.818   5.496   6.333
12826TIP3    H138419   6.879   5.429   6.364
12826TIP3    H238420   6.732   5.457   6.345
12827TIP3   OH238421   5.404   2.166   5.112
12827TIP3    H138422   5.344   2.205   5.048
12827TIP3    H238423   5.411   2.074   5.085
12828TIP3   OH238424   3.538   3.610   2.259
12828TIP3    H138425   3.539   3.518   2.284
12828TIP3    H238426   3.489   3.653   2.329
12829TIP3   OH238427   4.818   0.009   0.393
12829TIP3    H138428   4.769   0.045   0.319
12829TIP3    H238429   4.851  -0.075   0.361
12830TIP3   OH238430   3.526   4.482   2.036
12830TIP3    H138431   3.594   4.472   1.970
12830TIP3    H238432   3.450   4.517   1.989
12831TIP3   OH238433   7.243   3.278   4.252
12831TIP3    H138434   7.232   3.202   4.309
12831TIP3    H238435   7.154   3.309   4.235
12832TIP3   OH238436   6.716   6.462   1.773
12832TIP3    H138437   6.681   6.548   1.795
12832TIP3    H238438   6.640   6.404   1.775
12833TIP3   OH238439   5.798   0.724   1.063
12833TIP3    H138440   5.825   0.772   1.142
12833TIP3    H238441   5.805   0.789   0.992
12834TIP3   OH238442   4.740   0.538   0.578
12834TIP3    H138443   4.666   0.543   0.638
12834TIP3    H238444   4.809   0.589   0.620
12835TIP3   OH238445   7.817   2.545   0.325
12835TIP3    H138446   7.814   2.636   0.297
12835TIP3    H238447   7.909   2.528   0.343
12836TIP3   OH238448   6.858   5.831   0.431
12836TIP3    H138449   6.888   5.921   0.422
12836TIP3    H238450   6.778   5.826   0.378
12837TIP3   OH238451   6.481   3.481   3.697
12837TIP3    H138452   6.539   3.552   3.669
12837TIP3    H238453   6.534   3.428   3.756
12838TIP3   OH238454   5.476   2.102   0.185
12838TIP3    H138455   5.417   2.131   0.255
12838TIP3    H238456   5.520   2.025   0.220
12839TIP3   OH238457   0.225   7.016   5.669
12839TIP3    H138458   0.141   6.994   5.708
12839TIP3    H238459   0.276   7.055   5.740
12840TIP3   OH238460   1.609   3.155   5.168
12840TIP3    H138461   1.692   3.201   5.180
12840TIP3    H238462   1.634   3.064   5.152
12841TIP3   OH238463   2.764   0.070   6.754
12841TIP3    H138464   2.832   0.003   6.767
12841TIP3    H238465   2.710   0.065   6.833
12842TIP3   OH238466   3.925   1.480   6.669
12842TIP3    H138467   3.867   1.489   6.745
12842TIP3    H238468   3.987   1.413   6.694
12843TIP3   OH238469   7.685   5.092   3.764
12843TIP3    H138470   7.695   5.141   3.683
12843TIP3    H238471   7.610   5.035   3.748
12844TIP3   OH238472   7.400   0.427   3.508
12844TIP3    H138473   7.431   0.348   3.552
12844TIP3    H238474   7.438   0.499   3.559
12845TIP3   OH238475   6.163   3.578   5.365
12845TIP3    H138476   6.149   3.575   5.271
12845TIP3    H238477   6.097   3.639   5.397
12846TIP3   OH238478   1.706   0.572   0.439
12846TIP3    H138479   1.786   0.527   0.411
12846TIP3    H238480   1.675   0.616   0.360
12847TIP3   OH238481   1.193   4.286   2.672
12847TIP3    H138482   1.148   4.203   2.657
12847TIP3    H238483   1.232   4.277   2.759
12848TIP3   OH238484   2.317   6.562   5.258
12848TIP3    H138485   2.405   6.567   5.294
12848TIP3    H238486   2.290   6.653   5.246
12849TIP3   OH238487   4.239   5.962   0.825
12849TIP3    H138488   4.247   5.870   0.798
12849TIP3    H238489   4.144   5.978   0.826
12850TIP3   OH238490   5.197   7.670   2.417
12850TIP3    H138491   5.150   7.739   2.370
12850TIP3    H238492   5.137   7.644   2.486
12851TIP3   OH238493   7.091   0.192   6.219
12851TIP3    H138494   7.020   0.165   6.161
12851TIP3    H238495   7.164   0.135   6.196
12852TIP3   OH238496   0.858   7.038   4.398
12852TIP3    H138497   0.803   6.965   4.372
12852TIP3    H238498   0.887   7.016   4.487
12853TIP3   OH238499   2.259   3.278   5.710
12853TIP3    H138500   2.284   3.251   5.621
12853TIP3    H238501   2.164   3.271   5.711
12854TIP3   OH238502   4.589   7.257   4.795
12854TIP3    H138503   4.653   7.186   4.795
12854TIP3    H238504   4.514   7.222   4.746
12855TIP3   OH238505   4.760   3.953   3.951
12855TIP3    H138506   4.817   4.004   4.009
12855TIP3    H238507   4.672   3.969   3.985
12856TIP3   OH238508   6.376   6.440   3.063
12856TIP3    H138509   6.375   6.430   2.967
12856TIP3    H238510   6.398   6.532   3.077
12857TIP3   OH238511   6.269   7.296   0.072
12857TIP3    H138512   6.223   7.345   0.004
12857TIP3    H238513   6.233   7.207   0.066
12858TIP3   OH238514   2.607   3.354   2.985
12858TIP3    H138515   2.546   3.293   3.026
12858TIP3    H238516   2.608   3.328   2.893
12859TIP3   OH238517   5.890   7.224   4.380
12859TIP3    H138518   5.884   7.162   4.452
12859TIP3    H238519   5.942   7.179   4.313
12860TIP3   OH238520   6.125   6.308   3.804
12860TIP3    H138521   6.154   6.394   3.836
12860TIP3    H238522   6.030   6.316   3.797
12861TIP3   OH238523   4.252   5.937   4.915
12861TIP3    H138524   4.266   5.903   5.003
12861TIP3    H238525   4.270   6.031   4.923
12862TIP3   OH238526   8.046   3.116   5.506
12862TIP3    H138527   8.032   3.153   5.418
12862TIP3    H238528   8.140   3.122   5.519
12863TIP3   OH238529   6.863   7.158   3.434
12863TIP3    H138530   6.895   7.090   3.492
12863TIP3    H238531   6.826   7.111   3.359
12864TIP3   OH238532   4.796   3.895   0.541
12864TIP3    H138533   4.782   3.812   0.496
12864TIP3    H238534   4.793   3.961   0.472
12865TIP3   OH238535   0.588   1.624   2.815
12865TIP3    H138536   0.574   1.530   2.818
12865TIP3    H238537   0.563   1.649   2.726
12866TIP3   OH238538   5.447   7.592   5.512
12866TIP3    H138539   5.441   7.669   5.568
12866TIP3    H238540   5.356   7.566   5.496
12867TIP3   OH238541   3.599   1.711   4.940
12867TIP3    H138542   3.647   1.723   5.022
12867TIP3    H238543   3.660   1.739   4.872
12868TIP3   OH238544   3.412   5.105   2.137
12868TIP3    H138545   3.506   5.089   2.129
12868TIP3    H238546   3.398   5.120   2.230
12869TIP3   OH238547   8.228   3.447   2.092
12869TIP3    H138548   8.187   3.361   2.079
12869TIP3    H238549   8.322   3.429   2.093
12870TIP3   OH238550   6.804   6.467   4.805
12870TIP3    H138551   6.786   6.373   4.802
12870TIP3    H238552   6.763   6.497   4.885
12871TIP3   OH238553   5.423   0.232   3.810
12871TIP3    H138554   5.357   0.253   3.877
12871TIP3    H238555   5.482   0.307   3.810
12872TIP3   OH238556   4.461   1.188   5.823
12872TIP3    H138557   4.445   1.098   5.851
12872TIP3    H238558   4.556   1.194   5.815
12873TIP3   OH238559   8.340   3.297   5.324
12873TIP3    H138560   8.424   3.316   5.281
12873TIP3    H238561   8.324   3.375   5.378
12874TIP3   OH238562   6.339   7.361   0.823
12874TIP3    H138563   6.348   7.344   0.916
12874TIP3    H238564   6.273   7.298   0.793
12875TIP3   OH238565   6.847   0.488   6.143
12875TIP3    H138566   6.820   0.579   6.132
12875TIP3    H238567   6.844   0.473   6.237
12876TIP3   OH238568   3.314   2.040   5.479
12876TIP3    H138569   3.299   2.090   5.399
12876TIP3    H238570   3.230   2.040   5.524
12877TIP3   OH238571   0.586   7.124   4.531
12877TIP3    H138572   0.604   7.165   4.446
12877TIP3    H238573   0.621   7.035   4.523
12878TIP3   OH238574   1.869   5.547   4.751
12878TIP3    H138575   1.810   5.573   4.821
12878TIP3    H238576   1.815   5.496   4.691
12879TIP3   OH238577   5.790   5.728   4.028
12879TIP3    H138578   5.861   5.667   4.044
12879TIP3    H238579   5.717   5.694   4.080
12880TIP3   OH238580   0.837   6.155   1.592
12880TIP3    H138581   0.788   6.226   1.635
12880TIP3    H238582   0.781   6.128   1.520
12881TIP3   OH238583   1.671   7.523   0.105
12881TIP3    H138584   1.737   7.528   0.174
12881TIP3    H238585   1.667   7.612   0.070
12882TIP3   OH238586   5.522   7.575   2.137
12882TIP3    H138587   5.511   7.493   2.089
12882TIP3    H238588   5.556   7.636   2.072
12883TIP3   OH238589   0.335   0.976   3.884
12883TIP3    H138590   0.280   0.908   3.847
12883TIP3    H238591   0.425   0.944   3.872
12884TIP3   OH238592   6.166   1.483   3.112
12884TIP3    H138593   6.197   1.573   3.123
12884TIP3    H238594   6.099   1.489   3.044
12885TIP3   OH238595   7.372   6.637   0.656
12885TIP3    H138596   7.284   6.662   0.629
12885TIP3    H238597   7.407   6.587   0.581
12886TIP3   OH238598   2.435   2.243   2.296
12886TIP3    H138599   2.519   2.268   2.258
12886TIP3    H238600   2.379   2.319   2.282
12887TIP3   OH238601   6.917   5.273   6.424
12887TIP3    H138602   6.852   5.220   6.470
12887TIP3    H238603   6.979   5.209   6.388
12888TIP3   OH238604   5.574   6.617   0.819
12888TIP3    H138605   5.608   6.700   0.853
12888TIP3    H238606   5.602   6.552   0.882
12889TIP3   OH238607   1.483   2.811   3.066
12889TIP3    H138608   1.535   2.885   3.033
12889TIP3    H238609   1.548   2.747   3.094
12890TIP3   OH238610   6.351   1.620   0.978
12890TIP3    H138611   6.385   1.577   0.900
12890TIP3    H238612   6.365   1.714   0.961
12891TIP3   OH238613   4.506   3.201   5.035
12891TIP3    H138614   4.411   3.192   5.034
12891TIP3    H238615   4.533   3.163   5.119
12892TIP3   OH238616   1.052   3.345   6.604
12892TIP3    H138617   0.988   3.408   6.573
12892TIP3    H238618   1.091   3.386   6.681
12893TIP3   OH238619   6.480   0.537   5.691
12893TIP3    H138620   6.533   0.468   5.730
12893TIP3    H238621   6.394   0.528   5.733
12894TIP3   OH238622   4.464   2.857   1.965
12894TIP3    H138623   4.399   2.926   1.950
12894TIP3    H238624   4.436   2.816   2.046
12895TIP3   OH238625   0.766   7.038   3.772
12895TIP3    H138626   0.810   6.960   3.806
12895TIP3    H238627   0.789   7.040   3.679
12896TIP3   OH238628   6.048   5.701   4.651
12896TIP3    H138629   6.033   5.676   4.560
12896TIP3    H238630   6.107   5.777   4.646
12897TIP3   OH238631   4.166   1.220   2.884
12897TIP3    H138632   4.183   1.200   2.976
12897TIP3    H238633   4.076   1.253   2.882
12898TIP3   OH238634   4.071   4.876   1.647
12898TIP3    H138635   4.042   4.847   1.733
12898TIP3    H238636   3.990   4.895   1.599
12899TIP3   OH238637   3.802   2.708   5.986
12899TIP3    H138638   3.886   2.741   6.017
12899TIP3    H238639   3.793   2.622   6.027
12900TIP3   OH238640   3.336   0.303   0.391
12900TIP3    H138641   3.243   0.280   0.402
12900TIP3    H238642   3.342   0.394   0.421
12901TIP3   OH238643   0.844   4.702   3.521
12901TIP3    H138644   0.863   4.655   3.603
12901TIP3    H238645   0.920   4.684   3.466
12902TIP3   OH238646   2.818   5.766   3.943
12902TIP3    H138647   2.727   5.739   3.935
12902TIP3    H238648   2.815   5.845   3.997
12903TIP3   OH238649   7.682   0.420   5.368
12903TIP3    H138650   7.707   0.423   5.276
12903TIP3    H238651   7.593   0.388   5.368
12904TIP3   OH238652   2.833   7.214   5.005
12904TIP3    H138653   2.841   7.234   4.912
12904TIP3    H238654   2.913   7.167   5.027
12905TIP3   OH238655   7.022   3.806   0.437
12905TIP3    H138656   6.957   3.743   0.407
12905TIP3    H238657   7.083   3.754   0.490
12906TIP3   OH238658   5.751   7.297   4.033
12906TIP3    H138659   5.845   7.284   4.024
12906TIP3    H238660   5.738   7.320   4.124
12907TIP3   OH238661   2.535   3.321   2.720
12907TIP3    H138662   2.467   3.389   2.709
12907TIP3    H238663   2.602   3.344   2.655
12908TIP3   OH238664   2.323   3.691   4.812
12908TIP3    H138665   2.311   3.619   4.873
12908TIP3    H238666   2.236   3.707   4.776
12909TIP3   OH238667   4.277   5.027   4.761
12909TIP3    H138668   4.282   4.968   4.836
12909TIP3    H238669   4.368   5.035   4.732
12910TIP3   OH238670   5.207   0.303   3.627
12910TIP3    H138671   5.274   0.253   3.673
12910TIP3    H238672   5.125   0.261   3.650
12911TIP3   OH238673   4.141   6.398   0.178
12911TIP3    H138674   4.177   6.314   0.148
12911TIP3    H238675   4.189   6.417   0.258
12912TIP3   OH238676   0.151   0.373   4.881
12912TIP3    H138677   0.098   0.444   4.846
12912TIP3    H238678   0.128   0.370   4.974
12913TIP3   OH238679   8.300   4.836   5.492
12913TIP3    H138680   8.312   4.887   5.572
12913TIP3    H238681   8.387   4.831   5.453
12914TIP3   OH238682   2.249   2.230   0.834
12914TIP3    H138683   2.328   2.189   0.797
12914TIP3    H238684   2.203   2.158   0.878
12915TIP3   OH238685   7.848   1.927   0.620
12915TIP3    H138686   7.941   1.941   0.604
12915TIP3    H238687   7.805   1.996   0.571
12916TIP3   OH238688   6.453   4.357   0.965
12916TIP3    H138689   6.455   4.354   1.061
12916TIP3    H238690   6.542   4.383   0.940
12917TIP3   OH238691   5.937   2.116   4.709
12917TIP3    H138692   5.966   2.207   4.702
12917TIP3    H238693   6.014   2.064   4.684
12918TIP3   OH238694   7.613   0.176   0.538
12918TIP3    H138695   7.699   0.212   0.561
12918TIP3    H238696   7.557   0.253   0.528
12919TIP3   OH238697   2.707   0.955   1.941
12919TIP3    H138698   2.767   0.960   1.866
12919TIP3    H238699   2.621   0.935   1.902
12920TIP3   OH238700   8.048   6.200   3.579
12920TIP3    H138701   8.041   6.286   3.620
12920TIP3    H238702   7.977   6.149   3.618
12921TIP3   OH238703   0.133   7.719   0.101
12921TIP3    H138704   0.163   7.706   0.191
12921TIP3    H238705   0.204   7.684   0.047
12922TIP3   OH238706   7.074   1.598   4.713
12922TIP3    H138707   7.044   1.592   4.804
12922TIP3    H238708   6.998   1.569   4.661
12923TIP3   OH238709   1.742   5.437   3.838
12923TIP3    H138710   1.804   5.367   3.858
12923TIP3    H238711   1.789   5.518   3.861
12924TIP3   OH238712   3.783   3.671   2.361
12924TIP3    H138713   3.763   3.653   2.453
12924TIP3    H238714   3.701   3.656   2.315
12925TIP3   OH238715   4.132   0.306   2.306
12925TIP3    H138716   4.109   0.280   2.217
12925TIP3    H238717   4.089   0.242   2.362
12926TIP3   OH238718   1.748   4.615   2.914
12926TIP3    H138719   1.800   4.561   2.855
12926TIP3    H238720   1.727   4.694   2.863
12927TIP3   OH238721   4.720   5.987   6.353
12927TIP3    H138722   4.804   5.952   6.380
12927TIP3    H238723   4.665   5.982   6.431
12928TIP3   OH238724   5.918   5.993   4.008
12928TIP3    H138725   5.854   5.946   4.061
12928TIP3    H238726   5.962   5.925   3.957
12929TIP3   OH238727   2.863   5.577   4.774
12929TIP3    H138728   2.774   5.609   4.762
12929TIP3    H238729   2.853   5.485   4.797
12930TIP3   OH238730   5.119   6.775   5.854
12930TIP3    H138731   5.081   6.763   5.767
12930TIP3    H238732   5.100   6.866   5.877
12931TIP3   OH238733   7.817   2.398   1.512
12931TIP3    H138734   7.839   2.367   1.424
12931TIP3    H238735   7.871   2.476   1.523
12932TIP3   OH238736   6.758   5.075   1.146
12932TIP3    H138737   6.745   5.111   1.057
12932TIP3    H238738   6.734   5.147   1.204
12933TIP3   OH238739   2.507   4.402   0.528
12933TIP3    H138740   2.441   4.333   0.529
12933TIP3    H238741   2.494   4.449   0.610
12934TIP3   OH238742   2.655   3.063   4.770
12934TIP3    H138743   2.702   2.980   4.760
12934TIP3    H238744   2.609   3.074   4.686
12935TIP3   OH238745   2.983   5.208   1.421
12935TIP3    H138746   2.942   5.127   1.390
12935TIP3    H238747   2.932   5.234   1.497
12936TIP3   OH238748   2.142   5.029   5.030
12936TIP3    H138749   2.227   5.071   5.040
12936TIP3    H238750   2.161   4.946   4.985
12937TIP3   OH238751   6.487   5.940   2.573
12937TIP3    H138752   6.416   5.878   2.558
12937TIP3    H238753   6.565   5.885   2.583
12938TIP3   OH238754   8.248   7.558   5.436
12938TIP3    H138755   8.294   7.556   5.520
12938TIP3    H238756   8.156   7.543   5.458
12939TIP3   OH238757   0.483   1.054   5.494
12939TIP3    H138758   0.545   1.077   5.563
12939TIP3    H238759   0.397   1.056   5.537
12940TIP3   OH238760   3.288   5.491   3.013
12940TIP3    H138761   3.310   5.399   2.995
12940TIP3    H238762   3.314   5.503   3.105
12941TIP3   OH238763   6.812   7.513   4.785
12941TIP3    H138764   6.841   7.551   4.867
12941TIP3    H238765   6.733   7.463   4.808
12942TIP3   OH238766   8.326   3.333   4.858
12942TIP3    H138767   8.412   3.327   4.901
12942TIP3    H238768   8.342   3.388   4.781
12943TIP3   OH238769   2.101   5.880   0.627
12943TIP3    H138770   2.091   5.813   0.559
12943TIP3    H238771   2.194   5.900   0.627
12944TIP3   OH238772   2.479   7.347   2.163
12944TIP3    H138773   2.510   7.426   2.207
12944TIP3    H238774   2.555   7.288   2.163
12945TIP3   OH238775   5.533   4.234   5.124
12945TIP3    H138776   5.471   4.188   5.067
12945TIP3    H238777   5.608   4.252   5.068
12946TIP3   OH238778   3.837   5.726   2.268
12946TIP3    H138779   3.888   5.702   2.345
12946TIP3    H238780   3.874   5.810   2.240
12947TIP3   OH238781   0.158   0.730   3.300
12947TIP3    H138782   0.153   0.762   3.210
12947TIP3    H238783   0.244   0.757   3.331
12948TIP3   OH238784   7.163   6.149   6.754
12948TIP3    H138785   7.149   6.113   6.841
12948TIP3    H238786   7.238   6.102   6.720
12949TIP3   OH238787   1.089   2.484   3.506
12949TIP3    H138788   1.159   2.445   3.453
12949TIP3    H238789   1.107   2.578   3.504
12950TIP3   OH238790   2.049   4.429   2.573
12950TIP3    H138791   2.034   4.334   2.576
12950TIP3    H238792   2.137   4.441   2.608
12951TIP3   OH238793   5.316   3.506   6.000
12951TIP3    H138794   5.407   3.500   5.969
12951TIP3    H238795   5.301   3.423   6.045
12952TIP3   OH238796   1.000   6.188   2.522
12952TIP3    H138797   0.989   6.095   2.542
12952TIP3    H238798   0.919   6.212   2.476
12953TIP3   OH238799   4.795   2.946   4.824
12953TIP3    H138800   4.727   2.963   4.760
12953TIP3    H238801   4.846   2.874   4.787
12954TIP3   OH238802   7.800   7.514   0.679
12954TIP3    H138803   7.857   7.558   0.743
12954TIP3    H238804   7.724   7.486   0.730
12955TIP3   OH238805   7.157   6.694   1.827
12955TIP3    H138806   7.069   6.733   1.836
12955TIP3    H238807   7.140   6.601   1.813
12956TIP3   OH238808   7.982   7.408   3.180
12956TIP3    H138809   7.910   7.465   3.154
12956TIP3    H238810   8.047   7.419   3.111
12957TIP3   OH238811   7.887   4.564   4.540
12957TIP3    H138812   7.910   4.478   4.505
12957TIP3    H238813   7.796   4.554   4.568
12958TIP3   OH238814   5.447   1.570   2.921
12958TIP3    H138815   5.442   1.639   2.854
12958TIP3    H238816   5.538   1.540   2.918
12959TIP3   OH238817   3.604   7.125   5.378
12959TIP3    H138818   3.642   7.154   5.296
12959TIP3    H238819   3.520   7.171   5.384
12960TIP3   OH238820   4.235   0.590   1.315
12960TIP3    H138821   4.309   0.575   1.256
12960TIP3    H238822   4.168   0.527   1.287
12961TIP3   OH238823   5.139   2.853   4.159
12961TIP3    H138824   5.229   2.833   4.134
12961TIP3    H238825   5.103   2.769   4.189
12962TIP3   OH238826   6.733   3.503   2.889
12962TIP3    H138827   6.749   3.501   2.795
12962TIP3    H238828   6.703   3.414   2.910
12963TIP3   OH238829   7.649   3.231   6.059
12963TIP3    H138830   7.577   3.272   6.011
12963TIP3    H238831   7.611   3.210   6.145
12964TIP3   OH238832   4.288   1.876   3.211
12964TIP3    H138833   4.216   1.934   3.185
12964TIP3    H238834   4.279   1.869   3.306
12965TIP3   OH238835   7.750   0.240   1.554
12965TIP3    H138836   7.718   0.283   1.633
12965TIP3    H238837   7.730   0.302   1.483
12966TIP3   OH238838   7.872   4.503   2.415
12966TIP3    H138839   7.842   4.427   2.464
12966TIP3    H238840   7.941   4.541   2.470
12967TIP3   OH238841   4.937   7.068   5.771
12967TIP3    H138842   4.950   7.042   5.862
12967TIP3    H238843   5.007   7.024   5.723
12968TIP3   OH238844   2.092   7.575   5.392
12968TIP3    H138845   2.149   7.526   5.333
12968TIP3    H238846   2.016   7.598   5.340
12969TIP3   OH238847   0.256   1.823   5.744
12969TIP3    H138848   0.330   1.765   5.761
12969TIP3    H238849   0.297   1.903   5.710
12970TIP3   OH238850   2.568   0.198   3.802
12970TIP3    H138851   2.565   0.120   3.857
12970TIP3    H238852   2.661   0.223   3.801
12971TIP3   OH238853   1.340   3.302   3.145
12971TIP3    H138854   1.399   3.371   3.115
12971TIP3    H238855   1.255   3.326   3.108
12972TIP3   OH238856   3.339   4.285   1.748
12972TIP3    H138857   3.297   4.301   1.663
12972TIP3    H238858   3.368   4.194   1.744
12973TIP3   OH238859   4.988   6.237   5.591
12973TIP3    H138860   4.986   6.268   5.500
12973TIP3    H238861   5.080   6.213   5.606
12974TIP3   OH238862   6.716   6.616   3.604
12974TIP3    H138863   6.643   6.581   3.553
12974TIP3    H238864   6.778   6.543   3.609
12975TIP3   OH238865   7.663   3.006   0.098
12975TIP3    H138866   7.651   2.981   0.006
12975TIP3    H238867   7.718   3.084   0.095
12976TIP3   OH238868   1.687   3.551   5.598
12976TIP3    H138869   1.641   3.595   5.669
12976TIP3    H238870   1.776   3.588   5.600
12977TIP3   OH238871   2.673   7.662   4.751
12977TIP3    H138872   2.605   7.711   4.797
12977TIP3    H238873   2.651   7.570   4.765
12978TIP3   OH238874   6.111   5.124   1.352
12978TIP3    H138875   6.045   5.079   1.405
12978TIP3    H238876   6.067   5.205   1.322
12979TIP3   OH238877   7.840   7.887   6.531
12979TIP3    H138878   7.757   7.840   6.527
12979TIP3    H238879   7.895   7.835   6.590
12980TIP3   OH238880   7.269   4.225   0.223
12980TIP3    H138881   7.191   4.240   0.171
12980TIP3    H238882   7.242   4.162   0.290
12981TIP3   OH238883   8.232   7.181   6.225
12981TIP3    H138884   8.255   7.104   6.277
12981TIP3    H238885   8.270   7.255   6.272
12982TIP3   OH238886   4.410   7.044   5.108
12982TIP3    H138887   4.499   7.010   5.094
12982TIP3    H238888   4.394   7.101   5.033
12983TIP3   OH238889   6.141   0.215   3.344
12983TIP3    H138890   6.192   0.265   3.280
12983TIP3    H238891   6.068   0.272   3.367
12984TIP3   OH238892   7.184   6.887   3.334
12984TIP3    H138893   7.136   6.813   3.372
12984TIP3    H238894   7.211   6.939   3.409
12985TIP3   OH238895   0.836   5.345   3.416
12985TIP3    H138896   0.867   5.417   3.360
12985TIP3    H238897   0.813   5.388   3.498
12986TIP3   OH238898   6.718   2.040   4.641
12986TIP3    H138899   6.705   1.982   4.716
12986TIP3    H238900   6.634   2.038   4.595
12987TIP3   OH238901   6.191   5.494   2.553
12987TIP3    H138902   6.127   5.545   2.503
12987TIP3    H238903   6.246   5.559   2.596
12988TIP3   OH238904   3.523   0.362   0.734
12988TIP3    H138905   3.593   0.298   0.750
12988TIP3    H238906   3.514   0.409   0.817
12989TIP3   OH238907   7.911   0.410   6.562
12989TIP3    H138908   7.887   0.353   6.489
12989TIP3    H238909   7.935   0.493   6.522
12990TIP3   OH238910   4.574   7.133   5.423
12990TIP3    H138911   4.603   7.042   5.427
12990TIP3    H238912   4.488   7.133   5.465
12991TIP3   OH238913   5.613   0.434   5.759
12991TIP3    H138914   5.587   0.369   5.824
12991TIP3    H238915   5.676   0.491   5.806
12992TIP3   OH238916   7.530   3.369   4.345
12992TIP3    H138917   7.570   3.292   4.305
12992TIP3    H238918   7.440   3.342   4.365
12993TIP3   OH238919   2.039   3.549   0.966
12993TIP3    H138920   2.113   3.490   0.955
12993TIP3    H238921   1.969   3.511   0.914
12994TIP3   OH238922   3.777   6.086   3.034
12994TIP3    H138923   3.739   6.164   3.075
12994TIP3    H238924   3.702   6.028   3.020
12995TIP3   OH238925   5.090   4.277   3.296
12995TIP3    H138926   5.080   4.306   3.206
12995TIP3    H238927   5.099   4.182   3.290
12996TIP3   OH238928   8.208   5.625   3.790
12996TIP3    H138929   8.201   5.544   3.739
12996TIP3    H238930   8.255   5.598   3.870
12997TIP3   OH238931   6.152   0.716   2.888
12997TIP3    H138932   6.060   0.706   2.915
12997TIP3    H238933   6.182   0.627   2.870
12998TIP3   OH238934   7.767   4.340   0.933
12998TIP3    H138935   7.780   4.435   0.934
12998TIP3    H238936   7.686   4.327   0.983
12999TIP3   OH238937   0.066   0.483   5.475
12999TIP3    H138938   0.152   0.465   5.439
12999TIP3    H238939   0.068   0.447   5.564
13000TIP3   OH238940   5.232   4.712   4.823
13000TIP3    H138941   5.186   4.696   4.905
13000TIP3    H238942   5.324   4.692   4.842
13001TIP3   OH238943   2.961   0.609   5.982
13001TIP3    H138944   3.034   0.618   5.921
13001TIP3    H238945   2.978   0.676   6.049
13002TIP3   OH238946   2.532   3.973   0.975
13002TIP3    H138947   2.599   3.910   0.949
13002TIP3    H238948   2.450   3.924   0.973
13003TIP3   OH238949   3.046   4.439   5.884
13003TIP3    H138950   3.045   4.530   5.913
13003TIP3    H238951   3.135   4.424   5.853
13004TIP3   OH238952   8.226   2.478   4.921
13004TIP3    H138953   8.205   2.460   4.829
13004TIP3    H238954   8.309   2.527   4.917
13005TIP3   OH238955   7.035   3.783   4.268
13005TIP3    H138956   7.123   3.770   4.234
13005TIP3    H238957   6.987   3.823   4.196
13006TIP3   OH238958   6.213   0.204   0.943
13006TIP3    H138959   6.219   0.244   1.030
13006TIP3    H238960   6.267   0.125   0.949
13007TIP3   OH238961   6.781   4.305   0.858
13007TIP3    H138962   6.794   4.268   0.945
13007TIP3    H238963   6.728   4.240   0.812
13008TIP3   OH238964   3.599   7.386   0.877
13008TIP3    H138965   3.510   7.355   0.859
13008TIP3    H238966   3.655   7.311   0.855
13009TIP3   OH238967   0.076   5.360   5.612
13009TIP3    H138968   0.053   5.371   5.520
13009TIP3    H238969   0.141   5.289   5.612
13010TIP3   OH238970   2.797   2.650   0.009
13010TIP3    H138971   2.707   2.626   0.030
13010TIP3    H238972   2.846   2.637   0.090
13011TIP3   OH238973   2.522   7.533   3.528
13011TIP3    H138974   2.611   7.564   3.543
13011TIP3    H238975   2.531   7.462   3.465
13012TIP3   OH238976   2.320   0.703   1.222
13012TIP3    H138977   2.291   0.783   1.179
13012TIP3    H238978   2.239   0.652   1.235
13013TIP3   OH238979   6.518   6.255   5.340
13013TIP3    H138980   6.549   6.236   5.251
13013TIP3    H238981   6.468   6.177   5.365
13014TIP3   OH238982   7.509   3.150   5.684
13014TIP3    H138983   7.525   3.144   5.590
13014TIP3    H238984   7.514   3.243   5.704
13015TIP3   OH238985   1.273   4.215   3.216
13015TIP3    H138986   1.215   4.268   3.272
13015TIP3    H238987   1.361   4.248   3.235
13016TIP3   OH238988   1.054   3.032   0.274
13016TIP3    H138989   0.982   3.061   0.217
13016TIP3    H238990   1.013   3.021   0.360
13017TIP3   OH238991   4.024   1.951   6.832
13017TIP3    H138992   4.060   1.863   6.819
13017TIP3    H238993   4.002   1.954   6.925
13018TIP3   OH238994   1.042   0.938   1.450
13018TIP3    H138995   1.074   1.011   1.398
13018TIP3    H238996   0.961   0.911   1.406
13019TIP3   OH238997   3.410   2.905   5.656
13019TIP3    H138998   3.329   2.904   5.706
13019TIP3    H238999   3.414   2.819   5.615
13020TIP3   OH239000   6.126   4.855   3.065
13020TIP3    H139001   6.062   4.923   3.040
13020TIP3    H239002   6.208   4.903   3.078
13021TIP3   OH239003   7.916   3.275   3.400
13021TIP3    H139004   7.916   3.304   3.492
13021TIP3    H239005   7.967   3.194   3.402
13022TIP3   OH239006   2.285   0.517   3.150
13022TIP3    H139007   2.291   0.434   3.198
13022TIP3    H239008   2.340   0.503   3.072
13023TIP3   OH239009   4.499   2.161   0.708
13023TIP3    H139010   4.408   2.175   0.681
13023TIP3    H239011   4.494   2.154   0.803
13024TIP3   OH239012   7.034   1.623   5.873
13024TIP3    H139013   6.994   1.568   5.940
13024TIP3    H239014   7.123   1.639   5.905
13025TIP3   OH239015   6.731   2.147   5.909
13025TIP3    H139016   6.667   2.132   5.979
13025TIP3    H239017   6.709   2.234   5.875
13026TIP3   OH239018   2.349   4.404   5.374
13026TIP3    H139019   2.313   4.316   5.382
13026TIP3    H239020   2.336   4.444   5.460
13027TIP3   OH239021   2.441   6.775   3.945
13027TIP3    H139022   2.507   6.742   4.007
13027TIP3    H239023   2.426   6.865   3.973
13028TIP3   OH239024   5.695   6.679   4.934
13028TIP3    H139025   5.678   6.674   5.028
13028TIP3    H239026   5.778   6.727   4.926
13029TIP3   OH239027   4.078   2.636   4.664
13029TIP3    H139028   3.989   2.610   4.689
13029TIP3    H239029   4.069   2.669   4.575
13030TIP3   OH239030   0.325   6.603   3.517
13030TIP3    H139031   0.373   6.523   3.537
13030TIP3    H239032   0.238   6.573   3.488
13031TIP3   OH239033   6.432   2.644   5.909
13031TIP3    H139034   6.463   2.708   5.973
13031TIP3    H239035   6.370   2.590   5.958
13032TIP3   OH239036   7.701   2.327   3.590
13032TIP3    H139037   7.788   2.313   3.628
13032TIP3    H239038   7.642   2.279   3.648
13033TIP3   OH239039   7.102   5.823   0.133
13033TIP3    H139040   7.109   5.759   0.062
13033TIP3    H239041   7.029   5.792   0.187
13034TIP3   OH239042   6.262   7.857   0.468
13034TIP3    H139043   6.180   7.901   0.447
13034TIP3    H239044   6.267   7.784   0.406
13035TIP3   OH239045   5.447   5.019   4.819
13035TIP3    H139046   5.448   5.010   4.914
13035TIP3    H239047   5.539   5.032   4.796
13036TIP3   OH239048   4.601   4.563   1.222
13036TIP3    H139049   4.687   4.570   1.182
13036TIP3    H239050   4.541   4.550   1.149
13037TIP3   OH239051   3.437   7.606   1.823
13037TIP3    H139052   3.342   7.607   1.831
13037TIP3    H239053   3.464   7.692   1.854
13038TIP3   OH239054   5.712   7.452   3.419
13038TIP3    H139055   5.666   7.532   3.444
13038TIP3    H239056   5.736   7.465   3.327
13039TIP3   OH239057   7.726   2.884   1.747
13039TIP3    H139058   7.727   2.792   1.722
13039TIP3    H239059   7.678   2.886   1.830
13040TIP3   OH239060   2.381   1.226   2.539
13040TIP3    H139061   2.424   1.238   2.455
13040TIP3    H239062   2.293   1.263   2.527
13041TIP3   OH239063   4.904   5.025   4.407
13041TIP3    H139064   4.968   4.957   4.387
13041TIP3    H239065   4.824   4.976   4.428
13042TIP3   OH239066   7.006   7.291   5.427
13042TIP3    H139067   7.096   7.262   5.439
13042TIP3    H239068   6.976   7.244   5.349
13043TIP3   OH239069   1.906   6.062   4.356
13043TIP3    H139070   1.947   6.026   4.277
13043TIP3    H239071   1.828   6.008   4.369
13044TIP3   OH239072   1.920   2.600   3.713
13044TIP3    H139073   2.001   2.642   3.684
13044TIP3    H239074   1.925   2.599   3.808
13045TIP3   OH239075   4.393   3.658   2.723
13045TIP3    H139076   4.300   3.674   2.736
13045TIP3    H239077   4.429   3.742   2.696
13046TIP3   OH239078   1.270   2.159   0.770
13046TIP3    H139079   1.203   2.109   0.724
13046TIP3    H239080   1.281   2.114   0.854
13047TIP3   OH239081   6.159   4.417   6.818
13047TIP3    H139082   6.106   4.339   6.828
13047TIP3    H239083   6.231   4.406   6.880
13048TIP3   OH239084   6.652   0.650   4.957
13048TIP3    H139085   6.725   0.588   4.953
13048TIP3    H239086   6.686   0.730   4.917
13049TIP3   OH239087   3.987   3.695   4.482
13049TIP3    H139088   4.019   3.757   4.548
13049TIP3    H239089   4.059   3.633   4.470
13050TIP3   OH239090   7.586   3.228   3.994
13050TIP3    H139091   7.668   3.244   4.040
13050TIP3    H239092   7.532   3.305   4.012
13051TIP3   OH239093   0.155   5.729   1.973
13051TIP3    H139094   0.218   5.659   1.990
13051TIP3    H239095   0.120   5.710   1.886
13052TIP3   OH239096   6.150   3.460   6.048
13052TIP3    H139097   6.142   3.555   6.035
13052TIP3    H239098   6.060   3.429   6.057
13053TIP3   OH239099   2.745   1.475   5.510
13053TIP3    H139100   2.812   1.535   5.475
13053TIP3    H239101   2.708   1.522   5.584
13054TIP3   OH239102   0.824   0.617   5.636
13054TIP3    H139103   0.883   0.680   5.676
13054TIP3    H239104   0.855   0.531   5.665
13055TIP3   OH239105   3.778   4.511   5.645
13055TIP3    H139106   3.862   4.557   5.640
13055TIP3    H239107   3.757   4.488   5.554
13056TIP3   OH239108   7.022   3.590   1.761
13056TIP3    H139109   6.973   3.671   1.777
13056TIP3    H239110   7.078   3.611   1.686
13057TIP3   OH239111   3.071   1.660   3.870
13057TIP3    H139112   3.079   1.689   3.779
13057TIP3    H239113   3.003   1.716   3.907
13058TIP3   OH239114   4.119   4.630   3.488
13058TIP3    H139115   4.123   4.719   3.452
13058TIP3    H239116   4.117   4.573   3.411
13059TIP3   OH239117   3.424   5.171   0.736
13059TIP3    H139118   3.483   5.236   0.697
13059TIP3    H239119   3.355   5.223   0.777
13060TIP3   OH239120   1.834   1.899   0.359
13060TIP3    H139121   1.910   1.954   0.379
13060TIP3    H239122   1.761   1.942   0.404
13061TIP3   OH239123   2.581   0.824   6.510
13061TIP3    H139124   2.537   0.908   6.494
13061TIP3    H239125   2.668   0.835   6.471
13062TIP3   OH239126   7.654   4.939   1.291
13062TIP3    H139127   7.729   4.900   1.247
13062TIP3    H239128   7.660   5.032   1.271
13063TIP3   OH239129   3.019   3.827   1.640
13063TIP3    H139130   3.060   3.754   1.687
13063TIP3    H239131   3.062   3.905   1.676
13064TIP3   OH239132   5.838   2.899   4.485
13064TIP3    H139133   5.889   2.957   4.428
13064TIP3    H239134   5.763   2.953   4.512
13065TIP3   OH239135   4.059   6.081   4.382
13065TIP3    H139136   4.020   6.157   4.340
13065TIP3    H239137   4.043   6.009   4.321
13066TIP3   OH239138   1.053   6.848   6.561
13066TIP3    H139139   1.052   6.824   6.654
13066TIP3    H239140   1.128   6.906   6.552
13067TIP3   OH239141   4.164   1.609   5.944
13067TIP3    H139142   4.160   1.612   6.040
13067TIP3    H239143   4.207   1.691   5.919
13068TIP3   OH239144   0.319   0.296   3.051
13068TIP3    H139145   0.256   0.364   3.027
13068TIP3    H239146   0.328   0.243   2.972
13069TIP3   OH239147   5.666   5.747   3.351
13069TIP3    H139148   5.686   5.730   3.443
13069TIP3    H239149   5.584   5.797   3.354
13070TIP3   OH239150   3.826   2.815   5.587
13070TIP3    H139151   3.764   2.883   5.614
13070TIP3    H239152   3.774   2.734   5.587
13071TIP3   OH239153   6.610   3.812   1.243
13071TIP3    H139154   6.657   3.796   1.325
13071TIP3    H239155   6.537   3.750   1.245
13072TIP3   OH239156   1.726   4.145   3.275
13072TIP3    H139157   1.812   4.152   3.317
13072TIP3    H239158   1.742   4.168   3.184
13073TIP3   OH239159   1.238   5.731   4.062
13073TIP3    H139160   1.149   5.766   4.054
13073TIP3    H239161   1.226   5.640   4.090
13074TIP3   OH239162   5.134   5.614   3.340
13074TIP3    H139163   5.187   5.630   3.418
13074TIP3    H239164   5.057   5.568   3.372
13075TIP3   OH239165   4.087   7.591   5.033
13075TIP3    H139166   4.024   7.656   5.000
13075TIP3    H239167   4.169   7.640   5.042
13076TIP3   OH239168   0.657   5.932   4.567
13076TIP3    H139169   0.609   5.851   4.550
13076TIP3    H239170   0.734   5.905   4.615
13077TIP3   OH239171   5.336   0.506   0.518
13077TIP3    H139172   5.381   0.578   0.562
13077TIP3    H239173   5.271   0.548   0.463
13078TIP3   OH239174   2.993   4.910   5.282
13078TIP3    H139175   2.933   4.868   5.220
13078TIP3    H239176   2.936   4.963   5.338
13079TIP3   OH239177   5.137   7.512   5.461
13079TIP3    H139178   5.151   7.551   5.375
13079TIP3    H239179   5.155   7.419   5.448
13080TIP3   OH239180   4.642   7.510   0.326
13080TIP3    H139181   4.686   7.510   0.241
13080TIP3    H239182   4.597   7.426   0.331
13081TIP3   OH239183   7.179   1.025   6.026
13081TIP3    H139184   7.195   1.115   6.056
13081TIP3    H239185   7.133   1.036   5.943
13082TIP3   OH239186   1.705   4.239   5.110
13082TIP3    H139187   1.696   4.273   5.199
13082TIP3    H239188   1.640   4.170   5.104
13083TIP3   OH239189   0.421   3.514   5.304
13083TIP3    H139190   0.495   3.456   5.284
13083TIP3    H239191   0.444   3.597   5.262
13084TIP3   OH239192   1.392   6.534   4.463
13084TIP3    H139193   1.377   6.443   4.486
13084TIP3    H239194   1.448   6.530   4.385
13085TIP3   OH239195   1.215   0.226   1.964
13085TIP3    H139196   1.286   0.174   2.002
13085TIP3    H239197   1.260   0.296   1.917
13086TIP3   OH239198   7.475   4.066   3.616
13086TIP3    H139199   7.564   4.092   3.640
13086TIP3    H239200   7.442   4.023   3.695
13087TIP3   OH239201   1.648   4.389   0.911
13087TIP3    H139202   1.591   4.312   0.908
13087TIP3    H239203   1.605   4.453   0.855
13088TIP3   OH239204   7.683   7.100   6.307
13088TIP3    H139205   7.706   7.008   6.300
13088TIP3    H239206   7.763   7.143   6.338
13089TIP3   OH239207   7.033   1.887   0.905
13089TIP3    H139208   7.115   1.886   0.855
13089TIP3    H239209   7.053   1.837   0.984
13090TIP3   OH239210   3.710   0.928   0.416
13090TIP3    H139211   3.773   0.995   0.392
13090TIP3    H239212   3.760   0.866   0.470
13091TIP3   OH239213   6.079   5.168   3.765
13091TIP3    H139214   6.141   5.108   3.723
13091TIP3    H239215   6.093   5.154   3.859
13092TIP3   OH239216   6.938   4.070   6.647
13092TIP3    H139217   6.924   4.027   6.562
13092TIP3    H239218   6.882   4.021   6.708
13093TIP3   OH239219   3.233   2.108   0.333
13093TIP3    H139220   3.166   2.093   0.266
13093TIP3    H239221   3.315   2.079   0.293
13094TIP3   OH239222   4.353   0.900   2.333
13094TIP3    H139223   4.424   0.862   2.384
13094TIP3    H239224   4.279   0.841   2.348
13095TIP3   OH239225   5.856   1.549   5.369
13095TIP3    H139226   5.864   1.460   5.334
13095TIP3    H239227   5.762   1.565   5.372
13096TIP3   OH239228   6.814   1.337   3.900
13096TIP3    H139229   6.807   1.317   3.807
13096TIP3    H239230   6.854   1.424   3.902
13097TIP3   OH239231   4.977   5.817   6.101
13097TIP3    H139232   5.062   5.836   6.140
13097TIP3    H239233   4.974   5.722   6.092
13098TIP3   OH239234   1.202   4.707   5.945
13098TIP3    H139235   1.177   4.782   5.891
13098TIP3    H239236   1.196   4.738   6.035
13099TIP3   OH239237   5.367   6.079   2.808
13099TIP3    H139238   5.339   5.989   2.790
13099TIP3    H239239   5.318   6.104   2.886
13100TIP3   OH239240   5.757   3.856   5.647
13100TIP3    H139241   5.681   3.803   5.673
13100TIP3    H239242   5.727   3.947   5.656
13101TIP3   OH239243   3.916   5.934   6.901
13101TIP3    H139244   3.821   5.920   6.900
13101TIP3    H239245   3.938   5.952   6.810
13102TIP3   OH239246   4.296   5.976   6.787
13102TIP3    H139247   4.369   6.023   6.827
13102TIP3    H239248   4.297   5.890   6.827
13103TIP3   OH239249   6.839   0.637   2.756
13103TIP3    H139250   6.803   0.551   2.735
13103TIP3    H239251   6.762   0.691   2.777
13104TIP3   OH239252   2.120   5.485   5.262
13104TIP3    H139253   2.115   5.395   5.296
13104TIP3    H239254   2.213   5.501   5.251
13105TIP3   OH239255   1.322   4.276   5.538
13105TIP3    H139256   1.417   4.266   5.550
13105TIP3    H239257   1.283   4.213   5.599
13106TIP3   OH239258   6.731   5.748   5.568
13106TIP3    H139259   6.641   5.757   5.601
13106TIP3    H239260   6.779   5.707   5.640
13107TIP3   OH239261   6.207   7.724   0.813
13107TIP3    H139262   6.127   7.725   0.761
13107TIP3    H239263   6.261   7.656   0.772
13108TIP3   OH239264   0.239   7.383   2.060
13108TIP3    H139265   0.163   7.428   2.096
13108TIP3    H239266   0.309   7.401   2.123
13109TIP3   OH239267   1.513   7.781   5.157
13109TIP3    H139268   1.563   7.701   5.169
13109TIP3    H239269   1.456   7.785   5.234
13110TIP3   OH239270   2.960   0.103   5.177
13110TIP3    H139271   2.872   0.070   5.196
13110TIP3    H239272   2.952   0.143   5.091
13111TIP3   OH239273   5.637   6.802   2.811
13111TIP3    H139274   5.609   6.711   2.800
13111TIP3    H239275   5.729   6.797   2.837
13112TIP3   OH239276   4.794   4.322   0.198
13112TIP3    H139277   4.777   4.416   0.202
13112TIP3    H239278   4.814   4.305   0.106
13113TIP3   OH239279   8.123   0.881   2.711
13113TIP3    H139280   8.178   0.847   2.783
13113TIP3    H239281   8.036   0.846   2.730
13114TIP3   OH239282   5.656   5.544   5.414
13114TIP3    H139283   5.639   5.452   5.395
13114TIP3    H239284   5.574   5.577   5.449
13115TIP3   OH239285   0.913   2.258   4.435
13115TIP3    H139286   1.003   2.262   4.469
13115TIP3    H239287   0.924   2.251   4.340
13116TIP3   OH239288   7.975   0.050   1.517
13116TIP3    H139289   7.972   0.006   1.602
13116TIP3    H239290   7.907   0.118   1.523
13117TIP3   OH239291   8.340   2.605   6.917
13117TIP3    H139292   8.429   2.629   6.892
13117TIP3    H239293   8.331   2.514   6.889
13118TIP3   OH239294   0.887   2.403   6.498
13118TIP3    H139295   0.828   2.424   6.425
13118TIP3    H239296   0.947   2.338   6.461
13119TIP3   OH239297   7.758   0.284   3.172
13119TIP3    H139298   7.746   0.332   3.255
13119TIP3    H239299   7.735   0.194   3.194
13120TIP3   OH239300   3.022   0.533   1.340
13120TIP3    H139301   3.061   0.621   1.339
13120TIP3    H239302   2.928   0.548   1.330
13121TIP3   OH239303   2.884   4.369   1.199
13121TIP3    H139304   2.806   4.370   1.254
13121TIP3    H239305   2.855   4.409   1.117
13122TIP3   OH239306   7.481   1.110   5.624
13122TIP3    H139307   7.577   1.111   5.628
13122TIP3    H239308   7.458   1.018   5.631
13123TIP3   OH239309   5.163   5.472   2.751
13123TIP3    H139310   5.075   5.446   2.775
13123TIP3    H239311   5.152   5.554   2.702
13124TIP3   OH239312   3.680   0.004   6.830
13124TIP3    H139313   3.640   0.089   6.810
13124TIP3    H239314   3.636  -0.025   6.910
13125TIP3   OH239315   1.402   5.081   2.471
13125TIP3    H139316   1.388   5.081   2.566
13125TIP3    H239317   1.356   5.003   2.441
13126TIP3   OH239318   3.747   0.878   6.090
13126TIP3    H139319   3.696   0.878   6.009
13126TIP3    H239320   3.789   0.964   6.091
13127TIP3   OH239321   4.614   2.652   0.473
13127TIP3    H139322   4.599   2.612   0.558
13127TIP3    H239323   4.676   2.723   0.490
13128TIP3   OH239324   2.414   1.735   2.477
13128TIP3    H139325   2.491   1.728   2.534
13128TIP3    H239326   2.412   1.828   2.452
13129TIP3   OH239327   2.936   6.789   1.030
13129TIP3    H139328   2.958   6.697   1.045
13129TIP3    H239329   2.913   6.823   1.117
13130TIP3   OH239330   7.909   1.470   3.680
13130TIP3    H139331   7.882   1.560   3.694
13130TIP3    H239332   7.832   1.418   3.703
13131TIP3   OH239333   2.236   3.819   0.274
13131TIP3    H139334   2.200   3.739   0.234
13131TIP3    H239335   2.170   3.844   0.338
13132TIP3   OH239336   6.151   4.464   3.392
13132TIP3    H139337   6.180   4.545   3.351
13132TIP3    H239338   6.125   4.408   3.319
13133TIP3   OH239339   2.226   4.312   6.872
13133TIP3    H139340   2.189   4.285   6.788
13133TIP3    H239341   2.316   4.279   6.870
13134TIP3   OH239342   2.761   1.741   0.428
13134TIP3    H139343   2.682   1.789   0.399
13134TIP3    H239344   2.813   1.807   0.473
13135TIP3   OH239345   0.494   5.754   0.990
13135TIP3    H139346   0.477   5.811   1.066
13135TIP3    H239347   0.575   5.708   1.013
13136TIP3   OH239348   7.928   0.092   3.523
13136TIP3    H139349   7.991   0.157   3.492
13136TIP3    H239350   7.853   0.100   3.463
13137TIP3   OH239351   2.207   0.415   0.210
13137TIP3    H139352   2.225   0.465   0.290
13137TIP3    H239353   2.230   0.475   0.139
13138TIP3   OH239354   2.145   6.550   2.413
13138TIP3    H139355   2.069   6.601   2.385
13138TIP3    H239356   2.220   6.607   2.395
13139TIP3   OH239357   5.409   0.447   2.390
13139TIP3    H139358   5.453   0.427   2.472
13139TIP3    H239359   5.459   0.521   2.354
13140TIP3   OH239360   4.369   1.124   2.182
13140TIP3    H139361   4.465   1.117   2.187
13140TIP3    H239362   4.337   1.057   2.241
13141TIP3   OH239363   5.669   7.631   4.317
13141TIP3    H139364   5.724   7.640   4.394
13141TIP3    H239365   5.727   7.648   4.243
13142TIP3   OH239366   4.296   2.609   6.055
13142TIP3    H139367   4.350   2.622   6.133
13142TIP3    H239368   4.350   2.641   5.983
13143TIP3   OH239369   2.497   1.586   5.349
13143TIP3    H139370   2.578   1.584   5.299
13143TIP3    H239371   2.511   1.524   5.421
13144TIP3   OH239372   7.555   2.579   0.124
13144TIP3    H139373   7.526   2.593   0.214
13144TIP3    H239374   7.479   2.538   0.081
13145TIP3   OH239375   8.027   7.439   0.476
13145TIP3    H139376   7.948   7.453   0.422
13145TIP3    H239377   8.032   7.516   0.532
13146TIP3   OH239378   5.486   4.186   2.762
13146TIP3    H139379   5.502   4.248   2.691
13146TIP3    H239380   5.535   4.108   2.738
13147TIP3   OH239381   2.394   0.422   1.350
13147TIP3    H139382   2.488   0.431   1.335
13147TIP3    H239383   2.355   0.437   1.263
13148TIP3   OH239384   2.990   4.194   5.678
13148TIP3    H139385   3.041   4.254   5.733
13148TIP3    H239386   2.938   4.252   5.622
13149TIP3   OH239387   1.551   4.208   2.500
13149TIP3    H139388   1.605   4.253   2.435
13149TIP3    H239389   1.571   4.115   2.489
13150TIP3   OH239390   1.178   6.354   6.285
13150TIP3    H139391   1.215   6.382   6.369
13150TIP3    H239392   1.195   6.260   6.282
13151TIP3   OH239393   4.147   6.825   0.191
13151TIP3    H139394   4.219   6.762   0.183
13151TIP3    H239395   4.078   6.777   0.237
13152TIP3   OH239396   3.492   1.240   0.783
13152TIP3    H139397   3.477   1.197   0.699
13152TIP3    H239398   3.507   1.167   0.844
13153TIP3   OH239399   8.370   7.482   5.919
13153TIP3    H139400   8.324   7.565   5.934
13153TIP3    H239401   8.420   7.468   6.000
13154TIP3   OH239402   5.593   7.392   1.433
13154TIP3    H139403   5.669   7.417   1.484
13154TIP3    H239404   5.589   7.456   1.362
13155TIP3   OH239405   7.988   7.508   4.300
13155TIP3    H139406   7.916   7.481   4.357
13155TIP3    H239407   8.000   7.601   4.318
13156TIP3   OH239408   4.119   7.565   5.671
13156TIP3    H139409   4.127   7.644   5.618
13156TIP3    H239410   4.111   7.493   5.608
13157TIP3   OH239411   1.057   7.027   4.051
13157TIP3    H139412   0.966   7.037   4.020
13157TIP3    H239413   1.105   6.998   3.973
13158TIP3   OH239414   6.755   1.063   2.901
13158TIP3    H139415   6.810   0.987   2.919
13158TIP3    H239416   6.675   1.047   2.951
13159TIP3   OH239417   3.116   1.237   5.830
13159TIP3    H139418   3.171   1.301   5.874
13159TIP3    H239419   3.130   1.155   5.877
13160TIP3   OH239420   6.599   7.713   1.069
13160TIP3    H139421   6.662   7.649   1.038
13160TIP3    H239422   6.641   7.798   1.056
13161TIP3   OH239423   3.992   6.563   6.281
13161TIP3    H139424   4.012   6.533   6.192
13161TIP3    H239425   3.943   6.490   6.320
13162TIP3   OH239426   6.301   7.566   1.093
13162TIP3    H139427   6.342   7.652   1.105
13162TIP3    H239428   6.217   7.586   1.052
13163TIP3   OH239429   0.413   7.095   4.984
13163TIP3    H139430   0.359   7.057   5.053
13163TIP3    H239431   0.357   7.091   4.906
13164TIP3   OH239432   1.742   2.361   5.619
13164TIP3    H139433   1.657   2.390   5.589
13164TIP3    H239434   1.763   2.285   5.565
13165TIP3   OH239435   7.358   5.956   1.440
13165TIP3    H139436   7.391   5.918   1.521
13165TIP3    H239437   7.293   5.893   1.409
13166TIP3   OH239438   6.246   3.793   0.525
13166TIP3    H139439   6.329   3.765   0.488
13166TIP3    H239440   6.220   3.868   0.471
13167TIP3   OH239441   6.671   6.280   0.488
13167TIP3    H139442   6.614   6.340   0.439
13167TIP3    H239443   6.611   6.219   0.531
13168TIP3   OH239444   0.941   3.736   2.984
13168TIP3    H139445   1.009   3.762   2.922
13168TIP3    H239446   0.987   3.725   3.067
13169TIP3   OH239447   4.026   5.931   0.061
13169TIP3    H139448   3.990   6.018   0.075
13169TIP3    H239449   4.030   5.921  -0.035
13170TIP3   OH239450   0.410   5.739   6.825
13170TIP3    H139451   0.388   5.689   6.904
13170TIP3    H239452   0.477   5.687   6.782
13171TIP3   OH239453   2.573   7.524   1.402
13171TIP3    H139454   2.576   7.550   1.494
13171TIP3    H239455   2.646   7.464   1.391
13172TIP3   OH239456   5.592   6.131   5.391
13172TIP3    H139457   5.619   6.039   5.398
13172TIP3    H239458   5.497   6.128   5.381
13173TIP3   OH239459   6.063   5.139   6.778
13173TIP3    H139460   6.124   5.100   6.841
13173TIP3    H239461   6.034   5.220   6.820
13174TIP3   OH239462   7.225   1.083   1.485
13174TIP3    H139463   7.153   1.041   1.532
13174TIP3    H239464   7.234   1.168   1.528
13175TIP3   OH239465   6.866   7.092   4.652
13175TIP3    H139466   6.915   7.118   4.729
13175TIP3    H239467   6.795   7.037   4.686
13176TIP3   OH239468   1.198   5.728   1.011
13176TIP3    H139469   1.260   5.750   0.941
13176TIP3    H239470   1.191   5.808   1.062
13177TIP3   OH239471   8.265   5.279   6.049
13177TIP3    H139472   8.250   5.356   5.995
13177TIP3    H239473   8.196   5.282   6.115
13178TIP3   OH239474   2.508   4.897   5.889
13178TIP3    H139475   2.599   4.910   5.914
13178TIP3    H239476   2.478   4.984   5.862
13179TIP3   OH239477   5.074   1.416   4.647
13179TIP3    H139478   5.126   1.460   4.580
13179TIP3    H239479   5.103   1.455   4.729
13180TIP3   OH239480   0.576   5.177   1.545
13180TIP3    H139481   0.591   5.230   1.467
13180TIP3    H239482   0.548   5.240   1.611
13181TIP3   OH239483   6.958   1.652   4.984
13181TIP3    H139484   7.008   1.577   5.015
13181TIP3    H239485   6.884   1.659   5.044
13182TIP3   OH239486   5.155   2.281   6.217
13182TIP3    H139487   5.112   2.288   6.132
13182TIP3    H239488   5.249   2.286   6.196
13183TIP3   OH239489   6.316   5.528   6.413
13183TIP3    H139490   6.396   5.581   6.418
13183TIP3    H239491   6.347   5.441   6.389
13184TIP3   OH239492   4.601   5.518   2.031
13184TIP3    H139493   4.669   5.502   2.097
13184TIP3    H239494   4.629   5.598   1.988
13185TIP3   OH239495   6.051   0.266   0.118
13185TIP3    H139496   5.965   0.307   0.118
13185TIP3    H239497   6.053   0.216   0.036
13186TIP3   OH239498   0.486   0.789   6.559
13186TIP3    H139499   0.412   0.784   6.620
13186TIP3    H239500   0.467   0.723   6.492
13187TIP3   OH239501   0.887   2.696   6.029
13187TIP3    H139502   0.879   2.775   5.975
13187TIP3    H239503   0.882   2.728   6.119
13188TIP3   OH239504   2.918   0.052   4.344
13188TIP3    H139505   2.842   0.016   4.297
13188TIP3    H239506   2.885   0.133   4.384
13189TIP3   OH239507   6.325   4.342   2.675
13189TIP3    H139508   6.364   4.337   2.588
13189TIP3    H239509   6.326   4.252   2.707
13190TIP3   OH239510   8.131   1.014   1.602
13190TIP3    H139511   8.165   0.925   1.593
13190TIP3    H239512   8.206   1.071   1.584
13191TIP3   OH239513   5.987   2.338   5.041
13191TIP3    H139514   6.042   2.404   5.082
13191TIP3    H239515   5.944   2.293   5.114
13192TIP3   OH239516   7.073   4.352   4.761
13192TIP3    H139517   7.077   4.322   4.852
13192TIP3    H239518   7.150   4.407   4.751
13193TIP3   OH239519   1.999   3.573   1.581
13193TIP3    H139520   1.945   3.632   1.634
13193TIP3    H239521   1.967   3.584   1.492
13194TIP3   OH239522   5.073   0.339   4.289
13194TIP3    H139523   5.110   0.409   4.342
13194TIP3    H239524   5.126   0.262   4.310
13195TIP3   OH239525   4.490   6.347   3.429
13195TIP3    H139526   4.565   6.313   3.479
13195TIP3    H239527   4.487   6.292   3.350
13196TIP3   OH239528   0.127   2.587   0.931
13196TIP3    H139529   0.073   2.666   0.921
13196TIP3    H239530   0.200   2.600   0.871
13197TIP3   OH239531   8.355   1.099   3.302
13197TIP3    H139532   8.312   1.135   3.380
13197TIP3    H239533   8.298   1.027   3.275
13198TIP3   OH239534   7.907   2.950   0.755
13198TIP3    H139535   7.945   2.875   0.710
13198TIP3    H239536   7.814   2.946   0.734
13199TIP3   OH239537   5.644   5.744   3.040
13199TIP3    H139538   5.691   5.813   2.995
13199TIP3    H239539   5.564   5.732   2.989
13200TIP3   OH239540   3.679   2.067   6.794
13200TIP3    H139541   3.598   2.098   6.755
13200TIP3    H239542   3.652   2.019   6.873
13201TIP3   OH239543   0.885   5.150   0.155
13201TIP3    H139544   0.970   5.114   0.177
13201TIP3    H239545   0.826   5.116   0.223
13202TIP3   OH239546   5.350   0.726   4.954
13202TIP3    H139547   5.426   0.722   5.012
13202TIP3    H239548   5.328   0.819   4.949
13203TIP3   OH239549   2.050   2.265   3.940
13203TIP3    H139550   2.089   2.255   4.026
13203TIP3    H239551   2.001   2.184   3.925
13204TIP3   OH239552   2.221   1.804   5.473
13204TIP3    H139553   2.274   1.729   5.499
13204TIP3    H239554   2.236   1.869   5.541
13205TIP3   OH239555   4.069   4.849   4.937
13205TIP3    H139556   4.039   4.937   4.962
13205TIP3    H239557   4.044   4.841   4.845
13206TIP3   OH239558   3.801   0.476   4.058
13206TIP3    H139559   3.895   0.470   4.041
13206TIP3    H239560   3.791   0.559   4.104
13207TIP3   OH239561   5.343   0.277   4.808
13207TIP3    H139562   5.350   0.269   4.903
13207TIP3    H239563   5.260   0.236   4.786
13208TIP3   OH239564   2.661   4.551   5.763
13208TIP3    H139565   2.579   4.563   5.812
13208TIP3    H239566   2.708   4.485   5.813
13209TIP3   OH239567   4.427   2.034   1.983
13209TIP3    H139568   4.384   1.975   2.046
13209TIP3    H239569   4.488   1.978   1.935
13210TIP3   OH239570   3.957   0.874   0.033
13210TIP3    H139571   4.037   0.843  -0.008
13210TIP3    H239572   3.968   0.968   0.040
13211TIP3   OH239573   6.086   7.395   2.768
13211TIP3    H139574   6.005   7.349   2.745
13211TIP3    H239575   6.064   7.441   2.850
13212TIP3   OH239576   6.458   6.021   4.816
13212TIP3    H139577   6.518   6.062   4.753
13212TIP3    H239578   6.481   5.929   4.813
13213TIP3   OH239579   5.422   0.777   6.553
13213TIP3    H139580   5.432   0.688   6.522
13213TIP3    H239581   5.440   0.772   6.647
13214TIP3   OH239582   8.176   7.148   5.093
13214TIP3    H139583   8.084   7.153   5.118
13214TIP3    H239584   8.219   7.217   5.143
13215TIP3   OH239585   8.268   2.462   6.110
13215TIP3    H139586   8.183   2.460   6.152
13215TIP3    H239587   8.289   2.556   6.103
13216TIP3   OH239588   8.366   6.330   1.724
13216TIP3    H139589   8.372   6.419   1.687
13216TIP3    H239590   8.385   6.273   1.649
13217TIP3   OH239591   0.094   1.113   3.835
13217TIP3    H139592   0.184   1.100   3.864
13217TIP3    H239593   0.078   1.206   3.847
13218TIP3   OH239594   1.060   6.067   5.735
13218TIP3    H139595   1.037   6.116   5.656
13218TIP3    H239596   1.102   5.988   5.702
13219TIP3   OH239597   6.460   4.738   0.645
13219TIP3    H139598   6.458   4.643   0.631
13219TIP3    H239599   6.485   4.749   0.737
13220TIP3   OH239600   1.360   2.669   0.313
13220TIP3    H139601   1.345   2.757   0.277
13220TIP3    H239602   1.452   2.650   0.291
13221TIP3   OH239603   7.557   6.665   5.503
13221TIP3    H139604   7.569   6.600   5.434
13221TIP3    H239605   7.486   6.720   5.471
13222TIP3   OH239606   1.384   1.475   3.023
13222TIP3    H139607   1.408   1.567   3.014
13222TIP3    H239608   1.378   1.460   3.117
13223TIP3   OH239609   0.219   4.961   3.453
13223TIP3    H139610   0.258   4.887   3.499
13223TIP3    H239611   0.286   5.030   3.457
13224TIP3   OH239612   6.184   1.473   0.277
13224TIP3    H139613   6.215   1.559   0.304
13224TIP3    H239614   6.094   1.468   0.308
13225TIP3   OH239615   1.898   1.934   4.561
13225TIP3    H139616   1.886   1.882   4.482
13225TIP3    H239617   1.809   1.951   4.592
13226TIP3   OH239618   0.117   4.296   0.404
13226TIP3    H139619   0.184   4.359   0.433
13226TIP3    H239620   0.065   4.345   0.341
13227TIP3   OH239621   5.081   3.131   0.912
13227TIP3    H139622   5.171   3.100   0.899
13227TIP3    H239623   5.076   3.155   1.004
13228TIP3   OH239624   6.495   0.602   4.169
13228TIP3    H139625   6.561   0.596   4.100
13228TIP3    H239626   6.510   0.526   4.224
13229TIP3   OH239627   8.012   4.492   2.976
13229TIP3    H139628   8.023   4.561   3.041
13229TIP3    H239629   8.038   4.412   3.021
13230TIP3   OH239630   1.082   2.010   5.194
13230TIP3    H139631   1.079   2.106   5.194
13230TIP3    H239632   1.162   1.988   5.146
13231TIP3   OH239633   7.244   3.476   3.277
13231TIP3    H139634   7.264   3.566   3.303
13231TIP3    H239635   7.190   3.442   3.348
13232TIP3   OH239636   7.124   4.336   4.069
13232TIP3    H139637   7.041   4.289   4.070
13232TIP3    H239638   7.106   4.417   4.021
13233TIP3   OH239639   4.212   3.145   5.064
13233TIP3    H139640   4.231   3.056   5.033
13233TIP3    H239641   4.163   3.132   5.145
13234TIP3   OH239642   0.791   4.007   1.208
13234TIP3    H139643   0.728   4.014   1.136
13234TIP3    H239644   0.799   4.097   1.241
13235TIP3   OH239645   5.029   1.248   3.644
13235TIP3    H139646   4.934   1.251   3.639
13235TIP3    H239647   5.054   1.178   3.584
13236TIP3   OH239648   8.150   4.613   5.443
13236TIP3    H139649   8.088   4.642   5.376
13236TIP3    H239650   8.185   4.695   5.480
13237TIP3   OH239651   5.870   2.040   6.054
13237TIP3    H139652   5.932   1.972   6.028
13237TIP3    H239653   5.786   2.013   6.017
13238TIP3   OH239654   8.021   2.984   4.250
13238TIP3    H139655   8.060   2.924   4.314
13238TIP3    H239656   8.041   3.071   4.285
13239TIP3   OH239657   2.381   4.594   0.683
13239TIP3    H139658   2.299   4.581   0.731
13239TIP3    H239659   2.356   4.647   0.607
13240TIP3   OH239660   4.675   2.028   4.513
13240TIP3    H139661   4.767   2.009   4.498
13240TIP3    H239662   4.649   1.972   4.586
13241TIP3   OH239663   8.052   2.393   5.591
13241TIP3    H139664   8.125   2.356   5.641
13241TIP3    H239665   8.026   2.323   5.531
13242TIP3   OH239666   6.328   6.366   6.550
13242TIP3    H139667   6.343   6.290   6.606
13242TIP3    H239668   6.357   6.441   6.602
13243TIP3   OH239669   4.861   4.706   2.272
13243TIP3    H139670   4.862   4.616   2.238
13243TIP3    H239671   4.899   4.699   2.359
13244TIP3   OH239672   2.732   6.351   2.003
13244TIP3    H139673   2.765   6.268   2.037
13244TIP3    H239674   2.637   6.338   1.996
13245TIP3   OH239675   6.645   5.515   4.832
13245TIP3    H139676   6.585   5.492   4.902
13245TIP3    H239677   6.600   5.487   4.752
13246TIP3   OH239678   2.982   1.622   0.282
13246TIP3    H139679   2.893   1.585   0.288
13246TIP3    H239680   2.996   1.664   0.367
13247TIP3   OH239681   1.609   1.557   2.303
13247TIP3    H139682   1.697   1.536   2.272
13247TIP3    H239683   1.579   1.627   2.246
13248TIP3   OH239684   5.796   3.242   1.651
13248TIP3    H139685   5.774   3.254   1.744
13248TIP3    H239686   5.739   3.171   1.622
13249TIP3   OH239687   0.070   1.906   4.369
13249TIP3    H139688   0.074   1.853   4.289
13249TIP3    H239689   0.161   1.923   4.391
13250TIP3   OH239690   2.251   1.689   1.288
13250TIP3    H139691   2.278   1.598   1.275
13250TIP3    H239692   2.259   1.704   1.382
13251TIP3   OH239693   7.577   0.661   0.997
13251TIP3    H139694   7.658   0.613   0.979
13251TIP3    H239695   7.604   0.733   1.053
13252TIP3   OH239696   1.700   6.387   5.793
13252TIP3    H139697   1.637   6.411   5.861
13252TIP3    H239698   1.759   6.462   5.787
13253TIP3   OH239699   0.861   6.280   4.223
13253TIP3    H139700   0.818   6.263   4.307
13253TIP3    H239701   0.831   6.367   4.198
13254TIP3   OH239702   4.479   5.460   0.522
13254TIP3    H139703   4.468   5.471   0.616
13254TIP3    H239704   4.396   5.422   0.492
13255TIP3   OH239705   0.707   4.023   3.048
13255TIP3    H139706   0.730   3.930   3.054
13255TIP3    H239707   0.665   4.032   2.963
13256TIP3   OH239708   2.699   3.960   4.504
13256TIP3    H139709   2.743   3.892   4.453
13256TIP3    H239710   2.656   3.913   4.576
13257TIP3   OH239711   6.971   1.822   4.208
13257TIP3    H139712   7.061   1.791   4.209
13257TIP3    H239713   6.946   1.828   4.301
13258TIP3   OH239714   7.203   1.657   6.138
13258TIP3    H139715   7.137   1.723   6.115
13258TIP3    H239716   7.153   1.589   6.184
13259TIP3   OH239717   0.405   4.935   1.654
13259TIP3    H139718   0.489   4.913   1.695
13259TIP3    H239719   0.378   4.854   1.610
13260TIP3   OH239720   2.235   3.695   1.828
13260TIP3    H139721   2.326   3.715   1.807
13260TIP3    H239722   2.212   3.624   1.768
13261TIP3   OH239723   1.950   1.148   0.307
13261TIP3    H139724   1.957   1.054   0.293
13261TIP3    H239725   2.040   1.178   0.316
13262TIP3   OH239726   3.980   6.849   1.320
13262TIP3    H139727   4.048   6.911   1.348
13262TIP3    H239728   3.936   6.894   1.248
13263TIP3   OH239729   4.684   3.665   4.768
13263TIP3    H139730   4.701   3.590   4.825
13263TIP3    H239731   4.703   3.741   4.822
13264TIP3   OH239732   1.034   6.742   0.617
13264TIP3    H139733   0.987   6.801   0.676
13264TIP3    H239734   1.073   6.676   0.675
13265TIP3   OH239735   7.125   0.129   2.154
13265TIP3    H139736   7.170   0.106   2.073
13265TIP3    H239737   7.032   0.119   2.133
13266TIP3   OH239738   6.754   6.441   3.326
13266TIP3    H139739   6.668   6.413   3.296
13266TIP3    H239740   6.806   6.360   3.326
13267TIP3   OH239741   5.619   7.264   0.891
13267TIP3    H139742   5.644   7.188   0.944
13267TIP3    H239743   5.669   7.336   0.929
13268TIP3   OH239744   6.999   6.602   2.113
13268TIP3    H139745   7.079   6.569   2.072
13268TIP3    H239746   7.030   6.666   2.177
13269TIP3   OH239747   5.758   1.012   3.388
13269TIP3    H139748   5.762   0.920   3.413
13269TIP3    H239749   5.820   1.020   3.315
13270TIP3   OH239750   5.972   6.744   4.540
13270TIP3    H139751   6.066   6.745   4.527
13270TIP3    H239752   5.957   6.671   4.600
13271TIP3   OH239753   7.927   3.386   0.728
13271TIP3    H139754   7.860   3.330   0.690
13271TIP3    H239755   7.908   3.473   0.692
13272TIP3   OH239756   3.344   1.729   5.347
13272TIP3    H139757   3.417   1.756   5.403
13272TIP3    H239758   3.341   1.794   5.277
13273TIP3   OH239759   1.856   2.080   5.502
13273TIP3    H139760   1.800   2.051   5.430
13273TIP3    H239761   1.945   2.060   5.472
13274TIP3   OH239762   6.151   2.983   6.653
13274TIP3    H139763   6.237   3.005   6.617
13274TIP3    H239764   6.089   3.023   6.591
13275TIP3   OH239765   1.302   0.833   3.432
13275TIP3    H139766   1.330   0.868   3.347
13275TIP3    H239767   1.378   0.843   3.489
13276TIP3   OH239768   4.139   5.701   3.532
13276TIP3    H139769   4.115   5.766   3.597
13276TIP3    H239770   4.076   5.714   3.460
13277TIP3   OH239771   1.594   6.175   0.092
13277TIP3    H139772   1.688   6.194   0.089
13277TIP3    H239773   1.586   6.084   0.063
13278TIP3   OH239774   5.396   1.845   3.335
13278TIP3    H139775   5.348   1.813   3.410
13278TIP3    H239776   5.369   1.789   3.262
13279TIP3   OH239777   1.344   2.775   2.638
13279TIP3    H139778   1.351   2.757   2.544
13279TIP3    H239779   1.321   2.868   2.643
13280TIP3   OH239780   5.410   5.681   0.169
13280TIP3    H139781   5.444   5.687   0.079
13280TIP3    H239782   5.413   5.771   0.201
13281TIP3   OH239783   1.341   6.178   2.100
13281TIP3    H139784   1.399   6.137   2.164
13281TIP3    H239785   1.313   6.259   2.142
13282TIP3   OH239786   8.022   2.317   0.874
13282TIP3    H139787   8.049   2.326   0.965
13282TIP3    H239788   7.975   2.398   0.854
13283TIP3   OH239789   6.145   7.718   4.051
13283TIP3    H139790   6.170   7.800   4.007
13283TIP3    H239791   6.110   7.663   3.981
13284TIP3   OH239792   2.183   1.423   4.770
13284TIP3    H139793   2.144   1.464   4.847
13284TIP3    H239794   2.248   1.363   4.806
13285TIP3   OH239795   4.051   5.744   3.076
13285TIP3    H139796   4.142   5.731   3.103
13285TIP3    H239797   4.047   5.716   2.985
13286TIP3   OH239798   6.513   6.624   0.554
13286TIP3    H139799   6.545   6.541   0.591
13286TIP3    H239800   6.531   6.618   0.461
13287TIP3   OH239801   0.123   3.522   1.876
13287TIP3    H139802   0.208   3.491   1.846
13287TIP3    H239803   0.098   3.590   1.813
13288TIP3   OH239804   8.309   2.827   4.483
13288TIP3    H139805   8.356   2.821   4.399
13288TIP3    H239806   8.324   2.916   4.512
13289TIP3   OH239807   2.480   5.320   2.699
13289TIP3    H139808   2.490   5.250   2.764
13289TIP3    H239809   2.557   5.312   2.643
13290TIP3   OH239810   0.689   1.163   2.318
13290TIP3    H139811   0.600   1.198   2.319
13290TIP3    H239812   0.716   1.167   2.226
13291TIP3   OH239813   5.296   7.163   3.055
13291TIP3    H139814   5.304   7.143   3.148
13291TIP3    H239815   5.202   7.180   3.042
13292TIP3   OH239816   6.347   3.081   2.164
13292TIP3    H139817   6.334   3.156   2.222
13292TIP3    H239818   6.284   3.094   2.093
13293TIP3   OH239819   1.577   7.681   0.968
13293TIP3    H139820   1.606   7.770   0.948
13293TIP3    H239821   1.657   7.630   0.976
13294TIP3   OH239822   5.601   4.524   6.090
13294TIP3    H139823   5.560   4.535   6.175
13294TIP3    H239824   5.536   4.554   6.027
13295TIP3   OH239825   6.508   5.157   1.890
13295TIP3    H139826   6.507   5.128   1.799
13295TIP3    H239827   6.589   5.207   1.898
13296TIP3   OH239828   2.751   3.512   3.170
13296TIP3    H139829   2.736   3.451   3.099
13296TIP3    H239830   2.663   3.533   3.203
13297TIP3   OH239831   1.384   3.667   6.749
13297TIP3    H139832   1.418   3.757   6.750
13297TIP3    H239833   1.437   3.620   6.813
13298TIP3   OH239834   4.222   4.653   5.169
13298TIP3    H139835   4.198   4.579   5.225
13298TIP3    H239836   4.177   4.636   5.086
13299TIP3   OH239837   5.754   4.859   5.398
13299TIP3    H139838   5.696   4.928   5.431
13299TIP3    H239839   5.829   4.906   5.362
13300TIP3   OH239840   5.115   0.783   6.237
13300TIP3    H139841   5.182   0.714   6.230
13300TIP3    H239842   5.032   0.738   6.222
13301TIP3   OH239843   0.340   5.038   1.129
13301TIP3    H139844   0.352   5.019   1.222
13301TIP3    H239845   0.254   5.079   1.123
13302TIP3   OH239846   0.163   5.175   0.799
13302TIP3    H139847   0.120   5.225   0.868
13302TIP3    H239848   0.098   5.172   0.728
13303TIP3   OH239849   4.510   7.888   0.044
13303TIP3    H139850   4.544   7.952  -0.019
13303TIP3    H239851   4.584   7.871   0.102
13304TIP3   OH239852   1.583   1.785   4.655
13304TIP3    H139853   1.593   1.701   4.699
13304TIP3    H239854   1.492   1.785   4.623
13305TIP3   OH239855   4.486   3.785   4.573
13305TIP3    H139856   4.470   3.694   4.547
13305TIP3    H239857   4.561   3.781   4.632
13306TIP3   OH239858   4.904   1.369   6.702
13306TIP3    H139859   4.882   1.292   6.649
13306TIP3    H239860   4.924   1.437   6.638
13307TIP3   OH239861   0.777   4.923   6.554
13307TIP3    H139862   0.801   4.850   6.611
13307TIP3    H239863   0.742   4.989   6.614
13308TIP3   OH239864   7.161   2.366   4.630
13308TIP3    H139865   7.179   2.362   4.536
13308TIP3    H239866   7.110   2.287   4.648
13309TIP3   OH239867   5.885   4.383   3.814
13309TIP3    H139868   5.793   4.364   3.831
13309TIP3    H239869   5.888   4.410   3.722
13310TIP3   OH239870   1.748   4.909   2.628
13310TIP3    H139871   1.693   4.832   2.612
13310TIP3    H239872   1.757   4.913   2.723
13311TIP3   OH239873   4.440   6.863   2.119
13311TIP3    H139874   4.447   6.865   2.024
13311TIP3    H239875   4.498   6.792   2.146
13312TIP3   OH239876   0.763   3.581   1.481
13312TIP3    H139877   0.720   3.502   1.447
13312TIP3    H239878   0.735   3.650   1.421
13313TIP3   OH239879   7.988   4.243   6.621
13313TIP3    H139880   7.957   4.333   6.629
13313TIP3    H239881   8.078   4.246   6.655
13314TIP3   OH239882   5.446   5.310   4.979
13314TIP3    H139883   5.415   5.390   5.022
13314TIP3    H239884   5.522   5.337   4.929
13315TIP3   OH239885   7.216   7.526   0.350
13315TIP3    H139886   7.305   7.541   0.318
13315TIP3    H239887   7.161   7.576   0.289
13316TIP3   OH239888   7.548   4.615   0.552
13316TIP3    H139889   7.508   4.689   0.505
13316TIP3    H239890   7.479   4.548   0.554
13317TIP3   OH239891   7.052   3.162   0.970
13317TIP3    H139892   7.085   3.072   0.963
13317TIP3    H239893   6.957   3.151   0.981
13318TIP3   OH239894   1.316   5.256   5.341
13318TIP3    H139895   1.324   5.225   5.432
13318TIP3    H239896   1.406   5.259   5.309
13319TIP3   OH239897   5.459   0.018   3.979
13319TIP3    H139898   5.503   0.078   4.039
13319TIP3    H239899   5.442   0.070   3.901
13320TIP3   OH239900   6.192   6.188   0.959
13320TIP3    H139901   6.287   6.199   0.960
13320TIP3    H239902   6.159   6.256   1.018
13321TIP3   OH239903   2.529   5.064   3.334
13321TIP3    H139904   2.536   5.006   3.258
13321TIP3    H239905   2.613   5.056   3.379
13322TIP3   OH239906   2.908   3.388   1.061
13322TIP3    H139907   2.949   3.474   1.053
13322TIP3    H239908   2.864   3.390   1.147
13323TIP3   OH239909   5.127   7.340   3.951
13323TIP3    H139910   5.109   7.264   4.005
13323TIP3    H239911   5.071   7.409   3.987
13324TIP3   OH239912   3.133   0.887   1.820
13324TIP3    H139913   3.046   0.914   1.790
13324TIP3    H239914   3.119   0.863   1.912
13325TIP3   OH239915   1.714   7.283   2.215
13325TIP3    H139916   1.678   7.209   2.167
13325TIP3    H239917   1.638   7.336   2.238
13326TIP3   OH239918   2.592   5.839   2.087
13326TIP3    H139919   2.565   5.750   2.111
13326TIP3    H239920   2.592   5.839   1.991
13327TIP3   OH239921   5.791   7.365   6.513
13327TIP3    H139922   5.735   7.345   6.438
13327TIP3    H239923   5.760   7.307   6.582
13328TIP3   OH239924   0.414   6.409   6.391
13328TIP3    H139925   0.417   6.320   6.355
13328TIP3    H239926   0.499   6.420   6.433
13329TIP3   OH239927   3.113   0.139   3.950
13329TIP3    H139928   3.122   0.133   4.045
13329TIP3    H239929   3.041   0.081   3.928
13330TIP3   OH239930   5.114   3.011   3.365
13330TIP3    H139931   5.036   2.969   3.330
13330TIP3    H239932   5.100   3.013   3.460
13331TIP3   OH239933   7.410   0.893   0.390
13331TIP3    H139934   7.500   0.886   0.423
13331TIP3    H239935   7.355   0.892   0.469
13332TIP3   OH239936   2.789   2.903   5.049
13332TIP3    H139937   2.820   2.991   5.072
13332TIP3    H239938   2.763   2.864   5.132
13333TIP3   OH239939   4.644   4.960   1.949
13333TIP3    H139940   4.624   4.925   1.863
13333TIP3    H239941   4.640   4.885   2.008
13334TIP3   OH239942   7.351   0.248   1.275
13334TIP3    H139943   7.406   0.188   1.324
13334TIP3    H239944   7.368   0.334   1.314
13335TIP3   OH239945   1.027   7.055   1.097
13335TIP3    H139946   1.066   7.003   1.027
13335TIP3    H239947   0.973   7.120   1.052
13336TIP3   OH239948   4.159   4.857   4.413
13336TIP3    H139949   4.249   4.829   4.399
13336TIP3    H239950   4.151   4.939   4.365
13337TIP3   OH239951   5.383   2.711   1.301
13337TIP3    H139952   5.398   2.632   1.249
13337TIP3    H239953   5.350   2.679   1.385
13338TIP3   OH239954   0.505   6.943   1.153
13338TIP3    H139955   0.455   7.013   1.196
13338TIP3    H239956   0.595   6.975   1.152
13339TIP3   OH239957   3.889   3.676   5.319
13339TIP3    H139958   3.855   3.727   5.393
13339TIP3    H239959   3.922   3.596   5.359
13340TIP3   OH239960   6.752   3.424   2.092
13340TIP3    H139961   6.688   3.482   2.134
13340TIP3    H239962   6.720   3.415   2.002
13341TIP3   OH239963   5.927   1.497   4.976
13341TIP3    H139964   5.975   1.566   5.023
13341TIP3    H239965   5.978   1.418   4.991
13342TIP3   OH239966   5.200   5.056   5.265
13342TIP3    H139967   5.222   5.017   5.349
13342TIP3    H239968   5.135   4.996   5.227
13343TIP3   OH239969   4.596   6.012   0.308
13343TIP3    H139970   4.523   6.072   0.290
13343TIP3    H239971   4.665   6.068   0.344
13344TIP3   OH239972   4.618   4.892   5.852
13344TIP3    H139973   4.703   4.912   5.891
13344TIP3    H239974   4.636   4.822   5.789
13345TIP3   OH239975   0.920   4.484   6.855
13345TIP3    H139976   0.904   4.457   6.945
13345TIP3    H239977   0.860   4.432   6.802
13346TIP3   OH239978   0.873   4.663   4.185
13346TIP3    H139979   0.832   4.738   4.142
13346TIP3    H239980   0.966   4.685   4.188
13347TIP3   OH239981   3.030   7.018   1.494
13347TIP3    H139982   3.082   7.094   1.469
13347TIP3    H239983   2.947   7.028   1.448
13348TIP3   OH239984   5.195   0.308   3.330
13348TIP3    H139985   5.235   0.221   3.330
13348TIP3    H239986   5.140   0.308   3.408
13349TIP3   OH239987   8.192   6.719   0.941
13349TIP3    H139988   8.206   6.664   0.864
13349TIP3    H239989   8.161   6.802   0.906
13350TIP3   OH239990   1.492   4.886   4.438
13350TIP3    H139991   1.549   4.810   4.447
13350TIP3    H239992   1.462   4.883   4.347
13351TIP3   OH239993   8.122   2.214   3.898
13351TIP3    H139994   8.152   2.130   3.930
13351TIP3    H239995   8.090   2.260   3.976
13352TIP3   OH239996   0.191   0.201   4.639
13352TIP3    H139997   0.119   0.153   4.598
13352TIP3    H239998   0.153   0.238   4.718
13353TIP3   OH239999   5.706   4.357   1.179
13353TIP3    H140000   5.699   4.344   1.274
13353TIP3    H240001   5.688   4.451   1.167
13354TIP3   OH240002   1.973   3.932   3.196
13354TIP3    H140003   1.882   3.904   3.195
13354TIP3    H240004   1.968   4.027   3.208
13355TIP3   OH240005   1.793   3.678   1.037
13355TIP3    H140006   1.884   3.656   1.019
13355TIP3    H240007   1.793   3.773   1.047
13356TIP3   OH240008   0.409   4.743   1.142
13356TIP3    H140009   0.359   4.666   1.114
13356TIP3    H240010   0.343   4.810   1.158
13357TIP3   OH240011   3.154   6.783   5.471
13357TIP3    H140012   3.241   6.825   5.469
13357TIP3    H240013   3.173   6.690   5.477
13358TIP3   OH240014   4.566   5.800   4.568
13358TIP3    H140015   4.585   5.888   4.536
13358TIP3    H240016   4.511   5.760   4.501
13359TIP3   OH240017   2.866   4.334   2.929
13359TIP3    H140018   2.791   4.284   2.960
13359TIP3    H240019   2.927   4.333   3.003
13360TIP3   OH240020   7.185   6.439   3.477
13360TIP3    H140021   7.259   6.491   3.446
13360TIP3    H240022   7.203   6.350   3.445
13361TIP3   OH240023   2.217   5.136   3.438
13361TIP3    H140024   2.278   5.063   3.434
13361TIP3    H240025   2.267   5.207   3.479
13362TIP3   OH240026   6.350   4.705   5.628
13362TIP3    H140027   6.420   4.769   5.642
13362TIP3    H240028   6.271   4.749   5.659
13363TIP3   OH240029   4.835   6.726   4.581
13363TIP3    H140030   4.781   6.750   4.506
13363TIP3    H240031   4.911   6.683   4.543
13364TIP3   OH240032   5.193   0.986   2.414
13364TIP3    H140033   5.254   0.930   2.364
13364TIP3    H240034   5.153   0.926   2.478
13365TIP3   OH240035   7.969   6.219   4.569
13365TIP3    H140036   7.905   6.289   4.579
13365TIP3    H240037   7.969   6.174   4.654
13366TIP3   OH240038   4.438   3.511   4.608
13366TIP3    H140039   4.418   3.487   4.699
13366TIP3    H240040   4.529   3.540   4.610
13367TIP3   OH240041   7.301   2.035   3.149
13367TIP3    H140042   7.307   1.993   3.063
13367TIP3    H240043   7.207   2.033   3.170
13368TIP3   OH240044   8.367   4.443   5.396
13368TIP3    H140045   8.443   4.485   5.436
13368TIP3    H240046   8.294   4.501   5.417
13369TIP3   OH240047   0.001   5.011   3.159
13369TIP3    H140048   0.088   4.991   3.196
13369TIP3    H240049  -0.019   4.935   3.104
13370TIP3   OH240050   4.790   0.313   3.760
13370TIP3    H140051   4.816   0.221   3.765
13370TIP3    H240052   4.822   0.350   3.843
13371TIP3   OH240053   0.048   0.615   4.839
13371TIP3    H140054  -0.036   0.573   4.860
13371TIP3    H240055   0.025   0.703   4.810
13372TIP3   OH240056   3.196   4.441   0.752
13372TIP3    H140057   3.251   4.440   0.674
13372TIP3    H240058   3.168   4.532   0.760
13373TIP3   OH240059   5.614   6.862   3.358
13373TIP3    H140060   5.656   6.844   3.274
13373TIP3    H240061   5.530   6.902   3.335
13374TIP3   OH240062   6.900   0.428   6.404
13374TIP3    H140063   6.868   0.448   6.492
13374TIP3    H240064   6.963   0.357   6.417
13375TIP3   OH240065   1.444   1.499   1.626
13375TIP3    H140066   1.449   1.409   1.660
13375TIP3    H240067   1.518   1.544   1.667
13376TIP3   OH240068   3.064   5.923   2.427
13376TIP3    H140069   3.061   5.828   2.438
13376TIP3    H240070   2.991   5.943   2.369
13377TIP3   OH240071   1.654   2.259   6.329
13377TIP3    H140072   1.650   2.316   6.406
13377TIP3    H240073   1.746   2.263   6.301
13378TIP3   OH240074   7.028   5.871   0.815
13378TIP3    H140075   7.012   5.965   0.804
13378TIP3    H240076   6.970   5.845   0.887
13379TIP3   OH240077   5.045   7.415   1.847
13379TIP3    H140078   4.969   7.460   1.809
13379TIP3    H240079   5.119   7.472   1.829
13380TIP3   OH240080   5.684   7.791   6.332
13380TIP3    H140081   5.779   7.797   6.331
13380TIP3    H240082   5.654   7.876   6.301
13381TIP3   OH240083   0.925   3.082   2.565
13381TIP3    H140084   0.986   3.154   2.544
13381TIP3    H240085   0.971   3.003   2.537
13382TIP3   OH240086   7.721   4.263   3.600
13382TIP3    H140087   7.735   4.354   3.629
13382TIP3    H240088   7.757   4.260   3.512
13383TIP3   OH240089   4.276   1.683   6.205
13383TIP3    H140090   4.258   1.764   6.158
13383TIP3    H240091   4.279   1.710   6.297
13384TIP3   OH240092   6.554   4.053   1.130
13384TIP3    H140093   6.611   3.988   1.169
13384TIP3    H240094   6.573   4.049   1.036
13385TIP3   OH240095   0.361   0.908   3.114
13385TIP3    H140096   0.443   0.924   3.160
13385TIP3    H240097   0.373   0.823   3.072
13386TIP3   OH240098   7.251   7.582   6.712
13386TIP3    H140099   7.307   7.603   6.787
13386TIP3    H240100   7.309   7.587   6.636
13387TIP3   OH240101   3.547   4.342   5.720
13387TIP3    H140102   3.543   4.309   5.630
13387TIP3    H240103   3.630   4.389   5.724
13388TIP3   OH240104   0.942   3.673   3.532
13388TIP3    H140105   0.935   3.753   3.583
13388TIP3    H240106   0.991   3.613   3.588
13389TIP3   OH240107   5.620   1.528   1.049
13389TIP3    H140108   5.565   1.452   1.068
13389TIP3    H240109   5.710   1.496   1.060
13390TIP3   OH240110   4.647   1.141   2.161
13390TIP3    H140111   4.689   1.056   2.151
13390TIP3    H240112   4.685   1.178   2.241
13391TIP3   OH240113   3.829   2.569   4.021
13391TIP3    H140114   3.783   2.595   4.101
13391TIP3    H240115   3.903   2.629   4.016
13392TIP3   OH240116   6.675   2.437   6.513
13392TIP3    H140117   6.587   2.463   6.539
13392TIP3    H240118   6.733   2.485   6.571
13393TIP3   OH240119   7.835   7.265   5.625
13393TIP3    H140120   7.770   7.312   5.676
13393TIP3    H240121   7.826   7.174   5.653
13394TIP3   OH240122   6.083   3.997   3.962
13394TIP3    H140123   6.153   4.010   4.026
13394TIP3    H240124   6.002   4.011   4.011
13395TIP3   OH240125   2.465   5.631   5.320
13395TIP3    H140126   2.544   5.683   5.316
13395TIP3    H240127   2.482   5.566   5.389
13396TIP3   OH240128   5.487   6.591   3.073
13396TIP3    H140129   5.486   6.550   2.986
13396TIP3    H240130   5.570   6.564   3.111
13397TIP3   OH240131   1.269   4.376   1.131
13397TIP3    H140132   1.317   4.442   1.082
13397TIP3    H240133   1.311   4.374   1.217
13398TIP3   OH240134   1.559   5.026   0.738
13398TIP3    H140135   1.633   5.029   0.799
13398TIP3    H240136   1.567   4.941   0.695
13399TIP3   OH240137   4.847   3.552   0.634
13399TIP3    H140138   4.892   3.598   0.563
13399TIP3    H240139   4.823   3.467   0.598
13400TIP3   OH240140   8.381   7.392   1.042
13400TIP3    H140141   8.342   7.479   1.053
13400TIP3    H240142   8.434   7.400   0.963
13401TIP3   OH240143   2.143   6.450   5.097
13401TIP3    H140144   2.214   6.483   5.152
13401TIP3    H240145   2.114   6.526   5.047
13402TIP3   OH240146   2.983   3.591   0.089
13402TIP3    H140147   2.930   3.511   0.096
13402TIP3    H240148   3.030   3.582   0.006
13403TIP3   OH240149   6.049   3.772   4.346
13403TIP3    H140150   6.002   3.721   4.281
13403TIP3    H240151   6.122   3.716   4.372
13404TIP3   OH240152   4.786   0.596   2.174
13404TIP3    H140153   4.706   0.643   2.148
13404TIP3    H240154   4.842   0.601   2.096
13405TIP3   OH240155   4.082   3.234   2.463
13405TIP3    H140156   4.025   3.310   2.449
13405TIP3    H240157   4.139   3.232   2.387
13406TIP3   OH240158   3.252   3.030   6.395
13406TIP3    H140159   3.308   2.995   6.325
13406TIP3    H240160   3.216   3.110   6.358
13407TIP3   OH240161   1.790   2.087   4.903
13407TIP3    H140162   1.876   2.087   4.945
13407TIP3    H240163   1.762   1.995   4.908
13408TIP3   OH240164   2.041   1.759   6.360
13408TIP3    H140165   1.982   1.834   6.351
13408TIP3    H240166   2.099   1.783   6.432
13409TIP3   OH240167   6.560   2.332   6.280
13409TIP3    H140168   6.474   2.330   6.320
13409TIP3    H240169   6.618   2.369   6.347
13410TIP3   OH240170   0.282   3.158   5.463
13410TIP3    H140171   0.325   3.242   5.480
13410TIP3    H240172   0.188   3.178   5.466
13411TIP3   OH240173   4.934   6.330   2.374
13411TIP3    H140174   4.981   6.412   2.358
13411TIP3    H240175   4.990   6.263   2.335
13412TIP3   OH240176   6.689   1.266   0.634
13412TIP3    H140177   6.598   1.253   0.658
13412TIP3    H240178   6.739   1.232   0.709
13413TIP3   OH240179   4.755   4.193   5.832
13413TIP3    H140180   4.745   4.286   5.812
13413TIP3    H240181   4.670   4.167   5.867
13414TIP3   OH240182   1.450   7.019   4.046
13414TIP3    H140183   1.427   7.062   4.128
13414TIP3    H240184   1.439   7.088   3.980
13415TIP3   OH240185   7.197   1.572   3.907
13415TIP3    H140186   7.230   1.662   3.900
13415TIP3    H240187   7.267   1.518   3.871
13416TIP3   OH240188   7.041   0.954   5.782
13416TIP3    H140189   7.015   0.868   5.815
13416TIP3    H240190   7.058   0.939   5.689
13417TIP3   OH240191   3.906   3.426   1.476
13417TIP3    H140192   3.829   3.396   1.427
13417TIP3    H240193   3.949   3.488   1.418
13418TIP3   OH240194   3.109   6.842   4.504
13418TIP3    H140195   3.144   6.794   4.579
13418TIP3    H240196   3.159   6.808   4.429
13419TIP3   OH240197   4.300   5.848   1.998
13419TIP3    H140198   4.208   5.853   1.972
13419TIP3    H240199   4.308   5.765   2.044
13420TIP3   OH240200   7.651   1.859   3.458
13420TIP3    H140201   7.725   1.798   3.455
13420TIP3    H240202   7.667   1.920   3.386
13421TIP3   OH240203   4.859   4.003   1.576
13421TIP3    H140204   4.943   3.985   1.532
13421TIP3    H240205   4.843   4.096   1.560
13422TIP3   OH240206   6.393   4.417   1.239
13422TIP3    H140207   6.359   4.382   1.322
13422TIP3    H240208   6.340   4.495   1.222
13423TIP3   OH240209   4.737   3.333   5.304
13423TIP3    H140210   4.735   3.243   5.270
13423TIP3    H240211   4.668   3.378   5.256
13424TIP3   OH240212   1.957   3.807   3.832
13424TIP3    H140213   2.021   3.870   3.865
13424TIP3    H240214   1.872   3.850   3.847
13425TIP3   OH240215   0.188   5.491   2.607
13425TIP3    H140216   0.263   5.462   2.556
13425TIP3    H240217   0.218   5.571   2.650
13426TIP3   OH240218   7.999   4.201   3.945
13426TIP3    H140219   8.047   4.118   3.951
13426TIP3    H240220   7.907   4.177   3.958
13427TIP3   OH240221   2.485   4.055   4.272
13427TIP3    H140222   2.554   4.075   4.208
13427TIP3    H240223   2.518   4.087   4.355
13428TIP3   OH240224   8.024   7.831   2.227
13428TIP3    H140225   7.989   7.855   2.313
13428TIP3    H240226   8.116   7.810   2.244
13429TIP3   OH240227   8.284   1.070   2.604
13429TIP3    H140228   8.228   1.011   2.653
13429TIP3    H240229   8.237   1.087   2.523
13430TIP3   OH240230   1.052   0.111   6.000
13430TIP3    H140231   1.029   0.128   5.909
13430TIP3    H240232   0.985   0.052   6.032
13431TIP3   OH240233   4.658   0.500   1.331
13431TIP3    H140234   4.728   0.442   1.300
13431TIP3    H240235   4.604   0.514   1.253
13432TIP3   OH240236   3.904   7.846   5.018
13432TIP3    H140237   3.820   7.852   4.974
13432TIP3    H240238   3.969   7.861   4.950
13433TIP3   OH240239   4.837   4.699   5.394
13433TIP3    H140240   4.751   4.698   5.353
13433TIP3    H240241   4.899   4.687   5.321
13434TIP3   OH240242   1.177   2.611   1.050
13434TIP3    H140243   1.217   2.619   1.137
13434TIP3    H240244   1.198   2.522   1.022
13435TIP3   OH240245   1.091   1.501   3.020
13435TIP3    H140246   1.061   1.490   2.929
13435TIP3    H240247   1.184   1.479   3.017
13436TIP3   OH240248   3.262   1.723   1.542
13436TIP3    H140249   3.326   1.787   1.512
13436TIP3    H240250   3.178   1.757   1.512
13437TIP3   OH240251   5.118   4.250   3.566
13437TIP3    H140252   5.116   4.284   3.476
13437TIP3    H240253   5.198   4.197   3.569
13438TIP3   OH240254   1.900   6.356   2.138
13438TIP3    H140255   1.946   6.315   2.065
13438TIP3    H240256   1.953   6.432   2.160
13439TIP3   OH240257   0.686   0.786   6.787
13439TIP3    H140258   0.674   0.871   6.828
13439TIP3    H240259   0.665   0.800   6.695
13440TIP3   OH240260   1.131   4.899   3.408
13440TIP3    H140261   1.098   4.813   3.381
13440TIP3    H240262   1.056   4.957   3.400
13441TIP3   OH240263   1.013   7.222   2.356
13441TIP3    H140264   0.921   7.220   2.381
13441TIP3    H240265   1.055   7.280   2.420
13442TIP3   OH240266   0.689   5.508   5.192
13442TIP3    H140267   0.750   5.481   5.261
13442TIP3    H240268   0.740   5.567   5.136
13443TIP3   OH240269   2.917   1.107   4.746
13443TIP3    H140270   2.988   1.138   4.802
13443TIP3    H240271   2.838   1.124   4.797
13444TIP3   OH240272   0.364   6.116   2.884
13444TIP3    H140273   0.440   6.128   2.828
13444TIP3    H240274   0.347   6.203   2.921
13445TIP3   OH240275   2.030   1.186   1.942
13445TIP3    H140276   2.037   1.246   1.868
13445TIP3    H240277   1.956   1.129   1.920
13446TIP3   OH240278   2.450   1.178   3.552
13446TIP3    H140279   2.419   1.136   3.632
13446TIP3    H240280   2.539   1.205   3.572
13447TIP3   OH240281   6.476   6.538   3.502
13447TIP3    H140282   6.468   6.486   3.422
13447TIP3    H240283   6.434   6.622   3.481
13448TIP3   OH240284   6.203   5.669   1.253
13448TIP3    H140285   6.201   5.605   1.324
13448TIP3    H240286   6.122   5.654   1.205
13449TIP3   OH240287   3.888   3.865   6.491
13449TIP3    H140288   3.911   3.867   6.398
13449TIP3    H240289   3.921   3.780   6.522
13450TIP3   OH240290   4.146   4.526   1.850
13450TIP3    H140291   4.081   4.499   1.914
13450TIP3    H240292   4.108   4.503   1.766
13451TIP3   OH240293   2.401   6.241   2.941
13451TIP3    H140294   2.374   6.310   3.002
13451TIP3    H240295   2.409   6.286   2.856
13452TIP3   OH240296   6.126   2.633   4.262
13452TIP3    H140297   6.216   2.609   4.243
13452TIP3    H240298   6.073   2.571   4.211
13453TIP3   OH240299   0.150   0.513   1.312
13453TIP3    H140300   0.166   0.437   1.369
13453TIP3    H240301   0.212   0.579   1.344
13454TIP3   OH240302   7.233   5.168   1.037
13454TIP3    H140303   7.310   5.116   1.061
13454TIP3    H240304   7.158   5.117   1.069
13455TIP3   OH240305   3.426   0.053   2.904
13455TIP3    H140306   3.519   0.055   2.884
13455TIP3    H240307   3.390  -0.011   2.843
13456TIP3   OH240308   2.940   4.476   4.730
13456TIP3    H140309   2.964   4.566   4.707
13456TIP3    H240310   2.847   4.481   4.752
13457TIP3   OH240311   4.696   1.712   4.456
13457TIP3    H140312   4.760   1.706   4.385
13457TIP3    H240313   4.741   1.674   4.532
13458TIP3   OH240314   6.009   1.710   5.493
13458TIP3    H140315   6.001   1.681   5.584
13458TIP3    H240316   5.956   1.647   5.444
13459TIP3   OH240317   1.029   7.835   6.600
13459TIP3    H140318   1.001   7.872   6.516
13459TIP3    H240319   0.966   7.868   6.664
13460TIP3   OH240320   2.038   0.240   2.786
13460TIP3    H140321   2.032   0.207   2.696
13460TIP3    H240322   1.969   0.193   2.833
13461TIP3   OH240323   0.258   4.438   6.183
13461TIP3    H140324   0.262   4.530   6.209
13461TIP3    H240325   0.164   4.419   6.177
13462TIP3   OH240326   0.899   1.811   5.111
13462TIP3    H140327   0.944   1.881   5.157
13462TIP3    H240328   0.967   1.746   5.093
13463TIP3   OH240329   2.978   6.797   5.256
13463TIP3    H140330   2.920   6.721   5.256
13463TIP3    H240331   3.043   6.778   5.324
13464TIP3   OH240332   1.348   7.167   3.798
13464TIP3    H140333   1.256   7.163   3.771
13464TIP3    H240334   1.397   7.134   3.722
13465TIP3   OH240335   2.666   3.765   1.205
13465TIP3    H140336   2.605   3.812   1.148
13465TIP3    H240337   2.745   3.819   1.205
13466TIP3   OH240338   5.141   7.167   1.728
13466TIP3    H140339   5.199   7.199   1.659
13466TIP3    H240340   5.118   7.245   1.778
13467TIP3   OH240341   4.180   1.990   3.838
13467TIP3    H140342   4.132   1.918   3.881
13467TIP3    H240343   4.237   1.946   3.775
13468TIP3   OH240344   1.169   4.441   4.474
13468TIP3    H140345   1.191   4.387   4.399
13468TIP3    H240346   1.203   4.528   4.452
13469TIP3   OH240347   6.554   2.293   0.036
13469TIP3    H140348   6.589   2.335  -0.042
13469TIP3    H240349   6.492   2.356   0.072
13470TIP3   OH240350   0.736   6.998   4.817
13470TIP3    H140351   0.680   7.017   4.742
13470TIP3    H240352   0.733   7.077   4.871
13471TIP3   OH240353   0.094   0.979  -0.001
13471TIP3    H140354   0.050   0.987   0.083
13471TIP3    H240355   0.137   0.893   0.003
13472TIP3   OH240356   4.998   5.752   2.204
13472TIP3    H140357   5.092   5.737   2.198
13472TIP3    H240358   4.964   5.678   2.253
13473TIP3   OH240359   2.521   7.069   5.734
13473TIP3    H140360   2.534   7.043   5.643
13473TIP3    H240361   2.610   7.078   5.769
13474TIP3   OH240362   3.836   3.384   2.683
13474TIP3    H140363   3.826   3.305   2.631
13474TIP3    H240364   3.923   3.377   2.722
13475TIP3   OH240365   7.661   1.555   2.142
13475TIP3    H140366   7.658   1.646   2.171
13475TIP3    H240367   7.750   1.543   2.109
13476TIP3   OH240368   7.292   3.080   3.185
13476TIP3    H140369   7.360   3.066   3.251
13476TIP3    H240370   7.326   3.038   3.106
13477TIP3   OH240371   6.127   3.832   0.264
13477TIP3    H140372   6.103   3.755   0.213
13477TIP3    H240373   6.062   3.898   0.241
13478TIP3   OH240374   7.691   3.981   2.645
13478TIP3    H140375   7.744   3.951   2.719
13478TIP3    H240376   7.645   4.058   2.677
13479TIP3   OH240377   0.118   7.288   2.658
13479TIP3    H140378   0.038   7.334   2.682
13479TIP3    H240379   0.117   7.208   2.712
13480TIP3   OH240380   2.121   1.063   6.855
13480TIP3    H140381   2.098   1.151   6.825
13480TIP3    H240382   2.198   1.039   6.803
13481TIP3   OH240383   1.623   4.228   4.020
13481TIP3    H140384   1.538   4.194   3.993
13481TIP3    H240385   1.672   4.240   3.939
13482TIP3   OH240386   3.405   5.781   4.370
13482TIP3    H140387   3.349   5.724   4.317
13482TIP3    H240388   3.437   5.847   4.308
13483TIP3   OH240389   5.437   1.402   2.646
13483TIP3    H140390   5.454   1.323   2.595
13483TIP3    H240391   5.400   1.370   2.728
13484TIP3   OH240392   8.266   2.471   3.772
13484TIP3    H140393   8.343   2.522   3.747
13484TIP3    H240394   8.250   2.415   3.696
13485TIP3   OH240395   0.355   3.646   3.877
13485TIP3    H140396   0.435   3.617   3.832
13485TIP3    H240397   0.329   3.572   3.931
13486TIP3   OH240398   1.662   7.830   0.644
13486TIP3    H140399   1.643   7.858   0.734
13486TIP3    H240400   1.576   7.820   0.603
13487TIP3   OH240401   1.147   0.375   4.358
13487TIP3    H140402   1.112   0.464   4.347
13487TIP3    H240403   1.115   0.328   4.281
13488TIP3   OH240404   3.709   2.805   0.349
13488TIP3    H140405   3.765   2.731   0.370
13488TIP3    H240406   3.760   2.857   0.287
13489TIP3   OH240407   2.150   7.136   6.549
13489TIP3    H140408   2.210   7.207   6.572
13489TIP3    H240409   2.125   7.154   6.459
13490TIP3   OH240410   0.163   1.725   5.395
13490TIP3    H140411   0.212   1.643   5.395
13490TIP3    H240412   0.184   1.765   5.311
13491TIP3   OH240413   3.268   0.545   5.752
13491TIP3    H140414   3.247   0.632   5.786
13491TIP3    H240415   3.216   0.537   5.673
13492TIP3   OH240416   5.299   6.623   0.799
13492TIP3    H140417   5.321   6.702   0.750
13492TIP3    H240418   5.384   6.583   0.819
13493TIP3   OH240419   4.750   1.849   5.777
13493TIP3    H140420   4.843   1.874   5.777
13493TIP3    H240421   4.750   1.758   5.806
13494TIP3   OH240422   7.106   4.054   3.532
13494TIP3    H140423   7.012   4.071   3.534
13494TIP3    H240424   7.147   4.141   3.534
13495TIP3   OH240425   5.442   3.078   3.574
13495TIP3    H140426   5.407   2.990   3.560
13495TIP3    H240427   5.533   3.063   3.602
13496TIP3   OH240428   1.117   0.718   0.704
13496TIP3    H140429   1.066   0.640   0.729
13496TIP3    H240430   1.094   0.783   0.770
13497TIP3   OH240431   4.842   3.662   0.388
13497TIP3    H140432   4.860   3.695   0.300
13497TIP3    H240433   4.771   3.598   0.376
13498TIP3   OH240434   8.126   3.808   1.313
13498TIP3    H140435   8.145   3.766   1.230
13498TIP3    H240436   8.070   3.745   1.360
13499TIP3   OH240437   4.776   1.784   2.594
13499TIP3    H140438   4.781   1.760   2.687
13499TIP3    H240439   4.790   1.702   2.547
13500TIP3   OH240440   1.005   4.259   2.954
13500TIP3    H140441   1.090   4.289   2.988
13500TIP3    H240442   0.999   4.299   2.867
13501TIP3   OH240443   7.153   4.386   3.311
13501TIP3    H140444   7.157   4.377   3.215
13501TIP3    H240445   7.061   4.370   3.332
13502TIP3   OH240446   5.285   5.184   2.750
13502TIP3    H140447   5.209   5.128   2.735
13502TIP3    H240448   5.360   5.124   2.752
13503TIP3   OH240449   5.185   2.916   6.145
13503TIP3    H140450   5.258   2.964   6.106
13503TIP3    H240451   5.150   2.975   6.212
13504TIP3   OH240452   6.294   5.582   1.880
13504TIP3    H140453   6.275   5.672   1.853
13504TIP3    H240454   6.266   5.579   1.972
13505TIP3   OH240455   8.150   4.983   4.396
13505TIP3    H140456   8.131   4.901   4.441
13505TIP3    H240457   8.158   5.048   4.466
13506TIP3   OH240458   7.133   3.764   3.175
13506TIP3    H140459   7.201   3.827   3.150
13506TIP3    H240460   7.136   3.697   3.107
13507TIP3   OH240461   6.619   1.044   2.628
13507TIP3    H140462   6.539   1.064   2.678
13507TIP3    H240463   6.683   1.021   2.695
13508TIP3   OH240464   5.795   3.529   2.684
13508TIP3    H140465   5.772   3.458   2.744
13508TIP3    H240466   5.711   3.565   2.657
13509TIP3   OH240467   5.176   3.331   5.224
13509TIP3    H140468   5.252   3.274   5.211
13509TIP3    H240469   5.138   3.341   5.137
13510TIP3   OH240470   5.098   0.285   2.050
13510TIP3    H140471   5.186   0.274   2.086
13510TIP3    H240472   5.093   0.377   2.025
13511TIP3   OH240473   4.720   7.059   1.973
13511TIP3    H140474   4.649   7.122   1.979
13511TIP3    H240475   4.799   7.109   1.995
13512TIP3   OH240476   3.303   5.699   4.627
13512TIP3    H140477   3.381   5.660   4.667
13512TIP3    H240478   3.329   5.719   4.537
13513TIP3   OH240479   6.621   4.895   4.725
13513TIP3    H140480   6.525   4.899   4.722
13513TIP3    H240481   6.649   4.929   4.640
13514TIP3   OH240482  -0.016   7.661   3.194
13514TIP3    H140483   0.054   7.629   3.137
13514TIP3    H240484  -0.078   7.703   3.135
13515TIP3   OH240485   5.097   7.423   0.581
13515TIP3    H140486   5.019   7.465   0.545
13515TIP3    H240487   5.137   7.379   0.506
13516TIP3   OH240488   2.078   4.386   3.563
13516TIP3    H140489   2.113   4.434   3.637
13516TIP3    H240490   2.110   4.433   3.486
13517TIP3   OH240491   1.430   7.100   5.126
13517TIP3    H140492   1.420   7.122   5.219
13517TIP3    H240493   1.427   7.185   5.081
13518TIP3   OH240494   3.563   4.790   4.138
13518TIP3    H140495   3.646   4.804   4.183
13518TIP3    H240496   3.499   4.837   4.191
13519TIP3   OH240497   6.994   3.080   3.169
13519TIP3    H140498   7.083   3.084   3.205
13519TIP3    H240499   6.952   3.161   3.200
13520TIP3   OH240500   4.053   2.387   5.160
13520TIP3    H140501   4.110   2.363   5.234
13520TIP3    H240502   4.091   2.469   5.127
13521TIP3   OH240503   5.540   2.967   2.650
13521TIP3    H140504   5.625   2.925   2.654
13521TIP3    H240505   5.514   2.980   2.741
13522TIP3   OH240506   6.371   4.582   4.670
13522TIP3    H140507   6.420   4.615   4.595
13522TIP3    H240508   6.284   4.620   4.661
13523TIP3   OH240509   1.676   7.246   0.839
13523TIP3    H140510   1.615   7.235   0.766
13523TIP3    H240511   1.662   7.169   0.894
13524TIP3   OH240512   5.926   7.283   5.519
13524TIP3    H140513   5.958   7.291   5.429
13524TIP3    H240514   5.832   7.301   5.514
13525TIP3   OH240515   0.959   2.260   1.664
13525TIP3    H140516   1.051   2.278   1.647
13525TIP3    H240517   0.933   2.197   1.596
13526TIP3   OH240518   3.805   7.183   0.840
13526TIP3    H140519   3.862   7.253   0.808
13526TIP3    H240520   3.752   7.159   0.765
13527TIP3   OH240521   1.802   0.994   3.778
13527TIP3    H140522   1.735   1.012   3.712
13527TIP3    H240523   1.864   0.935   3.734
13528TIP3   OH240524   7.632   2.419   6.869
13528TIP3    H140525   7.704   2.433   6.807
13528TIP3    H240526   7.611   2.326   6.859
13529TIP3   OH240527   1.148   2.349   5.703
13529TIP3    H140528   1.082   2.376   5.768
13529TIP3    H240529   1.172   2.431   5.659
13530TIP3   OH240530   0.652   0.189   4.872
13530TIP3    H140531   0.686   0.149   4.791
13530TIP3    H240532   0.560   0.164   4.874
13531TIP3   OH240533   6.206   1.250   5.383
13531TIP3    H140534   6.177   1.328   5.336
13531TIP3    H240535   6.175   1.177   5.330
13532TIP3   OH240536   6.444   3.651   3.904
13532TIP3    H140537   6.383   3.717   3.870
13532TIP3    H240538   6.473   3.603   3.827
13533TIP3   OH240539   8.397   1.122   5.268
13533TIP3    H140540   8.385   1.069   5.190
13533TIP3    H240541   8.428   1.207   5.236
13534TIP3   OH240542   4.794   1.128   6.608
13534TIP3    H140543   4.809   1.121   6.514
13534TIP3    H240544   4.802   1.038   6.640
13535TIP3   OH240545   8.011   4.136   5.351
13535TIP3    H140546   8.063   4.203   5.306
13535TIP3    H240547   7.987   4.176   5.434
13536TIP3   OH240548   3.711   0.781   2.079
13536TIP3    H140549   3.730   0.696   2.040
13536TIP3    H240550   3.649   0.822   2.019
13537TIP3   OH240551   6.308   7.932   5.111
13537TIP3    H140552   6.261   7.883   5.177
13537TIP3    H240553   6.246   7.998   5.081
13538TIP3   OH240554   1.966   4.458   4.098
13538TIP3    H140555   1.957   4.383   4.039
13538TIP3    H240556   2.048   4.442   4.145
13539TIP3   OH240557   4.577   4.000   0.713
13539TIP3    H140558   4.544   4.074   0.764
13539TIP3    H240559   4.667   4.023   0.692
13540TIP3   OH240560   4.651   1.961   6.008
13540TIP3    H140561   4.669   1.934   5.918
13540TIP3    H240562   4.672   1.884   6.061
13541TIP3   OH240563   7.376   7.764   3.381
13541TIP3    H140564   7.359   7.681   3.338
13541TIP3    H240565   7.376   7.744   3.475
13542TIP3   OH240566   6.597   2.498   3.396
13542TIP3    H140567   6.568   2.589   3.383
13542TIP3    H240568   6.521   2.455   3.435
13543TIP3   OH240569   4.366   3.690   3.741
13543TIP3    H140570   4.338   3.636   3.815
13543TIP3    H240571   4.421   3.758   3.781
13544TIP3   OH240572   7.131   2.866   6.855
13544TIP3    H140573   7.226   2.859   6.842
13544TIP3    H240574   7.114   2.960   6.852
13545TIP3   OH240575   5.488   0.387   4.615
13545TIP3    H140576   5.447   0.358   4.697
13545TIP3    H240577   5.569   0.336   4.609
13546TIP3   OH240578   6.367   5.631   0.272
13546TIP3    H140579   6.339   5.543   0.298
13546TIP3    H240580   6.353   5.684   0.350
13547TIP3   OH240581   3.607   7.298   6.793
13547TIP3    H140582   3.579   7.226   6.737
13547TIP3    H240583   3.607   7.374   6.736
13548TIP3   OH240584   5.520   6.914   4.855
13548TIP3    H140585   5.536   7.002   4.890
13548TIP3    H240586   5.608   6.877   4.844
13549TIP3   OH240587   0.868   4.609   1.776
13549TIP3    H140588   0.947   4.662   1.763
13549TIP3    H240589   0.820   4.616   1.694
13550TIP3   OH240590   0.179   4.377   3.191
13550TIP3    H140591   0.160   4.464   3.224
13550TIP3    H240592   0.095   4.344   3.158
13551TIP3   OH240593   5.897   5.500   2.893
13551TIP3    H140594   5.832   5.446   2.937
13551TIP3    H240595   5.981   5.471   2.929
13552TIP3   OH240596   1.713   7.088   6.600
13552TIP3    H140597   1.754   7.081   6.514
13552TIP3    H240598   1.624   7.055   6.586
13553TIP3   OH240599   2.176   1.647   2.579
13553TIP3    H140600   2.263   1.678   2.553
13553TIP3    H240601   2.140   1.718   2.632
13554TIP3   OH240602   4.936   0.364   1.396
13554TIP3    H140603   4.957   0.457   1.399
13554TIP3    H240604   4.992   0.329   1.327
13555TIP3   OH240605   3.312   0.631   3.852
13555TIP3    H140606   3.384   0.579   3.816
13555TIP3    H240607   3.349   0.719   3.864
13556TIP3   OH240608   3.427   0.914   3.658
13556TIP3    H140609   3.382   0.901   3.741
13556TIP3    H240610   3.503   0.967   3.680
13557TIP3   OH240611   7.032   2.544   4.261
13557TIP3    H140612   7.107   2.531   4.203
13557TIP3    H240613   6.989   2.623   4.228
13558TIP3   OH240614   3.552   7.102   2.061
13558TIP3    H140615   3.597   7.085   2.144
13558TIP3    H240616   3.581   7.190   2.036
13559TIP3   OH240617   8.310   7.446   1.910
13559TIP3    H140618   8.396   7.484   1.891
13559TIP3    H240619   8.259   7.520   1.943
13560TIP3   OH240620   0.963   1.674   1.911
13560TIP3    H140621   0.913   1.744   1.955
13560TIP3    H240622   1.012   1.632   1.981
13561TIP3   OH240623   5.081   6.890   5.081
13561TIP3    H140624   5.163   6.922   5.043
13561TIP3    H240625   5.059   6.954   5.148
13562TIP3   OH240626   0.230   1.252   3.106
13562TIP3    H140627   0.198   1.256   3.196
13562TIP3    H240628   0.304   1.191   3.109
13563TIP3   OH240629   2.529   2.020   4.432
13563TIP3    H140630   2.440   1.998   4.459
13563TIP3    H240631   2.528   2.011   4.337
13564TIP3   OH240632   5.395   3.931   5.821
13564TIP3    H140633   5.447   3.866   5.775
13564TIP3    H240634   5.357   3.985   5.752
13565TIP3   OH240635   2.312   1.917   4.580
13565TIP3    H140636   2.315   1.956   4.668
13565TIP3    H240637   2.293   1.825   4.596
13566TIP3   OH240638   1.319   2.413   3.356
13566TIP3    H140639   1.317   2.369   3.271
13566TIP3    H240640   1.411   2.410   3.383
13567TIP3   OH240641   1.784   1.342   0.420
13567TIP3    H140642   1.771   1.321   0.512
13567TIP3    H240643   1.828   1.265   0.383
13568TIP3   OH240644   8.069   0.606   0.863
13568TIP3    H140645   8.131   0.536   0.840
13568TIP3    H240646   8.018   0.620   0.784
13569TIP3   OH240647   6.576   6.679   5.907
13569TIP3    H140648   6.483   6.681   5.928
13569TIP3    H240649   6.616   6.743   5.965
13570TIP3   OH240650   7.403   3.120   3.811
13570TIP3    H140651   7.478   3.138   3.867
13570TIP3    H240652   7.428   3.155   3.726
13571TIP3   OH240653   4.691   2.029   2.517
13571TIP3    H140654   4.731   1.944   2.539
13571TIP3    H240655   4.665   2.020   2.425
13572TIP3   OH240656   2.557   6.078   6.553
13572TIP3    H140657   2.463   6.058   6.546
13572TIP3    H240658   2.567   6.163   6.510
13573TIP3   OH240659   5.008   3.794   6.581
13573TIP3    H140660   5.069   3.815   6.510
13573TIP3    H240661   4.986   3.702   6.568
13574TIP3   OH240662   5.121   7.496   5.727
13574TIP3    H140663   5.074   7.558   5.783
13574TIP3    H240664   5.105   7.529   5.638
13575TIP3   OH240665   6.776   7.031   2.301
13575TIP3    H140666   6.714   6.959   2.291
13575TIP3    H240667   6.857   6.998   2.260
13576TIP3   OH240668   2.849   5.752   6.536
13576TIP3    H140669   2.897   5.675   6.566
13576TIP3    H240670   2.885   5.769   6.449
13577TIP3   OH240671   4.709   4.353   1.809
13577TIP3    H140672   4.801   4.341   1.784
13577TIP3    H240673   4.673   4.410   1.741
13578TIP3   OH240674   0.517   1.187   3.028
13578TIP3    H140675   0.583   1.125   2.998
13578TIP3    H240676   0.556   1.227   3.106
13579TIP3   OH240677   2.764   2.231   2.260
13579TIP3    H140678   2.794   2.251   2.171
13579TIP3    H240679   2.766   2.135   2.264
13580TIP3   OH240680   0.334   0.859   3.474
13580TIP3    H140681   0.264   0.924   3.482
13580TIP3    H240682   0.399   0.900   3.418
13581TIP3   OH240683   2.320   4.992   2.545
13581TIP3    H140684   2.413   5.010   2.537
13581TIP3    H240685   2.279   5.078   2.555
13582TIP3   OH240686   7.505   0.740   1.977
13582TIP3    H140687   7.509   0.829   1.943
13582TIP3    H240688   7.479   0.750   2.069
13583TIP3   OH240689   3.411   6.892   5.472
13583TIP3    H140690   3.485   6.928   5.521
13583TIP3    H240691   3.441   6.890   5.381
13584TIP3   OH240692   1.540   4.178   2.002
13584TIP3    H140693   1.462   4.123   2.010
13584TIP3    H240694   1.591   4.138   1.932
13585TIP3   OH240695   2.236   7.800   6.056
13585TIP3    H140696   2.296   7.789   6.130
13585TIP3    H240697   2.204   7.712   6.037
13586TIP3   OH240698   8.019   0.545   3.322
13586TIP3    H140699   7.931   0.548   3.359
13586TIP3    H240700   8.040   0.452   3.315
13587TIP3   OH240701   3.072   0.659   4.844
13587TIP3    H140702   3.042   0.573   4.874
13587TIP3    H240703   3.123   0.694   4.917
13588TIP3   OH240704   6.270   3.855   3.813
13588TIP3    H140705   6.227   3.914   3.875
13588TIP3    H240706   6.201   3.832   3.751
13589TIP3   OH240707   2.709   2.240   1.401
13589TIP3    H140708   2.792   2.256   1.355
13589TIP3    H240709   2.643   2.279   1.344
13590TIP3   OH240710   7.604   2.843   3.730
13590TIP3    H140711   7.534   2.856   3.666
13590TIP3    H240712   7.558   2.837   3.814
13591TIP3   OH240713   8.079   3.516   3.415
13591TIP3    H140714   8.027   3.436   3.405
13591TIP3    H240715   8.043   3.577   3.351
13592TIP3   OH240716   7.059   4.998   5.389
13592TIP3    H140717   7.132   4.951   5.348
13592TIP3    H240718   7.094   5.086   5.406
13593TIP3   OH240719   2.395   2.672   4.588
13593TIP3    H140720   2.375   2.744   4.648
13593TIP3    H240721   2.313   2.658   4.540
13594TIP3   OH240722   6.928   5.905   5.467
13594TIP3    H140723   6.844   5.859   5.471
13594TIP3    H240724   6.917   5.968   5.396
13595TIP3   OH240725   3.110   6.498   2.686
13595TIP3    H140726   3.046   6.568   2.675
13595TIP3    H240727   3.104   6.474   2.778
13596TIP3   OH240728   8.326   6.874   5.431
13596TIP3    H140729   8.382   6.883   5.508
13596TIP3    H240730   8.254   6.935   5.447
13597TIP3   OH240731   7.217   3.550   1.144
13597TIP3    H140732   7.222   3.642   1.171
13597TIP3    H240733   7.136   3.518   1.182
13598TIP3   OH240734   7.472   3.147   5.177
13598TIP3    H140735   7.401   3.083   5.185
13598TIP3    H240736   7.430   3.225   5.142
13599TIP3   OH240737   2.338   6.779   3.239
13599TIP3    H140738   2.428   6.798   3.264
13599TIP3    H240739   2.316   6.849   3.177
13600TIP3   OH240740   0.302   5.915   4.624
13600TIP3    H140741   0.215   5.945   4.597
13600TIP3    H240742   0.355   5.995   4.629
13601TIP3   OH240743   5.305   6.096   0.470
13601TIP3    H140744   5.338   6.185   0.465
13601TIP3    H240745   5.305   6.076   0.564
13602TIP3   OH240746   1.102   3.504   3.752
13602TIP3    H140747   1.022   3.508   3.805
13602TIP3    H240748   1.147   3.587   3.771
13603TIP3   OH240749   6.297   0.312   5.495
13603TIP3    H140750   6.284   0.375   5.425
13603TIP3    H240751   6.392   0.312   5.510
13604TIP3   OH240752   7.150   5.042   3.300
13604TIP3    H140753   7.109   5.028   3.385
13604TIP3    H240754   7.243   5.053   3.318
13605TIP3   OH240755   6.210   1.751   2.110
13605TIP3    H140756   6.240   1.662   2.129
13605TIP3    H240757   6.114   1.746   2.116
13606TIP3   OH240758   7.351   1.087   2.454
13606TIP3    H140759   7.333   1.181   2.458
13606TIP3    H240760   7.337   1.056   2.543
13607TIP3   OH240761   0.537   7.084   3.536
13607TIP3    H140762   0.502   6.996   3.521
13607TIP3    H240763   0.474   7.142   3.494
13608TIP3   OH240764   0.094   1.391   3.327
13608TIP3    H140765   0.048   1.311   3.354
13608TIP3    H240766   0.051   1.417   3.245
13609TIP3   OH240767   0.142   2.026   2.088
13609TIP3    H140768   0.233   2.056   2.081
13609TIP3    H240769   0.139   1.977   2.170
13610TIP3   OH240770   0.563   2.273   1.918
13610TIP3    H140771   0.562   2.200   1.857
13610TIP3    H240772   0.652   2.307   1.913
13611TIP3   OH240773   0.823   5.374   4.919
13611TIP3    H140774   0.807   5.467   4.909
13611TIP3    H240775   0.739   5.333   4.898
13612TIP3   OH240776   2.053   2.436   0.783
13612TIP3    H140777   2.119   2.367   0.783
13612TIP3    H240778   2.023   2.441   0.874
13613TIP3   OH240779   1.492   4.415   2.723
13613TIP3    H140780   1.469   4.357   2.650
13613TIP3    H240781   1.482   4.361   2.801
13614TIP3   OH240782   2.384   4.504   6.276
13614TIP3    H140783   2.382   4.599   6.287
13614TIP3    H240784   2.320   4.471   6.338
13615TIP3   OH240785   4.792   7.570   3.937
13615TIP3    H140786   4.757   7.500   3.991
13615TIP3    H240787   4.884   7.577   3.962
13616TIP3   OH240788   4.868   6.299   4.679
13616TIP3    H140789   4.878   6.347   4.761
13616TIP3    H240790   4.957   6.275   4.654
13617TIP3   OH240791   5.572   0.277   5.993
13617TIP3    H140792   5.605   0.321   6.072
13617TIP3    H240793   5.497   0.227   6.024
13618TIP3   OH240794   3.824   1.752   3.170
13618TIP3    H140795   3.765   1.681   3.197
13618TIP3    H240796   3.766   1.827   3.158
13619TIP3   OH240797   3.536   5.873   6.529
13619TIP3    H140798   3.488   5.805   6.576
13619TIP3    H240799   3.523   5.952   6.582
13620TIP3   OH240800   4.197   2.895   4.989
13620TIP3    H140801   4.203   2.883   4.894
13620TIP3    H240802   4.200   2.807   5.025
13621TIP3   OH240803   7.043   5.246   3.992
13621TIP3    H140804   6.968   5.202   4.033
13621TIP3    H240805   7.110   5.247   4.060
13622TIP3   OH240806   1.069   2.580   4.629
13622TIP3    H140807   1.020   2.645   4.579
13622TIP3    H240808   1.103   2.519   4.564
13623TIP3   OH240809   3.272   4.567   3.166
13623TIP3    H140810   3.221   4.569   3.085
13623TIP3    H240811   3.362   4.583   3.139
13624TIP3   OH240812   4.736   5.657   5.069
13624TIP3    H140813   4.699   5.568   5.065
13624TIP3    H240814   4.687   5.700   5.139
13625TIP3   OH240815   3.261   7.748   4.305
13625TIP3    H140816   3.174   7.787   4.321
13625TIP3    H240817   3.243   7.670   4.252
13626TIP3   OH240818   3.504   4.327   4.787
13626TIP3    H140819   3.481   4.238   4.759
13626TIP3    H240820   3.429   4.381   4.760
13627TIP3   OH240821   2.420   0.577   4.891
13627TIP3    H140822   2.451   0.554   4.803
13627TIP3    H240823   2.395   0.493   4.930
13628TIP3   OH240824   3.395   5.032   2.679
13628TIP3    H140825   3.335   4.959   2.663
13628TIP3    H240826   3.442   5.008   2.759
13629TIP3   OH240827   3.379   7.214   2.496
13629TIP3    H140828   3.440   7.280   2.463
13629TIP3    H240829   3.370   7.235   2.589
13630TIP3   OH240830   2.818   2.858   4.678
13630TIP3    H140831   2.763   2.821   4.748
13630TIP3    H240832   2.816   2.792   4.609
13631TIP3   OH240833   1.236   6.953   2.832
13631TIP3    H140834   1.323   6.965   2.795
13631TIP3    H240835   1.203   6.872   2.792
13632TIP3   OH240836   2.625   5.609   3.488
13632TIP3    H140837   2.563   5.677   3.461
13632TIP3    H240838   2.608   5.597   3.581
13633TIP3   OH240839   8.454   3.761   5.298
13633TIP3    H140840   8.368   3.772   5.339
13633TIP3    H240841   8.516   3.779   5.369
13634TIP3   OH240842   4.009   0.830   2.740
13634TIP3    H140843   4.064   0.768   2.788
13634TIP3    H240844   4.047   0.916   2.757
13635TIP3   OH240845   7.597   7.368   1.320
13635TIP3    H140846   7.619   7.443   1.375
13635TIP3    H240847   7.589   7.294   1.381
13636TIP3   OH240848   2.337   5.533   1.601
13636TIP3    H140849   2.354   5.449   1.558
13636TIP3    H240850   2.343   5.598   1.531
13637TIP3   OH240851   2.909   3.433   1.761
13637TIP3    H140852   2.833   3.375   1.770
13637TIP3    H240853   2.877   3.507   1.711
13638TIP3   OH240854   5.071   0.876   4.147
13638TIP3    H140855   5.139   0.887   4.080
13638TIP3    H240856   5.000   0.935   4.119
13639TIP3   OH240857   2.864   1.866   6.618
13639TIP3    H140858   2.842   1.912   6.537
13639TIP3    H240859   2.959   1.874   6.626
13640TIP3   OH240860   8.162   1.691   0.483
13640TIP3    H140861   8.171   1.633   0.558
13640TIP3    H240862   8.148   1.778   0.521
13641TIP3   OH240863   1.490   0.330   2.816
13641TIP3    H140864   1.454   0.414   2.787
13641TIP3    H240865   1.417   0.288   2.863
13642TIP3   OH240866   5.485   1.717   6.541
13642TIP3    H140867   5.475   1.706   6.447
13642TIP3    H240868   5.423   1.787   6.564
13643TIP3   OH240869   1.262   3.252   5.954
13643TIP3    H140870   1.212   3.224   6.030
13643TIP3    H240871   1.308   3.174   5.925
13644TIP3   OH240872   4.471   5.972   3.373
13644TIP3    H140873   4.468   5.878   3.390
13644TIP3    H240874   4.399   5.988   3.312
13645TIP3   OH240875   4.434   4.629   3.839
13645TIP3    H140876   4.464   4.598   3.753
13645TIP3    H240877   4.342   4.606   3.843
13646TIP3   OH240878   3.337   1.735   6.536
13646TIP3    H140879   3.397   1.810   6.535
13646TIP3    H240880   3.391   1.661   6.507
13647TIP3   OH240881   7.869   6.719   2.049
13647TIP3    H140882   7.810   6.793   2.057
13647TIP3    H240883   7.812   6.642   2.058
13648TIP3   OH240884   7.927   7.352   2.597
13648TIP3    H140885   7.855   7.400   2.555
13648TIP3    H240886   7.992   7.420   2.616
13649TIP3   OH240887   2.281   1.633   3.187
13649TIP3    H140888   2.368   1.592   3.191
13649TIP3    H240889   2.228   1.581   3.247
13650TIP3   OH240890   5.656   4.045   3.161
13650TIP3    H140891   5.613   3.979   3.107
13650TIP3    H240892   5.717   4.089   3.102
13651TIP3   OH240893   0.022   1.262   2.748
13651TIP3    H140894  -0.035   1.193   2.712
13651TIP3    H240895   0.106   1.218   2.761
13652TIP3   OH240896   6.061   4.538   5.765
13652TIP3    H140897   6.045   4.451   5.802
13652TIP3    H240898   6.012   4.538   5.682
13653TIP3   OH240899   4.001   1.376   0.266
13653TIP3    H140900   3.977   1.404   0.355
13653TIP3    H240901   3.966   1.444   0.209
13654TIP3   OH240902   6.227   0.686   4.891
13654TIP3    H140903   6.253   0.706   4.801
13654TIP3    H240904   6.132   0.691   4.890
13655TIP3   OH240905   7.467   0.047   4.972
13655TIP3    H140906   7.551   0.082   4.940
13655TIP3    H240907   7.475   0.049   5.067
13656TIP3   OH240908   5.560   4.718   3.724
13656TIP3    H140909   5.650   4.711   3.690
13656TIP3    H240910   5.525   4.630   3.718
13657TIP3   OH240911   1.630   7.796   4.889
13657TIP3    H140912   1.550   7.749   4.865
13657TIP3    H240913   1.611   7.832   4.976
13658TIP3   OH240914   7.589   2.457   1.919
13658TIP3    H140915   7.519   2.416   1.868
13658TIP3    H240916   7.665   2.401   1.903
13659TIP3   OH240917   8.005   7.147   3.795
13659TIP3    H140918   7.923   7.118   3.836
13659TIP3    H240919   8.072   7.096   3.840
13660TIP3   OH240920   0.800   0.919   0.672
13660TIP3    H140921   0.794   0.829   0.639
13660TIP3    H240922   0.805   0.973   0.593
13661TIP3   OH240923   5.464   0.719   3.613
13661TIP3    H140924   5.441   0.780   3.543
13661TIP3    H240925   5.385   0.667   3.626
13662TIP3   OH240926   6.461   7.475   4.588
13662TIP3    H140927   6.528   7.410   4.611
13662TIP3    H240928   6.472   7.545   4.652
13663TIP3   OH240929   3.910   0.603   2.330
13663TIP3    H140930   3.993   0.581   2.373
13663TIP3    H240931   3.891   0.693   2.358
13664TIP3   OH240932   3.953   4.337   3.926
13664TIP3    H140933   4.022   4.334   3.993
13664TIP3    H240934   3.892   4.403   3.959
13665TIP3   OH240935   5.586   7.863   1.223
13665TIP3    H140936   5.502   7.880   1.265
13665TIP3    H240937   5.563   7.816   1.143
13666TIP3   OH240938   2.434   7.123   3.745
13666TIP3    H140939   2.390   7.203   3.773
13666TIP3    H240940   2.479   7.092   3.823
13667TIP3   OH240941   6.146   6.603   5.177
13667TIP3    H140942   6.127   6.583   5.086
13667TIP3    H240943   6.062   6.596   5.222
13668TIP3   OH240944   5.689   5.328   4.558
13668TIP3    H140945   5.726   5.240   4.556
13668TIP3    H240946   5.627   5.330   4.486
13669TIP3   OH240947   5.253   5.816   1.063
13669TIP3    H140948   5.169   5.777   1.086
13669TIP3    H240949   5.262   5.800   0.969
13670TIP3   OH240950   3.387   5.983   1.464
13670TIP3    H140951   3.480   5.999   1.450
13670TIP3    H240952   3.366   6.031   1.544
13671TIP3   OH240953   1.867   2.159   3.312
13671TIP3    H140954   1.941   2.117   3.355
13671TIP3    H240955   1.884   2.147   3.218
13672TIP3   OH240956   6.557   1.655   0.149
13672TIP3    H140957   6.526   1.675   0.237
13672TIP3    H240958   6.597   1.569   0.156
13673TIP3   OH240959   6.875   4.697   5.729
13673TIP3    H140960   6.930   4.671   5.655
13673TIP3    H240961   6.886   4.627   5.793
13674TIP3   OH240962   1.978   7.133   5.456
13674TIP3    H140963   1.928   7.214   5.455
13674TIP3    H240964   1.955   7.089   5.374
13675TIP3   OH240965   1.011   2.143   3.585
13675TIP3    H140966   1.102   2.125   3.609
13675TIP3    H240967   0.974   2.057   3.565
13676TIP3   OH240968   1.185   3.015   1.305
13676TIP3    H140969   1.186   3.029   1.210
13676TIP3    H240970   1.229   3.093   1.341
13677TIP3   OH240971   4.929   3.132   2.121
13677TIP3    H140972   4.867   3.093   2.060
13677TIP3    H240973   4.996   3.172   2.066
13678TIP3   OH240974   5.559   5.457   6.787
13678TIP3    H140975   5.621   5.385   6.793
13678TIP3    H240976   5.588   5.508   6.712
13679TIP3   OH240977   4.138   1.817   1.934
13679TIP3    H140978   4.097   1.895   1.973
13679TIP3    H240979   4.066   1.769   1.894
13680TIP3   OH240980   2.027   1.863   4.803
13680TIP3    H140981   2.097   1.818   4.755
13680TIP3    H240982   1.969   1.898   4.734
13681TIP3   OH240983   1.544   1.031   6.736
13681TIP3    H140984   1.634   1.020   6.765
13681TIP3    H240985   1.531   1.126   6.733
13682TIP3   OH240986   7.374   7.439   0.865
13682TIP3    H140987   7.361   7.512   0.805
13682TIP3    H240988   7.456   7.459   0.910
13683TIP3   OH240989   4.590   6.815   2.781
13683TIP3    H140990   4.603   6.720   2.781
13683TIP3    H240991   4.516   6.829   2.721
13684TIP3   OH240992   8.032   5.170   5.891
13684TIP3    H140993   8.104   5.129   5.940
13684TIP3    H240994   7.977   5.209   5.959
13685TIP3   OH240995   1.175   6.796   1.307
13685TIP3    H140996   1.211   6.724   1.255
13685TIP3    H240997   1.196   6.875   1.257
13686TIP3   OH240998   0.112   4.282   1.141
13686TIP3    H140999   0.180   4.337   1.103
13686TIP3    H241000   0.055   4.260   1.068
13687TIP3   OH241001   7.244   7.757   3.106
13687TIP3    H141002   7.194   7.837   3.088
13687TIP3    H241003   7.178   7.688   3.102
13688TIP3   OH241004   5.326   7.573   1.360
13688TIP3    H141005   5.268   7.646   1.339
13688TIP3    H241006   5.358   7.542   1.275
13689TIP3   OH241007   4.534   2.107   5.423
13689TIP3    H141008   4.473   2.070   5.486
13689TIP3    H241009   4.533   2.201   5.439
13690TIP3   OH241010   7.862   6.792   6.639
13690TIP3    H141011   7.890   6.875   6.601
13690TIP3    H241012   7.783   6.768   6.589
13691TIP3   OH241013   4.342   6.431   2.768
13691TIP3    H141014   4.317   6.341   2.745
13691TIP3    H241015   4.262   6.470   2.804
13692TIP3   OH241016   4.039   4.475   1.616
13692TIP3    H141017   3.968   4.539   1.608
13692TIP3    H241018   4.012   4.402   1.561
13693TIP3   OH241019   4.315  -0.017   0.285
13693TIP3    H141020   4.363   0.058   0.320
13693TIP3    H241021   4.369  -0.048   0.212
13694TIP3   OH241022   7.488   3.357   4.842
13694TIP3    H141023   7.398   3.389   4.844
13694TIP3    H241024   7.540   3.430   4.875
13695TIP3   OH241025   2.450   0.386   4.183
13695TIP3    H141026   2.365   0.427   4.190
13695TIP3    H241027   2.496   0.410   4.264
13696TIP3   OH241028   0.200   2.911   5.951
13696TIP3    H141029   0.294   2.893   5.957
13696TIP3    H241030   0.194   3.006   5.947
13697TIP3   OH241031   0.905   3.037   2.828
13697TIP3    H141032   0.991   3.008   2.860
13697TIP3    H241033   0.922   3.067   2.739
13698TIP3   OH241034   7.070   5.151   3.738
13698TIP3    H141035   7.156   5.193   3.738
13698TIP3    H241036   7.045   5.148   3.830
13699TIP3   OH241037   3.369   0.841   4.182
13699TIP3    H141038   3.319   0.860   4.261
13699TIP3    H241039   3.421   0.764   4.204
13700TIP3   OH241040   1.429   0.933   2.855
13700TIP3    H141041   1.506   0.983   2.884
13700TIP3    H241042   1.450   0.908   2.765
13701TIP3   OH241043   7.328   1.236   0.598
13701TIP3    H141044   7.233   1.220   0.600
13701TIP3    H241045   7.365   1.155   0.562
13702TIP3   OH241046   4.929   6.099   1.008
13702TIP3    H141047   4.918   6.182   1.054
13702TIP3    H241048   4.902   6.117   0.918
13703TIP3   OH241049   7.705   7.348   3.391
13703TIP3    H141050   7.740   7.262   3.370
13703TIP3    H241051   7.782   7.402   3.407
13704TIP3   OH241052   1.241   2.211   4.799
13704TIP3    H141053   1.328   2.248   4.806
13704TIP3    H241054   1.250   2.121   4.831
13705TIP3   OH241055   6.142   1.384   1.622
13705TIP3    H141056   6.068   1.362   1.566
13705TIP3    H241057   6.166   1.474   1.597
13706TIP3   OH241058   7.095   4.215   1.764
13706TIP3    H141059   7.097   4.121   1.743
13706TIP3    H241060   7.066   4.218   1.856
13707TIP3   OH241061   0.669   4.319   0.748
13707TIP3    H141062   0.680   4.339   0.841
13707TIP3    H241063   0.585   4.358   0.725
13708TIP3   OH241064   1.883   3.321   4.200
13708TIP3    H141065   1.976   3.304   4.209
13708TIP3    H241066   1.842   3.234   4.207
13709TIP3   OH241067   5.568   6.280   2.368
13709TIP3    H141068   5.593   6.371   2.351
13709TIP3    H241069   5.499   6.286   2.433
13710TIP3   OH241070   4.477   6.312   3.967
13710TIP3    H141071   4.413   6.379   3.945
13710TIP3    H241072   4.426   6.242   4.007
13711TIP3   OH241073   5.573   4.863   0.368
13711TIP3    H141074   5.486   4.898   0.349
13711TIP3    H241075   5.597   4.813   0.290
13712TIP3   OH241076   7.922   3.700   3.626
13712TIP3    H141077   7.891   3.777   3.580
13712TIP3    H241078   7.865   3.629   3.597
13713TIP3   OH241079   1.013   2.478   4.968
13713TIP3    H141080   0.920   2.501   4.965
13713TIP3    H241081   1.049   2.535   5.036
13714TIP3   OH241082   0.175   4.838   3.958
13714TIP3    H141083   0.113   4.895   4.003
13714TIP3    H241084   0.146   4.749   3.979
13715TIP3   OH241085   0.539   2.589   2.649
13715TIP3    H141086   0.624   2.628   2.672
13715TIP3    H241087   0.515   2.537   2.726
13716TIP3   OH241088   7.906   4.205   6.296
13716TIP3    H141089   7.911   4.159   6.380
13716TIP3    H241090   7.852   4.282   6.314
13717TIP3   OH241091   0.525   5.272   0.263
13717TIP3    H141092   0.480   5.282   0.346
13717TIP3    H241093   0.487   5.193   0.224
13718TIP3   OH241094   2.054   1.430   0.579
13718TIP3    H141095   2.109   1.364   0.537
13718TIP3    H241096   2.013   1.477   0.507
13719TIP3   OH241097   4.114   6.128   6.659
13719TIP3    H141098   4.178   6.068   6.698
13719TIP3    H241099   4.103   6.096   6.570
13720TIP3   OH241100   2.324   3.983   6.330
13720TIP3    H141101   2.404   4.022   6.296
13720TIP3    H241102   2.254   4.034   6.288
13721TIP3   OH241103   1.889   3.916   4.902
13721TIP3    H141104   1.809   3.869   4.926
13721TIP3    H241105   1.860   3.979   4.836
13722TIP3   OH241106   7.152   6.262   1.986
13722TIP3    H141107   7.088   6.318   1.942
13722TIP3    H241108   7.206   6.227   1.915
13723TIP3   OH241109   6.929   5.848   2.386
13723TIP3    H141110   6.983   5.809   2.316
13723TIP3    H241111   6.866   5.903   2.339
13724TIP3   OH241112   6.939   4.414   1.690
13724TIP3    H141113   7.014   4.357   1.708
13724TIP3    H241114   6.871   4.354   1.659
13725TIP3   OH241115   1.691   0.947   0.787
13725TIP3    H141116   1.734   0.913   0.708
13725TIP3    H241117   1.621   0.885   0.804
13726TIP3   OH241118   0.214   5.667   3.333
13726TIP3    H141119   0.152   5.736   3.357
13726TIP3    H241120   0.240   5.689   3.243
13727TIP3   OH241121   6.355   1.338   1.403
13727TIP3    H141122   6.344   1.404   1.335
13727TIP3    H241123   6.295   1.365   1.472
13728TIP3   OH241124   5.906   4.372   3.529
13728TIP3    H141125   5.989   4.384   3.484
13728TIP3    H241126   5.847   4.338   3.462
13729TIP3   OH241127   0.223   3.337   0.809
13729TIP3    H141128   0.163   3.264   0.797
13729TIP3    H241129   0.296   3.300   0.859
13730TIP3   OH241130   3.706   3.861   6.702
13730TIP3    H141131   3.773   3.860   6.633
13730TIP3    H241132   3.754   3.841   6.782
13731TIP3   OH241133   4.885  -0.042   5.128
13731TIP3    H141134   4.848   0.019   5.065
13731TIP3    H241135   4.864  -0.005   5.213
13732TIP3   OH241136   7.415   4.772   6.328
13732TIP3    H141137   7.397   4.758   6.235
13732TIP3    H241138   7.424   4.684   6.365
13733TIP3   OH241139   0.418   3.102   4.389
13733TIP3    H141140   0.401   3.013   4.356
13733TIP3    H241141   0.513   3.106   4.400
13734TIP3   OH241142   3.209   6.698   5.129
13734TIP3    H141143   3.135   6.748   5.164
13734TIP3    H241144   3.206   6.714   5.034
13735TIP3   OH241145   7.296   3.862   1.917
13735TIP3    H141146   7.257   3.911   1.990
13735TIP3    H241147   7.256   3.775   1.922
13736TIP3   OH241148   0.554   6.349   3.174
13736TIP3    H141149   0.465   6.326   3.202
13736TIP3    H241150   0.543   6.392   3.090
13737TIP3   OH241151   0.627   0.250   3.967
13737TIP3    H141152   0.655   0.341   3.956
13737TIP3    H241153   0.708   0.200   3.975
13738TIP3   OH241154   1.359   1.083   0.731
13738TIP3    H141155   1.288   1.147   0.740
13738TIP3    H241156   1.436   1.137   0.711
13739TIP3   OH241157   5.646   5.785   0.847
13739TIP3    H141158   5.617   5.699   0.818
13739TIP3    H241159   5.640   5.782   0.943
13740TIP3   OH241160   0.722   3.756   3.819
13740TIP3    H141161   0.689   3.750   3.729
13740TIP3    H241162   0.665   3.819   3.862
13741TIP3   OH241163   0.326   4.097   3.150
13741TIP3    H141164   0.255   4.147   3.189
13741TIP3    H241165   0.398   4.106   3.213
13742TIP3   OH241166   8.166   4.912   5.158
13742TIP3    H141167   8.129   4.989   5.114
13742TIP3    H241168   8.091   4.865   5.193
13743TIP3   OH241169   6.215   2.177   6.802
13743TIP3    H141170   6.300   2.222   6.810
13743TIP3    H241171   6.192   2.187   6.710
13744TIP3   OH241172   6.642   7.316   1.786
13744TIP3    H141173   6.600   7.351   1.707
13744TIP3    H241174   6.668   7.393   1.835
13745TIP3   OH241175   4.756   6.376   4.431
13745TIP3    H141176   4.814   6.300   4.425
13745TIP3    H241177   4.762   6.403   4.522
13746TIP3   OH241178   7.888   6.629   2.688
13746TIP3    H141179   7.899   6.720   2.715
13746TIP3    H241180   7.860   6.634   2.596
13747TIP3   OH241181   0.706   2.565   5.237
13747TIP3    H141182   0.612   2.550   5.228
13747TIP3    H241183   0.742   2.480   5.261
13748TIP3   OH241184   3.969   6.347   0.527
13748TIP3    H141185   4.039   6.397   0.570
13748TIP3    H241186   4.012   6.267   0.496
13749TIP3   OH241187   4.961   0.671   5.266
13749TIP3    H141188   5.005   0.618   5.200
13749TIP3    H241189   5.018   0.668   5.342
13750TIP3   OH241190   5.182   1.768   2.025
13750TIP3    H141191   5.208   1.840   1.967
13750TIP3    H241192   5.122   1.715   1.972
13751TIP3   OH241193   6.844   1.958   1.606
13751TIP3    H141194   6.883   1.875   1.577
13751TIP3    H241195   6.784   1.933   1.675
13752TIP3   OH241196   1.973   3.014   2.180
13752TIP3    H141197   1.879   3.029   2.171
13752TIP3    H241198   1.989   2.932   2.134
13753TIP3   OH241199   6.803   2.832   0.715
13753TIP3    H141200   6.731   2.782   0.676
13753TIP3    H241201   6.869   2.836   0.646
13754TIP3   OH241202   6.942   3.107   4.303
13754TIP3    H141203   7.000   3.119   4.379
13754TIP3    H241204   6.856   3.135   4.334
13755TIP3   OH241205   2.353   1.504   0.385
13755TIP3    H141206   2.406   1.511   0.464
13755TIP3    H241207   2.274   1.554   0.405
13756TIP3   OH241208   0.914   2.729   3.399
13756TIP3    H141209   1.000   2.724   3.440
13756TIP3    H241210   0.923   2.798   3.333
13757TIP3   OH241211   0.516   1.255   3.782
13757TIP3    H141212   0.548   1.224   3.697
13757TIP3    H241213   0.454   1.188   3.811
13758TIP3   OH241214   8.298   6.058   3.640
13758TIP3    H141215   8.273   6.071   3.549
13758TIP3    H241216   8.286   6.144   3.680
13759TIP3   OH241217   0.868   3.219   3.257
13759TIP3    H141218   0.889   3.214   3.164
13759TIP3    H241219   0.802   3.288   3.264
13760TIP3   OH241220   2.975   5.753   5.793
13760TIP3    H141221   3.030   5.791   5.862
13760TIP3    H241222   2.949   5.828   5.739
13761TIP3   OH241223   5.150   0.346   2.487
13761TIP3    H141224   5.220   0.384   2.435
13761TIP3    H241225   5.069   0.373   2.443
13762TIP3   OH241226   0.685   6.717   3.220
13762TIP3    H141227   0.745   6.688   3.150
13762TIP3    H241228   0.598   6.698   3.185
13763TIP3   OH241229   6.081   4.633   5.027
13763TIP3    H141230   6.063   4.727   5.027
13763TIP3    H241231   6.175   4.627   5.013
13764TIP3   OH241232   1.230   3.917   4.697
13764TIP3    H141233   1.204   3.852   4.762
13764TIP3    H241234   1.223   4.001   4.743
13765TIP3   OH241235   5.237   2.387   2.105
13765TIP3    H141236   5.321   2.343   2.094
13765TIP3    H241237   5.259   2.480   2.107
13766TIP3   OH241238   1.161   7.297   4.730
13766TIP3    H141239   1.111   7.345   4.663
13766TIP3    H241240   1.119   7.211   4.734
13767TIP3   OH241241   1.262   0.996   4.245
13767TIP3    H141242   1.168   1.000   4.229
13767TIP3    H241243   1.278   0.905   4.271
13768TIP3   OH241244   4.712   7.089   1.649
13768TIP3    H141245   4.725   7.049   1.734
13768TIP3    H241246   4.633   7.047   1.614
13769TIP3   OH241247   4.534   5.741   4.240
13769TIP3    H141248   4.575   5.734   4.154
13769TIP3    H241249   4.513   5.834   4.248
13770TIP3   OH241250   3.467   4.051   4.838
13770TIP3    H141251   3.542   4.005   4.876
13770TIP3    H241252   3.464   4.019   4.748
13771TIP3   OH241253   0.132   3.825   6.329
13771TIP3    H141254   0.066   3.884   6.363
13771TIP3    H241255   0.083   3.749   6.299
13772TIP3   OH241256  -0.024   0.687   6.821
13772TIP3    H141257  -0.032   0.782   6.825
13772TIP3    H241258  -0.100   0.659   6.769
13773TIP3   OH241259   0.605   4.853   1.865
13773TIP3    H141260   0.689   4.861   1.820
13773TIP3    H241261   0.590   4.939   1.904
13774TIP3   OH241262   2.914   7.847   4.846
13774TIP3    H141263   2.857   7.907   4.894
13774TIP3    H241264   2.854   7.779   4.813
13775TIP3   OH241265   4.370   2.115   5.715
13775TIP3    H141266   4.364   2.211   5.715
13775TIP3    H241267   4.307   2.087   5.648
13776TIP3   OH241268   7.475   5.815   6.139
13776TIP3    H141269   7.379   5.821   6.137
13776TIP3    H241270   7.493   5.726   6.167
13777TIP3   OH241271   8.277   3.332   0.210
13777TIP3    H141272   8.305   3.275   0.281
13777TIP3    H241273   8.232   3.405   0.253
13778TIP3   OH241274   1.076   0.105   0.680
13778TIP3    H141275   1.055   0.086   0.589
13778TIP3    H241276   1.076   0.020   0.724
13779TIP3   OH241277   2.113   0.846   2.617
13779TIP3    H141278   2.046   0.857   2.683
13779TIP3    H241279   2.183   0.906   2.643
13780TIP3   OH241280   0.162   2.622   1.854
13780TIP3    H141281   0.138   2.646   1.765
13780TIP3    H241282   0.234   2.681   1.877
13781TIP3   OH241283   7.037   4.983   1.355
13781TIP3    H141284   7.055   5.061   1.303
13781TIP3    H241285   7.037   5.014   1.446
13782TIP3   OH241286   0.880   1.916   0.771
13782TIP3    H141287   0.840   1.833   0.743
13782TIP3    H241288   0.814   1.956   0.828
13783TIP3   OH241289   8.103   1.284   6.051
13783TIP3    H141290   8.035   1.290   5.984
13783TIP3    H241291   8.184   1.269   6.002
13784TIP3   OH241292   6.585   7.118   6.612
13784TIP3    H141293   6.539   7.202   6.612
13784TIP3    H241294   6.518   7.053   6.592
13785TIP3   OH241295   3.434   6.231   2.536
13785TIP3    H141296   3.488   6.248   2.459
13785TIP3    H241297   3.384   6.153   2.514
13786TIP3   OH241298   6.786   1.340   4.294
13786TIP3    H141299   6.722   1.395   4.250
13786TIP3    H241300   6.793   1.377   4.382
13787TIP3   OH241301   5.404   5.442   4.640
13787TIP3    H141302   5.430   5.384   4.568
13787TIP3    H241303   5.482   5.447   4.695
13788TIP3   OH241304   2.724   5.336   4.793
13788TIP3    H141305   2.754   5.248   4.815
13788TIP3    H241306   2.636   5.341   4.831
13789TIP3   OH241307   3.031   0.958   3.869
13789TIP3    H141308   2.971   0.982   3.939
13789TIP3    H241309   3.024   0.862   3.863
13790TIP3   OH241310   3.192   1.498   5.305
13790TIP3    H141311   3.195   1.495   5.209
13790TIP3    H241312   3.243   1.576   5.328
13791TIP3   OH241313   4.651   5.242   2.866
13791TIP3    H141314   4.697   5.264   2.785
13791TIP3    H241315   4.720   5.208   2.924
13792TIP3   OH241316   2.613   0.607   5.114
13792TIP3    H141317   2.678   0.675   5.132
13792TIP3    H241318   2.587   0.623   5.023
13793TIP3   OH241319   1.901   6.838   3.025
13793TIP3    H141320   1.878   6.746   3.040
13793TIP3    H241321   1.933   6.841   2.935
13794TIP3   OH241322   5.254   6.803   3.493
13794TIP3    H141323   5.196   6.843   3.558
13794TIP3    H241324   5.326   6.768   3.545
13795TIP3   OH241325   5.770   0.069   0.288
13795TIP3    H141326   5.818   0.020   0.222
13795TIP3    H241327   5.743   0.004   0.352
13796TIP3   OH241328   1.125   6.602   4.146
13796TIP3    H141329   1.031   6.597   4.126
13796TIP3    H241330   1.136   6.546   4.222
13797TIP3   OH241331   3.679   2.080   5.859
13797TIP3    H141332   3.761   2.091   5.811
13797TIP3    H241333   3.622   2.033   5.798
13798TIP3   OH241334   5.003   3.985   4.840
13798TIP3    H141335   5.059   3.907   4.846
13798TIP3    H241336   5.057   4.055   4.878
13799TIP3   OH241337   1.004   5.440   2.150
13799TIP3    H141338   1.098   5.453   2.152
13799TIP3    H241339   0.991   5.357   2.105
13800TIP3   OH241340   0.663   5.058   5.586
13800TIP3    H141341   0.710   5.137   5.559
13800TIP3    H241342   0.686   4.992   5.520
13801TIP3   OH241343   2.523   3.578   2.859
13801TIP3    H141344   2.438   3.568   2.817
13801TIP3    H241345   2.537   3.496   2.906
13802TIP3   OH241346   3.234   1.925   2.800
13802TIP3    H141347   3.252   2.010   2.760
13802TIP3    H241348   3.198   1.945   2.886
13803TIP3   OH241349   4.028   2.456   6.234
13803TIP3    H141350   4.078   2.411   6.165
13803TIP3    H241351   4.005   2.540   6.195
13804TIP3   OH241352   3.409   6.536   3.859
13804TIP3    H141353   3.395   6.557   3.766
13804TIP3    H241354   3.484   6.475   3.858
13805TIP3   OH241355   0.606   4.085   1.004
13805TIP3    H141356   0.627   4.043   0.921
13805TIP3    H241357   0.513   4.108   0.997
13806TIP3   OH241358   3.920   4.935   5.378
13806TIP3    H141359   3.861   4.894   5.315
13806TIP3    H241360   3.882   5.022   5.392
13807TIP3   OH241361   0.961   2.287   2.127
13807TIP3    H141362   1.001   2.372   2.106
13807TIP3    H241363   0.926   2.299   2.216
13808TIP3   OH241364   3.254   7.779   0.881
13808TIP3    H141365   3.346   7.781   0.905
13808TIP3    H241366   3.249   7.827   0.799
13809TIP3   OH241367   3.102   3.195   3.093
13809TIP3    H141368   3.018   3.208   3.050
13809TIP3    H241369   3.080   3.176   3.184
13810TIP3   OH241370   6.170   4.521   2.843
13810TIP3    H141371   6.213   4.481   2.768
13810TIP3    H241372   6.241   4.566   2.890
13811TIP3   OH241373   7.572   0.662   4.411
13811TIP3    H141374   7.523   0.736   4.448
13811TIP3    H241375   7.519   0.585   4.433
13812TIP3   OH241376   6.649   6.785   2.327
13812TIP3    H141377   6.714   6.742   2.382
13812TIP3    H241378   6.631   6.722   2.257
13813TIP3   OH241379   7.201   0.075   0.859
13813TIP3    H141380   7.171   0.160   0.826
13813TIP3    H241381   7.280   0.097   0.910
13814TIP3   OH241382   5.215   7.408   3.705
13814TIP3    H141383   5.180   7.376   3.788
13814TIP3    H241384   5.310   7.405   3.717
13815TIP3   OH241385   6.325   4.182   3.200
13815TIP3    H141386   6.383   4.174   3.276
13815TIP3    H241387   6.373   4.142   3.128
13816TIP3   OH241388   3.114   6.260   4.837
13816TIP3    H141389   3.126   6.296   4.925
13816TIP3    H241390   3.019   6.249   4.828
13817TIP3   OH241391   3.676   1.875   1.226
13817TIP3    H141392   3.606   1.884   1.290
13817TIP3    H241393   3.756   1.895   1.274
13818TIP3   OH241394   8.408   4.540   0.243
13818TIP3    H141395   8.343   4.480   0.205
13818TIP3    H241396   8.372   4.562   0.329
13819TIP3   OH241397   4.978   4.821   6.730
13819TIP3    H141398   5.065   4.860   6.739
13819TIP3    H241399   4.978   4.782   6.643
13820TIP3   OH241400   3.717   4.064   2.022
13820TIP3    H141401   3.799   4.021   1.996
13820TIP3    H241402   3.661   3.993   2.052
13821TIP3   OH241403   5.113   7.388   6.631
13821TIP3    H141404   5.047   7.394   6.699
13821TIP3    H241405   5.110   7.473   6.586
13822TIP3   OH241406   1.104   6.088   1.426
13822TIP3    H141407   1.028   6.052   1.472
13822TIP3    H241408   1.084   6.181   1.416
13823TIP3   OH241409   3.603   2.804   0.680
13823TIP3    H141410   3.659   2.836   0.751
13823TIP3    H241411   3.515   2.832   0.704
13824TIP3   OH241412   6.191   0.894   2.091
13824TIP3    H141413   6.280   0.926   2.104
13824TIP3    H241414   6.157   0.946   2.018
13825TIP3   OH241415   5.966   0.645   5.446
13825TIP3    H141416   5.906   0.574   5.422
13825TIP3    H241417   6.008   0.669   5.363
13826TIP3   OH241418   6.725   5.555   6.699
13826TIP3    H141419   6.720   5.472   6.651
13826TIP3    H241420   6.678   5.618   6.644
13827TIP3   OH241421   0.449   4.153   6.720
13827TIP3    H141422   0.423   4.234   6.676
13827TIP3    H241423   0.514   4.114   6.662
13828TIP3   OH241424   5.510   2.411   0.281
13828TIP3    H141425   5.422   2.380   0.301
13828TIP3    H241426   5.497   2.496   0.240
13829TIP3   OH241427   6.645   6.925   6.058
13829TIP3    H141428   6.710   6.994   6.047
13829TIP3    H241429   6.569   6.969   6.095
13830TIP3   OH241430   3.467   7.333   5.244
13830TIP3    H141431   3.516   7.416   5.240
13830TIP3    H241432   3.376   7.358   5.228
13831TIP3   OH241433   0.279   2.729   0.088
13831TIP3    H141434   0.289   2.725  -0.007
13831TIP3    H241435   0.198   2.779   0.101
13832TIP3   OH241436   1.178   6.781   0.054
13832TIP3    H141437   1.143   6.868   0.075
13832TIP3    H241438   1.228   6.794  -0.027
13833TIP3   OH241439   0.575   3.498   3.806
13833TIP3    H141440   0.586   3.403   3.815
13833TIP3    H241441   0.653   3.526   3.757
13834TIP3   OH241442   2.112   0.448   3.927
13834TIP3    H141443   2.124   0.527   3.874
13834TIP3    H241444   2.127   0.375   3.867
13835TIP3   OH241445   2.298   2.266   4.704
13835TIP3    H141446   2.250   2.221   4.635
13835TIP3    H241447   2.307   2.201   4.774
13836TIP3   OH241448   2.280   2.432   5.180
13836TIP3    H141449   2.202   2.379   5.197
13836TIP3    H241450   2.298   2.418   5.087
13837TIP3   OH241451   7.334   6.927   0.470
13837TIP3    H141452   7.333   6.970   0.555
13837TIP3    H241453   7.242   6.919   0.446
13838TIP3   OH241454   6.911   7.844   4.983
13838TIP3    H141455   6.878   7.927   5.018
13838TIP3    H241456   6.916   7.859   4.888
13839TIP3   OH241457   2.247   2.504   2.925
13839TIP3    H141458   2.155   2.481   2.918
13839TIP3    H241459   2.291   2.423   2.950
13840TIP3   OH241460   8.053   3.355   4.012
13840TIP3    H141461   8.107   3.422   4.054
13840TIP3    H241462   8.103   3.330   3.934
13841TIP3   OH241463   5.704   3.253   1.311
13841TIP3    H141464   5.657   3.319   1.362
13841TIP3    H241465   5.788   3.295   1.289
13842TIP3   OH241466   1.448   6.993   0.301
13842TIP3    H141467   1.370   7.008   0.246
13842TIP3    H241468   1.499   7.074   0.292
13843TIP3   OH241469   1.490   6.554   1.936
13843TIP3    H141470   1.552   6.484   1.916
13843TIP3    H241471   1.505   6.620   1.869
13844TIP3   OH241472   6.361   2.990   0.483
13844TIP3    H141473   6.386   3.070   0.528
13844TIP3    H241474   6.398   2.999   0.395
13845TIP3   OH241475   8.008   4.743   0.772
13845TIP3    H141476   7.925   4.746   0.724
13845TIP3    H241477   8.053   4.823   0.746
13846TIP3   OH241478   2.436   6.326   4.211
13846TIP3    H141479   2.346   6.342   4.184
13846TIP3    H241480   2.487   6.396   4.170
13847TIP3   OH241481   3.936   1.484   6.387
13847TIP3    H141482   3.973   1.571   6.399
13847TIP3    H241483   3.958   1.437   6.468
13848TIP3   OH241484   7.725   7.164   2.463
13848TIP3    H141485   7.774   7.092   2.504
13848TIP3    H241486   7.784   7.240   2.470
13849TIP3   OH241487   8.065   0.110   3.052
13849TIP3    H141488   7.983   0.068   3.025
13849TIP3    H241489   8.103   0.143   2.971
13850TIP3   OH241490   0.630   1.219   5.068
13850TIP3    H141491   0.575   1.279   5.017
13850TIP3    H241492   0.635   1.261   5.155
13851TIP3   OH241493   6.033   1.247   1.416
13851TIP3    H141494   6.025   1.230   1.322
13851TIP3    H241495   5.968   1.190   1.457
13852TIP3   OH241496   1.039   6.469   2.468
13852TIP3    H141497   1.080   6.410   2.531
13852TIP3    H241498   0.947   6.471   2.493
13853TIP3   OH241499   4.949   5.880   0.689
13853TIP3    H141500   5.020   5.943   0.683
13853TIP3    H241501   4.931   5.854   0.599
13854TIP3   OH241502   3.544   4.614   3.121
13854TIP3    H141503   3.560   4.587   3.212
13854TIP3    H241504   3.538   4.710   3.126
13855TIP3   OH241505   4.644   5.086   0.414
13855TIP3    H141506   4.708   5.083   0.342
13855TIP3    H241507   4.577   5.022   0.389
13856TIP3   OH241508   3.609   7.232   0.617
13856TIP3    H141509   3.518   7.251   0.642
13856TIP3    H241510   3.611   7.138   0.602
13857TIP3   OH241511   3.779   4.984   6.794
13857TIP3    H141512   3.787   4.891   6.815
13857TIP3    H241513   3.861   5.005   6.748
13858TIP3   OH241514   4.101   5.754   2.525
13858TIP3    H141515   4.077   5.672   2.484
13858TIP3    H241516   4.023   5.809   2.518
13859TIP3   OH241517   0.891   1.278   6.684
13859TIP3    H141518   0.843   1.269   6.602
13859TIP3    H241519   0.980   1.249   6.663
13860TIP3   OH241520   1.306   5.906   6.755
13860TIP3    H141521   1.327   5.956   6.834
13860TIP3    H241522   1.229   5.950   6.719
13861TIP3   OH241523   4.988   6.813   2.676
13861TIP3    H141524   4.984   6.724   2.709
13861TIP3    H241525   4.949   6.867   2.745
13862TIP3   OH241526   2.061   0.652   2.213
13862TIP3    H141527   2.009   0.573   2.200
13862TIP3    H241528   2.151   0.624   2.201
13863TIP3   OH241529   8.227   2.541   5.768
13863TIP3    H141530   8.256   2.457   5.734
13863TIP3    H241531   8.152   2.520   5.824
13864TIP3   OH241532   1.578   0.333   6.540
13864TIP3    H141533   1.563   0.413   6.489
13864TIP3    H241534   1.673   0.325   6.545
13865TIP3   OH241535   7.454   3.742   1.742
13865TIP3    H141536   7.535   3.785   1.714
13865TIP3    H241537   7.401   3.813   1.779
13866TIP3   OH241538   6.950   1.698   1.656
13866TIP3    H141539   7.043   1.720   1.658
13866TIP3    H241540   6.937   1.656   1.571
13867TIP3   OH241541   3.270   2.763   6.651
13867TIP3    H141542   3.240   2.848   6.684
13867TIP3    H241543   3.208   2.741   6.582
13868TIP3   OH241544   6.485   3.886   3.638
13868TIP3    H141545   6.478   3.952   3.569
13868TIP3    H241546   6.402   3.891   3.685
13869TIP3   OH241547   3.255   6.046   4.020
13869TIP3    H141548   3.201   6.100   3.962
13869TIP3    H241549   3.192   5.995   4.070
13870TIP3   OH241550   3.345   1.944   2.163
13870TIP3    H141551   3.314   1.867   2.115
13870TIP3    H241552   3.266   1.979   2.206
13871TIP3   OH241553   2.522   3.383   6.604
13871TIP3    H141554   2.554   3.461   6.650
13871TIP3    H241555   2.559   3.390   6.516
13872TIP3   OH241556   4.345   5.467   5.787
13872TIP3    H141557   4.301   5.382   5.787
13872TIP3    H241558   4.368   5.483   5.878
13873TIP3   OH241559   6.839   4.171   3.603
13873TIP3    H141560   6.753   4.200   3.634
13873TIP3    H241561   6.854   4.221   3.523
13874TIP3   OH241562   7.257   3.574   3.615
13874TIP3    H141563   7.346   3.582   3.584
13874TIP3    H241564   7.204   3.619   3.550
13875TIP3   OH241565   4.756   3.235   1.111
13875TIP3    H141566   4.664   3.209   1.107
13875TIP3    H241567   4.769   3.292   1.035
13876TIP3   OH241568   6.392   2.987   6.534
13876TIP3    H141569   6.366   2.952   6.448
13876TIP3    H241570   6.418   3.077   6.516
13877TIP3   OH241571   6.409   2.525   4.217
13877TIP3    H141572   6.413   2.431   4.201
13877TIP3    H241573   6.488   2.560   4.176
13878TIP3   OH241574   1.607   2.859   3.842
13878TIP3    H141575   1.599   2.807   3.922
13878TIP3    H241576   1.692   2.902   3.850
13879TIP3   OH241577   4.462   4.837   6.367
13879TIP3    H141578   4.554   4.861   6.381
13879TIP3    H241579   4.412   4.905   6.411
13880TIP3   OH241580   5.760   2.780   5.760
13880TIP3    H141581   5.761   2.686   5.741
13880TIP3    H241582   5.670   2.798   5.787
13881TIP3   OH241583   3.550   3.692   5.575
13881TIP3    H141584   3.542   3.597   5.585
13881TIP3    H241585   3.460   3.724   5.570
13882TIP3   OH241586   7.960   4.385   1.262
13882TIP3    H141587   7.924   4.376   1.350
13882TIP3    H241588   7.896   4.343   1.205
13883TIP3   OH241589   3.266   4.966   5.332
13883TIP3    H141590   3.243   5.035   5.395
13883TIP3    H241591   3.183   4.943   5.290
13884TIP3   OH241592   5.203   1.588   4.418
13884TIP3    H141593   5.231   1.677   4.436
13884TIP3    H241594   5.263   1.557   4.350
13885TIP3   OH241595   7.535   3.186   3.594
13885TIP3    H141596   7.626   3.173   3.619
13885TIP3    H241597   7.538   3.228   3.508
13886TIP3   OH241598   1.606   5.466   4.331
13886TIP3    H141599   1.553   5.498   4.257
13886TIP3    H241600   1.691   5.510   4.320
13887TIP3   OH241601   0.561   3.686   2.654
13887TIP3    H141602   0.557   3.590   2.660
13887TIP3    H241603   0.594   3.702   2.565
13888TIP3   OH241604   2.741   0.746   3.880
13888TIP3    H141605   2.686   0.698   3.942
13888TIP3    H241606   2.830   0.717   3.899
13889TIP3   OH241607   7.240   4.573   1.577
13889TIP3    H141608   7.237   4.598   1.485
13889TIP3    H241609   7.219   4.654   1.625
13890TIP3   OH241610   6.059   6.981   3.576
13890TIP3    H141611   5.984   6.931   3.543
13890TIP3    H241612   6.019   7.053   3.626
13891TIP3   OH241613   7.557   4.502   5.933
13891TIP3    H141614   7.490   4.434   5.941
13891TIP3    H241615   7.539   4.543   5.848
13892TIP3   OH241616   0.681   2.405   6.298
13892TIP3    H141617   0.669   2.401   6.203
13892TIP3    H241618   0.703   2.315   6.323
13893TIP3   OH241619   6.651   7.316   5.746
13893TIP3    H141620   6.604   7.384   5.795
13893TIP3    H241621   6.725   7.362   5.707
13894TIP3   OH241622   5.612   0.213   4.132
13894TIP3    H141623   5.707   0.215   4.122
13894TIP3    H241624   5.589   0.303   4.157
13895TIP3   OH241625   6.575   5.036   6.410
13895TIP3    H141626   6.582   4.949   6.373
13895TIP3    H241627   6.636   5.037   6.483
13896TIP3   OH241628   7.382   3.881   5.727
13896TIP3    H141629   7.460   3.915   5.684
13896TIP3    H241630   7.376   3.931   5.808
13897TIP3   OH241631   3.153   2.752   4.009
13897TIP3    H141632   3.203   2.834   4.005
13897TIP3    H241633   3.181   2.704   3.931
13898TIP3   OH241634   6.717   3.605   4.963
13898TIP3    H141635   6.753   3.565   4.884
13898TIP3    H241636   6.749   3.695   4.962
13899TIP3   OH241637   1.499   6.485   6.231
13899TIP3    H141638   1.463   6.418   6.173
13899TIP3    H241639   1.520   6.558   6.174
13900TIP3   OH241640   5.656   1.491   1.600
13900TIP3    H141641   5.686   1.512   1.689
13900TIP3    H241642   5.726   1.525   1.543
13901TIP3   OH241643   0.229   3.470   5.872
13901TIP3    H141644   0.256   3.496   5.784
13901TIP3    H241645   0.297   3.504   5.930
13902TIP3   OH241646   6.599   4.115   2.260
13902TIP3    H141647   6.568   4.025   2.258
13902TIP3    H241648   6.587   4.147   2.170
13903TIP3   OH241649   3.992   7.000   6.795
13903TIP3    H141650   3.911   6.999   6.745
13903TIP3    H241651   3.988   6.922   6.850
13904TIP3   OH241652   2.530   7.190   6.819
13904TIP3    H141653   2.517   7.146   6.735
13904TIP3    H241654   2.613   7.236   6.809
13905TIP3   OH241655   4.596   0.493   1.749
13905TIP3    H141656   4.592   0.398   1.757
13905TIP3    H241657   4.664   0.520   1.811
13906TIP3   OH241658   6.150   4.679   1.474
13906TIP3    H141659   6.145   4.725   1.557
13906TIP3    H241660   6.068   4.700   1.429
13907TIP3   OH241661   7.563   3.474   0.775
13907TIP3    H141662   7.655   3.481   0.802
13907TIP3    H241663   7.515   3.529   0.836
13908TIP3   OH241664   2.152   2.075   6.725
13908TIP3    H141665   2.145   2.022   6.805
13908TIP3    H241666   2.102   2.154   6.744
13909TIP3   OH241667   3.286   6.996   4.134
13909TIP3    H141668   3.256   6.924   4.189
13909TIP3    H241669   3.351   6.956   4.076
13910TIP3   OH241670   5.874   7.495   1.385
13910TIP3    H141671   5.965   7.522   1.392
13910TIP3    H241672   5.836   7.556   1.321
13911TIP3   OH241673   6.526   6.005   1.766
13911TIP3    H141674   6.618   6.024   1.788
13911TIP3    H241675   6.490   6.088   1.736
13912TIP3   OH241676   1.228   5.255   3.820
13912TIP3    H141677   1.220   5.201   3.741
13912TIP3    H241678   1.320   5.281   3.823
13913TIP3   OH241679   6.161   2.880   1.405
13913TIP3    H141680   6.094   2.816   1.380
13913TIP3    H241681   6.208   2.838   1.477
13914TIP3   OH241682   2.106   1.132   1.286
13914TIP3    H141683   2.010   1.132   1.286
13914TIP3    H241684   2.130   1.079   1.361
13915TIP3   OH241685   5.330   2.110   3.717
13915TIP3    H141686   5.331   2.086   3.625
13915TIP3    H241687   5.247   2.076   3.750
13916TIP3   OH241688   3.768   1.155   6.699
13916TIP3    H141689   3.812   1.171   6.615
13916TIP3    H241690   3.676   1.174   6.681
13917TIP3   OH241691   0.300   2.802   4.321
13917TIP3    H141692   0.281   2.764   4.235
13917TIP3    H241693   0.283   2.731   4.383
13918TIP3   OH241694   0.530   1.352   4.045
13918TIP3    H141695   0.451   1.401   4.069
13918TIP3    H241696   0.517   1.329   3.954
13919TIP3   OH241697   5.262   7.181   0.037
13919TIP3    H141698   5.192   7.166  -0.026
13919TIP3    H241699   5.267   7.276   0.046
13920TIP3   OH241700   4.436   0.202   0.427
13920TIP3    H141701   4.397   0.244   0.503
13920TIP3    H241702   4.524   0.241   0.421
13921TIP3   OH241703   1.379   0.424   4.068
13921TIP3    H141704   1.457   0.447   4.118
13921TIP3    H241705   1.355   0.504   4.021
13922TIP3   OH241706   1.247   2.413   4.140
13922TIP3    H141707   1.244   2.480   4.071
13922TIP3    H241708   1.306   2.346   4.106
13923TIP3   OH241709   2.600   3.941   3.937
13923TIP3    H141710   2.679   3.987   3.966
13923TIP3    H241711   2.608   3.937   3.842
13924TIP3   OH241712   6.285   6.969   2.674
13924TIP3    H141713   6.220   7.009   2.616
13924TIP3    H241714   6.364   6.964   2.621
13925TIP3   OH241715   5.881   4.176   1.418
13925TIP3    H141716   5.933   4.099   1.393
13925TIP3    H241717   5.911   4.245   1.359
13926TIP3   OH241718   4.667   2.105   5.705
13926TIP3    H141719   4.683   2.011   5.721
13926TIP3    H241720   4.573   2.115   5.715
13927TIP3   OH241721   4.127   7.036   1.481
13927TIP3    H141722   4.132   7.027   1.576
13927TIP3    H241723   4.204   7.087   1.457
13928TIP3   OH241724   5.609   0.272   1.087
13928TIP3    H141725   5.576   0.329   1.018
13928TIP3    H241726   5.621   0.187   1.044
13929TIP3   OH241727   6.953   7.421   2.562
13929TIP3    H141728   7.044   7.430   2.589
13929TIP3    H241729   6.914   7.364   2.628
13930TIP3   OH241730   6.097   7.275   1.538
13930TIP3    H141731   6.185   7.304   1.513
13930TIP3    H241732   6.072   7.331   1.611
13931TIP3   OH241733   0.547   1.777   0.319
13931TIP3    H141734   0.634   1.780   0.360
13931TIP3    H241735   0.513   1.866   0.329
13932TIP3   OH241736   1.167   2.907   4.947
13932TIP3    H141737   1.161   2.838   4.880
13932TIP3    H241738   1.179   2.859   5.029
13933TIP3   OH241739   2.961   4.084   6.111
13933TIP3    H141740   2.883   4.035   6.137
13933TIP3    H241741   2.947   4.172   6.146
13934TIP3   OH241742   7.743   1.873   1.795
13934TIP3    H141743   7.725   1.943   1.858
13934TIP3    H241744   7.783   1.803   1.848
13935TIP3   OH241745   4.551   6.153   3.096
13935TIP3    H141746   4.556   6.163   3.001
13935TIP3    H241747   4.464   6.116   3.111
13936TIP3   OH241748   2.500   5.329   0.326
13936TIP3    H141749   2.433   5.276   0.369
13936TIP3    H241750   2.457   5.364   0.248
13937TIP3   OH241751   0.569   0.548   4.033
13937TIP3    H141752   0.639   0.530   4.095
13937TIP3    H241753   0.604   0.618   3.977
13938TIP3   OH241754   0.809   3.811   0.941
13938TIP3    H141755   0.754   3.735   0.962
13938TIP3    H241756   0.759   3.858   0.874
13939TIP3   OH241757   4.761   2.171   0.650
13939TIP3    H141758   4.668   2.190   0.668
13939TIP3    H241759   4.802   2.257   0.646
13940TIP3   OH241760   7.540   2.133   1.916
13940TIP3    H141761   7.489   2.203   1.875
13940TIP3    H241762   7.561   2.166   2.003
13941TIP3   OH241763   5.548   2.474   1.519
13941TIP3    H141764   5.456   2.496   1.536
13941TIP3    H241765   5.597   2.536   1.573
13942TIP3   OH241766   1.417   0.295   3.695
13942TIP3    H141767   1.466   0.376   3.685
13942TIP3    H241768   1.463   0.247   3.764
13943TIP3   OH241769   8.273   3.070   3.530
13943TIP3    H141770   8.217   3.056   3.606
13943TIP3    H241771   8.213   3.093   3.460
13944TIP3   OH241772   4.977   2.812   0.323
13944TIP3    H141773   4.894   2.857   0.307
13944TIP3    H241774   5.043   2.871   0.286
13945TIP3   OH241775   6.351   3.261   4.054
13945TIP3    H141776   6.429   3.307   4.083
13945TIP3    H241777   6.359   3.173   4.090
13946TIP3   OH241778   5.720   1.013   5.031
13946TIP3    H141779   5.763   0.928   5.033
13946TIP3    H241780   5.783   1.071   4.988
13947TIP3   OH241781   4.384   6.109   1.155
13947TIP3    H141782   4.472   6.122   1.119
13947TIP3    H241783   4.378   6.174   1.225
13948TIP3   OH241784   6.413   7.599   6.707
13948TIP3    H141785   6.439   7.516   6.749
13948TIP3    H241786   6.493   7.651   6.707
13949TIP3   OH241787   7.224   5.516   5.131
13949TIP3    H141788   7.198   5.501   5.040
13949TIP3    H241789   7.148   5.489   5.182
13950TIP3   OH241790   5.040   6.097   3.186
13950TIP3    H141791   4.950   6.124   3.202
13950TIP3    H241792   5.067   6.054   3.268
13951TIP3   OH241793   7.224   2.966   2.610
13951TIP3    H141794   7.310   2.952   2.648
13951TIP3    H241795   7.204   3.058   2.628
13952TIP3   OH241796   4.210   3.008   2.667
13952TIP3    H141797   4.141   2.945   2.647
13952TIP3    H241798   4.224   3.055   2.585
13953TIP3   OH241799   7.159   0.308   5.065
13953TIP3    H141800   7.232   0.364   5.040
13953TIP3    H241801   7.172   0.227   5.015
13954TIP3   OH241802   5.607   4.060   6.333
13954TIP3    H141803   5.560   4.126   6.282
13954TIP3    H241804   5.699   4.079   6.316
13955TIP3   OH241805   7.282   4.779   3.727
13955TIP3    H141806   7.197   4.752   3.692
13955TIP3    H241807   7.262   4.853   3.784
13956TIP3   OH241808   0.489   2.765   4.513
13956TIP3    H141809   0.431   2.711   4.460
13956TIP3    H241810   0.563   2.709   4.534
13957TIP3   OH241811   7.725   3.137   1.370
13957TIP3    H141812   7.745   3.217   1.320
13957TIP3    H241813   7.811   3.106   1.399
13958TIP3   OH241814   4.544   2.665   5.388
13958TIP3    H141815   4.570   2.687   5.298
13958TIP3    H241816   4.514   2.748   5.426
13959TIP3   OH241817   1.624   3.691   6.134
13959TIP3    H141818   1.552   3.639   6.170
13959TIP3    H241819   1.675   3.716   6.211
13960TIP3   OH241820   7.949   4.467   6.751
13960TIP3    H141821   7.874   4.520   6.779
13960TIP3    H241822   8.024   4.505   6.798
13961TIP3   OH241823   1.106   5.666   3.502
13961TIP3    H141824   1.090   5.637   3.592
13961TIP3    H241825   1.198   5.646   3.486
13962TIP3   OH241826   0.811   5.163   0.423
13962TIP3    H141827   0.885   5.208   0.465
13962TIP3    H241828   0.742   5.229   0.422
13963TIP3   OH241829   1.764   5.565   2.323
13963TIP3    H141830   1.819   5.541   2.397
13963TIP3    H241831   1.706   5.490   2.311
13964TIP3   OH241832   7.749   7.318   2.192
13964TIP3    H141833   7.810   7.370   2.139
13964TIP3    H241834   7.796   7.238   2.212
13965TIP3   OH241835   7.446   3.599   1.463
13965TIP3    H141836   7.539   3.619   1.456
13965TIP3    H241837   7.421   3.569   1.376
13966TIP3   OH241838   1.607   1.888   1.691
13966TIP3    H141839   1.622   1.978   1.720
13966TIP3    H241840   1.520   1.890   1.650
13967TIP3   OH241841   6.892   1.758   5.425
13967TIP3    H141842   6.944   1.739   5.503
13967TIP3    H241843   6.919   1.846   5.399
13968TIP3   OH241844   3.027   7.748   5.975
13968TIP3    H141845   2.932   7.754   5.980
13968TIP3    H241846   3.058   7.791   6.055
13969TIP3   OH241847   7.848   5.135   6.283
13969TIP3    H141848   7.771   5.117   6.229
13969TIP3    H241849   7.822   5.105   6.371
13970TIP3   OH241850   1.653   0.560   2.976
13970TIP3    H141851   1.595   0.520   2.912
13970TIP3    H241852   1.704   0.487   3.010
13971TIP3   OH241853   5.145   4.748   3.551
13971TIP3    H141854   5.075   4.713   3.605
13971TIP3    H241855   5.199   4.799   3.611
13972TIP3   OH241856   0.866   3.037   4.241
13972TIP3    H141857   0.873   3.109   4.178
13972TIP3    H241858   0.920   3.064   4.315
13973TIP3   OH241859   4.231   0.024   3.574
13973TIP3    H141860   4.236   0.006   3.668
13973TIP3    H241861   4.314   0.068   3.555
13974TIP3   OH241862   6.850   5.812   1.005
13974TIP3    H141863   6.860   5.857   1.089
13974TIP3    H241864   6.865   5.720   1.025
13975TIP3   OH241865   2.083   2.795   2.064
13975TIP3    H141866   2.166   2.748   2.061
13975TIP3    H241867   2.042   2.776   1.979
13976TIP3   OH241868   5.748   6.012   3.694
13976TIP3    H141869   5.747   6.071   3.769
13976TIP3    H241870   5.725   6.067   3.619
13977TIP3   OH241871   4.059   1.273   2.549
13977TIP3    H141872   4.063   1.344   2.485
13977TIP3    H241873   3.970   1.277   2.584
13978TIP3   OH241874   6.444   3.609   6.782
13978TIP3    H141875   6.473   3.643   6.698
13978TIP3    H241876   6.353   3.583   6.767
13979TIP3   OH241877   0.136   3.163   1.795
13979TIP3    H141878   0.203   3.100   1.820
13979TIP3    H241879   0.093   3.186   1.877
13980TIP3   OH241880   3.407   7.295   2.748
13980TIP3    H141881   3.416   7.247   2.830
13980TIP3    H241882   3.349   7.368   2.769
13981TIP3   OH241883   3.913   2.801   1.968
13981TIP3    H141884   3.978   2.743   1.928
13981TIP3    H241885   3.832   2.751   1.968
13982TIP3   OH241886   6.475   7.174   1.135
13982TIP3    H141887   6.392   7.218   1.153
13982TIP3    H241888   6.452   7.100   1.080
13983TIP3   OH241889   2.853   0.312   1.618
13983TIP3    H141890   2.894   0.337   1.535
13983TIP3    H241891   2.766   0.280   1.594
13984TIP3   OH241892   0.119   5.911   5.529
13984TIP3    H141893   0.066   5.864   5.593
13984TIP3    H241894   0.119   5.855   5.451
13985TIP3   OH241895   3.023   0.241   3.535
13985TIP3    H141896   3.100   0.201   3.575
13985TIP3    H241897   2.988   0.298   3.603
13986TIP3   OH241898   2.445   3.392   0.029
13986TIP3    H141899   2.394   3.448  -0.029
13986TIP3    H241900   2.479   3.451   0.097
13987TIP3   OH241901   2.372   5.665   6.030
13987TIP3    H141902   2.426   5.666   6.110
13987TIP3    H241903   2.287   5.699   6.059
13988TIP3   OH241904   5.866   1.758   5.105
13988TIP3    H141905   5.952   1.790   5.076
13988TIP3    H241906   5.881   1.724   5.193
13989TIP3   OH241907   2.588   5.607   1.319
13989TIP3    H141908   2.523   5.671   1.292
13989TIP3    H241909   2.555   5.573   1.402
13990TIP3   OH241910   4.438   0.329   4.560
13990TIP3    H141911   4.398   0.247   4.533
13990TIP3    H241912   4.394   0.352   4.642
13991TIP3   OH241913   7.128   5.751   6.591
13991TIP3    H141914   7.191   5.786   6.529
13991TIP3    H241915   7.047   5.741   6.540
13992TIP3   OH241916   5.387   7.069   0.466
13992TIP3    H141917   5.303   7.037   0.433
13992TIP3    H241918   5.369   7.098   0.555
13993TIP3   OH241919   3.892   4.156   2.812
13993TIP3    H141920   3.947   4.079   2.802
13993TIP3    H241921   3.828   4.131   2.880
13994TIP3   OH241922   3.955   6.787   2.990
13994TIP3    H141923   3.907   6.789   2.907
13994TIP3    H241924   3.888   6.770   3.056
13995TIP3   OH241925   0.148   6.555   0.066
13995TIP3    H141926   0.134   6.641   0.105
13995TIP3    H241927   0.102   6.495   0.124
13996TIP3   OH241928   6.795   6.149   5.310
13996TIP3    H141929   6.745   6.209   5.255
13996TIP3    H241930   6.729   6.089   5.345
13997TIP3   OH241931   4.896   3.490   1.553
13997TIP3    H141932   4.957   3.509   1.482
13997TIP3    H241933   4.843   3.417   1.521
13998TIP3   OH241934   0.761   7.359   3.434
13998TIP3    H141935   0.701   7.413   3.382
13998TIP3    H241936   0.710   7.336   3.512
13999TIP3   OH241937   4.566   3.350   1.841
13999TIP3    H141938   4.589   3.339   1.933
13999TIP3    H241939   4.609   3.276   1.797
14000TIP3   OH241940   6.787   6.403   1.009
14000TIP3    H141941   6.716   6.338   1.005
14000TIP3    H241942   6.743   6.487   0.999
14001TIP3   OH241943   0.317   6.288   3.367
14001TIP3    H141944   0.253   6.336   3.421
14001TIP3    H241945   0.299   6.316   3.278
14002TIP3   OH241946   6.323   4.204   5.748
14002TIP3    H141947   6.375   4.254   5.685
14002TIP3    H241948   6.236   4.199   5.708
14003TIP3   OH241949   7.120   3.967   1.695
14003TIP3    H141950   7.169   3.910   1.754
14003TIP3    H241951   7.046   3.913   1.667
14004TIP3   OH241952   7.675   1.211   1.012
14004TIP3    H141953   7.609   1.253   1.068
14004TIP3    H241954   7.676   1.263   0.932
14005TIP3   OH241955   7.885   2.673   4.380
14005TIP3    H141956   7.860   2.666   4.288
14005TIP3    H241957   7.809   2.713   4.422
14006TIP3   OH241958   1.086   5.986   6.121
14006TIP3    H141959   1.047   5.946   6.199
14006TIP3    H241960   1.123   5.912   6.072
14007TIP3   OH241961   2.422   1.162   3.001
14007TIP3    H141962   2.394   1.172   3.092
14007TIP3    H241963   2.349   1.198   2.949
14008TIP3   OH241964   1.128   7.562   2.949
14008TIP3    H141965   1.181   7.551   3.027
14008TIP3    H241966   1.175   7.515   2.880
14009TIP3   OH241967   3.952   3.795   5.049
14009TIP3    H141968   3.907   3.737   5.111
14009TIP3    H241969   3.910   3.880   5.060
14010TIP3   OH241970   1.512   3.394   4.965
14010TIP3    H141971   1.518   3.448   5.045
14010TIP3    H241972   1.527   3.305   4.996
14011TIP3   OH241973   3.625   2.154   4.371
14011TIP3    H141974   3.544   2.104   4.361
14011TIP3    H241975   3.598   2.245   4.360
14012TIP3   OH241976   3.620   7.172   5.108
14012TIP3    H141977   3.545   7.219   5.145
14012TIP3    H241978   3.692   7.234   5.115
14013TIP3   OH241979   7.846   7.463   3.859
14013TIP3    H141980   7.916   7.471   3.923
14013TIP3    H241981   7.885   7.495   3.777
14014TIP3   OH241982   3.134   3.690   2.227
14014TIP3    H141983   3.175   3.767   2.267
14014TIP3    H241984   3.060   3.670   2.285
14015TIP3   OH241985   6.202   6.226   0.687
14015TIP3    H141986   6.274   6.163   0.693
14015TIP3    H241987   6.174   6.240   0.777
14016TIP3   OH241988   0.323   2.756   5.347
14016TIP3    H141989   0.267   2.814   5.295
14016TIP3    H241990   0.338   2.804   5.428
14017TIP3   OH241991   6.510   4.337   6.002
14017TIP3    H141992   6.467   4.255   6.027
14017TIP3    H241993   6.438   4.399   5.989
14018TIP3   OH241994   8.251   0.296   1.498
14018TIP3    H141995   8.329   0.263   1.452
14018TIP3    H241996   8.178   0.253   1.454
14019TIP3   OH241997   2.601   0.817   5.675
14019TIP3    H141998   2.624   0.910   5.673
14019TIP3    H241999   2.554   0.802   5.594
14020TIP3   OH242000   3.581   7.861   4.442
14020TIP3    H142001   3.515   7.921   4.408
14020TIP3    H242002   3.543   7.829   4.524
14021TIP3   OH242003   7.198   0.519   1.466
14021TIP3    H142004   7.171   0.435   1.503
14021TIP3    H242005   7.195   0.579   1.541
14022TIP3   OH242006   5.246   2.927   0.494
14022TIP3    H142007   5.264   2.836   0.517
14022TIP3    H242008   5.166   2.948   0.542
14023TIP3   OH242009   3.427   7.369   5.996
14023TIP3    H142010   3.497   7.428   6.025
14023TIP3    H242011   3.425   7.300   6.063
14024TIP3   OH242012   7.689   5.965   3.665
14024TIP3    H142013   7.619   6.030   3.669
14024TIP3    H242014   7.654   5.889   3.712
14025TIP3   OH242015   2.254   7.829   1.082
14025TIP3    H142016   2.312   7.889   1.034
14025TIP3    H242017   2.311   7.787   1.146
14026TIP3   OH242018   6.291   7.474   5.600
14026TIP3    H142019   6.311   7.466   5.693
14026TIP3    H242020   6.195   7.472   5.596
14027TIP3   OH242021   4.239   2.106   6.776
14027TIP3    H142022   4.155   2.073   6.810
14027TIP3    H242023   4.266   2.041   6.712
14028TIP3   OH242024   0.701   2.996   5.195
14028TIP3    H142025   0.720   3.082   5.158
14028TIP3    H242026   0.669   2.944   5.121
14029TIP3   OH242027   0.651   1.665   4.027
14029TIP3    H142028   0.670   1.572   4.018
14029TIP3    H242029   0.728   1.709   3.992
14030TIP3   OH242030   2.538   0.347   2.664
14030TIP3    H142031   2.446   0.372   2.665
14030TIP3    H242032   2.544   0.275   2.727
14031TIP3   OH242033   1.083   7.713   3.326
14031TIP3    H142034   1.168   7.679   3.298
14031TIP3    H242035   1.022   7.684   3.259
14032TIP3   OH242036   1.605   7.046   3.688
14032TIP3    H142037   1.651   7.043   3.772
14032TIP3    H242038   1.641   6.972   3.639
14033TIP3   OH242039   3.232   6.058   5.237
14033TIP3    H142040   3.312   6.073   5.287
14033TIP3    H242041   3.164   6.044   5.303
14034TIP3   OH242042   8.189   6.715   6.024
14034TIP3    H142043   8.144   6.665   6.092
14034TIP3    H242044   8.282   6.691   6.034
14035TIP3   OH242045   5.205   3.620   3.856
14035TIP3    H142046   5.289   3.596   3.896
14035TIP3    H242047   5.152   3.541   3.863
14036TIP3   OH242048   5.543   7.812   4.010
14036TIP3    H142049   5.587   7.868   3.947
14036TIP3    H242050   5.539   7.726   3.967
14037TIP3   OH242051   3.969   4.830   6.564
14037TIP3    H142052   3.965   4.740   6.597
14037TIP3    H242053   4.029   4.874   6.624
14038TIP3   OH242054   0.235   1.339   1.765
14038TIP3    H142055   0.175   1.283   1.814
14038TIP3    H242056   0.192   1.425   1.764
14039TIP3   OH242057   6.028   5.306   5.811
14039TIP3    H142058   6.089   5.281   5.742
14039TIP3    H242059   5.967   5.233   5.817
14040TIP3   OH242060   1.006   3.834   3.741
14040TIP3    H142061   1.045   3.921   3.741
14040TIP3    H242062   0.921   3.845   3.784
14041TIP3   OH242063   5.915   7.267   2.611
14041TIP3    H142064   5.854   7.194   2.618
14041TIP3    H242065   5.989   7.232   2.563
14042TIP3   OH242066   1.144   6.148   5.134
14042TIP3    H142067   1.138   6.094   5.213
14042TIP3    H242068   1.220   6.113   5.088
14043TIP3   OH242069   6.335   2.480   0.727
14043TIP3    H142070   6.355   2.388   0.748
14043TIP3    H242071   6.412   2.511   0.679
14044TIP3   OH242072   6.394   2.919   5.291
14044TIP3    H142073   6.438   2.927   5.207
14044TIP3    H242074   6.439   2.847   5.335
14045TIP3   OH242075   3.329   5.574   2.343
14045TIP3    H142076   3.361   5.515   2.275
14045TIP3    H242077   3.242   5.541   2.364
14046TIP3   OH242078   7.766   2.115   2.357
14046TIP3    H142079   7.726   2.039   2.397
14046TIP3    H242080   7.860   2.097   2.359
14047TIP3   OH242081   0.207   0.992   1.093
14047TIP3    H142082   0.275   0.959   1.152
14047TIP3    H242083   0.235   0.963   1.006
14048TIP3   OH242084   0.435   7.291   1.595
14048TIP3    H142085   0.366   7.341   1.552
14048TIP3    H242086   0.408   7.287   1.687
14049TIP3   OH242087   3.036   4.354   2.301
14049TIP3    H142088   3.108   4.414   2.283
14049TIP3    H242089   3.064   4.271   2.262
14050TIP3   OH242090   6.468   1.807   5.305
14050TIP3    H142091   6.514   1.758   5.373
14050TIP3    H242092   6.524   1.801   5.228
14051TIP3   OH242093   2.352   5.076   0.864
14051TIP3    H142094   2.390   5.017   0.930
14051TIP3    H242095   2.271   5.032   0.837
14052TIP3   OH242096   6.099   0.813   3.158
14052TIP3    H142097   6.144   0.768   3.087
14052TIP3    H242098   6.134   0.773   3.238
14053TIP3   OH242099   0.520   6.422   0.909
14053TIP3    H142100   0.548   6.479   0.837
14053TIP3    H242101   0.601   6.392   0.949
14054TIP3   OH242102   6.025   0.710   3.768
14054TIP3    H142103   6.031   0.789   3.714
14054TIP3    H242104   5.940   0.673   3.746
14055TIP3   OH242105   2.906   0.218   5.907
14055TIP3    H142106   2.863   0.290   5.861
14055TIP3    H242107   2.987   0.255   5.939
14056TIP3   OH242108   5.902   5.359   4.766
14056TIP3    H142109   5.867   5.285   4.816
14056TIP3    H242110   5.831   5.423   4.764
14057TIP3   OH242111   5.526   1.825   6.280
14057TIP3    H142112   5.564   1.861   6.201
14057TIP3    H242113   5.468   1.894   6.312
14058TIP3   OH242114   7.514   4.044   2.173
14058TIP3    H142115   7.603   4.041   2.138
14058TIP3    H242116   7.462   4.083   2.102
14059TIP3   OH242117   1.307   0.169   1.210
14059TIP3    H142118   1.361   0.247   1.212
14059TIP3    H242119   1.239   0.188   1.146
14060TIP3   OH242120   0.848   7.473   4.067
14060TIP3    H142121   0.818   7.536   4.133
14060TIP3    H242122   0.915   7.422   4.113
14061TIP3   OH242123   4.546   5.701   6.389
14061TIP3    H142124   4.493   5.640   6.338
14061TIP3    H242125   4.630   5.704   6.343
14062TIP3   OH242126   4.189   6.412   3.429
14062TIP3    H142127   4.189   6.486   3.489
14062TIP3    H242128   4.282   6.392   3.414
14063TIP3   OH242129   5.620   0.259   2.818
14063TIP3    H142130   5.559   0.224   2.884
14063TIP3    H242131   5.564   0.308   2.758
14064TIP3   OH242132   7.358   0.928   2.203
14064TIP3    H142133   7.370   0.961   2.292
14064TIP3    H242134   7.287   0.863   2.210
14065TIP3   OH242135   5.649   5.825   1.119
14065TIP3    H142136   5.623   5.779   1.199
14065TIP3    H242137   5.628   5.916   1.136
14066TIP3   OH242138   1.772   0.821   2.957
14066TIP3    H142139   1.744   0.733   2.981
14066TIP3    H242140   1.743   0.832   2.867
14067TIP3   OH242141   6.012   2.852   2.643
14067TIP3    H142142   5.956   2.859   2.567
14067TIP3    H242143   6.101   2.854   2.608
14068TIP3   OH242144   3.378   1.069   4.798
14068TIP3    H142145   3.447   1.124   4.761
14068TIP3    H242146   3.418   1.029   4.875
14069TIP3   OH242147   2.142   7.825   2.030
14069TIP3    H142148   2.213   7.835   1.966
14069TIP3    H242149   2.099   7.910   2.032
14070TIP3   OH242150   3.871   7.078   1.081
14070TIP3    H142151   3.833   7.100   0.996
14070TIP3    H242152   3.935   7.010   1.062
14071TIP3   OH242153   0.415   1.033   6.647
14071TIP3    H142154   0.446   1.036   6.737
14071TIP3    H242155   0.470   0.967   6.604
14072TIP3   OH242156   4.532   0.672   1.530
14072TIP3    H142157   4.571   0.648   1.446
14072TIP3    H242158   4.552   0.599   1.588
14073TIP3   OH242159   5.896   0.578   2.635
14073TIP3    H142160   5.868   0.501   2.586
14073TIP3    H242161   5.977   0.551   2.678
14074TIP3   OH242162   4.763   3.863   4.429
14074TIP3    H142163   4.830   3.916   4.472
14074TIP3    H242164   4.682   3.911   4.444
14075TIP3   OH242165   6.886   4.210   1.413
14075TIP3    H142166   6.809   4.246   1.370
14075TIP3    H242167   6.853   4.170   1.494
14076TIP3   OH242168   2.522   0.131   0.167
14076TIP3    H142169   2.577   0.176   0.231
14076TIP3    H242170   2.547   0.169   0.082
14077TIP3   OH242171   7.719   7.051   3.364
14077TIP3    H142172   7.780   7.068   3.436
14077TIP3    H242173   7.664   6.979   3.396
14078TIP3   OH242174   1.903   7.497   2.201
14078TIP3    H142175   1.936   7.533   2.118
14078TIP3    H242176   1.841   7.429   2.175
14079TIP3   OH242177   3.815   1.349   3.710
14079TIP3    H142178   3.735   1.399   3.726
14079TIP3    H242179   3.855   1.339   3.796
14080TIP3   OH242180   7.841   5.531   1.854
14080TIP3    H142181   7.904   5.470   1.815
14080TIP3    H242182   7.882   5.617   1.844
14081TIP3   OH242183   0.679   5.124   6.723
14081TIP3    H142184   0.679   5.204   6.776
14081TIP3    H242185   0.594   5.084   6.741
14082TIP3   OH242186   4.795   3.318   0.527
14082TIP3    H142187   4.884   3.312   0.494
14082TIP3    H242188   4.770   3.227   0.546
14083TIP3   OH242189   4.904   4.520   1.120
14083TIP3    H142190   4.848   4.593   1.092
14083TIP3    H242191   4.988   4.561   1.139
14084TIP3   OH242192   8.016   1.242   0.000
14084TIP3    H142193   8.036   1.323   0.047
14084TIP3    H242194   7.921   1.232   0.007
14085TIP3   OH242195   4.464   3.042   0.192
14085TIP3    H142196   4.449   3.018   0.101
14085TIP3    H242197   4.408   3.119   0.206
14086TIP3   OH242198   4.381   6.621   6.207
14086TIP3    H142199   4.441   6.549   6.186
14086TIP3    H242200   4.350   6.601   6.295
14087TIP3   OH242201   2.291   5.901   6.270
14087TIP3    H142202   2.196   5.900   6.260
14087TIP3    H242203   2.309   5.980   6.321
14088TIP3   OH242204   3.158   4.085   1.149
14088TIP3    H142205   3.218   4.109   1.079
14088TIP3    H242206   3.175   4.148   1.219
14089TIP3   OH242207   6.123   4.129   4.787
14089TIP3    H142208   6.170   4.203   4.825
14089TIP3    H242209   6.068   4.168   4.718
14090TIP3   OH242210   4.273   4.147   4.938
14090TIP3    H142211   4.181   4.172   4.940
14090TIP3    H242212   4.273   4.060   4.899
14091TIP3   OH242213   6.069   5.156   4.447
14091TIP3    H142214   6.031   5.108   4.374
14091TIP3    H242215   6.110   5.088   4.501
14092TIP3   OH242216   6.398   7.585   0.642
14092TIP3    H142217   6.409   7.556   0.551
14092TIP3    H242218   6.378   7.504   0.690
14093TIP3   OH242219   6.709   4.248   2.625
14093TIP3    H142220   6.741   4.305   2.555
14093TIP3    H242221   6.680   4.308   2.694
14094TIP3   OH242222   5.946   1.429   3.495
14094TIP3    H142223   5.919   1.340   3.514
14094TIP3    H242224   6.035   1.421   3.461
14095TIP3   OH242225   3.745   2.829   4.397
14095TIP3    H142226   3.721   2.889   4.468
14095TIP3    H242227   3.840   2.822   4.403
14096TIP3   OH242228   5.641   4.633   1.152
14096TIP3    H142229   5.658   4.702   1.216
14096TIP3    H242230   5.697   4.656   1.077
14097TIP3   OH242231   8.108   7.832   1.673
14097TIP3    H142232   8.093   7.741   1.698
14097TIP3    H242233   8.043   7.850   1.605
14098TIP3   OH242234   7.141   6.115   3.465
14098TIP3    H142235   7.236   6.102   3.459
14098TIP3    H242236   7.113   6.058   3.537
14099TIP3   OH242237   8.093   0.527   4.090
14099TIP3    H142238   8.163   0.563   4.036
14099TIP3    H242239   8.082   0.437   4.059
14100TIP3   OH242240   7.370   7.323   4.232
14100TIP3    H142241   7.359   7.241   4.185
14100TIP3    H242242   7.282   7.357   4.242
14101TIP3   OH242243   6.439   1.474   2.603
14101TIP3    H142244   6.425   1.426   2.685
14101TIP3    H242245   6.355   1.469   2.558
14102TIP3   OH242246   0.527   3.168   3.495
14102TIP3    H142247   0.502   3.259   3.480
14102TIP3    H242248   0.622   3.170   3.502
14103TIP3   OH242249   3.951   1.921   3.344
14103TIP3    H142250   3.922   1.862   3.274
14103TIP3    H242251   3.996   1.992   3.298
14104TIP3   OH242252   0.935   1.030   4.216
14104TIP3    H142253   0.879   1.099   4.251
14104TIP3    H242254   0.875   0.959   4.194
14105TIP3   OH242255   0.877   1.929   2.082
14105TIP3    H142256   0.962   1.972   2.098
14105TIP3    H242257   0.833   1.986   2.019
14106TIP3   OH242258   2.617   6.335   6.446
14106TIP3    H142259   2.630   6.371   6.358
14106TIP3    H242260   2.698   6.355   6.493
14107TIP3   OH242261   3.502   1.260   6.643
14107TIP3    H142262   3.442   1.199   6.601
14107TIP3    H242263   3.456   1.288   6.722
14108TIP3   OH242264   2.353   3.964   2.473
14108TIP3    H142265   2.428   3.928   2.424
14108TIP3    H242266   2.340   4.051   2.436
14109TIP3   OH242267   4.162   0.901   5.844
14109TIP3    H142268   4.206   0.839   5.787
14109TIP3    H242269   4.191   0.878   5.932
14110TIP3   OH242270   0.223   3.253   2.612
14110TIP3    H142271   0.232   3.278   2.521
14110TIP3    H242272   0.267   3.168   2.619
14111TIP3   OH242273   7.623   2.885   6.006
14111TIP3    H142274   7.588   2.974   6.001
14111TIP3    H242275   7.572   2.835   5.942
14112TIP3   OH242276   7.018   5.781   2.789
14112TIP3    H142277   7.043   5.789   2.881
14112TIP3    H242278   7.091   5.733   2.749
14113TIP3   OH242279   5.215   3.044   3.771
14113TIP3    H142280   5.127   3.041   3.733
14113TIP3    H242281   5.249   2.955   3.761
14114TIP3   OH242282   0.688   3.214   2.573
14114TIP3    H142283   0.609   3.174   2.610
14114TIP3    H242284   0.740   3.140   2.543
14115TIP3   OH242285   2.795   0.408   6.813
14115TIP3    H142286   2.776   0.320   6.844
14115TIP3    H242287   2.811   0.398   6.720
14116TIP3   OH242288   6.304   2.669   5.174
14116TIP3    H142289   6.392   2.691   5.142
14116TIP3    H242290   6.274   2.748   5.218
14117TIP3   OH242291   4.740   1.909   4.228
14117TIP3    H142292   4.655   1.927   4.187
14117TIP3    H242293   4.738   1.960   4.309
14118TIP3   OH242294   3.504   6.741   4.257
14118TIP3    H142295   3.491   6.776   4.169
14118TIP3    H242296   3.560   6.665   4.244
14119TIP3   OH242297   3.090   7.805   5.249
14119TIP3    H142298   3.072   7.740   5.317
14119TIP3    H242299   3.171   7.847   5.277
14120TIP3   OH242300   1.626   7.518   3.423
14120TIP3    H142301   1.616   7.426   3.446
14120TIP3    H242302   1.689   7.518   3.350
14121TIP3   OH242303   4.006   6.110   2.846
14121TIP3    H142304   3.936   6.082   2.787
14121TIP3    H242305   3.965   6.108   2.933
14122TIP3   OH242306   4.294   6.680   3.178
14122TIP3    H142307   4.325   6.740   3.110
14122TIP3    H242308   4.373   6.638   3.211
14123TIP3   OH242309   3.858   5.342   0.391
14123TIP3    H142310   3.929   5.324   0.328
14123TIP3    H242311   3.851   5.437   0.393
14124TIP3   OH242312   3.927   6.729   3.972
14124TIP3    H142313   3.977   6.678   3.908
14124TIP3    H242314   3.984   6.736   4.048
14125TIP3   OH242315   7.993   6.376   0.792
14125TIP3    H142316   7.921   6.341   0.739
14125TIP3    H242317   7.951   6.405   0.873
14126TIP3   OH242318   4.041   1.151   6.546
14126TIP3    H142319   4.107   1.085   6.527
14126TIP3    H242320   4.091   1.229   6.571
14127TIP3   OH242321   4.607   1.139   0.072
14127TIP3    H142322   4.539   1.207   0.068
14127TIP3    H242323   4.606   1.110   0.163
14128TIP3   OH242324   5.147   6.121   4.941
14128TIP3    H142325   5.163   6.083   5.027
14128TIP3    H242326   5.233   6.122   4.899
14129TIP3   OH242327   7.487   0.800   5.272
14129TIP3    H142328   7.570   0.824   5.231
14129TIP3    H242329   7.426   0.790   5.198
14130TIP3   OH242330   6.925   4.450   6.437
14130TIP3    H142331   6.961   4.373   6.393
14130TIP3    H242332   6.990   4.519   6.422
14131TIP3   OH242333   5.854   0.912   1.288
14131TIP3    H142334   5.944   0.915   1.320
14131TIP3    H242335   5.804   0.870   1.358
14132TIP3   OH242336   4.020   3.606   5.578
14132TIP3    H142337   4.085   3.610   5.648
14132TIP3    H242338   3.991   3.696   5.567
14133TIP3   OH242339   4.408   6.361   5.743
14133TIP3    H142340   4.388   6.294   5.678
14133TIP3    H242341   4.370   6.328   5.825
14134TIP3   OH242342   1.830   2.418   2.074
14134TIP3    H142343   1.906   2.360   2.065
14134TIP3    H242344   1.824   2.462   1.989
14135TIP3   OH242345   2.024   4.234   4.767
14135TIP3    H142346   1.988   4.153   4.730
14135TIP3    H242347   1.954   4.269   4.822
14136TIP3   OH242348   7.265   1.837   0.782
14136TIP3    H142349   7.246   1.792   0.699
14136TIP3    H242350   7.257   1.930   0.760
14137TIP3   OH242351   2.149   4.101   5.198
14137TIP3    H142352   2.131   4.166   5.130
14137TIP3    H242353   2.066   4.055   5.209
14138TIP3   OH242354   1.101   3.438   3.017
14138TIP3    H142355   1.015   3.398   3.016
14138TIP3    H242356   1.121   3.453   2.925
14139TIP3   OH242357   5.961   3.602   1.259
14139TIP3    H142358   5.893   3.618   1.324
14139TIP3    H242359   5.967   3.507   1.253
14140TIP3   OH242360   2.000   3.851   2.872
14140TIP3    H142361   1.988   3.846   2.777
14140TIP3    H242362   1.957   3.932   2.898
14141TIP3   OH242363   4.744   7.675   5.503
14141TIP3    H142364   4.767   7.630   5.422
14141TIP3    H242365   4.649   7.688   5.497
14142TIP3   OH242366   6.180   1.067   6.269
14142TIP3    H142367   6.212   1.152   6.300
14142TIP3    H242368   6.239   1.003   6.308
14143TIP3   OH242369   2.174   3.204   4.705
14143TIP3    H142370   2.173   3.122   4.755
14143TIP3    H242371   2.194   3.176   4.616
14144TIP3   OH242372   6.815   6.794   5.810
14144TIP3    H142373   6.793   6.788   5.903
14144TIP3    H242374   6.748   6.741   5.766
14145TIP3   OH242375   3.548   5.388   0.641
14145TIP3    H142376   3.639   5.416   0.631
14145TIP3    H242377   3.504   5.421   0.562
14146TIP3   OH242378   8.086   7.152   0.209
14146TIP3    H142379   8.149   7.102   0.261
14146TIP3    H242380   8.001   7.129   0.245
14147TIP3   OH242381   4.507   4.378   0.451
14147TIP3    H142382   4.560   4.446   0.409
14147TIP3    H242383   4.422   4.384   0.407
14148TIP3   OH242384   5.357   5.810   2.718
14148TIP3    H142385   5.435   5.767   2.682
14148TIP3    H242386   5.364   5.797   2.812
14149TIP3   OH242387   5.992   1.719   3.850
14149TIP3    H142388   5.942   1.686   3.775
14149TIP3    H242389   5.975   1.655   3.919
14150TIP3   OH242390   6.963   1.937   2.397
14150TIP3    H142391   6.947   1.928   2.303
14150TIP3    H242392   6.929   2.025   2.418
14151TIP3   OH242393   2.024   0.419   4.695
14151TIP3    H142394   2.013   0.342   4.751
14151TIP3    H242395   2.071   0.387   4.618
14152TIP3   OH242396   6.821   4.824   3.915
14152TIP3    H142397   6.801   4.863   4.001
14152TIP3    H242398   6.743   4.841   3.863
14153TIP3   OH242399   2.910   5.117   2.595
14153TIP3    H142400   2.980   5.106   2.659
14153TIP3    H242401   2.954   5.115   2.510
14154TIP3   OH242402   6.433   1.245   1.173
14154TIP3    H142403   6.404   1.284   1.256
14154TIP3    H242404   6.428   1.151   1.188
14155TIP3   OH242405   4.939   3.735   4.670
14155TIP3    H142406   4.978   3.652   4.697
14155TIP3    H242407   4.868   3.750   4.732
14156TIP3   OH242408   4.503   7.406   3.799
14156TIP3    H142409   4.538   7.456   3.725
14156TIP3    H242410   4.427   7.361   3.763
14157TIP3   OH242411   1.844   4.975   1.958
14157TIP3    H142412   1.809   5.010   2.040
14157TIP3    H242413   1.789   4.899   1.939
14158TIP3   OH242414   3.962   3.361   0.137
14158TIP3    H142415   3.898   3.310   0.186
14158TIP3    H242416   4.047   3.325   0.162
14159TIP3   OH242417   8.182   6.388   6.656
14159TIP3    H142418   8.188   6.318   6.721
14159TIP3    H242419   8.245   6.363   6.588
14160TIP3   OH242420   3.800   1.275   2.670
14160TIP3    H142421   3.793   1.320   2.754
14160TIP3    H242422   3.714   1.234   2.657
14161TIP3   OH242423   7.770   7.164   3.120
14161TIP3    H142424   7.811   7.093   3.070
14161TIP3    H242425   7.724   7.120   3.191
14162TIP3   OH242426   1.657   3.214   1.393
14162TIP3    H142427   1.746   3.239   1.369
14162TIP3    H242428   1.606   3.228   1.313
14163TIP3   OH242429   6.295   7.324   1.312
14163TIP3    H142430   6.367   7.387   1.311
14163TIP3    H242431   6.224   7.367   1.263
14164TIP3   OH242432   4.547   5.562   6.621
14164TIP3    H142433   4.546   5.614   6.541
14164TIP3    H242434   4.588   5.618   6.687
14165TIP3   OH242435   1.621   6.025   5.443
14165TIP3    H142436   1.629   5.932   5.420
14165TIP3    H242437   1.637   6.071   5.361
14166TIP3   OH242438   6.332   0.262   4.909
14166TIP3    H142439   6.368   0.344   4.944
14166TIP3    H242440   6.238   0.268   4.927
14167TIP3   OH242441   8.091   3.891   2.355
14167TIP3    H142442   8.008   3.918   2.393
14167TIP3    H242443   8.067   3.830   2.285
14168TIP3   OH242444   4.700   4.470   2.218
14168TIP3    H142445   4.657   4.437   2.139
14168TIP3    H242446   4.666   4.414   2.289
14169TIP3   OH242447   7.011   4.152   5.479
14169TIP3    H142448   7.049   4.089   5.540
14169TIP3    H242449   6.929   4.179   5.521
14170TIP3   OH242450   0.857   2.012   2.497
14170TIP3    H142451   0.895   2.055   2.573
14170TIP3    H242452   0.931   1.970   2.453
14171TIP3   OH242453   6.126   1.659   4.792
14171TIP3    H142454   6.111   1.701   4.877
14171TIP3    H242455   6.181   1.584   4.812
14172TIP3   OH242456   1.697   3.796   0.244
14172TIP3    H142457   1.668   3.852   0.316
14172TIP3    H242458   1.624   3.796   0.182
14173TIP3   OH242459   6.767   6.061   3.079
14173TIP3    H142460   6.727   6.075   2.993
14173TIP3    H242461   6.851   6.107   3.074
14174TIP3   OH242462   2.492   5.714   6.277
14174TIP3    H142463   2.438   5.792   6.264
14174TIP3    H242464   2.441   5.658   6.334
14175TIP3   OH242465   2.562   6.655   1.041
14175TIP3    H142466   2.631   6.622   0.983
14175TIP3    H242467   2.554   6.589   1.109
14176TIP3   OH242468   4.290   2.259   1.291
14176TIP3    H142469   4.199   2.243   1.314
14176TIP3    H242470   4.330   2.172   1.287
14177TIP3   OH242471   6.738   7.730   3.570
14177TIP3    H142472   6.773   7.698   3.486
14177TIP3    H242473   6.799   7.799   3.596
14178TIP3   OH242474   4.404   2.771   0.368
14178TIP3    H142475   4.444   2.857   0.356
14178TIP3    H242476   4.478   2.714   0.391
14179TIP3   OH242477   2.157   3.844   5.331
14179TIP3    H142478   2.066   3.869   5.319
14179TIP3    H242479   2.192   3.835   5.242
14180TIP3   OH242480   3.778   4.858   3.225
14180TIP3    H142481   3.741   4.863   3.313
14180TIP3    H242482   3.856   4.914   3.229
14181TIP3   OH242483   1.385   0.445   0.248
14181TIP3    H142484   1.339   0.360   0.244
14181TIP3    H242485   1.344   0.491   0.321
14182TIP3   OH242486   3.366   4.165   0.077
14182TIP3    H142487   3.347   4.073   0.094
14182TIP3    H242488   3.293   4.212   0.118
14183TIP3   OH242489   8.296   5.735   4.023
14183TIP3    H142490   8.212   5.693   4.042
14183TIP3    H242491   8.275   5.803   3.960
14184TIP3   OH242492   8.006   0.987   1.867
14184TIP3    H142493   7.921   0.943   1.858
14184TIP3    H242494   8.044   0.985   1.779
14185TIP3   OH242495   3.077   3.199   0.928
14185TIP3    H142496   3.153   3.252   0.952
14185TIP3    H242497   3.005   3.234   0.980
14186TIP3   OH242498   8.022   2.189   6.354
14186TIP3    H142499   7.952   2.130   6.383
14186TIP3    H242500   8.095   2.131   6.332
14187TIP3   OH242501   6.330   6.815   2.297
14187TIP3    H142502   6.251   6.780   2.338
14187TIP3    H242503   6.383   6.739   2.277
14188TIP3   OH242504   5.127   0.171   5.946
14188TIP3    H142505   5.156   0.170   5.855
14188TIP3    H242506   5.151   0.258   5.979
14189TIP3   OH242507   4.619   5.851   0.524
14189TIP3    H142508   4.600   5.923   0.464
14189TIP3    H242509   4.587   5.883   0.609
14190TIP3   OH242510   4.255   5.075   2.971
14190TIP3    H142511   4.319   5.085   2.900
14190TIP3    H242512   4.204   5.156   2.969
14191TIP3   OH242513   4.094   7.874   4.147
14191TIP3    H142514   4.092   7.799   4.088
14191TIP3    H242515   4.092   7.836   4.235
14192TIP3   OH242516   0.922   0.600   3.642
14192TIP3    H142517   0.899   0.683   3.684
14192TIP3    H242518   0.974   0.624   3.566
14193TIP3   OH242519   5.191   2.092   4.253
14193TIP3    H142520   5.123   2.082   4.186
14193TIP3    H242521   5.243   2.012   4.246
14194TIP3   OH242522   3.185   3.217   6.172
14194TIP3    H142523   3.216   3.225   6.081
14194TIP3    H242524   3.164   3.307   6.198
14195TIP3   OH242525   1.862   1.162   2.206
14195TIP3    H142526   1.946   1.208   2.205
14195TIP3    H242527   1.884   1.072   2.228
14196TIP3   OH242528   7.256   5.259   2.169
14196TIP3    H142529   7.235   5.214   2.252
14196TIP3    H242530   7.193   5.224   2.107
14197TIP3   OH242531   6.638   1.040   5.235
14197TIP3    H142532   6.733   1.035   5.228
14197TIP3    H242533   6.616   0.972   5.300
14198TIP3   OH242534   7.587   3.384   1.314
14198TIP3    H142535   7.639   3.410   1.238
14198TIP3    H242536   7.525   3.320   1.281
14199TIP3   OH242537   7.419   5.063   0.789
14199TIP3    H142538   7.466   5.123   0.847
14199TIP3    H242539   7.337   5.110   0.769
14200TIP3   OH242540   1.905   2.250   6.223
14200TIP3    H142541   1.946   2.240   6.138
14200TIP3    H242542   1.949   2.326   6.262
14201TIP3   OH242543   5.283   3.769   6.861
14201TIP3    H142544   5.352   3.801   6.803
14201TIP3    H242545   5.321   3.774   6.949
14202TIP3   OH242546  -0.012   0.151   5.907
14202TIP3    H142547   0.050   0.091   5.948
14202TIP3    H242548   0.037   0.232   5.896
14203TIP3   OH242549   6.937   3.730   5.190
14203TIP3    H142550   6.899   3.688   5.112
14203TIP3    H242551   6.987   3.803   5.156
14204TIP3   OH242552   1.642   1.875   3.823
14204TIP3    H142553   1.658   1.917   3.739
14204TIP3    H242554   1.567   1.922   3.859
14205TIP3   OH242555   0.470   3.845   3.138
14205TIP3    H142556   0.398   3.908   3.143
14205TIP3    H242557   0.542   3.894   3.098
14206TIP3   OH242558   0.060   0.583   3.724
14206TIP3    H142559   0.148   0.619   3.721
14206TIP3    H242560   0.014   0.626   3.652
14207TIP3   OH242561   2.212   7.691   0.545
14207TIP3    H142562   2.140   7.745   0.579
14207TIP3    H242563   2.263   7.667   0.623
14208TIP3   OH242564  -0.036   4.819   3.485
14208TIP3    H142565  -0.120   4.863   3.472
14208TIP3    H242566   0.030   4.885   3.463
14209TIP3   OH242567   3.894   3.607   2.089
14209TIP3    H142568   3.921   3.654   2.168
14209TIP3    H242569   3.873   3.675   2.026
14210TIP3   OH242570   5.141   4.048   3.767
14210TIP3    H142571   5.134   4.144   3.764
14210TIP3    H242572   5.204   4.026   3.700
14211TIP3   OH242573   2.038   7.876   6.728
14211TIP3    H142574   2.038   7.917   6.815
14211TIP3    H242575   2.052   7.783   6.747
14212TIP3   OH242576   8.330   6.872   2.143
14212TIP3    H142577   8.270   6.945   2.156
14212TIP3    H242578   8.410   6.898   2.189
14213TIP3   OH242579   2.526   6.867   5.244
14213TIP3    H142580   2.594   6.811   5.208
14213TIP3    H242581   2.468   6.884   5.170
14214TIP3   OH242582   1.332   0.182   4.440
14214TIP3    H142583   1.333   0.102   4.387
14214TIP3    H242584   1.246   0.220   4.423
14215TIP3   OH242585   5.498   3.802   0.805
14215TIP3    H142586   5.543   3.886   0.799
14215TIP3    H242587   5.536   3.749   0.735
14216TIP3   OH242588   0.782   7.790   0.242
14216TIP3    H142589   0.734   7.708   0.238
14216TIP3    H242590   0.787   7.811   0.335
14217TIP3   OH242591   4.617   0.907   5.049
14217TIP3    H142592   4.659   0.949   4.975
14217TIP3    H242593   4.685   0.907   5.117
14218TIP3   OH242594   2.028   1.844   5.780
14218TIP3    H142595   2.034   1.779   5.850
14218TIP3    H242596   2.117   1.879   5.771
14219TIP3   OH242597   5.759   7.744   2.436
14219TIP3    H142598   5.768   7.775   2.526
14219TIP3    H242599   5.683   7.685   2.438
14220TIP3   OH242600   2.967   0.920   0.302
14220TIP3    H142601   2.999   0.852   0.242
14220TIP3    H242602   2.889   0.881   0.342
14221TIP3   OH242603   3.757   0.925   5.716
14221TIP3    H142604   3.711   0.854   5.760
14221TIP3    H242605   3.716   1.005   5.751
14222TIP3   OH242606   2.678   6.749   0.712
14222TIP3    H142607   2.770   6.775   0.717
14222TIP3    H242608   2.673   6.668   0.763
14223TIP3   OH242609   4.686   3.117   5.890
14223TIP3    H142610   4.742   3.127   5.966
14223TIP3    H242611   4.597   3.109   5.925
14224TIP3   OH242612   4.380   5.126   3.585
14224TIP3    H142613   4.330   5.116   3.666
14224TIP3    H242614   4.412   5.038   3.566
14225TIP3   OH242615   5.394   5.635   5.402
14225TIP3    H142616   5.308   5.667   5.376
14225TIP3    H242617   5.394   5.543   5.376
14226TIP3   OH242618   2.144   2.453   1.881
14226TIP3    H142619   2.132   2.508   1.959
14226TIP3    H242620   2.193   2.377   1.913
14227TIP3   OH242621   7.857   3.578   0.398
14227TIP3    H142622   7.881   3.578   0.490
14227TIP3    H242623   7.894   3.658   0.362
14228TIP3   OH242624   7.421   4.230   4.730
14228TIP3    H142625   7.468   4.284   4.794
14228TIP3    H242626   7.394   4.152   4.778
14229TIP3   OH242627   4.113   4.545   4.123
14229TIP3    H142628   4.108   4.565   4.217
14229TIP3    H242629   4.151   4.457   4.119
14230TIP3   OH242630   5.483   6.705   3.618
14230TIP3    H142631   5.530   6.771   3.567
14230TIP3    H242632   5.494   6.734   3.709
14231TIP3   OH242633   1.870   0.959   3.174
14231TIP3    H142634   1.822   0.926   3.098
14231TIP3    H242635   1.962   0.952   3.150
14232TIP3   OH242636   5.241   4.809   2.564
14232TIP3    H142637   5.263   4.900   2.545
14232TIP3    H242638   5.297   4.786   2.638
14233TIP3   OH242639   0.791   3.338   5.989
14233TIP3    H142640   0.884   3.360   5.998
14233TIP3    H242641   0.745   3.405   6.039
14234TIP3   OH242642   2.433   3.263   4.229
14234TIP3    H142643   2.482   3.231   4.154
14234TIP3    H242644   2.444   3.358   4.227
14235TIP3   OH242645   7.667   1.096   5.908
14235TIP3    H142646   7.693   1.129   5.994
14235TIP3    H242647   7.583   1.055   5.922
14236TIP3   OH242648   8.115   7.665   3.778
14236TIP3    H142649   8.141   7.574   3.762
14236TIP3    H242650   8.169   7.716   3.718
14237TIP3   OH242651   6.803  -0.037   1.403
14237TIP3    H142652   6.875   0.008   1.360
14237TIP3    H242653   6.781   0.017   1.478
14238TIP3   OH242654   7.774   1.199   3.184
14238TIP3    H142655   7.821   1.281   3.177
14238TIP3    H242656   7.804   1.147   3.110
14239TIP3   OH242657   1.435   6.698   4.014
14239TIP3    H142658   1.405   6.726   4.101
14239TIP3    H242659   1.386   6.754   3.953
14240TIP3   OH242660   0.159   2.474   5.012
14240TIP3    H142661   0.165   2.557   5.059
14240TIP3    H242662   0.188   2.495   4.923
14241TIP3   OH242663   7.617   7.863   0.124
14241TIP3    H142664   7.557   7.891   0.055
14241TIP3    H242665   7.684   7.812   0.078
14242TIP3   OH242666   0.302   6.337   4.961
14242TIP3    H142667   0.280   6.394   5.035
14242TIP3    H242668   0.219   6.330   4.912
14243TIP3   OH242669   1.274   2.034   2.595
14243TIP3    H142670   1.233   2.046   2.509
14243TIP3    H242671   1.320   1.950   2.588
14244TIP3   OH242672   6.062   2.226   6.477
14244TIP3    H142673   5.988   2.280   6.449
14244TIP3    H242674   6.022   2.150   6.520
14245TIP3   OH242675   7.202   0.647   1.196
14245TIP3    H142676   7.237   0.632   1.283
14245TIP3    H242677   7.208   0.742   1.184
14246TIP3   OH242678   7.174   1.974   6.835
14246TIP3    H142679   7.080   1.957   6.825
14246TIP3    H242680   7.212   1.945   6.753
14247TIP3   OH242681   3.318   7.942   2.212
14247TIP3    H142682   3.234   7.974   2.244
14247TIP3    H242683   3.355   7.893   2.286
14248TIP3   OH242684   3.847   1.314   5.858
14248TIP3    H142685   3.808   1.378   5.917
14248TIP3    H242686   3.907   1.263   5.913
14249TIP3   OH242687   7.798   3.900   4.900
14249TIP3    H142688   7.736   3.859   4.961
14249TIP3    H242689   7.859   3.829   4.877
14250TIP3   OH242690   6.828   3.431   5.914
14250TIP3    H142691   6.834   3.373   5.990
14250TIP3    H242692   6.736   3.455   5.909
14251TIP3   OH242693   0.910   6.431   4.947
14251TIP3    H142694   1.000   6.430   4.980
14251TIP3    H242695   0.917   6.471   4.860
14252TIP3   OH242696   7.011   2.191   4.277
14252TIP3    H142697   6.954   2.246   4.223
14252TIP3    H242698   7.060   2.138   4.214
14253TIP3   OH242699   2.811   6.271   6.026
14253TIP3    H142700   2.895   6.256   6.070
14253TIP3    H242701   2.835   6.304   5.940
14254TIP3   OH242702   3.914   5.828   5.256
14254TIP3    H142703   3.933   5.894   5.189
14254TIP3    H242704   3.990   5.831   5.314
14255TIP3   OH242705   4.275   4.606   2.920
14255TIP3    H142706   4.203   4.648   2.968
14255TIP3    H242707   4.346   4.670   2.922
14256TIP3   OH242708   6.912   4.276   4.317
14256TIP3    H142709   6.984   4.285   4.379
14256TIP3    H242710   6.879   4.187   4.333
14257TIP3   OH242711   0.521   1.709   4.422
14257TIP3    H142712   0.436   1.665   4.420
14257TIP3    H242713   0.528   1.751   4.337
14258TIP3   OH242714   4.806   7.409   4.315
14258TIP3    H142715   4.830   7.340   4.377
14258TIP3    H242716   4.838   7.490   4.355
14259TIP3   OH242717   4.478   6.175   6.000
14259TIP3    H142718   4.399   6.153   5.950
14259TIP3    H242719   4.518   6.091   6.020
14260TIP3   OH242720   2.465   5.407   5.485
14260TIP3    H142721   2.431   5.325   5.523
14260TIP3    H242722   2.405   5.475   5.516
14261TIP3   OH242723   0.283   3.805   5.831
14261TIP3    H142724   0.283   3.787   5.925
14261TIP3    H242725   0.332   3.887   5.822
14262TIP3   OH242726   7.963   4.201   5.829
14262TIP3    H142727   7.927   4.136   5.890
14262TIP3    H242728   7.950   4.285   5.873
14263TIP3   OH242729   6.614   0.037   2.374
14263TIP3    H142730   6.605   0.095   2.450
14263TIP3    H242731   6.698   0.060   2.336
14264TIP3   OH242732   8.376   0.207   3.332
14264TIP3    H142733   8.468   0.201   3.356
14264TIP3    H242734   8.336   0.259   3.402
14265TIP3   OH242735   7.236   6.395   4.606
14265TIP3    H142736   7.185   6.435   4.676
14265TIP3    H242737   7.180   6.323   4.575
14266TIP3   OH242738   2.604   3.537   3.673
14266TIP3    H142739   2.660   3.503   3.603
14266TIP3    H242740   2.515   3.519   3.643
14267TIP3   OH242741   5.010   5.895   5.583
14267TIP3    H142742   4.976   5.841   5.654
14267TIP3    H242743   5.053   5.968   5.627
14268TIP3   OH242744   7.192   3.601   0.284
14268TIP3    H142745   7.155   3.514   0.278
14268TIP3    H242746   7.193   3.621   0.378
14269TIP3   OH242747   0.063   4.601   3.694
14269TIP3    H142748   0.090   4.630   3.781
14269TIP3    H242749   0.060   4.682   3.642
14270TIP3   OH242750   5.048   2.281   4.399
14270TIP3    H142751   5.099   2.218   4.348
14270TIP3    H242752   5.025   2.234   4.479
14271TIP3   OH242753   3.213   2.957   0.327
14271TIP3    H142754   3.161   2.895   0.275
14271TIP3    H242755   3.304   2.932   0.311
14272TIP3   OH242756   8.152   3.452   0.417
14272TIP3    H142757   8.201   3.416   0.491
14272TIP3    H242758   8.113   3.533   0.451
14273TIP3   OH242759   7.542   7.417   5.606
14273TIP3    H142760   7.481   7.481   5.643
14273TIP3    H242761   7.576   7.460   5.527
14274TIP3   OH242762   3.752   2.443   2.930
14274TIP3    H142763   3.692   2.436   3.004
14274TIP3    H242764   3.699   2.484   2.861
14275TIP3   OH242765   6.594   0.175   4.193
14275TIP3    H142766   6.689   0.176   4.183
14275TIP3    H242767   6.562   0.137   4.111
14276TIP3   OH242768   0.040   7.471   2.257
14276TIP3    H142769   0.030   7.380   2.285
14276TIP3    H242770   0.052   7.521   2.338
14277TIP3   OH242771   1.230   7.349   2.454
14277TIP3    H142772   1.251   7.420   2.393
14277TIP3    H242773   1.316   7.315   2.480
14278TIP3   OH242774   1.828   1.582   5.418
14278TIP3    H142775   1.801   1.644   5.350
14278TIP3    H242776   1.841   1.500   5.371
14279TIP3   OH242777   1.383   7.890   6.114
14279TIP3    H142778   1.347   7.977   6.128
14279TIP3    H242779   1.472   7.906   6.081
14280TIP3   OH242780   2.427   7.199   0.421
14280TIP3    H142781   2.341   7.163   0.398
14280TIP3    H242782   2.407   7.285   0.459
14281TIP3   OH242783   3.448   7.909   4.191
14281TIP3    H142784   3.376   7.855   4.224
14281TIP3    H242785   3.464   7.876   4.103
14282TIP3   OH242786   6.665   3.935   2.493
14282TIP3    H142787   6.581   3.904   2.460
14282TIP3    H242788   6.663   4.030   2.477
14283TIP3   OH242789   7.838   4.913   4.401
14283TIP3    H142790   7.770   4.959   4.352
14283TIP3    H242791   7.806   4.910   4.491
14284TIP3   OH242792   6.563   0.298   5.785
14284TIP3    H142793   6.612   0.317   5.865
14284TIP3    H242794   6.536   0.206   5.795
14285TIP3   OH242795   0.974   7.334   6.400
14285TIP3    H142796   1.026   7.314   6.322
14285TIP3    H242797   0.949   7.248   6.435
14286TIP3   OH242798   2.720   1.437   3.383
14286TIP3    H142799   2.715   1.410   3.475
14286TIP3    H242800   2.769   1.366   3.341
14287TIP3   OH242801   5.476   0.176   0.270
14287TIP3    H142802   5.495   0.268   0.288
14287TIP3    H242803   5.561   0.136   0.252
14288TIP3   OH242804   2.502   7.794   4.909
14288TIP3    H142805   2.437   7.826   4.971
14288TIP3    H242806   2.577   7.851   4.921
14289TIP3   OH242807   2.690   4.023   1.595
14289TIP3    H142808   2.694   3.972   1.676
14289TIP3    H242809   2.770   4.075   1.595
14290TIP3   OH242810   0.731   7.666   4.237
14290TIP3    H142811   0.659   7.721   4.269
14290TIP3    H242812   0.808   7.723   4.239
14291TIP3   OH242813   4.576   4.717   5.647
14291TIP3    H142814   4.499   4.764   5.679
14291TIP3    H242815   4.581   4.738   5.554
14292TIP3   OH242816   1.675   2.642   3.182
14292TIP3    H142817   1.744   2.705   3.204
14292TIP3    H242818   1.719   2.576   3.129
14293TIP3   OH242819   4.944   1.687   1.007
14293TIP3    H142820   4.944   1.653   0.917
14293TIP3    H242821   4.890   1.624   1.056
14294TIP3   OH242822   2.597   0.432   4.434
14294TIP3    H142823   2.606   0.525   4.456
14294TIP3    H242824   2.554   0.393   4.511
14295TIP3   OH242825   4.474   2.989   3.662
14295TIP3    H142826   4.383   2.975   3.687
14295TIP3    H242827   4.470   3.037   3.579
14296TIP3   OH242828   6.693   2.196   5.641
14296TIP3    H142829   6.672   2.114   5.684
14296TIP3    H242830   6.667   2.264   5.703
14297TIP3   OH242831   3.924   1.410   4.551
14297TIP3    H142832   3.874   1.372   4.478
14297TIP3    H242833   3.970   1.484   4.513
14298TIP3   OH242834   6.370   4.871   6.568
14298TIP3    H142835   6.458   4.840   6.586
14298TIP3    H242836   6.316   4.833   6.637
14299TIP3   OH242837   6.387   4.074   5.974
14299TIP3    H142838   6.305   4.048   6.016
14299TIP3    H242839   6.360   4.116   5.892
14300TIP3   OH242840   0.858   2.930   5.897
14300TIP3    H142841   0.793   2.967   5.838
14300TIP3    H242842   0.939   2.976   5.876
14301TIP3   OH242843   0.423   1.302   2.339
14301TIP3    H142844   0.350   1.298   2.277
14301TIP3    H242845   0.398   1.244   2.410
14302TIP3   OH242846   5.750   0.361   6.624
14302TIP3    H142847   5.724   0.452   6.630
14302TIP3    H242848   5.771   0.336   6.715
14303TIP3   OH242849   1.206   1.129   1.294
14303TIP3    H142850   1.253   1.149   1.375
14303TIP3    H242851   1.190   1.215   1.254
14304TIP3   OH242852   0.919   7.292   3.813
14304TIP3    H142853   1.005   7.291   3.771
14304TIP3    H242854   0.890   7.201   3.811
14305TIP3   OH242855   6.372   4.459   2.219
14305TIP3    H142856   6.455   4.500   2.196
14305TIP3    H242857   6.395   4.390   2.281
14306TIP3   OH242858   5.832   6.846   5.312
14306TIP3    H142859   5.830   6.760   5.270
14306TIP3    H242860   5.883   6.833   5.392
14307TIP3   OH242861   5.199   5.196   4.357
14307TIP3    H142862   5.120   5.241   4.328
14307TIP3    H242863   5.172   5.148   4.436
14308TIP3   OH242864   1.791   7.861   2.618
14308TIP3    H142865   1.856   7.930   2.610
14308TIP3    H242866   1.829   7.786   2.572
14309TIP3   OH242867   6.237   1.460   4.481
14309TIP3    H142868   6.198   1.462   4.569
14309TIP3    H242869   6.328   1.483   4.495
14310TIP3   OH242870   3.531   6.751   2.156
14310TIP3    H142871   3.623   6.727   2.154
14310TIP3    H242872   3.511   6.764   2.249
14311TIP3   OH242873   1.579   5.712   6.113
14311TIP3    H142874   1.507   5.745   6.059
14311TIP3    H242875   1.618   5.791   6.151
14312TIP3   OH242876   5.819   3.784   6.414
14312TIP3    H142877   5.853   3.827   6.335
14312TIP3    H242878   5.891   3.729   6.444
14313TIP3   OH242879   4.071   1.653   1.261
14313TIP3    H142880   4.008   1.689   1.323
14313TIP3    H242881   4.018   1.612   1.193
14314TIP3   OH242882   4.946   5.975   6.550
14314TIP3    H142883   4.957   6.050   6.608
14314TIP3    H242884   4.996   5.905   6.591
14315TIP3   OH242885   2.594   4.389   4.627
14315TIP3    H142886   2.550   4.333   4.691
14315TIP3    H242887   2.657   4.331   4.583
14316TIP3   OH242888   0.080   6.485   4.005
14316TIP3    H142889   0.161   6.436   4.015
14316TIP3    H242890   0.016   6.419   3.976
14317TIP3   OH242891   6.447   1.203   0.731
14317TIP3    H142892   6.457   1.116   0.692
14317TIP3    H242893   6.384   1.191   0.802
14318TIP3   OH242894   5.945   0.397   3.425
14318TIP3    H142895   5.912   0.385   3.514
14318TIP3    H242896   6.002   0.473   3.431
14319TIP3   OH242897   1.613   5.908   3.578
14319TIP3    H142898   1.526   5.874   3.553
14319TIP3    H242899   1.616   5.898   3.673
14320TIP3   OH242900   6.295   0.215   2.324
14320TIP3    H142901   6.322   0.140   2.377
14320TIP3    H242902   6.215   0.185   2.279
14321TIP3   OH242903   3.188   6.610   2.427
14321TIP3    H142904   3.107   6.660   2.422
14321TIP3    H242905   3.180   6.559   2.507
14322TIP3   OH242906   1.497   3.991   1.398
14322TIP3    H142907   1.422   3.964   1.451
14322TIP3    H242908   1.460   4.050   1.333
14323TIP3   OH242909   4.760   7.898   0.758
14323TIP3    H142910   4.719   7.948   0.828
14323TIP3    H242911   4.791   7.964   0.696
14324TIP3   OH242912   4.952   2.801   5.409
14324TIP3    H142913   5.016   2.831   5.344
14324TIP3    H242914   4.947   2.872   5.472
14325TIP3   OH242915   4.186   6.412   6.642
14325TIP3    H142916   4.242   6.355   6.590
14325TIP3    H242917   4.101   6.367   6.644
14326TIP3   OH242918   0.096   6.145   5.292
14326TIP3    H142919   0.127   6.059   5.265
14326TIP3    H242920   0.003   6.146   5.269
14327TIP3   OH242921   8.098   5.783   3.526
14327TIP3    H142922   8.046   5.857   3.495
14327TIP3    H242923   8.048   5.749   3.600
14328TIP3   OH242924   4.693   5.808   2.095
14328TIP3    H142925   4.708   5.817   2.000
14328TIP3    H242926   4.780   5.791   2.131
14329TIP3   OH242927   5.581   1.214   3.422
14329TIP3    H142928   5.554   1.250   3.338
14329TIP3    H242929   5.647   1.149   3.400
14330TIP3   OH242930   3.491   6.006   4.141
14330TIP3    H142931   3.436   6.041   4.071
14330TIP3    H242932   3.551   5.946   4.097
14331TIP3   OH242933   5.325   6.606   4.461
14331TIP3    H142934   5.324   6.697   4.432
14331TIP3    H242935   5.417   6.584   4.468
14332TIP3   OH242936   4.954   4.012   4.561
14332TIP3    H142937   5.020   3.953   4.524
14332TIP3    H242938   4.952   3.990   4.654
14333TIP3   OH242939   3.374   0.355   2.782
14333TIP3    H142940   3.286   0.320   2.799
14333TIP3    H242941   3.431   0.278   2.785
14334TIP3   OH242942   3.056   7.133   1.793
14334TIP3    H142943   2.994   7.165   1.858
14334TIP3    H242944   3.002   7.109   1.718
14335TIP3   OH242945   0.190   6.844   1.636
14335TIP3    H142946   0.192   6.873   1.727
14335TIP3    H242947   0.257   6.896   1.593
14336TIP3   OH242948   2.580   2.386   0.024
14336TIP3    H142949   2.506   2.385   0.084
14336TIP3    H242950   2.541   2.395  -0.063
14337TIP3   OH242951   0.334   7.545   0.291
14337TIP3    H142952   0.239   7.537   0.285
14337TIP3    H242953   0.367   7.457   0.271
14338TIP3   OH242954   2.488   6.083   2.206
14338TIP3    H142955   2.539   6.015   2.162
14338TIP3    H242956   2.407   6.040   2.233
14339TIP3   OH242957   6.299   7.969   0.764
14339TIP3    H142958   6.270   7.915   0.837
14339TIP3    H242959   6.307   7.908   0.691
14340TIP3   OH242960   6.303   5.850   5.314
14340TIP3    H142961   6.343   5.764   5.300
14340TIP3    H242962   6.214   5.840   5.280
14341TIP3   OH242963   0.633   0.470   4.828
14341TIP3    H142964   0.556   0.488   4.774
14341TIP3    H242965   0.625   0.377   4.850
14342TIP3   OH242966   4.763   3.040   0.508
14342TIP3    H142967   4.742   3.013   0.419
14342TIP3    H242968   4.811   2.965   0.545
14343TIP3   OH242969   7.735   1.190   1.728
14343TIP3    H142970   7.676   1.192   1.652
14343TIP3    H242971   7.700   1.119   1.782
14344TIP3   OH242972   4.756   5.678   6.210
14344TIP3    H142973   4.812   5.755   6.202
14344TIP3    H242974   4.814   5.604   6.193
14345TIP3   OH242975   0.143   0.699   2.248
14345TIP3    H142976   0.102   0.710   2.162
14345TIP3    H242977   0.094   0.758   2.305
14346TIP3   OH242978   0.383   4.231   4.681
14346TIP3    H142979   0.454   4.240   4.745
14346TIP3    H242980   0.305   4.258   4.729
14347TIP3   OH242981   6.832   4.450   6.122
14347TIP3    H142982   6.864   4.388   6.057
14347TIP3    H242983   6.907   4.468   6.178
14348TIP3   OH242984   4.975   4.586   4.891
14348TIP3    H142985   4.967   4.532   4.812
14348TIP3    H242986   4.900   4.646   4.886
14349TIP3   OH242987   1.829   6.674   1.783
14349TIP3    H142988   1.878   6.696   1.704
14349TIP3    H242989   1.766   6.607   1.755
14350TIP3   OH242990   1.011   1.382   1.045
14350TIP3    H142991   0.934   1.438   1.057
14350TIP3    H242992   1.065   1.399   1.121
14351TIP3   OH242993   0.215   5.690   0.930
14351TIP3    H142994   0.164   5.765   0.960
14351TIP3    H242995   0.304   5.724   0.919
14352TIP3   OH242996   3.538   2.183   6.095
14352TIP3    H142997   3.555   2.275   6.074
14352TIP3    H242998   3.567   2.135   6.018
14353TIP3   OH242999   7.824   1.864   6.012
14353TIP3    H143000   7.857   1.835   5.926
14353TIP3    H243001   7.830   1.959   6.009
14354TIP3   OH243002   3.628   4.554   4.932
14354TIP3    H143003   3.575   4.486   4.892
14354TIP3    H243004   3.645   4.616   4.861
14355TIP3   OH243005   1.306   7.906   3.110
14355TIP3    H143006   1.282   7.959   3.186
14355TIP3    H243007   1.226   7.902   3.058
14356TIP3   OH243008   5.965   6.052   4.962
14356TIP3    H143009   6.006   6.093   4.885
14356TIP3    H243010   6.026   6.069   5.034
14357TIP3   OH243011   5.671   4.744   2.358
14357TIP3    H143012   5.581   4.712   2.352
14357TIP3    H243013   5.713   4.685   2.420
14358TIP3   OH243014   6.517   6.058   6.733
14358TIP3    H143015   6.535   5.966   6.711
14358TIP3    H243016   6.603   6.100   6.732
14359TIP3   OH243017   5.182   4.805   5.557
14359TIP3    H143018   5.157   4.876   5.617
14359TIP3    H243019   5.098   4.764   5.534
14360TIP3   OH243020   3.840   5.343   2.613
14360TIP3    H143021   3.791   5.310   2.537
14360TIP3    H243022   3.930   5.314   2.598
14361TIP3   OH243023   2.716   1.512   5.150
14361TIP3    H143024   2.720   1.424   5.113
14361TIP3    H243025   2.741   1.569   5.078
14362TIP3   OH243026   4.882   3.068   6.114
14362TIP3    H143027   4.955   3.113   6.072
14362TIP3    H243028   4.921   2.989   6.152
14363TIP3   OH243029   3.327   3.155   0.695
14363TIP3    H143030   3.390   3.102   0.742
14363TIP3    H243031   3.313   3.231   0.751
14364TIP3   OH243032   4.313   3.834   4.342
14364TIP3    H143033   4.382   3.865   4.401
14364TIP3    H243034   4.289   3.748   4.376
14365TIP3   OH243035   4.364   2.316   5.101
14365TIP3    H143036   4.372   2.385   5.035
14365TIP3    H243037   4.387   2.359   5.183
14366TIP3   OH243038   0.942   3.681   2.224
14366TIP3    H143039   0.948   3.751   2.159
14366TIP3    H243040   0.849   3.659   2.227
14367TIP3   OH243041   1.215   4.230   4.691
14367TIP3    H143042   1.184   4.255   4.604
14367TIP3    H243043   1.147   4.260   4.751
14368TIP3   OH243044   7.290   4.525   2.097
14368TIP3    H143045   7.235   4.530   2.018
14368TIP3    H243046   7.373   4.565   2.071
14369TIP3   OH243047   7.164   1.304   6.041
14369TIP3    H143048   7.246   1.353   6.029
14369TIP3    H243049   7.111   1.359   6.097
14370TIP3   OH243050   1.258   4.947   3.989
14370TIP3    H143051   1.309   4.879   3.944
14370TIP3    H243052   1.323   4.995   4.040
14371TIP3   OH243053   2.499   1.900   2.764
14371TIP3    H143054   2.552   1.848   2.704
14371TIP3    H243055   2.448   1.836   2.813
14372TIP3   OH243056   8.266   2.563   1.218
14372TIP3    H143057   8.186   2.593   1.263
14372TIP3    H243058   8.337   2.605   1.266
14373TIP3   OH243059   7.326   1.307   1.606
14373TIP3    H143060   7.308   1.310   1.700
14373TIP3    H243061   7.343   1.398   1.581
14374TIP3   OH243062   8.375   4.082   1.571
14374TIP3    H143063   8.284   4.101   1.591
14374TIP3    H243064   8.371   4.029   1.491
14375TIP3   OH243065   8.001   6.229   0.492
14375TIP3    H143066   7.986   6.293   0.422
14375TIP3    H243067   7.921   6.234   0.546
14376TIP3   OH243068   0.854   3.222   1.952
14376TIP3    H143069   0.804   3.141   1.959
14376TIP3    H243070   0.792   3.291   1.975
14377TIP3   OH243071   7.948   4.826   5.322
14377TIP3    H143072   7.884   4.885   5.280
14377TIP3    H243073   7.965   4.865   5.407
14378TIP3   OH243074   5.576   0.564   6.718
14378TIP3    H143075   5.529   0.590   6.798
14378TIP3    H243076   5.534   0.482   6.691
14379TIP3   OH243077   6.162   7.003   0.609
14379TIP3    H143078   6.205   6.938   0.664
14379TIP3    H243079   6.091   6.956   0.566
14380TIP3   OH243080   5.781   7.672   0.190
14380TIP3    H143081   5.830   7.594   0.215
14380TIP3    H243082   5.696   7.663   0.232
14381TIP3   OH243083   0.603   0.552   1.874
14381TIP3    H143084   0.638   0.484   1.932
14381TIP3    H243085   0.551   0.608   1.932
14382TIP3   OH243086   4.823   7.612   5.232
14382TIP3    H143087   4.888   7.671   5.193
14382TIP3    H243088   4.876   7.545   5.276
14383TIP3   OH243089   6.290   0.078   5.822
14383TIP3    H143090   6.347   0.081   5.745
14383TIP3    H243091   6.300  -0.011   5.856
14384TIP3   OH243092   1.312   6.796   3.024
14384TIP3    H143093   1.405   6.818   3.027
14384TIP3    H243094   1.276   6.854   2.956
14385TIP3   OH243095   5.386   3.416   0.374
14385TIP3    H143096   5.347   3.369   0.300
14385TIP3    H243097   5.419   3.347   0.432
14386TIP3   OH243098   3.781   5.271   6.728
14386TIP3    H143099   3.696   5.310   6.748
14386TIP3    H243100   3.773   5.180   6.756
14387TIP3   OH243101   7.202   5.254   5.393
14387TIP3    H143102   7.164   5.336   5.362
14387TIP3    H243103   7.169   5.244   5.482
14388TIP3   OH243104   3.691   1.344   2.328
14388TIP3    H143105   3.631   1.274   2.357
14388TIP3    H243106   3.685   1.410   2.396
14389TIP3   OH243107   5.521   2.711   2.909
14389TIP3    H143108   5.471   2.792   2.898
14389TIP3    H243109   5.610   2.733   2.881
14390TIP3   OH243110   7.943   5.555   6.817
14390TIP3    H143111   7.886   5.576   6.891
14390TIP3    H243112   8.015   5.618   6.823
14391TIP3   OH243113   4.127   5.548   6.435
14391TIP3    H143114   4.088   5.504   6.510
14391TIP3    H243115   4.152   5.635   6.469
14392TIP3   OH243116   7.439   3.435   2.062
14392TIP3    H143117   7.367   3.491   2.087
14392TIP3    H243118   7.431   3.427   1.967
14393TIP3   OH243119   7.440   5.325   3.158
14393TIP3    H143120   7.481   5.311   3.072
14393TIP3    H243121   7.360   5.373   3.138
14394TIP3   OH243122   6.248   2.530   2.602
14394TIP3    H143123   6.278   2.439   2.601
14394TIP3    H243124   6.209   2.544   2.517
14395TIP3   OH243125   2.148   2.869   3.088
14395TIP3    H143126   2.094   2.944   3.066
14395TIP3    H243127   2.235   2.891   3.054
14396TIP3   OH243128   6.787   0.775   2.199
14396TIP3    H143129   6.728   0.782   2.274
14396TIP3    H243130   6.868   0.817   2.228
14397TIP3   OH243131   2.674   4.329   2.220
14397TIP3    H143132   2.700   4.367   2.304
14397TIP3    H243133   2.745   4.354   2.160
14398TIP3   OH243134   2.750   7.186   2.931
14398TIP3    H143135   2.801   7.265   2.948
14398TIP3    H243136   2.776   7.158   2.844
14399TIP3   OH243137   1.000   4.605   5.049
14399TIP3    H143138   1.048   4.529   5.082
14399TIP3    H243139   0.920   4.568   5.012
14400TIP3   OH243140   6.752   2.959   3.127
14400TIP3    H143141   6.829   3.014   3.114
14400TIP3    H243142   6.688   2.993   3.064
14401TIP3   OH243143   3.055   5.843   3.793
14401TIP3    H143144   3.007   5.803   3.866
14401TIP3    H243145   3.109   5.773   3.758
14402TIP3   OH243146   5.252   4.193   2.151
14402TIP3    H143147   5.260   4.111   2.101
14402TIP3    H243148   5.173   4.234   2.117
14403TIP3   OH243149   6.828   6.890   1.136
14403TIP3    H143150   6.823   6.931   1.222
14403TIP3    H243151   6.825   6.964   1.075
14404TIP3   OH243152   6.984   2.111   1.411
14404TIP3    H143153   6.945   2.054   1.476
14404TIP3    H243154   7.045   2.055   1.362
14405TIP3   OH243155   0.539   5.798   0.274
14405TIP3    H143156   0.586   5.714   0.275
14405TIP3    H243157   0.534   5.823   0.367
14406TIP3   OH243158   3.981   7.385   0.754
14406TIP3    H143159   4.050   7.415   0.813
14406TIP3    H243160   3.975   7.454   0.687
14407TIP3   OH243161   1.695   7.205   4.105
14407TIP3    H143162   1.610   7.226   4.143
14407TIP3    H243163   1.757   7.214   4.177
14408TIP3   OH243164   7.798   6.034   1.280
14408TIP3    H143165   7.869   6.055   1.340
14408TIP3    H243166   7.817   6.085   1.201
14409TIP3   OH243167   6.121   1.216   0.738
14409TIP3    H143168   6.096   1.305   0.762
14409TIP3    H243169   6.137   1.220   0.644
14410TIP3   OH243170   3.530   5.597   0.206
14410TIP3    H143171   3.574   5.675   0.171
14410TIP3    H243172   3.584   5.524   0.175
14411TIP3   OH243173   5.305   2.977   1.210
14411TIP3    H143174   5.323   2.886   1.234
14411TIP3    H243175   5.324   2.982   1.116
14412TIP3   OH243176   3.104   2.919   4.710
14412TIP3    H143177   3.097   2.861   4.635
14412TIP3    H243178   3.021   2.910   4.756
14413TIP3   OH243179   6.031   3.516   5.637
14413TIP3    H143180   6.091   3.589   5.621
14413TIP3    H243181   5.991   3.500   5.551
14414TIP3   OH243182   3.561  -0.020   0.781
14414TIP3    H143183   3.641   0.031   0.773
14414TIP3    H243184   3.495   0.043   0.811
14415TIP3   OH243185   3.806   1.239   0.447
14415TIP3    H143186   3.817   1.274   0.536
14415TIP3    H243187   3.894   1.209   0.423
14416TIP3   OH243188   0.729   6.257   1.001
14416TIP3    H143189   0.676   6.203   1.059
14416TIP3    H243190   0.793   6.299   1.059
14417TIP3   OH243191   7.472   6.813   0.840
14417TIP3    H143192   7.426   6.774   0.765
14417TIP3    H243193   7.451   6.906   0.835
14418TIP3   OH243194   8.339   6.780   4.886
14418TIP3    H143195   8.272   6.800   4.951
14418TIP3    H243196   8.417   6.824   4.918
14419TIP3   OH243197   0.635   4.871   4.137
14419TIP3    H143198   0.598   4.901   4.054
14419TIP3    H243199   0.584   4.917   4.204
14420TIP3   OH243200   8.004   1.378   3.213
14420TIP3    H143201   8.082   1.350   3.165
14420TIP3    H243202   7.996   1.471   3.194
14421TIP3   OH243203   8.311   6.254   0.676
14421TIP3    H143204   8.266   6.229   0.595
14421TIP3    H243205   8.385   6.307   0.648
14422TIP3   OH243206   6.850   4.258   0.491
14422TIP3    H143207   6.825   4.341   0.531
14422TIP3    H243208   6.946   4.256   0.497
14423TIP3   OH243209   2.915   6.715   2.666
14423TIP3    H143210   2.892   6.741   2.577
14423TIP3    H243211   2.853   6.646   2.688
14424TIP3   OH243212   4.220   2.871   3.743
14424TIP3    H143213   4.234   2.776   3.749
14424TIP3    H243214   4.127   2.880   3.725
14425TIP3   OH243215   4.194   3.132   6.254
14425TIP3    H143216   4.250   3.054   6.258
14425TIP3    H243217   4.191   3.163   6.344
14426TIP3   OH243218   5.684   5.283   0.261
14426TIP3    H143219   5.602   5.267   0.214
14426TIP3    H243220   5.696   5.206   0.315
14427TIP3   OH243221   2.268   1.087   2.132
14427TIP3    H143222   2.332   1.016   2.135
14427TIP3    H243223   2.304   1.149   2.070
14428TIP3   OH243224   2.037   2.312   6.835
14428TIP3    H143225   1.953   2.268   6.821
14428TIP3    H243226   2.035   2.387   6.776
14429TIP3   OH243227   1.881   3.754   2.338
14429TIP3    H143228   1.848   3.835   2.378
14429TIP3    H243229   1.804   3.698   2.330
14430TIP3   OH243230   2.541   0.148   3.128
14430TIP3    H143231   2.493   0.080   3.082
14430TIP3    H243232   2.613   0.102   3.172
14431TIP3   OH243233   0.653   7.271   2.645
14431TIP3    H143234   0.589   7.327   2.688
14431TIP3    H243235   0.732   7.326   2.638
14432TIP3   OH243236   4.041   5.250   1.242
14432TIP3    H143237   4.070   5.166   1.277
14432TIP3    H243238   3.953   5.232   1.207
14433TIP3   OH243239   1.928   2.927   1.169
14433TIP3    H143240   1.957   3.009   1.130
14433TIP3    H243241   1.884   2.954   1.250
14434TIP3   OH243242   3.617   5.316   4.689
14434TIP3    H143243   3.604   5.324   4.595
14434TIP3    H243244   3.533   5.340   4.728
14435TIP3   OH243245   4.538   7.123   2.974
14435TIP3    H143246   4.526   7.028   2.979
14435TIP3    H243247   4.593   7.144   3.049
14436TIP3   OH243248   7.276   6.247   3.186
14436TIP3    H143249   7.220   6.325   3.186
14436TIP3    H243250   7.220   6.177   3.219
14437TIP3   OH243251   1.379   5.775   6.507
14437TIP3    H143252   1.404   5.811   6.592
14437TIP3    H243253   1.333   5.846   6.463
14438TIP3   OH243254   2.173   1.094   4.796
14438TIP3    H143255   2.167   1.145   4.878
14438TIP3    H243256   2.082   1.081   4.770
14439TIP3   OH243257   2.590  -0.021   4.287
14439TIP3    H143258   2.539  -0.024   4.367
14439TIP3    H243259   2.611   0.072   4.275
14440TIP3   OH243260   5.255   7.498   3.387
14440TIP3    H143261   5.200   7.465   3.316
14440TIP3    H243262   5.244   7.435   3.458
14441TIP3   OH243263   5.752   0.694   3.685
14441TIP3    H143264   5.657   0.701   3.678
14441TIP3    H243265   5.781   0.781   3.713
14442TIP3   OH243266   4.623   0.086   6.601
14442TIP3    H143267   4.560   0.107   6.670
14442TIP3    H243268   4.694   0.041   6.646
14443TIP3   OH243269   0.885   4.949   2.632
14443TIP3    H143270   0.875   4.918   2.542
14443TIP3    H243271   0.801   4.928   2.674
14444TIP3   OH243272   6.439   5.083   5.552
14444TIP3    H143273   6.517   5.135   5.571
14444TIP3    H243274   6.467   4.992   5.566
14445TIP3   OH243275   1.955   7.240   2.412
14445TIP3    H143276   1.901   7.291   2.350
14445TIP3    H243277   1.894   7.214   2.480
14446TIP3   OH243278   6.698   4.269   5.397
14446TIP3    H143279   6.647   4.193   5.427
14446TIP3    H243280   6.759   4.232   5.333
14447TIP3   OH243281   1.150   6.159   3.289
14447TIP3    H143282   1.194   6.192   3.366
14447TIP3    H243283   1.192   6.075   3.270
14448TIP3   OH243284   5.951   5.553   3.532
14448TIP3    H143285   5.872   5.500   3.519
14448TIP3    H243286   6.008   5.528   3.459
14449TIP3   OH243287   1.670   1.786   0.158
14449TIP3    H143288   1.724   1.838   0.217
14449TIP3    H243289   1.630   1.719   0.213
14450TIP3   OH243290   6.528   1.318   3.319
14450TIP3    H143291   6.448   1.266   3.317
14450TIP3    H243292   6.502   1.400   3.359
14451TIP3   OH243293   5.657   5.436   1.589
14451TIP3    H143294   5.617   5.459   1.672
14451TIP3    H243295   5.749   5.460   1.599
14452TIP3   OH243296   0.811   6.549   1.096
14452TIP3    H143297   0.876   6.515   1.034
14452TIP3    H243298   0.798   6.640   1.069
14453TIP3   OH243299   4.172   7.098   1.099
14453TIP3    H143300   4.231   7.053   1.159
14453TIP3    H243301   4.226   7.117   1.022
14454TIP3   OH243302   7.631   1.839   4.695
14454TIP3    H143303   7.663   1.768   4.751
14454TIP3    H243304   7.704   1.859   4.637
14455TIP3   OH243305   5.892   2.664   2.277
14455TIP3    H143306   5.916   2.725   2.208
14455TIP3    H243307   5.918   2.707   2.358
14456TIP3   OH243308   1.660   6.875   4.120
14456TIP3    H143309   1.574   6.896   4.082
14456TIP3    H243310   1.722   6.894   4.050
14457TIP3   OH243311   2.393   6.799   6.800
14457TIP3    H143312   2.316   6.765   6.846
14457TIP3    H243313   2.360   6.829   6.716
14458TIP3   OH243314   1.174   1.452   1.241
14458TIP3    H143315   1.098   1.503   1.269
14458TIP3    H243316   1.248   1.492   1.285
14459TIP3   OH243317   3.087   7.670   4.987
14459TIP3    H143318   3.091   7.729   5.063
14459TIP3    H243319   3.015   7.704   4.934
14460TIP3   OH243320   1.436   0.899   2.569
14460TIP3    H143321   1.363   0.840   2.548
14460TIP3    H243322   1.420   0.976   2.515
14461TIP3   OH243323   7.460   2.863   4.650
14461TIP3    H143324   7.365   2.855   4.641
14461TIP3    H243325   7.472   2.921   4.726
14462TIP3   OH243326   7.612   1.850   2.948
14462TIP3    H143327   7.618   1.780   3.013
14462TIP3    H243328   7.533   1.829   2.898
14463TIP3   OH243329   6.293   1.574   1.234
14463TIP3    H143330   6.200   1.580   1.253
14463TIP3    H243331   6.300   1.587   1.140
14464TIP3   OH243332   0.441   1.645   5.847
14464TIP3    H143333   0.536   1.650   5.845
14464TIP3    H243334   0.417   1.666   5.937
14465TIP3   OH243335   3.985   5.560   1.093
14465TIP3    H143336   4.072   5.597   1.078
14465TIP3    H243337   4.001   5.477   1.138
14466TIP3   OH243338   8.077   2.344   2.160
14466TIP3    H143339   8.068   2.416   2.222
14466TIP3    H243340   8.104   2.269   2.214
14467TIP3   OH243341   4.931   4.465   3.640
14467TIP3    H143342   5.013   4.421   3.616
14467TIP3    H243343   4.893   4.491   3.556
14468TIP3   OH243344   0.785   0.460   0.969
14468TIP3    H143345   0.866   0.507   0.986
14468TIP3    H243346   0.756   0.493   0.884
14469TIP3   OH243347   2.261   4.900   1.505
14469TIP3    H143348   2.292   4.936   1.422
14469TIP3    H243349   2.178   4.859   1.484
14470TIP3   OH243350   2.975   4.929   1.390
14470TIP3    H143351   2.962   4.936   1.295
14470TIP3    H243352   2.954   4.838   1.410
14471TIP3   OH243353   0.818   5.625   4.243
14471TIP3    H143354   0.737   5.655   4.284
14471TIP3    H243355   0.796   5.615   4.150
14472TIP3   OH243356   7.937   3.852   4.173
14472TIP3    H143357   7.908   3.764   4.198
14472TIP3    H243358   7.891   3.870   4.091
14473TIP3   OH243359   6.658   4.004   5.938
14473TIP3    H143360   6.694   4.091   5.918
14473TIP3    H243361   6.564   4.020   5.952
14474TIP3   OH243362   3.625   0.716   3.902
14474TIP3    H143363   3.710   0.742   3.866
14474TIP3    H243364   3.647   0.666   3.981
14475TIP3   OH243365   5.507   5.236   3.365
14475TIP3    H143366   5.438   5.303   3.364
14475TIP3    H243367   5.474   5.168   3.306
14476TIP3   OH243368   7.906   2.126   6.762
14476TIP3    H143369   7.967   2.147   6.833
14476TIP3    H243370   7.819   2.131   6.803
14477TIP3   OH243371   7.596   7.601   2.260
14477TIP3    H143372   7.621   7.630   2.173
14477TIP3    H243373   7.526   7.537   2.245
14478TIP3   OH243374   2.489   4.674   3.510
14478TIP3    H143375   2.581   4.676   3.482
14478TIP3    H243376   2.487   4.728   3.589
14479TIP3   OH243377   2.000   0.148   1.063
14479TIP3    H143378   2.066   0.142   0.994
14479TIP3    H243379   1.985   0.057   1.088
14480TIP3   OH243380   6.922   2.022   6.647
14480TIP3    H143381   6.896   2.015   6.739
14480TIP3    H243382   6.842   2.050   6.602
14481TIP3   OH243383   3.017   3.376   2.018
14481TIP3    H143384   2.958   3.425   2.075
14481TIP3    H243385   2.999   3.410   1.930
14482TIP3   OH243386   5.584   3.509   5.860
14482TIP3    H143387   5.667   3.478   5.823
14482TIP3    H243388   5.608   3.586   5.912
14483TIP3   OH243389   8.070   3.425   6.422
14483TIP3    H143390   8.155   3.380   6.421
14483TIP3    H243391   8.029   3.402   6.339
14484TIP3   OH243392   5.500   0.964   1.821
14484TIP3    H143393   5.536   0.887   1.778
14484TIP3    H243394   5.407   0.946   1.829
14485TIP3   OH243395   7.385   4.223   2.570
14485TIP3    H143396   7.414   4.134   2.550
14485TIP3    H243397   7.297   4.229   2.532
14486TIP3   OH243398   5.636   6.475   4.495
14486TIP3    H143399   5.708   6.419   4.467
14486TIP3    H243400   5.574   6.415   4.536
14487TIP3   OH243401   3.623   2.305   5.002
14487TIP3    H143402   3.537   2.337   5.030
14487TIP3    H243403   3.606   2.259   4.920
14488TIP3   OH243404   7.324   0.890   0.671
14488TIP3    H143405   7.331   0.799   0.702
14488TIP3    H243406   7.346   0.943   0.747
14489TIP3   OH243407   8.273   0.462   0.715
14489TIP3    H143408   8.359   0.502   0.719
14489TIP3    H243409   8.288   0.371   0.742
14490TIP3   OH243410   6.355   6.188   6.326
14490TIP3    H143411   6.450   6.179   6.317
14490TIP3    H243412   6.344   6.240   6.406
14491TIP3   OH243413   4.031   6.026   1.322
14491TIP3    H143414   4.075   6.103   1.357
14491TIP3    H243415   4.040   6.034   1.227
14492TIP3   OH243416   5.571   4.191   1.756
14492TIP3    H143417   5.592   4.239   1.836
14492TIP3    H243418   5.564   4.100   1.784
14493TIP3   OH243419   5.095   0.311   2.772
14493TIP3    H143420   5.046   0.337   2.850
14493TIP3    H243421   5.032   0.322   2.700
14494TIP3   OH243422   6.511   6.381   4.576
14494TIP3    H143423   6.507   6.448   4.508
14494TIP3    H243424   6.440   6.321   4.554
14495TIP3   OH243425   1.197   7.601   6.495
14495TIP3    H143426   1.128   7.612   6.429
14495TIP3    H243427   1.206   7.688   6.534
14496TIP3   OH243428   4.374   4.603   6.012
14496TIP3    H143429   4.320   4.578   6.087
14496TIP3    H243430   4.371   4.698   6.009
14497TIP3   OH243431   1.268   4.811   6.623
14497TIP3    H143432   1.212   4.789   6.697
14497TIP3    H243433   1.219   4.877   6.575
14498TIP3   OH243434   7.963   0.972   5.040
14498TIP3    H143435   7.925   1.058   5.021
14498TIP3    H243436   7.950   0.961   5.134
14499TIP3   OH243437   7.897   1.903   1.553
14499TIP3    H143438   7.832   1.898   1.623
14499TIP3    H243439   7.982   1.902   1.598
14500TIP3   OH243440   1.273   7.539   0.545
14500TIP3    H143441   1.345   7.575   0.597
14500TIP3    H243442   1.300   7.553   0.454
14501TIP3   OH243443   3.507   1.450   2.791
14501TIP3    H143444   3.437   1.477   2.851
14501TIP3    H243445   3.471   1.374   2.746
14502TIP3   OH243446   5.657   0.116   3.701
14502TIP3    H143447   5.584   0.152   3.750
14502TIP3    H243448   5.712   0.191   3.680
14503TIP3   OH243449   3.434   1.352   0.280
14503TIP3    H143450   3.434   1.290   0.207
14503TIP3    H243451   3.461   1.435   0.242
14504TIP3   OH243452   0.081   0.628   4.199
14504TIP3    H143453   0.107   0.689   4.269
14504TIP3    H243454   0.159   0.619   4.145
14505TIP3   OH243455   2.606   0.923   2.637
14505TIP3    H143456   2.606   0.961   2.550
14505TIP3    H243457   2.697   0.899   2.654
14506TIP3   OH243458   5.349   3.121   5.613
14506TIP3    H143459   5.296   3.200   5.599
14506TIP3    H243460   5.303   3.072   5.681
14507TIP3   OH243461   1.455   4.247   6.756
14507TIP3    H143462   1.394   4.242   6.683
14507TIP3    H243463   1.532   4.197   6.726
14508TIP3   OH243464   7.957   7.754   4.384
14508TIP3    H143465   7.927   7.845   4.383
14508TIP3    H243466   7.972   7.736   4.477
14509TIP3   OH243467   3.271   3.914   2.316
14509TIP3    H143468   3.366   3.907   2.329
14509TIP3    H243469   3.242   3.975   2.384
14510TIP3   OH243470   6.782   3.577   3.356
14510TIP3    H143471   6.714   3.547   3.295
14510TIP3    H243472   6.736   3.587   3.440
14511TIP3   OH243473   1.220   5.369   5.114
14511TIP3    H143474   1.297   5.401   5.065
14511TIP3    H243475   1.253   5.354   5.202
14512TIP3   OH243476   7.847   5.970   0.332
14512TIP3    H143477   7.844   5.929   0.246
14512TIP3    H243478   7.912   6.040   0.323
14513TIP3   OH243479   8.084   4.171   0.233
14513TIP3    H143480   7.990   4.162   0.249
14513TIP3    H243481   8.125   4.122   0.304
14514TIP3   OH243482   8.019   4.680   3.921
14514TIP3    H143483   8.039   4.591   3.953
14514TIP3    H243484   7.979   4.724   3.996
14515TIP3   OH243485   8.078   2.606   0.411
14515TIP3    H143486   8.085   2.518   0.374
14515TIP3    H243487   8.160   2.648   0.386
14516TIP3   OH243488   5.066   3.866   5.791
14516TIP3    H143489   5.129   3.888   5.722
14516TIP3    H243490   4.980   3.877   5.749
14517TIP3   OH243491   7.679   0.748   4.694
14517TIP3    H143492   7.591   0.725   4.725
14517TIP3    H243493   7.674   0.738   4.599
14518TIP3   OH243494   0.740   3.800   0.373
14518TIP3    H143495   0.769   3.874   0.426
14518TIP3    H243496   0.761   3.825   0.283
14519TIP3   OH243497   6.457   5.034   0.698
14519TIP3    H143498   6.444   4.939   0.704
14519TIP3    H243499   6.454   5.064   0.789
14520TIP3   OH243500   5.889   4.147   4.621
14520TIP3    H143501   5.899   4.053   4.635
14520TIP3    H243502   5.814   4.171   4.676
14521TIP3   OH243503   7.205   4.999   6.528
14521TIP3    H143504   7.222   5.057   6.453
14521TIP3    H243505   7.285   5.005   6.581
14522TIP3   OH243506   0.457   5.076   4.243
14522TIP3    H143507   0.399   5.145   4.274
14522TIP3    H243508   0.427   5.058   4.153
14523TIP3   OH243509   1.501   4.805   4.177
14523TIP3    H143510   1.570   4.861   4.141
14523TIP3    H243511   1.495   4.733   4.114
14524TIP3   OH243512   2.410   1.215   3.277
14524TIP3    H143513   2.422   1.173   3.363
14524TIP3    H243514   2.456   1.299   3.285
14525TIP3   OH243515   1.558   3.156   5.733
14525TIP3    H143516   1.503   3.177   5.808
14525TIP3    H243517   1.555   3.235   5.678
14526TIP3   OH243518   8.060   5.871   5.479
14526TIP3    H143519   7.967   5.849   5.472
14526TIP3    H243520   8.069   5.955   5.434
14527TIP3   OH243521   5.054   6.020   1.906
14527TIP3    H143522   4.967   6.015   1.865
14527TIP3    H243523   5.037   6.060   1.992
14528TIP3   OH243524   0.436   4.262   5.730
14528TIP3    H143525   0.450   4.185   5.784
14528TIP3    H243526   0.394   4.325   5.788
14529TIP3   OH243527   5.743   1.105   1.082
14529TIP3    H143528   5.739   1.048   1.005
14529TIP3    H243529   5.728   1.046   1.156
14530TIP3   OH243530   4.602   0.805   4.015
14530TIP3    H143531   4.697   0.804   4.022
14530TIP3    H243532   4.571   0.817   4.105
14531TIP3   OH243533   7.619   7.410   4.169
14531TIP3    H143534   7.543   7.361   4.201
14531TIP3    H243535   7.690   7.346   4.168
14532TIP3   OH243536   1.737   4.137   5.424
14532TIP3    H143537   1.656   4.188   5.413
14532TIP3    H243538   1.803   4.202   5.449
14533TIP3   OH243539   7.211   0.363   2.761
14533TIP3    H143540   7.159   0.423   2.708
14533TIP3    H243541   7.275   0.420   2.805
14534TIP3   OH243542   5.049   7.596   4.044
14534TIP3    H143543   5.068   7.627   4.133
14534TIP3    H243544   5.113   7.641   3.989
14535TIP3   OH243545   2.307   0.167   2.492
14535TIP3    H143546   2.277   0.076   2.497
14535TIP3    H243547   2.253   0.214   2.555
14536TIP3   OH243548   4.448   5.759   2.732
14536TIP3    H143549   4.409   5.821   2.670
14536TIP3    H243550   4.542   5.777   2.727
14537TIP3   OH243551   7.296   1.323   1.873
14537TIP3    H143552   7.254   1.267   1.938
14537TIP3    H243553   7.387   1.330   1.903
14538TIP3   OH243554   4.389   1.522   5.146
14538TIP3    H143555   4.395   1.475   5.229
14538TIP3    H243556   4.382   1.615   5.171
14539TIP3   OH243557   1.913   1.299   5.893
14539TIP3    H143558   1.897   1.220   5.944
14539TIP3    H243559   1.826   1.327   5.864
14540TIP3   OH243560   0.059   5.980   3.146
14540TIP3    H143561   0.063   6.008   3.237
14540TIP3    H243562   0.146   5.944   3.128
14541TIP3   OH243563   0.662   2.906   2.405
14541TIP3    H143564   0.576   2.930   2.371
14541TIP3    H243565   0.721   2.919   2.331
14542TIP3   OH243566   4.371   7.334   1.021
14542TIP3    H143567   4.464   7.354   1.028
14542TIP3    H243568   4.333   7.364   1.103
14543TIP3   OH243569   4.098   4.715   1.376
14543TIP3    H143570   4.022   4.722   1.434
14543TIP3    H243571   4.086   4.631   1.332
14544TIP3   OH243572   6.508   7.141   5.923
14544TIP3    H143573   6.453   7.116   5.848
14544TIP3    H243574   6.587   7.178   5.884
14545TIP3   OH243575   6.231   4.693   2.295
14545TIP3    H143576   6.281   4.714   2.374
14545TIP3    H243577   6.254   4.602   2.276
14546TIP3   OH243578   2.899   5.972   5.646
14546TIP3    H143579   2.863   6.061   5.651
14546TIP3    H243580   2.956   5.974   5.570
14547TIP3   OH243581   3.059   6.467   3.892
14547TIP3    H143582   3.137   6.521   3.880
14547TIP3    H243583   3.053   6.415   3.811
14548TIP3   OH243584   6.294   0.432   4.509
14548TIP3    H143585   6.228   0.403   4.446
14548TIP3    H243586   6.378   0.416   4.466
14549TIP3   OH243587   2.917   6.118   5.056
14549TIP3    H143588   2.924   6.077   5.143
14549TIP3    H243589   3.006   6.115   5.021
14550TIP3   OH243590   3.238   0.459   2.190
14550TIP3    H143591   3.254   0.426   2.278
14550TIP3    H243592   3.143   0.470   2.185
14551TIP3   OH243593   2.563   5.864   5.896
14551TIP3    H143594   2.471   5.838   5.888
14551TIP3    H243595   2.559   5.956   5.922
14552TIP3   OH243596   8.137   7.454   2.959
14552TIP3    H143597   8.170   7.405   2.884
14552TIP3    H243598   8.050   7.484   2.932
14553TIP3   OH243599   4.909   6.702   0.903
14553TIP3    H143600   4.958   6.620   0.901
14553TIP3    H243601   4.844   6.689   0.972
14554TIP3   OH243602   4.933   1.404   2.246
14554TIP3    H143603   5.010   1.459   2.232
14554TIP3    H243604   4.965   1.315   2.241
14555TIP3   OH243605   8.313   7.674   4.535
14555TIP3    H143606   8.303   7.582   4.560
14555TIP3    H243607   8.230   7.715   4.561
14556TIP3   OH243608   7.775   5.483   5.953
14556TIP3    H143609   7.826   5.475   5.873
14556TIP3    H243610   7.719   5.559   5.939
14557TIP3   OH243611   3.632   1.672   6.797
14557TIP3    H143612   3.657   1.700   6.709
14557TIP3    H243613   3.556   1.726   6.819
14558TIP3   OH243614   4.866   5.508  -0.002
14558TIP3    H143615   4.918   5.561  -0.063
14558TIP3    H243616   4.775   5.531  -0.021
14559TIP3   OH243617   1.452   2.553   6.439
14559TIP3    H143618   1.543   2.551   6.469
14559TIP3    H243619   1.401   2.570   6.518
14560TIP3   OH243620   1.345   1.010   3.246
14560TIP3    H143621   1.436   1.036   3.229
14560TIP3    H243622   1.302   1.091   3.274
14561TIP3   OH243623   5.615   7.492   0.473
14561TIP3    H143624   5.627   7.545   0.552
14561TIP3    H243625   5.704   7.473   0.443
14562TIP3   OH243626   5.483   2.624   4.553
14562TIP3    H143627   5.407   2.568   4.538
14562TIP3    H243628   5.455   2.710   4.521
14563TIP3   OH243629   7.530   7.573   1.828
14563TIP3    H143630   7.607   7.603   1.876
14563TIP3    H243631   7.458   7.581   1.891
14564TIP3   OH243632   5.269   4.956   0.539
14564TIP3    H143633   5.267   5.011   0.617
14564TIP3    H243634   5.189   4.978   0.492
14565TIP3   OH243635   7.527   5.680   3.358
14565TIP3    H143636   7.563   5.603   3.403
14565TIP3    H243637   7.457   5.709   3.415
14566TIP3   OH243638   1.353   6.142   3.557
14566TIP3    H143639   1.381   6.054   3.581
14566TIP3    H243640   1.421   6.199   3.593
14567TIP3   OH243641   7.839   7.134   4.176
14567TIP3    H143642   7.910   7.083   4.214
14567TIP3    H243643   7.759   7.091   4.206
14568TIP3   OH243644   5.173   6.763   6.168
14568TIP3    H143645   5.146   6.759   6.077
14568TIP3    H243646   5.268   6.747   6.166
14569TIP3   OH243647   3.731   3.438   4.474
14569TIP3    H143648   3.812   3.404   4.513
14569TIP3    H243649   3.723   3.393   4.390
14570TIP3   OH243650   4.024   1.824   5.720
14570TIP3    H143651   4.003   1.870   5.800
14570TIP3    H243652   4.117   1.802   5.728
14571TIP3   OH243653   5.819   4.668   5.208
14571TIP3    H143654   5.733   4.637   5.236
14571TIP3    H243655   5.829   4.752   5.252
14572TIP3   OH243656   1.964   0.877   0.298
14572TIP3    H143657   1.914   0.816   0.244
14572TIP3    H243658   1.925   0.868   0.386
14573TIP3   OH243659   1.858   5.693   6.010
14573TIP3    H143660   1.881   5.602   6.029
14573TIP3    H243661   1.764   5.697   6.023
14574TIP3   OH243662   7.321   5.848   4.407
14574TIP3    H143663   7.337   5.931   4.453
14574TIP3    H243664   7.311   5.873   4.315
14575TIP3   OH243665   6.819   0.483   2.162
14575TIP3    H143666   6.836   0.577   2.170
14575TIP3    H243667   6.749   0.467   2.225
14576TIP3   OH243668   6.572   3.338   6.594
14576TIP3    H143669   6.551   3.354   6.686
14576TIP3    H243670   6.667   3.341   6.590
14577TIP3   OH243671   2.195   3.506   4.310
14577TIP3    H143672   2.174   3.552   4.228
14577TIP3    H243673   2.289   3.518   4.321
14578TIP3   OH243674   4.432   1.902   3.810
14578TIP3    H143675   4.397   1.827   3.859
14578TIP3    H243676   4.508   1.931   3.861
14579TIP3   OH243677   7.374   5.461   6.698
14579TIP3    H143678   7.286   5.444   6.665
14579TIP3    H243679   7.393   5.551   6.669
14580TIP3   OH243680   0.880   1.728   3.876
14580TIP3    H143681   0.967   1.766   3.887
14580TIP3    H243682   0.840   1.779   3.805
14581TIP3   OH243683   2.536   2.092   3.949
14581TIP3    H143684   2.600   2.136   3.893
14581TIP3    H243685   2.474   2.160   3.973
14582TIP3   OH243686   0.150   2.960   3.031
14582TIP3    H143687   0.209   2.887   3.011
14582TIP3    H243688   0.069   2.939   2.985
14583TIP3   OH243689   0.397   5.312   0.976
14583TIP3    H143690   0.369   5.264   1.054
14583TIP3    H243691   0.322   5.309   0.917
14584TIP3   OH243692   7.507   3.191   2.491
14584TIP3    H143693   7.451   3.235   2.427
14584TIP3    H243694   7.592   3.185   2.447
14585TIP3   OH243695   2.182   1.734   3.529
14585TIP3    H143696   2.091   1.722   3.554
14585TIP3    H243697   2.196   1.673   3.457
14586TIP3   OH243698   1.965   4.845   5.147
14586TIP3    H143699   2.026   4.846   5.073
14586TIP3    H243700   1.894   4.903   5.121
14587TIP3   OH243701   4.477   5.210   6.010
14587TIP3    H143702   4.450   5.285   5.957
14587TIP3    H243703   4.534   5.160   5.952
14588TIP3   OH243704   6.545   7.676   5.220
14588TIP3    H143705   6.554   7.766   5.252
14588TIP3    H243706   6.469   7.641   5.266
14589TIP3   OH243707   6.809   5.228   4.482
14589TIP3    H143708   6.823   5.259   4.572
14589TIP3    H243709   6.755   5.150   4.492
14590TIP3   OH243710   2.133   1.756   1.005
14590TIP3    H143711   2.141   1.686   0.940
14590TIP3    H243712   2.176   1.722   1.083
14591TIP3   OH243713   3.342   5.896   3.802
14591TIP3    H143714   3.330   5.925   3.892
14591TIP3    H243715   3.255   5.870   3.773
14592TIP3   OH243716   4.870   0.996   4.349
14592TIP3    H143717   4.839   0.970   4.262
14592TIP3    H243718   4.793   0.991   4.405
14593TIP3   OH243719   5.474   3.788   5.352
14593TIP3    H143720   5.458   3.838   5.271
14593TIP3    H243721   5.558   3.745   5.337
14594TIP3   OH243722   4.350   7.149   1.333
14594TIP3    H143723   4.443   7.148   1.313
14594TIP3    H243724   4.320   7.235   1.304
14595TIP3   OH243725   1.194   1.531   6.501
14595TIP3    H143726   1.270   1.514   6.556
14595TIP3    H243727   1.128   1.566   6.561
14596TIP3   OH243728   2.460   3.471   3.955
14596TIP3    H143729   2.448   3.470   3.860
14596TIP3    H243730   2.398   3.537   3.986
14597TIP3   OH243731   3.417   4.503   6.857
14597TIP3    H143732   3.420   4.599   6.860
14597TIP3    H243733   3.380   4.484   6.771
14598TIP3   OH243734   0.715   7.584   0.864
14598TIP3    H143735   0.742   7.663   0.817
14598TIP3    H243736   0.628   7.564   0.829
14599TIP3   OH243737   5.993   1.255   2.938
14599TIP3    H143738   6.018   1.237   3.029
14599TIP3    H243739   5.899   1.239   2.936
14600TIP3   OH243740   5.080   1.698   1.781
14600TIP3    H143741   5.086   1.775   1.726
14600TIP3    H243742   5.033   1.633   1.728
14601TIP3   OH243743   6.041   0.758   0.722
14601TIP3    H143744   6.025   0.785   0.632
14601TIP3    H243745   6.086   0.832   0.762
14602TIP3   OH243746   2.032   5.730   4.407
14602TIP3    H143747   2.117   5.692   4.385
14602TIP3    H243748   2.045   5.769   4.494
14603TIP3   OH243749   3.965   3.043   6.604
14603TIP3    H143750   3.928   2.971   6.552
14603TIP3    H243751   3.889   3.093   6.633
14604TIP3   OH243752   3.969   1.988   2.731
14604TIP3    H143753   3.966   1.921   2.799
14604TIP3    H243754   4.039   2.047   2.758
14605TIP3   OH243755   3.200   4.787   1.756
14605TIP3    H143756   3.179   4.822   1.843
14605TIP3    H243757   3.120   4.799   1.705
14606TIP3   OH243758   4.348   6.041   4.432
14606TIP3    H143759   4.254   6.059   4.425
14606TIP3    H243760   4.389   6.110   4.380
14607TIP3   OH243761   2.464   0.859   4.204
14607TIP3    H143762   2.485   0.891   4.292
14607TIP3    H243763   2.420   0.933   4.162
14608TIP3   OH243764   0.739   4.270   3.105
14608TIP3    H143765   0.814   4.280   3.046
14608TIP3    H243766   0.710   4.180   3.091
14609TIP3   OH243767   7.741   3.455   2.538
14609TIP3    H143768   7.833   3.433   2.546
14609TIP3    H243769   7.697   3.399   2.602
14610TIP3   OH243770   0.722   0.839   4.192
14610TIP3    H143771   0.702   0.849   4.285
14610TIP3    H243772   0.653   0.888   4.147
14611TIP3   OH243773   1.514   5.294   3.867
14611TIP3    H143774   1.528   5.282   3.961
14611TIP3    H243775   1.578   5.361   3.842
14612TIP3   OH243776   3.597   6.751   5.040
14612TIP3    H143777   3.569   6.745   4.948
14612TIP3    H243778   3.539   6.689   5.085
14613TIP3   OH243779   1.327   7.610   6.087
14613TIP3    H143780   1.321   7.706   6.090
14613TIP3    H243781   1.238   7.580   6.068
14614TIP3   OH243782   3.421   4.326   2.762
14614TIP3    H143783   3.499   4.377   2.785
14614TIP3    H243784   3.450   4.235   2.762
14615TIP3   OH243785   4.677   3.839   5.969
14615TIP3    H143786   4.657   3.753   6.008
14615TIP3    H243787   4.662   3.901   6.040
14616TIP3   OH243788   7.589   4.210   0.764
14616TIP3    H143789   7.634   4.270   0.823
14616TIP3    H243790   7.654   4.144   0.743
14617TIP3   OH243791   5.177   2.405   5.508
14617TIP3    H143792   5.259   2.450   5.526
14617TIP3    H243793   5.165   2.414   5.414
14618TIP3   OH243794   1.766   4.646   4.082
14618TIP3    H143795   1.840   4.586   4.070
14618TIP3    H243796   1.807   4.731   4.098
14619TIP3   OH243797   5.716   3.185   3.363
14619TIP3    H143798   5.641   3.245   3.360
14619TIP3    H243799   5.753   3.198   3.450
14620TIP3   OH243800   6.067   4.764   4.461
14620TIP3    H143801   6.134   4.832   4.450
14620TIP3    H243802   6.083   4.703   4.389
14621TIP3   OH243803   7.406   2.190   3.478
14621TIP3    H143804   7.382   2.239   3.556
14621TIP3    H243805   7.383   2.248   3.405
14622TIP3   OH243806   1.180   1.653   0.681
14622TIP3    H143807   1.224   1.596   0.744
14622TIP3    H243808   1.245   1.721   0.662
14623TIP3   OH243809   6.953   5.239   4.716
14623TIP3    H143810   6.992   5.326   4.704
14623TIP3    H243811   6.969   5.218   4.808
14624TIP3   OH243812   2.411   7.732   6.271
14624TIP3    H143813   2.428   7.753   6.363
14624TIP3    H243814   2.405   7.637   6.269
14625TIP3   OH243815   6.900   3.248   6.113
14625TIP3    H143816   6.926   3.167   6.070
14625TIP3    H243817   6.809   3.233   6.140
14626TIP3   OH243818   5.573   7.318   4.567
14626TIP3    H143819   5.576   7.413   4.575
14626TIP3    H243820   5.656   7.288   4.605
14627TIP3   OH243821   0.682   5.050   3.170
14627TIP3    H143822   0.761   5.085   3.128
14627TIP3    H243823   0.714   4.986   3.234
14628TIP3   OH243824   6.791   1.638   4.696
14628TIP3    H143825   6.700   1.669   4.698
14628TIP3    H243826   6.823   1.654   4.785
14629TIP3   OH243827   6.558   4.541   2.610
14629TIP3    H143828   6.609   4.592   2.547
14629TIP3    H243829   6.470   4.580   2.608
14630TIP3   OH243830   2.551   2.951   0.987
14630TIP3    H143831   2.606   2.966   0.910
14630TIP3    H243832   2.610   2.966   1.061
14631TIP3   OH243833   7.935   6.568   4.141
14631TIP3    H143834   7.978   6.502   4.195
14631TIP3    H243835   8.007   6.610   4.094
14632TIP3   OH243836   5.948   5.508   5.065
14632TIP3    H143837   5.881   5.569   5.033
14632TIP3    H243838   6.030   5.541   5.029
14633TIP3   OH243839   0.327   2.085   3.760
14633TIP3    H143840   0.393   2.152   3.742
14633TIP3    H243841   0.345   2.016   3.696
14634TIP3   OH243842   6.609   6.615   0.295
14634TIP3    H143843   6.525   6.598   0.253
14634TIP3    H243844   6.667   6.546   0.264
14635TIP3   OH243845   8.190   0.742   1.475
14635TIP3    H143846   8.097   0.762   1.480
14635TIP3    H243847   8.223   0.798   1.405
14636TIP3   OH243848   2.332   3.120   2.456
14636TIP3    H143849   2.336   3.213   2.478
14636TIP3    H243850   2.382   3.077   2.526
14637TIP3   OH243851   2.645   0.908   2.987
14637TIP3    H143852   2.658   0.899   2.892
14637TIP3    H243853   2.577   0.975   2.995
14638TIP3   OH243854   3.709   7.730   3.353
14638TIP3    H143855   3.798   7.763   3.352
14638TIP3    H243856   3.717   7.640   3.386
14639TIP3   OH243857   7.760   2.945   6.412
14639TIP3    H143858   7.759   2.879   6.481
14639TIP3    H243859   7.812   2.906   6.342
14640TIP3   OH243860   5.368   4.083   1.044
14640TIP3    H143861   5.418   4.023   1.100
14640TIP3    H243862   5.433   4.121   0.985
14641TIP3   OH243863   2.101   4.096   6.234
14641TIP3    H143864   2.091   4.008   6.198
14641TIP3    H243865   2.085   4.154   6.160
14642TIP3   OH243866   7.821   1.574   5.068
14642TIP3    H143867   7.787   1.657   5.103
14642TIP3    H243868   7.758   1.549   5.001
14643TIP3   OH243869   0.332   3.959   2.330
14643TIP3    H143870   0.306   3.990   2.417
14643TIP3    H243871   0.420   3.994   2.317
14644TIP3   OH243872   2.620   3.078   6.290
14644TIP3    H143873   2.570   3.143   6.239
14644TIP3    H243874   2.654   3.018   6.224
14645TIP3   OH243875   1.128   4.179   2.141
14645TIP3    H143876   1.184   4.181   2.219
14645TIP3    H243877   1.112   4.272   2.121
14646TIP3   OH243878   0.221   1.739   6.082
14646TIP3    H143879   0.275   1.802   6.131
14646TIP3    H243880   0.135   1.781   6.079
14647TIP3   OH243881   6.438   3.027   0.214
14647TIP3    H143882   6.372   3.095   0.200
14647TIP3    H243883   6.508   3.048   0.153
14648TIP3   OH243884   1.880   2.079   0.660
14648TIP3    H143885   1.974   2.067   0.668
14648TIP3    H243886   1.854   2.125   0.740
14649TIP3   OH243887   0.614   1.343   2.761
14649TIP3    H143888   0.548   1.311   2.822
14649TIP3    H243889   0.565   1.365   2.681
14650TIP3   OH243890   0.569   5.577   2.704
14650TIP3    H143891   0.539   5.664   2.730
14650TIP3    H243892   0.625   5.592   2.628
14651TIP3   OH243893   4.767   2.154   3.547
14651TIP3    H143894   4.806   2.146   3.460
14651TIP3    H243895   4.796   2.076   3.594
14652TIP3   OH243896   1.298   2.629   1.316
14652TIP3    H143897   1.303   2.708   1.370
14652TIP3    H243898   1.365   2.641   1.249
14653TIP3   OH243899   1.485   3.765   2.765
14653TIP3    H143900   1.459   3.776   2.856
14653TIP3    H243901   1.423   3.818   2.716
14654TIP3   OH243902   1.918   1.929   6.081
14654TIP3    H143903   1.928   1.965   5.993
14654TIP3    H243904   1.989   1.970   6.131
14655TIP3   OH243905   5.965   1.809   3.181
14655TIP3    H143906   6.046   1.770   3.151
14655TIP3    H243907   5.897   1.749   3.151
14656TIP3   OH243908   6.718   0.448   5.564
14656TIP3    H143909   6.638   0.499   5.552
14656TIP3    H243910   6.709   0.375   5.503
14657TIP3   OH243911   6.126   7.770   4.461
14657TIP3    H143912   6.035   7.801   4.469
14657TIP3    H243913   6.123   7.706   4.390
14658TIP3   OH243914   2.618   5.257   2.070
14658TIP3    H143915   2.635   5.175   2.024
14658TIP3    H243916   2.536   5.290   2.031
14659TIP3   OH243917   2.456   4.407   1.019
14659TIP3    H143918   2.386   4.370   0.964
14659TIP3    H243919   2.529   4.347   1.007
14660TIP3   OH243920   6.341   7.254   2.787
14660TIP3    H143921   6.261   7.289   2.748
14660TIP3    H243922   6.393   7.224   2.712
14661TIP3   OH243923   5.824   6.142   6.731
14661TIP3    H143924   5.746   6.195   6.720
14661TIP3    H243925   5.807   6.092   6.811
14662TIP3   OH243926   3.695   3.831   3.442
14662TIP3    H143927   3.739   3.910   3.411
14662TIP3    H243928   3.628   3.813   3.376
14663TIP3   OH243929   4.477   4.030   1.326
14663TIP3    H143930   4.491   3.991   1.412
14663TIP3    H243931   4.503   3.962   1.264
14664TIP3   OH243932   5.961   1.855   2.193
14664TIP3    H143933   5.983   1.938   2.234
14664TIP3    H243934   5.961   1.792   2.265
14665TIP3   OH243935   4.366   3.580   1.321
14665TIP3    H143936   4.342   3.510   1.382
14665TIP3    H243937   4.445   3.618   1.358
14666TIP3   OH243938   2.625   4.211   4.853
14666TIP3    H143939   2.561   4.166   4.907
14666TIP3    H243940   2.671   4.269   4.914
14667TIP3   OH243941   7.620   4.206   1.801
14667TIP3    H143942   7.527   4.200   1.823
14667TIP3    H243943   7.655   4.273   1.860
14668TIP3   OH243944   0.622   4.369   1.080
14668TIP3    H143945   0.711   4.396   1.060
14668TIP3    H243946   0.629   4.275   1.101
14669TIP3   OH243947   4.313   0.090   4.475
14669TIP3    H143948   4.300   0.035   4.399
14669TIP3    H243949   4.225   0.123   4.496
14670TIP3   OH243950   0.797   1.496   0.065
14670TIP3    H143951   0.741   1.499   0.142
14670TIP3    H243952   0.761   1.425   0.012
14671TIP3   OH243953   1.378   7.888   0.571
14671TIP3    H143954   1.355   7.935   0.651
14671TIP3    H243955   1.437   7.947   0.525
14672TIP3   OH243956   6.406   4.299   6.647
14672TIP3    H143957   6.356   4.263   6.720
14672TIP3    H243958   6.340   4.328   6.584
14673TIP3   OH243959   5.743   1.855   4.229
14673TIP3    H143960   5.652   1.865   4.258
14673TIP3    H243961   5.738   1.858   4.134
14674TIP3   OH243962   4.426   4.652   3.217
14674TIP3    H143963   4.374   4.721   3.174
14674TIP3    H243964   4.477   4.613   3.146
14675TIP3   OH243965   4.361   3.818   5.328
14675TIP3    H143966   4.357   3.737   5.379
14675TIP3    H243967   4.451   3.849   5.339
14676TIP3   OH243968   4.545   4.626   1.507
14676TIP3    H143969   4.453   4.637   1.533
14676TIP3    H243970   4.540   4.591   1.418
14677TIP3   OH243971  -0.039   3.562   5.949
14677TIP3    H143972   0.035   3.517   5.910
14677TIP3    H243973  -0.048   3.642   5.897
14678TIP3   OH243974   7.567   2.524   4.530
14678TIP3    H143975   7.560   2.618   4.550
14678TIP3    H243976   7.506   2.510   4.457
14679TIP3   OH243977   6.766   2.774   4.971
14679TIP3    H143978   6.793   2.760   4.880
14679TIP3    H243979   6.762   2.686   5.008
14680TIP3   OH243980   1.669   4.459   0.197
14680TIP3    H143981   1.764   4.444   0.190
14680TIP3    H243982   1.642   4.477   0.107
14681TIP3   OH243983   7.533   2.163   1.216
14681TIP3    H143984   7.542   2.253   1.186
14681TIP3    H243985   7.601   2.115   1.168
14682TIP3   OH243986   7.906  -0.078   4.869
14682TIP3    H143987   7.948  -0.032   4.797
14682TIP3    H243988   7.820  -0.037   4.877
14683TIP3   OH243989   6.997   6.384   6.724
14683TIP3    H143990   7.047   6.413   6.647
14683TIP3    H243991   7.013   6.290   6.728
14684TIP3   OH243992   6.272   5.457   0.453
14684TIP3    H143993   6.251   5.515   0.526
14684TIP3    H243994   6.297   5.374   0.494
14685TIP3   OH243995   3.769   0.731   4.169
14685TIP3    H143996   3.772   0.825   4.188
14685TIP3    H243997   3.676   0.708   4.176
14686TIP3   OH243998   4.163   6.708   3.414
14686TIP3    H143999   4.070   6.729   3.403
14686TIP3    H244000   4.194   6.692   3.325
14687TIP3   OH244001   3.919   7.105   4.811
14687TIP3    H144002   4.013   7.101   4.828
14687TIP3    H244003   3.890   7.185   4.854
14688TIP3   OH244004   7.651   3.900   5.603
14688TIP3    H144005   7.692   3.979   5.567
14688TIP3    H244006   7.714   3.869   5.669
14689TIP3   OH244007   2.877   5.807   2.039
14689TIP3    H144008   2.852   5.789   1.949
14689TIP3    H244009   2.906   5.722   2.073
14690TIP3   OH244010   1.208   5.013   6.423
14690TIP3    H144011   1.274   5.052   6.481
14690TIP3    H244012   1.258   4.987   6.345
14691TIP3   OH244013   1.224   1.972   1.369
14691TIP3    H144014   1.286   1.945   1.437
14691TIP3    H244015   1.272   2.037   1.318
14692TIP3   OH244016   4.113   3.426   6.220
14692TIP3    H144017   4.030   3.403   6.177
14692TIP3    H244018   4.147   3.343   6.252
14693TIP3   OH244019   1.367   5.846   3.533
14693TIP3    H144020   1.354   5.751   3.528
14693TIP3    H244021   1.329   5.871   3.617
14694TIP3   OH244022   2.515   1.768   5.892
14694TIP3    H144023   2.507   1.728   5.978
14694TIP3    H244024   2.429   1.758   5.852
14695TIP3   OH244025   7.348   4.192   1.072
14695TIP3    H144026   7.389   4.111   1.100
14695TIP3    H244027   7.257   4.185   1.103
14696TIP3   OH244028   3.490   4.898   3.155
14696TIP3    H144029   3.583   4.905   3.180
14696TIP3    H244030   3.486   4.932   3.066
14697TIP3   OH244031   6.800   4.709   2.009
14697TIP3    H144032   6.876   4.657   1.986
14697TIP3    H244033   6.787   4.767   1.933
14698TIP3   OH244034   7.932   5.482   2.384
14698TIP3    H144035   7.929   5.524   2.470
14698TIP3    H244036   8.011   5.517   2.343
14699TIP3   OH244037   6.592   7.081   3.805
14699TIP3    H144038   6.528   7.110   3.740
14699TIP3    H244039   6.654   7.027   3.757
14700TIP3   OH244040   0.187   0.198   2.128
14700TIP3    H144041   0.239   0.272   2.096
14700TIP3    H244042   0.242   0.156   2.194
14701TIP3   OH244043   1.085   4.571   3.903
14701TIP3    H144044   1.120   4.526   3.826
14701TIP3    H244045   1.089   4.664   3.881
14702TIP3   OH244046   2.457   3.942   1.945
14702TIP3    H144047   2.385   4.003   1.957
14702TIP3    H244048   2.440   3.900   1.861
14703TIP3   OH244049   3.287   4.251   5.558
14703TIP3    H144050   3.355   4.317   5.572
14703TIP3    H244051   3.209   4.302   5.533
14704TIP3   OH244052   8.289   7.012   0.671
14704TIP3    H144053   8.247   7.076   0.614
14704TIP3    H244054   8.285   6.930   0.622
14705TIP3   OH244055   7.856   2.145   0.461
14705TIP3    H144056   7.949   2.157   0.483
14705TIP3    H244057   7.809   2.193   0.529
14706TIP3   OH244058   5.262   5.872   0.340
14706TIP3    H144059   5.235   5.818   0.415
14706TIP3    H244060   5.265   5.961   0.374
14707TIP3   OH244061   5.547   6.918   5.356
14707TIP3    H144062   5.642   6.926   5.364
14707TIP3    H244063   5.527   6.957   5.271
14708TIP3   OH244064   4.909   2.463   6.669
14708TIP3    H144065   4.821   2.468   6.705
14708TIP3    H244066   4.914   2.377   6.629
14709TIP3   OH244067   0.479   2.275   5.437
14709TIP3    H144068   0.406   2.258   5.377
14709TIP3    H244069   0.437   2.314   5.514
14710TIP3   OH244070   4.017   7.389   5.479
14710TIP3    H144071   4.074   7.415   5.407
14710TIP3    H244072   4.066   7.321   5.525
14711TIP3   OH244073   5.593   2.635   0.491
14711TIP3    H144074   5.586   2.545   0.460
14711TIP3    H244075   5.671   2.635   0.547
14712TIP3   OH244076   4.852   0.748   0.184
14712TIP3    H144077   4.866   0.661   0.145
14712TIP3    H244078   4.804   0.797   0.117
14713TIP3   OH244079   4.017   2.238   3.877
14713TIP3    H144080   4.032   2.295   3.952
14713TIP3    H244081   4.070   2.161   3.895
14714TIP3   OH244082   7.011   0.826   2.398
14714TIP3    H144083   7.035   0.917   2.413
14714TIP3    H244084   6.997   0.790   2.486
14715TIP3   OH244085   3.417   3.602   4.436
14715TIP3    H144086   3.419   3.507   4.450
14715TIP3    H244087   3.469   3.615   4.356
14716TIP3   OH244088   6.436   2.503   1.253
14716TIP3    H144089   6.493   2.428   1.269
14716TIP3    H244090   6.415   2.535   1.341
14717TIP3   OH244091   5.691   4.000   2.669
14717TIP3    H144092   5.638   3.923   2.687
14717TIP3    H244093   5.780   3.973   2.692
14718TIP3   OH244094   5.498   3.524   1.032
14718TIP3    H144095   5.587   3.551   1.010
14718TIP3    H244096   5.461   3.598   1.079
14719TIP3   OH244097   5.987   7.759   6.227
14719TIP3    H144098   5.979   7.691   6.294
14719TIP3    H244099   5.950   7.720   6.148
14720TIP3   OH244100   2.517   2.645   2.894
14720TIP3    H144101   2.426   2.641   2.865
14720TIP3    H244102   2.515   2.703   2.971
14721TIP3   OH244103   6.786   6.189   4.834
14721TIP3    H144104   6.861   6.138   4.803
14721TIP3    H244105   6.717   6.171   4.770
14722TIP3   OH244106   7.696   4.343   6.417
14722TIP3    H144107   7.747   4.421   6.439
14722TIP3    H244108   7.607   4.374   6.405
14723TIP3   OH244109   4.321   1.731   1.604
14723TIP3    H144110   4.329   1.728   1.700
14723TIP3    H244111   4.407   1.760   1.574
14724TIP3   OH244112   1.935   3.349   4.838
14724TIP3    H144113   1.976   3.301   4.766
14724TIP3    H244114   1.909   3.281   4.901
14725TIP3   OH244115   7.976   6.501   0.310
14725TIP3    H144116   7.910   6.520   0.378
14725TIP3    H244117   7.942   6.544   0.231
14726TIP3   OH244118   3.444   4.868   3.782
14726TIP3    H144119   3.360   4.822   3.787
14726TIP3    H244120   3.509   4.797   3.785
14727TIP3   OH244121   6.066   6.963   1.861
14727TIP3    H144122   6.090   6.940   1.772
14727TIP3    H244123   6.109   6.897   1.915
14728TIP3   OH244124   3.226   4.985   0.636
14728TIP3    H144125   3.245   5.021   0.550
14728TIP3    H244126   3.303   5.004   0.688
14729TIP3   OH244127   6.599   4.311   4.881
14729TIP3    H144128   6.618   4.404   4.867
14729TIP3    H244129   6.540   4.288   4.809
14730TIP3   OH244130   3.251   1.231   4.583
14730TIP3    H144131   3.236   1.296   4.652
14730TIP3    H244132   3.255   1.148   4.630
14731TIP3   OH244133   8.123   4.101   3.586
14731TIP3    H144134   8.112   4.054   3.668
14731TIP3    H244135   8.071   4.180   3.595
14732TIP3   OH244136   7.525   4.899   6.549
14732TIP3    H144137   7.487   4.850   6.475
14732TIP3    H244138   7.532   4.989   6.517
14733TIP3   OH244139   2.034   4.329   0.516
14733TIP3    H144140   2.022   4.381   0.596
14733TIP3    H244141   1.996   4.382   0.447
14734TIP3   OH244142   1.400   0.866   4.592
14734TIP3    H144143   1.493   0.846   4.583
14734TIP3    H244144   1.366   0.864   4.502
14735TIP3   OH244145   0.866   3.638   5.471
14735TIP3    H144146   0.882   3.728   5.444
14735TIP3    H244147   0.841   3.593   5.391
14736TIP3   OH244148   7.997   3.529   5.116
14736TIP3    H144149   8.063   3.554   5.051
14736TIP3    H244150   8.040   3.544   5.200
14737TIP3   OH244151   3.559   0.330   1.561
14737TIP3    H144152   3.523   0.289   1.640
14737TIP3    H244153   3.558   0.424   1.581
14738TIP3   OH244154   4.927   1.807   4.715
14738TIP3    H144155   4.902   1.719   4.687
14738TIP3    H244156   4.847   1.846   4.750
14739TIP3   OH244157   0.119   6.463   0.730
14739TIP3    H144158   0.159   6.413   0.801
14739TIP3    H244159   0.165   6.547   0.732
14740TIP3   OH244160   6.810   5.954   1.278
14740TIP3    H144161   6.817   5.955   1.374
14740TIP3    H244162   6.723   5.919   1.261
14741TIP3   OH244163   0.539   1.798   1.996
14741TIP3    H144164   0.459   1.753   2.022
14741TIP3    H244165   0.515   1.846   1.916
14742TIP3   OH244166   5.966   3.244   2.744
14742TIP3    H144167   5.990   3.227   2.835
14742TIP3    H244168   6.019   3.183   2.693
14743TIP3   OH244169   2.406   0.465   5.837
14743TIP3    H144170   2.465   0.478   5.763
14743TIP3    H244171   2.397   0.552   5.877
14744TIP3   OH244172   8.150   2.294   2.734
14744TIP3    H144173   8.198   2.216   2.705
14744TIP3    H244174   8.063   2.261   2.757
14745TIP3   OH244175   7.287   7.757   5.890
14745TIP3    H144176   7.312   7.719   5.806
14745TIP3    H244177   7.328   7.843   5.891
14746TIP3   OH244178   6.458   0.324   2.149
14746TIP3    H144179   6.398   0.272   2.202
14746TIP3    H244180   6.406   0.398   2.118
14747TIP3   OH244181   8.067   5.011   6.163
14747TIP3    H144182   7.999   5.069   6.197
14747TIP3    H244183   8.020   4.934   6.133
14748TIP3   OH244184   7.796   2.373   4.613
14748TIP3    H144185   7.719   2.423   4.585
14748TIP3    H244186   7.805   2.304   4.547
14749TIP3   OH244187   4.647   4.200   2.045
14749TIP3    H144188   4.700   4.169   1.971
14749TIP3    H244189   4.691   4.163   2.122
14750TIP3   OH244190   4.259   3.729   6.560
14750TIP3    H144191   4.242   3.723   6.465
14750TIP3    H244192   4.350   3.702   6.570
14751TIP3   OH244193   6.376   5.264   3.124
14751TIP3    H144194   6.363   5.183   3.173
14751TIP3    H244195   6.335   5.331   3.178
14752TIP3   OH244196   1.395   0.648   1.069
14752TIP3    H144197   1.346   0.583   1.119
14752TIP3    H244198   1.373   0.630   0.977
14753TIP3   OH244199   0.834   1.426   4.079
14753TIP3    H144200   0.745   1.392   4.080
14753TIP3    H244201   0.882   1.364   4.023
14754TIP3   OH244202   3.521   3.624   1.402
14754TIP3    H144203   3.470   3.702   1.422
14754TIP3    H244204   3.601   3.656   1.360
14755TIP3   OH244205   7.843   3.577   2.062
14755TIP3    H144206   7.768   3.621   2.102
14755TIP3    H244207   7.805   3.508   2.008
14756TIP3   OH244208   7.397   6.499   3.346
14756TIP3    H144209   7.479   6.449   3.352
14756TIP3    H244210   7.422   6.580   3.303
14757TIP3   OH244211   7.450   6.415   5.791
14757TIP3    H144212   7.360   6.432   5.765
14757TIP3    H244213   7.445   6.396   5.884
14758TIP3   OH244214   4.526   0.083   5.469
14758TIP3    H144215   4.458   0.150   5.474
14758TIP3    H244216   4.496   0.013   5.526
14759TIP3   OH244217   0.534   0.560   6.876
14759TIP3    H144218   0.558   0.516   6.957
14759TIP3    H244219   0.598   0.632   6.868
14760TIP3   OH244220   2.026   5.920   5.518
14760TIP3    H144221   1.945   5.936   5.567
14760TIP3    H244222   2.025   5.825   5.502
14761TIP3   OH244223   5.132   6.623   4.093
14761TIP3    H144224   5.119   6.610   3.999
14761TIP3    H244225   5.192   6.553   4.119
14762TIP3   OH244226   1.871   1.607   6.678
14762TIP3    H144227   1.780   1.594   6.650
14762TIP3    H244228   1.888   1.700   6.663
14763TIP3   OH244229   3.234   2.918   0.588
14763TIP3    H144230   3.268   2.995   0.633
14763TIP3    H244231   3.206   2.951   0.502
14764TIP3   OH244232   1.868   4.593   5.268
14764TIP3    H144233   1.911   4.541   5.200
14764TIP3    H244234   1.839   4.672   5.223
14765TIP3   OH244235   2.380   2.988   4.187
14765TIP3    H144236   2.296   2.942   4.189
14765TIP3    H244237   2.387   3.031   4.272
14766TIP3   OH244238   7.208   6.698   0.915
14766TIP3    H144239   7.196   6.784   0.957
14766TIP3    H244240   7.282   6.659   0.961
14767TIP3   OH244241   8.143   3.633   3.757
14767TIP3    H144242   8.201   3.677   3.696
14767TIP3    H244243   8.059   3.628   3.711
14768TIP3   OH244244   7.215   3.933   2.464
14768TIP3    H144245   7.277   3.926   2.537
14768TIP3    H244246   7.171   4.016   2.478
14769TIP3   OH244247   7.324   2.208   2.263
14769TIP3    H144248   7.369   2.229   2.345
14769TIP3    H244249   7.358   2.271   2.200
14770TIP3   OH244250   5.130   1.431   1.159
14770TIP3    H144251   5.178   1.513   1.156
14770TIP3    H244252   5.136   1.402   1.250
14771TIP3   OH244253   7.295   5.307   6.004
14771TIP3    H144254   7.389   5.324   6.006
14771TIP3    H244255   7.271   5.290   6.095
14772TIP3   OH244256   2.173   6.382   4.145
14772TIP3    H144257   2.097   6.357   4.198
14772TIP3    H244258   2.162   6.477   4.133
14773TIP3   OH244259   3.820   4.373   3.217
14773TIP3    H144260   3.894   4.426   3.188
14773TIP3    H244261   3.799   4.407   3.304
14774TIP3   OH244262   5.723   0.013   6.170
14774TIP3    H144263   5.787   0.081   6.190
14774TIP3    H244264   5.638   0.052   6.192
14775TIP3   OH244265   1.177   4.836   2.347
14775TIP3    H144266   1.114   4.907   2.347
14775TIP3    H244267   1.129   4.761   2.381
14776TIP3   OH244268   5.282   2.362   1.418
14776TIP3    H144269   5.361   2.309   1.428
14776TIP3    H244270   5.214   2.310   1.462
14777TIP3   OH244271   0.344   4.531   4.644
14777TIP3    H144272   0.316   4.441   4.661
14777TIP3    H244273   0.267   4.584   4.664
14778TIP3   OH244274   4.550   0.895   3.734
14778TIP3    H144275   4.456   0.914   3.735
14778TIP3    H244276   4.568   0.855   3.819
14779TIP3   OH244277   2.628   4.183   0.800
14779TIP3    H144278   2.607   4.111   0.859
14779TIP3    H244279   2.709   4.221   0.835
14780TIP3   OH244280   8.293   4.014   5.144
14780TIP3    H144281   8.388   4.012   5.133
14780TIP3    H244282   8.280   4.048   5.232
14781TIP3   OH244283   4.790   4.863   3.608
14781TIP3    H144284   4.764   4.776   3.640
14781TIP3    H244285   4.791   4.854   3.513
14782TIP3   OH244286   4.770   0.383   6.068
14782TIP3    H144287   4.774   0.364   5.974
14782TIP3    H244288   4.679   0.405   6.084
14783TIP3   OH244289   1.347   4.580   4.055
14783TIP3    H144290   1.374   4.628   3.977
14783TIP3    H244291   1.252   4.570   4.044
14784TIP3   OH244292   2.432   4.707   4.836
14784TIP3    H144293   2.391   4.656   4.766
14784TIP3    H244294   2.443   4.794   4.800
14785TIP3   OH244295   4.210   6.356   2.196
14785TIP3    H144296   4.291   6.406   2.183
14785TIP3    H244297   4.237   6.265   2.182
14786TIP3   OH244298   2.113   6.947   4.933
14786TIP3    H144299   2.080   7.037   4.921
14786TIP3    H244300   2.075   6.898   4.861
14787TIP3   OH244301   5.600   2.879   6.226
14787TIP3    H144302   5.680   2.842   6.189
14787TIP3    H244303   5.628   2.962   6.265
14788TIP3   OH244304   6.208   6.170   1.787
14788TIP3    H144305   6.165   6.252   1.811
14788TIP3    H244306   6.159   6.139   1.711
14789TIP3   OH244307   0.018   3.796   5.805
14789TIP3    H144308   0.112   3.812   5.819
14789TIP3    H244309  -0.024   3.878   5.830
14790TIP3   OH244310   1.024   1.304   6.401
14790TIP3    H144311   1.083   1.254   6.457
14790TIP3    H244312   1.081   1.366   6.354
14791TIP3   OH244313   4.857   5.824   0.932
14791TIP3    H144314   4.887   5.826   0.841
14791TIP3    H244315   4.889   5.907   0.969
14792TIP3   OH244316   4.194   6.481   0.612
14792TIP3    H144317   4.135   6.513   0.680
14792TIP3    H244318   4.264   6.437   0.660
14793TIP3   OH244319   6.751   4.597   2.445
14793TIP3    H144320   6.772   4.518   2.395
14793TIP3    H244321   6.765   4.669   2.383
14794TIP3   OH244322   1.432   7.627   0.332
14794TIP3    H144323   1.449   7.721   0.343
14794TIP3    H244324   1.418   7.616   0.238
14795TIP3   OH244325   1.146   7.466   3.974
14795TIP3    H144326   1.196   7.525   4.031
14795TIP3    H244327   1.113   7.399   4.033
14796TIP3   OH244328   6.864   3.856   3.190
14796TIP3    H144329   6.958   3.835   3.196
14796TIP3    H244330   6.832   3.804   3.116
14797TIP3   OH244331   6.985   5.779   1.541
14797TIP3    H144332   6.948   5.692   1.558
14797TIP3    H244333   7.023   5.773   1.453
14798TIP3   OH244334   5.151   0.858   3.701
14798TIP3    H144335   5.183   0.793   3.639
14798TIP3    H244336   5.215   0.929   3.697
14799TIP3   OH244337   0.410   2.505   5.280
14799TIP3    H144338   0.367   2.584   5.312
14799TIP3    H244339   0.456   2.470   5.357
14800TIP3   OH244340   2.771   4.937   6.579
14800TIP3    H144341   2.802   4.948   6.669
14800TIP3    H244342   2.699   4.999   6.570
14801TIP3   OH244343   1.038   5.623   0.136
14801TIP3    H144344   1.003   5.707   0.166
14801TIP3    H244345   1.133   5.638   0.130
14802TIP3   OH244346   0.931   4.838   6.292
14802TIP3    H144347   0.907   4.750   6.321
14802TIP3    H244348   0.904   4.896   6.363
14803TIP3   OH244349   7.781   5.962   5.191
14803TIP3    H144350   7.828   5.909   5.127
14803TIP3    H244351   7.821   5.941   5.275
14804TIP3   OH244352   5.479   5.222   5.822
14804TIP3    H144353   5.484   5.183   5.735
14804TIP3    H244354   5.505   5.313   5.810
14805TIP3   OH244355   2.270   2.879   0.881
14805TIP3    H144356   2.276   2.784   0.887
14805TIP3    H244357   2.357   2.910   0.907
14806TIP3   OH244358   7.778   7.653   3.134
14806TIP3    H144359   7.751   7.571   3.092
14806TIP3    H244360   7.696   7.700   3.149
14807TIP3   OH244361   7.634   2.008   2.695
14807TIP3    H144362   7.558   2.063   2.715
14807TIP3    H244363   7.644   1.951   2.771
14808TIP3   OH244364   3.610   1.584   3.317
14808TIP3    H144365   3.549   1.512   3.301
14808TIP3    H244366   3.673   1.549   3.380
14809TIP3   OH244367   8.174   0.601   6.658
14809TIP3    H144368   8.161   0.583   6.565
14809TIP3    H244369   8.089   0.583   6.698
14810TIP3   OH244370   2.486   7.755   0.130
14810TIP3    H144371   2.579   7.771   0.141
14810TIP3    H244372   2.444   7.840   0.147
14811TIP3   OH244373   6.367   0.859   6.331
14811TIP3    H144374   6.319   0.789   6.374
14811TIP3    H244375   6.427   0.814   6.272
14812TIP3   OH244376   4.393   5.661   1.737
14812TIP3    H144377   4.419   5.600   1.667
14812TIP3    H244378   4.439   5.630   1.814
14813TIP3   OH244379   6.088   0.488   1.446
14813TIP3    H144380   6.108   0.395   1.441
14813TIP3    H244381   6.079   0.506   1.539
14814TIP3   OH244382   8.260   0.198   3.663
14814TIP3    H144383   8.243   0.104   3.665
14814TIP3    H244384   8.339   0.209   3.716
14815TIP3   OH244385   1.087   5.492   0.908
14815TIP3    H144386   1.140   5.563   0.944
14815TIP3    H244387   1.129   5.471   0.824
14816TIP3   OH244388   5.641   3.680   4.940
14816TIP3    H144389   5.693   3.731   5.002
14816TIP3    H244390   5.592   3.746   4.890
14817TIP3   OH244391   2.343   6.027   4.087
14817TIP3    H144392   2.398   5.995   4.016
14817TIP3    H244393   2.404   6.070   4.147
14818TIP3   OH244394   5.814   6.508   1.257
14818TIP3    H144395   5.806   6.473   1.346
14818TIP3    H244396   5.854   6.594   1.268
14819TIP3   OH244397   4.083   3.290   2.740
14819TIP3    H144398   4.093   3.200   2.771
14819TIP3    H244399   4.113   3.287   2.649
14820TIP3   OH244400   7.647   5.727   5.974
14820TIP3    H144401   7.731   5.766   6.001
14820TIP3    H244402   7.583   5.765   6.035
14821TIP3   OH244403   2.844   6.315   6.592
14821TIP3    H144404   2.816   6.287   6.679
14821TIP3    H244405   2.893   6.241   6.557
14822TIP3   OH244406   6.184   0.497   2.449
14822TIP3    H144407   6.191   0.591   2.429
14822TIP3    H244408   6.219   0.489   2.538
14823TIP3   OH244409   2.238   5.244   2.595
14823TIP3    H144410   2.207   5.329   2.564
14823TIP3    H244411   2.310   5.265   2.654
14824TIP3   OH244412   5.856   1.808   1.199
14824TIP3    H144413   5.921   1.878   1.195
14824TIP3    H244414   5.779   1.844   1.155
14825TIP3   OH244415   6.349   0.078   6.098
14825TIP3    H144416   6.350   0.118   6.011
14825TIP3    H244417   6.392   0.142   6.155
14826TIP3   OH244418   1.349   0.887   5.615
14826TIP3    H144419   1.414   0.849   5.675
14826TIP3    H244420   1.314   0.811   5.568
14827TIP3   OH244421   4.897   3.521   6.512
14827TIP3    H144422   4.830   3.454   6.496
14827TIP3    H244423   4.980   3.476   6.497
14828TIP3   OH244424   4.911   0.051   3.437
14828TIP3    H144425   4.874   0.049   3.525
14828TIP3    H244426   4.923   0.144   3.419
14829TIP3   OH244427   4.002   7.903   0.808
14829TIP3    H144428   4.004   7.881   0.901
14829TIP3    H244429   4.089   7.878   0.776
14830TIP3   OH244430   4.953   5.593   5.475
14830TIP3    H144431   5.032   5.573   5.424
14830TIP3    H244432   4.961   5.685   5.498
14831TIP3   OH244433   5.322   4.599   0.729
14831TIP3    H144434   5.329   4.690   0.758
14831TIP3    H244435   5.294   4.552   0.808
14832TIP3   OH244436   6.600   4.116   6.651
14832TIP3    H144437   6.523   4.169   6.631
14832TIP3    H244438   6.609   4.122   6.746
14833TIP3   OH244439   7.842   0.288   0.550
14833TIP3    H144440   7.909   0.347   0.515
14833TIP3    H244441   7.868   0.274   0.641
14834TIP3   OH244442   4.625   6.097  -0.006
14834TIP3    H144443   4.559   6.033  -0.031
14834TIP3    H244444   4.661   6.063   0.076
14835TIP3   OH244445   5.624   5.483   3.168
14835TIP3    H144446   5.532   5.485   3.194
14835TIP3    H244447   5.636   5.397   3.129
14836TIP3   OH244448   3.897   0.243   3.749
14836TIP3    H144449   3.857   0.158   3.732
14836TIP3    H244450   3.950   0.229   3.827
14837TIP3   OH244451   4.754   0.728   5.450
14837TIP3    H144452   4.817   0.696   5.385
14837TIP3    H244453   4.808   0.761   5.522
14838TIP3   OH244454   2.342   3.564   5.797
14838TIP3    H144455   2.293   3.572   5.715
14838TIP3    H244456   2.349   3.469   5.812
14839TIP3   OH244457   2.940   5.674   6.275
14839TIP3    H144458   2.990   5.628   6.208
14839TIP3    H244459   2.889   5.606   6.318
14840TIP3   OH244460   4.916   2.816   3.968
14840TIP3    H144461   4.978   2.877   4.007
14840TIP3    H244462   4.966   2.736   3.953
14841TIP3   OH244463   3.094   2.048   5.635
14841TIP3    H144464   3.084   1.958   5.605
14841TIP3    H244465   3.019   2.062   5.694
14842TIP3   OH244466   1.044   7.508   4.960
14842TIP3    H144467   1.044   7.459   4.878
14842TIP3    H244468   1.095   7.586   4.941
14843TIP3   OH244469   4.550   1.942   5.179
14843TIP3    H144470   4.537   1.987   5.262
14843TIP3    H244471   4.575   1.853   5.204
14844TIP3   OH244472   7.989   4.776   4.232
14844TIP3    H144473   7.946   4.833   4.296
14844TIP3    H244474   8.082   4.789   4.248
14845TIP3   OH244475   0.980   4.343   1.793
14845TIP3    H144476   0.943   4.431   1.799
14845TIP3    H244477   1.044   4.339   1.864
14846TIP3   OH244478   1.073   4.715   0.399
14846TIP3    H144479   1.082   4.787   0.461
14846TIP3    H244480   1.050   4.639   0.453
14847TIP3   OH244481   5.868   2.911   2.422
14847TIP3    H144482   5.898   3.000   2.441
14847TIP3    H244483   5.805   2.921   2.351
14848TIP3   OH244484   3.001   7.163   6.173
14848TIP3    H144485   3.083   7.113   6.169
14848TIP3    H244486   2.978   7.163   6.266
14849TIP3   OH244487   1.354   7.496   2.094
14849TIP3    H144488   1.307   7.427   2.048
14849TIP3    H244489   1.298   7.517   2.169
14850TIP3   OH244490   0.560   4.697   5.724
14850TIP3    H144491   0.528   4.637   5.792
14850TIP3    H244492   0.630   4.746   5.768
14851TIP3   OH244493   1.282   2.806   0.850
14851TIP3    H144494   1.244   2.768   0.929
14851TIP3    H244495   1.364   2.759   0.838
14852TIP3   OH244496   3.578   1.687   2.296
14852TIP3    H144497   3.591   1.713   2.387
14852TIP3    H244498   3.487   1.658   2.292
14853TIP3   OH244499   3.104   4.005   5.537
14853TIP3    H144500   3.048   4.054   5.596
14853TIP3    H244501   3.177   4.064   5.519
14854TIP3   OH244502   0.141   7.620   0.664
14854TIP3    H144503   0.096   7.536   0.669
14854TIP3    H244504   0.076   7.684   0.694
14855TIP3   OH244505   4.180   5.257   1.851
14855TIP3    H144506   4.162   5.340   1.807
14855TIP3    H244507   4.270   5.265   1.883
14856TIP3   OH244508   4.476   6.310   0.127
14856TIP3    H144509   4.540   6.265   0.071
14856TIP3    H244510   4.393   6.265   0.109
14857TIP3   OH244511   8.123   3.616   6.611
14857TIP3    H144512   8.196   3.568   6.652
14857TIP3    H244513   8.113   3.573   6.526
14858TIP3   OH244514   7.716   1.120   2.629
14858TIP3    H144515   7.786   1.181   2.651
14858TIP3    H244516   7.653   1.173   2.580
14859TIP3   OH244517   3.007   6.539   1.076
14859TIP3    H144518   3.083   6.503   1.121
14859TIP3    H244519   2.940   6.472   1.084
14860TIP3   OH244520   7.298   3.349   5.073
14860TIP3    H144521   7.265   3.374   4.987
14860TIP3    H244522   7.241   3.395   5.135
14861TIP3   OH244523   4.163   3.912   2.079
14861TIP3    H144524   4.145   3.880   1.990
14861TIP3    H244525   4.106   3.858   2.135
14862TIP3   OH244526   6.887   6.387   5.638
14862TIP3    H144527   6.860   6.309   5.589
14862TIP3    H244528   6.852   6.460   5.587
14863TIP3   OH244529   2.332   0.933   2.378
14863TIP3    H144530   2.253   0.885   2.405
14863TIP3    H244531   2.310   1.025   2.390
14864TIP3   OH244532   1.576   1.974   4.315
14864TIP3    H144533   1.480   1.972   4.309
14864TIP3    H244534   1.604   1.890   4.277
14865TIP3   OH244535   2.625   4.771   0.733
14865TIP3    H144536   2.543   4.722   0.721
14865TIP3    H244537   2.635   4.820   0.652
14866TIP3   OH244538   3.991   3.084   4.721
14866TIP3    H144539   4.038   3.160   4.755
14866TIP3    H244540   4.054   3.012   4.729
14867TIP3   OH244541   6.450   1.769   5.896
14867TIP3    H144542   6.492   1.686   5.918
14867TIP3    H244543   6.432   1.810   5.981
14868TIP3   OH244544   3.162   6.744   4.184
14868TIP3    H144545   3.127   6.782   4.103
14868TIP3    H244546   3.196   6.659   4.158
14869TIP3   OH244547   3.588   6.958   1.787
14869TIP3    H144548   3.569   7.013   1.863
14869TIP3    H244549   3.583   7.017   1.712
14870TIP3   OH244550   5.580   2.658   0.166
14870TIP3    H144551   5.644   2.597   0.128
14870TIP3    H244552   5.591   2.738   0.115
14871TIP3   OH244553   7.773   4.654   5.080
14871TIP3    H144554   7.796   4.579   5.135
14871TIP3    H244555   7.718   4.616   5.011
14872TIP3   OH244556   2.218   2.286   1.486
14872TIP3    H144557   2.185   2.370   1.520
14872TIP3    H244558   2.284   2.259   1.550
14873TIP3   OH244559   5.027   4.810   1.699
14873TIP3    H144560   4.970   4.796   1.624
14873TIP3    H244561   5.107   4.761   1.678
14874TIP3   OH244562   0.096   6.114   4.618
14874TIP3    H144563   0.002   6.097   4.614
14874TIP3    H244564   0.108   6.170   4.694
14875TIP3   OH244565   7.352   1.133   3.434
14875TIP3    H144566   7.310   1.052   3.462
14875TIP3    H244567   7.419   1.106   3.372
14876TIP3   OH244568   3.315   7.644   1.440
14876TIP3    H144569   3.379   7.655   1.510
14876TIP3    H244570   3.334   7.714   1.378
14877TIP3   OH244571   0.924   3.336   4.097
14877TIP3    H144572   0.910   3.424   4.061
14877TIP3    H244573   0.951   3.284   4.021
14878TIP3   OH244574   7.446   2.043   3.885
14878TIP3    H144575   7.488   1.972   3.935
14878TIP3    H244576   7.448   2.013   3.794
14879TIP3   OH244577   7.552   4.247  -0.008
14879TIP3    H144578   7.553   4.168   0.047
14879TIP3    H244579   7.511   4.314   0.046
14880TIP3   OH244580   7.247   3.216   5.468
14880TIP3    H144581   7.308   3.288   5.485
14880TIP3    H244582   7.253   3.161   5.546
14881TIP3   OH244583   6.282   0.595   5.853
14881TIP3    H144584   6.262   0.674   5.904
14881TIP3    H244585   6.197   0.565   5.821
14882TIP3   OH244586   3.094   7.527   5.437
14882TIP3    H144587   3.137   7.467   5.376
14882TIP3    H244588   3.161   7.545   5.503
14883TIP3   OH244589   6.781   0.982   0.726
14883TIP3    H144590   6.809   0.928   0.799
14883TIP3    H244591   6.849   0.971   0.660
14884TIP3   OH244592   7.521   0.796   3.635
14884TIP3    H144593   7.524   0.783   3.730
14884TIP3    H244594   7.428   0.812   3.616
14885TIP3   OH244595   7.604   6.280   4.021
14885TIP3    H144596   7.645   6.254   4.103
14885TIP3    H244597   7.659   6.241   3.953
14886TIP3   OH244598   6.429   0.656   2.077
14886TIP3    H144599   6.386   0.719   2.018
14886TIP3    H244600   6.483   0.711   2.134
14887TIP3   OH244601   1.788   4.756   1.600
14887TIP3    H144602   1.768   4.843   1.565
14887TIP3    H244603   1.834   4.773   1.681
14888TIP3   OH244604   1.231   1.029   4.734
14888TIP3    H144605   1.314   0.996   4.701
14888TIP3    H244606   1.164   0.987   4.679
14889TIP3   OH244607   2.045   4.878   5.892
14889TIP3    H144608   2.071   4.816   5.960
14889TIP3    H244609   2.075   4.963   5.924
14890TIP3   OH244610   2.776   4.752   3.687
14890TIP3    H144611   2.781   4.751   3.591
14890TIP3    H244612   2.685   4.771   3.707
14891TIP3   OH244613   2.642   3.473   5.872
14891TIP3    H144614   2.734   3.498   5.864
14891TIP3    H244615   2.609   3.475   5.783
14892TIP3   OH244616   7.466   5.795   2.245
14892TIP3    H144617   7.483   5.887   2.264
14892TIP3    H244618   7.552   5.753   2.249
14893TIP3   OH244619   5.963   5.032   4.230
14893TIP3    H144620   5.962   4.937   4.227
14893TIP3    H244621   6.047   5.057   4.192
14894TIP3   OH244622   1.971   1.041  -0.013
14894TIP3    H144623   1.941   0.995   0.065
14894TIP3    H244624   2.053   0.998  -0.037
14895TIP3   OH244625   3.179   3.523   6.434
14895TIP3    H144626   3.158   3.493   6.346
14895TIP3    H244627   3.183   3.619   6.427
14896TIP3   OH244628   1.683   3.445   0.123
14896TIP3    H144629   1.762   3.456   0.069
14896TIP3    H244630   1.658   3.534   0.147
14897TIP3   OH244631   2.353   2.046   5.304
14897TIP3    H144632   2.382   1.971   5.253
14897TIP3    H244633   2.261   2.057   5.279
14898TIP3   OH244634   6.928   7.426   5.896
14898TIP3    H144635   6.862   7.447   5.961
14898TIP3    H244636   6.933   7.505   5.841
14899TIP3   OH244637   2.936   3.687   3.273
14899TIP3    H144638   2.905   3.765   3.226
14899TIP3    H244639   2.879   3.616   3.242
14900TIP3   OH244640   2.190   6.948   2.374
14900TIP3    H144641   2.254   6.877   2.361
14900TIP3    H244642   2.189   6.995   2.291
14901TIP3   OH244643   2.203   1.197   5.630
14901TIP3    H144644   2.188   1.105   5.651
14901TIP3    H244645   2.126   1.242   5.664
14902TIP3   OH244646   2.586   2.464   1.968
14902TIP3    H144647   2.592   2.370   1.982
14902TIP3    H244648   2.667   2.499   2.006
14903TIP3   OH244649   5.479   5.168   1.548
14903TIP3    H144650   5.406   5.114   1.580
14903TIP3    H244651   5.556   5.134   1.594
14904TIP3   OH244652   2.989   5.397   1.195
14904TIP3    H144653   2.985   5.336   1.269
14904TIP3    H244654   2.908   5.381   1.146
14905TIP3   OH244655   7.692   6.469   3.287
14905TIP3    H144656   7.749   6.537   3.250
14905TIP3    H244657   7.746   6.390   3.285
14906TIP3   OH244658   4.334   6.346   5.287
14906TIP3    H144659   4.271   6.397   5.236
14906TIP3    H244660   4.401   6.410   5.313
14907TIP3   OH244661   5.150   1.216   6.342
14907TIP3    H144662   5.154   1.165   6.261
14907TIP3    H244663   5.174   1.305   6.316
14908TIP3   OH244664   5.489   4.193   6.835
14908TIP3    H144665   5.578   4.219   6.810
14908TIP3    H244666   5.473   4.113   6.786
14909TIP3   OH244667   4.455   0.052   1.756
14909TIP3    H144668   4.448   0.031   1.662
14909TIP3    H244669   4.380   0.007   1.795
14910TIP3   OH244670   8.008   3.962   4.673
14910TIP3    H144671   8.018   4.041   4.726
14910TIP3    H244672   8.026   3.890   4.735
14911TIP3   OH244673   3.277   1.456   6.791
14911TIP3    H144674   3.247   1.546   6.773
14911TIP3    H244675   3.210   1.400   6.752
14912TIP3   OH244676   8.290   5.198   4.021
14912TIP3    H144677   8.305   5.288   3.991
14912TIP3    H244678   8.307   5.144   3.944
14913TIP3   OH244679   3.881   1.133   6.100
14913TIP3    H144680   3.854   1.181   6.178
14913TIP3    H244681   3.956   1.081   6.128
14914TIP3   OH244682   7.353   2.255   1.405
14914TIP3    H144683   7.344   2.188   1.472
14914TIP3    H244684   7.425   2.224   1.350
14915TIP3   OH244685   5.156   5.240   5.920
14915TIP3    H144686   5.182   5.299   5.850
14915TIP3    H244687   5.195   5.156   5.897
14916TIP3   OH244688   0.400   0.122   4.815
14916TIP3    H144689   0.355   0.041   4.792
14916TIP3    H244690   0.354   0.190   4.767
14917TIP3   OH244691   3.295   0.474   6.363
14917TIP3    H144692   3.359   0.404   6.344
14917TIP3    H244693   3.210   0.434   6.345
14918TIP3   OH244694   1.305   3.579   1.814
14918TIP3    H144695   1.218   3.615   1.830
14918TIP3    H244696   1.300   3.541   1.726
14919TIP3   OH244697   8.217   1.048   6.578
14919TIP3    H144698   8.265   1.129   6.563
14919TIP3    H244699   8.241   0.992   6.503
14920TIP3   OH244700   3.425   4.182   1.334
14920TIP3    H144701   3.504   4.236   1.343
14920TIP3    H244702   3.427   4.151   1.244
14921TIP3   OH244703   6.468   6.835   4.197
14921TIP3    H144704   6.414   6.758   4.213
14921TIP3    H244705   6.451   6.858   4.106
14922TIP3   OH244706   8.302   7.815   0.782
14922TIP3    H144707   8.284   7.880   0.850
14922TIP3    H244708   8.233   7.830   0.717
14923TIP3   OH244709   8.313   0.403   3.099
14923TIP3    H144710   8.243   0.369   3.044
14923TIP3    H244711   8.323   0.338   3.169
14924TIP3   OH244712   3.911   5.339   3.314
14924TIP3    H144713   3.977   5.356   3.381
14924TIP3    H244714   3.830   5.324   3.362
14925TIP3   OH244715   0.376   2.746   1.995
14925TIP3    H144716   0.439   2.786   1.935
14925TIP3    H244717   0.429   2.689   2.050
14926TIP3   OH244718   5.781   1.264   2.092
14926TIP3    H144719   5.743   1.351   2.078
14926TIP3    H244720   5.757   1.214   2.014
14927TIP3   OH244721   6.108   6.650   2.991
14927TIP3    H144722   6.094   6.559   2.964
14927TIP3    H244723   6.202   6.655   3.010
14928TIP3   OH244724   5.496   4.418   2.551
14928TIP3    H144725   5.524   4.431   2.460
14928TIP3    H244726   5.408   4.382   2.544
14929TIP3   OH244727   3.849   7.089   6.033
14929TIP3    H144728   3.862   7.168   6.085
14929TIP3    H244729   3.827   7.122   5.946
14930TIP3   OH244730   1.270   4.660   4.333
14930TIP3    H144731   1.193   4.706   4.301
14930TIP3    H244732   1.331   4.661   4.259
14931TIP3   OH244733   1.783   3.205   6.639
14931TIP3    H144734   1.784   3.190   6.544
14931TIP3    H244735   1.794   3.300   6.648
14932TIP3   OH244736   0.172   2.552   2.458
14932TIP3    H144737   0.172   2.639   2.417
14932TIP3    H244738   0.129   2.496   2.393
14933TIP3   OH244739   6.179   1.291   1.868
14933TIP3    H144740   6.236   1.363   1.896
14933TIP3    H244741   6.179   1.296   1.773
14934TIP3   OH244742   0.188   6.970   3.487
14934TIP3    H144743   0.246   7.044   3.468
14934TIP3    H244744   0.248   6.896   3.499
14935TIP3   OH244745   6.744   5.580   0.594
14935TIP3    H144746   6.663   5.625   0.617
14935TIP3    H244747   6.803   5.650   0.565
14936TIP3   OH244748   1.065   3.696   1.866
14936TIP3    H144749   0.971   3.676   1.869
14936TIP3    H244750   1.074   3.772   1.924
14937TIP3   OH244751   6.374   2.467   4.508
14937TIP3    H144752   6.347   2.460   4.417
14937TIP3    H244753   6.440   2.537   4.508
14938TIP3   OH244754   6.699   7.067   1.847
14938TIP3    H144755   6.683   7.005   1.776
14938TIP3    H244756   6.651   7.146   1.821
14939TIP3   OH244757   1.893   0.087   5.483
14939TIP3    H144758   1.844   0.094   5.401
14939TIP3    H244759   1.961   0.022   5.465
14940TIP3   OH244760   7.308   1.946   0.220
14940TIP3    H144761   7.227   1.983   0.254
14940TIP3    H244762   7.287   1.854   0.201
14941TIP3   OH244763   6.270   7.575   3.567
14941TIP3    H144764   6.261   7.485   3.534
14941TIP3    H244765   6.301   7.564   3.658
14942TIP3   OH244766   0.084   4.787   0.443
14942TIP3    H144767   0.122   4.755   0.361
14942TIP3    H244768   0.117   4.876   0.452
14943TIP3   OH244769   8.059   0.996   1.163
14943TIP3    H144770   7.976   1.032   1.133
14943TIP3    H244771   8.090   0.942   1.089
14944TIP3   OH244772   2.759   2.194   3.814
14944TIP3    H144773   2.821   2.121   3.813
14944TIP3    H244774   2.812   2.269   3.842
14945TIP3   OH244775   1.979   7.423   4.050
14945TIP3    H144776   2.019   7.509   4.062
14945TIP3    H244777   1.904   7.441   3.993
14946TIP3   OH244778   4.108   5.771   4.694
14946TIP3    H144779   4.144   5.799   4.609
14946TIP3    H244780   4.141   5.835   4.757
14947TIP3   OH244781   1.152   7.289   2.124
14947TIP3    H144782   1.100   7.273   2.202
14947TIP3    H244783   1.219   7.220   2.126
14948TIP3   OH244784   1.429   0.081   2.005
14948TIP3    H144785   1.448   0.023   1.932
14948TIP3    H244786   1.508   0.133   2.017
14949TIP3   OH244787   1.268   0.660   2.051
14949TIP3    H144788   1.338   0.723   2.067
14949TIP3    H244789   1.192   0.715   2.030
14950TIP3   OH244790   7.907   6.811   0.674
14950TIP3    H144791   7.938   6.881   0.617
14950TIP3    H244792   7.951   6.827   0.757
14951TIP3   OH244793   3.590   6.329   0.368
14951TIP3    H144794   3.593   6.405   0.309
14951TIP3    H244795   3.584   6.254   0.310
14952TIP3   OH244796   0.701   4.352   3.378
14952TIP3    H144797   0.646   4.368   3.455
14952TIP3    H244798   0.791   4.358   3.410
14953TIP3   OH244799   1.395   4.509   3.154
14953TIP3    H144800   1.489   4.496   3.145
14953TIP3    H244801   1.369   4.556   3.075
14954TIP3   OH244802   4.687   4.967   0.667
14954TIP3    H144803   4.693   5.040   0.606
14954TIP3    H244804   4.754   4.905   0.637
14955TIP3   OH244805   7.407   5.597   3.996
14955TIP3    H144806   7.322   5.562   3.969
14955TIP3    H244807   7.421   5.561   4.084
14956TIP3   OH244808   2.070   4.569   5.844
14956TIP3    H144809   2.100   4.581   5.754
14956TIP3    H244810   2.072   4.474   5.857
14957TIP3   OH244811   2.036   4.807   6.306
14957TIP3    H144812   2.021   4.732   6.365
14957TIP3    H244813   2.131   4.815   6.302
14958TIP3   OH244814   6.627   4.761   6.612
14958TIP3    H144815   6.626   4.666   6.598
14958TIP3    H244816   6.720   4.784   6.608
14959TIP3   OH244817   7.339   0.167   2.544
14959TIP3    H144818   7.264   0.219   2.572
14959TIP3    H244819   7.414   0.208   2.586
14960TIP3   OH244820   2.232   4.178   5.442
14960TIP3    H144821   2.154   4.152   5.489
14960TIP3    H244822   2.212   4.160   5.350
14961TIP3   OH244823   0.241   0.473   2.588
14961TIP3    H144824   0.318   0.528   2.576
14961TIP3    H244825   0.167   0.532   2.574
14962TIP3   OH244826   5.828   4.490   4.527
14962TIP3    H144827   5.883   4.436   4.470
14962TIP3    H244828   5.822   4.574   4.480
14963TIP3   OH244829   5.769   2.902   5.493
14963TIP3    H144830   5.854   2.936   5.466
14963TIP3    H244831   5.788   2.843   5.566
14964TIP3   OH244832   5.922   0.190   0.880
14964TIP3    H144833   6.008   0.162   0.910
14964TIP3    H244834   5.896   0.259   0.941
14965TIP3   OH244835   3.168   2.070   2.382
14965TIP3    H144836   3.172   2.165   2.395
14965TIP3    H244837   3.077   2.047   2.401
14966TIP3   OH244838   5.552   0.656   3.320
14966TIP3    H144839   5.475   0.604   3.299
14966TIP3    H244840   5.517   0.740   3.349
14967TIP3   OH244841   4.650   3.841   3.630
14967TIP3    H144842   4.743   3.862   3.636
14967TIP3    H244843   4.606   3.923   3.652
14968TIP3   OH244844   1.650   2.828   6.700
14968TIP3    H144845   1.637   2.738   6.727
14968TIP3    H244846   1.608   2.834   6.614
14969TIP3   OH244847   6.378   6.455   5.156
14969TIP3    H144848   6.360   6.389   5.223
14969TIP3    H244849   6.314   6.524   5.173
14970TIP3   OH244850   6.531   7.432   1.544
14970TIP3    H144851   6.450   7.455   1.589
14970TIP3    H244852   6.527   7.481   1.461
14971TIP3   OH244853   6.029   0.060   3.972
14971TIP3    H144854   6.087  -0.016   3.968
14971TIP3    H244855   6.053   0.112   3.895
14972TIP3   OH244856   4.321   4.603   4.342
14972TIP3    H144857   4.357   4.595   4.254
14972TIP3    H244858   4.297   4.514   4.366
14973TIP3   OH244859   8.321   4.389   3.648
14973TIP3    H144860   8.382   4.461   3.662
14973TIP3    H244861   8.335   4.363   3.557
14974TIP3   OH244862   5.184   2.004   1.843
14974TIP3    H144863   5.103   2.052   1.855
14974TIP3    H244864   5.253   2.071   1.847
14975TIP3   OH244865   0.994   6.402   3.120
14975TIP3    H144866   1.076   6.446   3.141
14975TIP3    H244867   1.004   6.314   3.156
14976TIP3   OH244868   0.910   5.834   3.483
14976TIP3    H144869   0.908   5.879   3.398
14976TIP3    H244870   0.991   5.783   3.481
14977TIP3   OH244871   4.737   2.945   3.717
14977TIP3    H144872   4.646   2.956   3.688
14977TIP3    H244873   4.730   2.898   3.800
14978TIP3   OH244874   4.673   6.060   0.713
14978TIP3    H144875   4.662   6.125   0.644
14978TIP3    H244876   4.755   6.016   0.692
14979TIP3   OH244877   4.457   7.653   4.263
14979TIP3    H144878   4.499   7.734   4.232
14979TIP3    H244879   4.437   7.605   4.182
14980TIP3   OH244880   5.768   0.482   3.240
14980TIP3    H144881   5.774   0.408   3.301
14980TIP3    H244882   5.697   0.536   3.276
14981TIP3   OH244883   0.664   5.897   2.292
14981TIP3    H144884   0.751   5.861   2.310
14981TIP3    H244885   0.635   5.853   2.212
14982TIP3   OH244886   0.549   2.261   3.923
14982TIP3    H144887   0.531   2.355   3.926
14982TIP3    H244888   0.625   2.253   3.865
14983TIP3   OH244889   4.791   2.911   4.447
14983TIP3    H144890   4.799   2.857   4.368
14983TIP3    H244891   4.811   3.000   4.417
14984TIP3   OH244892   3.186   2.184   5.254
14984TIP3    H144893   3.233   2.233   5.321
14984TIP3    H244894   3.096   2.178   5.288
14985TIP3   OH244895   5.188   5.846   6.286
14985TIP3    H144896   5.215   5.885   6.370
14985TIP3    H244897   5.271   5.819   6.245
14986TIP3   OH244898   6.359   3.014   4.211
14986TIP3    H144899   6.418   2.971   4.149
14986TIP3    H244900   6.341   2.948   4.278
14987TIP3   OH244901   5.290   1.450   3.296
14987TIP3    H144902   5.316   1.534   3.257
14987TIP3    H244903   5.307   1.385   3.227
14988TIP3   OH244904   1.626   2.560   0.364
14988TIP3    H144905   1.697   2.528   0.309
14988TIP3    H244906   1.560   2.491   0.361
14989TIP3   OH244907   2.779   6.945   3.609
14989TIP3    H144908   2.791   7.025   3.661
14989TIP3    H244909   2.685   6.939   3.596
14990TIP3   OH244910   3.123   6.426   5.048
14990TIP3    H144911   3.069   6.488   4.998
14990TIP3    H244912   3.145   6.473   5.128
14991TIP3   OH244913   4.038   5.120   0.960
14991TIP3    H144914   4.003   5.200   0.998
14991TIP3    H244915   4.027   5.131   0.865
14992TIP3   OH244916   2.779   5.377   3.924
14992TIP3    H144917   2.841   5.340   3.987
14992TIP3    H244918   2.831   5.391   3.845
14993TIP3   OH244919   5.854   2.694   0.637
14993TIP3    H144920   5.873   2.610   0.594
14993TIP3    H244921   5.797   2.671   0.711
14994TIP3   OH244922   1.094   7.182   0.825
14994TIP3    H144923   1.153   7.257   0.823
14994TIP3    H244924   1.013   7.216   0.862
14995TIP3   OH244925   3.579   4.564   6.045
14995TIP3    H144926   3.654   4.529   5.997
14995TIP3    H244927   3.531   4.616   5.981
14996TIP3   OH244928   7.497   2.988   6.303
14996TIP3    H144929   7.471   3.074   6.335
14996TIP3    H244930   7.588   2.979   6.331
14997TIP3   OH244931   5.920   4.430   4.089
14997TIP3    H144932   5.855   4.363   4.110
14997TIP3    H244933   5.926   4.427   3.993
14998TIP3   OH244934   7.562   5.505   0.924
14998TIP3    H144935   7.479   5.541   0.953
14998TIP3    H244936   7.573   5.537   0.835
14999TIP3   OH244937   6.479   7.039   1.610
14999TIP3    H144938   6.392   7.039   1.571
14999TIP3    H244939   6.539   7.058   1.537
15000TIP3   OH244940   6.774   2.816   6.070
15000TIP3    H144941   6.686   2.793   6.100
15000TIP3    H244942   6.829   2.805   6.147
15001TIP3   OH244943   6.603   1.534   2.012
15001TIP3    H144944   6.667   1.588   2.058
15001TIP3    H244945   6.655   1.466   1.969
15002TIP3   OH244946   7.466   0.642   6.130
15002TIP3    H144947   7.469   0.651   6.034
15002TIP3    H244948   7.395   0.579   6.146
15003TIP3   OH244949   2.292   7.258   3.267
15003TIP3    H144950   2.228   7.328   3.255
15003TIP3    H244951   2.245   7.189   3.314
15004TIP3   OH244952   3.550   2.889  -0.010
15004TIP3    H144953   3.485   2.925  -0.070
15004TIP3    H244954   3.616   2.957  -0.001
15005TIP3   OH244955   7.991   2.870   3.228
15005TIP3    H144956   7.932   2.860   3.154
15005TIP3    H244957   8.010   2.781   3.256
15006TIP3   OH244958   5.984   4.764   4.185
15006TIP3    H144959   6.005   4.751   4.093
15006TIP3    H244960   5.911   4.704   4.202
15007TIP3   OH244961   2.021   6.454   1.789
15007TIP3    H144962   2.062   6.472   1.704
15007TIP3    H244963   1.976   6.535   1.812
15008TIP3   OH244964   7.120   5.093   4.592
15008TIP3    H144965   7.118   5.026   4.660
15008TIP3    H244966   7.042   5.147   4.609
15009TIP3   OH244967   0.713   2.157   5.505
15009TIP3    H144968   0.648   2.179   5.439
15009TIP3    H244969   0.704   2.062   5.518
15010TIP3   OH244970   1.192   5.030   4.882
15010TIP3    H144971   1.144   5.018   4.800
15010TIP3    H244972   1.138   5.091   4.933
15011TIP3   OH244973   6.462   4.486   0.198
15011TIP3    H144974   6.520   4.559   0.223
15011TIP3    H244975   6.494   4.458   0.113
15012TIP3   OH244976   1.676   0.526   1.891
15012TIP3    H144977   1.624   0.603   1.911
15012TIP3    H244978   1.632   0.484   1.817
15013TIP3   OH244979   7.225   7.227   4.966
15013TIP3    H144980   7.282   7.206   4.892
15013TIP3    H244981   7.164   7.293   4.931
15014TIP3   OH244982   4.892   7.530   1.445
15014TIP3    H144983   4.981   7.536   1.411
15014TIP3    H244984   4.838   7.577   1.382
15015TIP3   OH244985   6.544   2.968   4.652
15015TIP3    H144986   6.530   2.880   4.616
15015TIP3    H244987   6.466   2.984   4.706
15016TIP3   OH244988   3.472   1.633   5.914
15016TIP3    H144989   3.537   1.643   5.845
15016TIP3    H244990   3.469   1.718   5.957
15017TIP3   OH244991   4.473   0.202   3.337
15017TIP3    H144992   4.561   0.239   3.344
15017TIP3    H244993   4.484   0.118   3.293
15018TIP3   OH244994   7.837   2.654   3.817
15018TIP3    H144995   7.781   2.730   3.797
15018TIP3    H244996   7.912   2.691   3.864
15019TIP3   OH244997   1.574   2.229   3.711
15019TIP3    H144998   1.654   2.240   3.660
15019TIP3    H244999   1.519   2.303   3.685
15020TIP3   OH245000   2.091   6.769   0.023
15020TIP3    H145001   2.114   6.712   0.096
15020TIP3    H245002   2.135   6.852   0.042
15021TIP3   OH245003   1.930   4.612   5.528
15021TIP3    H145004   1.843   4.603   5.566
15021TIP3    H245005   1.915   4.613   5.433
15022TIP3   OH245006   3.965   7.820   1.107
15022TIP3    H145007   4.006   7.864   1.182
15022TIP3    H245008   3.902   7.759   1.146
15023TIP3   OH245009   2.394   1.812   5.162
15023TIP3    H145010   2.475   1.830   5.115
15023TIP3    H245011   2.419   1.746   5.227
15024TIP3   OH245012   6.638   7.170   5.507
15024TIP3    H145013   6.640   7.215   5.591
15024TIP3    H245014   6.649   7.240   5.443
15025TIP3   OH245015   6.208   6.440   4.295
15025TIP3    H145016   6.170   6.370   4.242
15025TIP3    H245017   6.283   6.470   4.244
15026TIP3   OH245018   7.129   5.898   1.743
15026TIP3    H145019   7.084   5.865   1.665
15026TIP3    H245020   7.095   5.844   1.815
15027TIP3   OH245021  -0.003   2.730   0.032
15027TIP3    H145022  -0.071   2.688  -0.022
15027TIP3    H245023  -0.008   2.823   0.008
15028TIP3   OH245024   7.230   4.567   3.475
15028TIP3    H145025   7.224   4.490   3.418
15028TIP3    H245026   7.295   4.623   3.433
15029TIP3   OH245027   4.857   0.830   6.786
15029TIP3    H145028   4.941   0.805   6.826
15029TIP3    H245029   4.861   0.792   6.698
15030TIP3   OH245030   3.006   7.633   2.703
15030TIP3    H145031   2.963   7.707   2.746
15030TIP3    H245032   2.951   7.613   2.627
15031TIP3   OH245033   6.351   0.188   3.529
15031TIP3    H145034   6.389   0.143   3.454
15031TIP3    H245035   6.262   0.209   3.501
15032TIP3   OH245036   7.482   7.008   1.296
15032TIP3    H145037   7.512   6.918   1.310
15032TIP3    H245038   7.519   7.058   1.369
15033TIP3   OH245039   1.222   1.225   3.340
15033TIP3    H145040   1.214   1.320   3.352
15033TIP3    H245041   1.273   1.196   3.416
15034TIP3   OH245042   5.441   5.933   1.956
15034TIP3    H145043   5.368   5.979   1.915
15034TIP3    H245044   5.456   5.980   2.038
15035TIP3   OH245045   4.227   5.777   1.520
15035TIP3    H145046   4.272   5.719   1.458
15035TIP3    H245047   4.266   5.756   1.605
15036TIP3   OH245048   0.304   5.393   4.165
15036TIP3    H145049   0.226   5.436   4.129
15036TIP3    H245050   0.343   5.348   4.090
15037TIP3   OH245051   6.492   3.410   5.339
15037TIP3    H145052   6.430   3.443   5.403
15037TIP3    H245053   6.563   3.474   5.338
15038TIP3   OH245054   8.376   0.534   5.943
15038TIP3    H145055   8.424   0.575   5.871
15038TIP3    H245056   8.286   0.526   5.910
15039TIP3   OH245057   7.106   4.627   6.078
15039TIP3    H145058   7.094   4.534   6.057
15039TIP3    H245059   7.108   4.670   5.992
15040TIP3   OH245060   7.435   2.278   0.797
15040TIP3    H145061   7.378   2.311   0.867
15040TIP3    H245062   7.511   2.336   0.800
15041TIP3   OH245063   6.391   4.470   0.705
15041TIP3    H145064   6.356   4.381   0.704
15041TIP3    H245065   6.440   4.476   0.787
15042TIP3   OH245066   8.220   4.563   0.854
15042TIP3    H145067   8.135   4.607   0.852
15042TIP3    H245068   8.221   4.518   0.939
15043TIP3   OH245069   7.774   6.399   4.596
15043TIP3    H145070   7.725   6.370   4.674
15043TIP3    H245071   7.711   6.450   4.546
15044TIP3   OH245072   4.536   4.598   5.373
15044TIP3    H145073   4.452   4.643   5.377
15044TIP3    H245074   4.536   4.539   5.448
15045TIP3   OH245075   7.694   2.606   5.118
15045TIP3    H145076   7.710   2.686   5.169
15045TIP3    H245077   7.610   2.621   5.075
15046TIP3   OH245078   7.140   0.794   3.976
15046TIP3    H145079   7.048   0.796   3.951
15046TIP3    H245080   7.182   0.860   3.920
15047TIP3   OH245081   8.222   4.809  -0.005
15047TIP3    H145082   8.190   4.756   0.068
15047TIP3    H245083   8.220   4.899   0.027
15048TIP3   OH245084   0.613   2.208   3.393
15048TIP3    H145085   0.673   2.234   3.463
15048TIP3    H245086   0.604   2.287   3.339
15049TIP3   OH245087   2.826   2.662   5.627
15049TIP3    H145088   2.853   2.750   5.652
15049TIP3    H245089   2.884   2.604   5.675
15050TIP3   OH245090   5.068   1.035   3.164
15050TIP3    H145091   5.065   1.083   3.247
15050TIP3    H245092   4.985   0.986   3.162
15051TIP3   OH245093   2.439   3.026   6.489
15051TIP3    H145094   2.484   3.079   6.555
15051TIP3    H245095   2.481   3.052   6.406
15052TIP3   OH245096   4.372   6.240   6.563
15052TIP3    H145097   4.393   6.169   6.502
15052TIP3    H245098   4.338   6.196   6.641
15053TIP3   OH245099   0.354   0.790   4.875
15053TIP3    H145100   0.363   0.874   4.919
15053TIP3    H245101   0.360   0.725   4.945
15054TIP3   OH245102   2.670   5.955   1.038
15054TIP3    H145103   2.695   6.036   0.995
15054TIP3    H245104   2.753   5.913   1.060
15055TIP3   OH245105   1.280   1.969   0.478
15055TIP3    H145106   1.201   2.001   0.521
15055TIP3    H245107   1.327   1.920   0.545
15056TIP3   OH245108   4.360   2.814   2.214
15056TIP3    H145109   4.305   2.743   2.248
15056TIP3    H245110   4.379   2.868   2.291
15057TIP3   OH245111   0.086   4.043   4.249
15057TIP3    H145112   0.115   4.073   4.163
15057TIP3    H245113   0.164   4.005   4.289
15058TIP3   OH245114   2.639   6.532   0.342
15058TIP3    H145115   2.670   6.607   0.393
15058TIP3    H245116   2.678   6.544   0.256
15059TIP3   OH245117   8.169   1.027   2.103
15059TIP3    H145118   8.102   1.026   2.172
15059TIP3    H245119   8.120   1.003   2.024
15060TIP3   OH245120   5.863   5.787   0.672
15060TIP3    H145121   5.897   5.817   0.756
15060TIP3    H245122   5.769   5.805   0.676
15061TIP3   OH245123   6.955   5.120   1.583
15061TIP3    H145124   6.889   5.166   1.530
15061TIP3    H245125   6.903   5.063   1.641
15062TIP3   OH245126   0.901   3.907   4.653
15062TIP3    H145127   0.897   3.814   4.672
15062TIP3    H245128   0.910   3.912   4.557
15063TIP3   OH245129   7.473   0.164   6.478
15063TIP3    H145130   7.469   0.236   6.415
15063TIP3    H245131   7.515   0.201   6.555
15064TIP3   OH245132   3.630   0.071   3.236
15064TIP3    H145133   3.711   0.078   3.287
15064TIP3    H245134   3.632  -0.018   3.200
15065TIP3   OH245135   3.691   1.652   0.789
15065TIP3    H145136   3.619   1.691   0.739
15065TIP3    H245137   3.750   1.726   0.807
15066TIP3   OH245138   2.601   7.583   5.587
15066TIP3    H145139   2.586   7.639   5.663
15066TIP3    H245140   2.693   7.557   5.594
15067TIP3   OH245141   8.280   0.324   4.578
15067TIP3    H145142   8.299   0.231   4.563
15067TIP3    H245143   8.287   0.334   4.673
15068TIP3   OH245144   0.824   6.009   3.661
15068TIP3    H145145   0.857   5.952   3.592
15068TIP3    H245146   0.783   6.082   3.615
15069TIP3   OH245147   0.181   4.253   2.741
15069TIP3    H145148   0.093   4.254   2.778
15069TIP3    H245149   0.170   4.277   2.649
15070TIP3   OH245150   3.860   0.636   0.136
15070TIP3    H145151   3.912   0.691   0.077
15070TIP3    H245152   3.811   0.578   0.078
15071TIP3   OH245153   3.017   5.374   0.503
15071TIP3    H145154   3.028   5.347   0.412
15071TIP3    H245155   3.096   5.425   0.523
15072TIP3   OH245156   0.757   5.978   1.171
15072TIP3    H145157   0.753   6.058   1.223
15072TIP3    H245158   0.688   5.988   1.105
15073TIP3   OH245159   6.787   6.875   3.710
15073TIP3    H145160   6.820   6.838   3.792
15073TIP3    H245161   6.735   6.805   3.671
15074TIP3   OH245162   3.305   5.683   1.411
15074TIP3    H145163   3.374   5.734   1.454
15074TIP3    H245164   3.300   5.720   1.323
15075TIP3   OH245165   6.424   3.423   2.825
15075TIP3    H145166   6.483   3.408   2.899
15075TIP3    H245167   6.336   3.408   2.861
15076TIP3   OH245168   2.369   7.247   5.047
15076TIP3    H145169   2.461   7.269   5.059
15076TIP3    H245170   2.324   7.332   5.048
15077TIP3   OH245171   1.007   5.149   6.275
15077TIP3    H145172   0.953   5.195   6.339
15077TIP3    H245173   1.069   5.098   6.327
15078TIP3   OH245174   2.738   3.219   6.871
15078TIP3    H145175   2.742   3.155   6.800
15078TIP3    H245176   2.648   3.214   6.903
15079TIP3   OH245177   1.651   0.422   4.807
15079TIP3    H145178   1.593   0.362   4.761
15079TIP3    H245179   1.593   0.493   4.836
15080TIP3   OH245180   4.714   0.093   0.161
15080TIP3    H145181   4.649   0.032   0.124
15080TIP3    H245182   4.671   0.178   0.158
15081TIP3   OH245183   5.331   1.197   5.746
15081TIP3    H145184   5.312   1.182   5.654
15081TIP3    H245185   5.353   1.290   5.751
15082TIP3   OH245186  -0.012   6.026   6.465
15082TIP3    H145187  -0.059   5.974   6.531
15082TIP3    H245188  -0.004   5.967   6.390
15083TIP3   OH245189   3.396   4.483   5.412
15083TIP3    H145190   3.400   4.505   5.319
15083TIP3    H245191   3.366   4.563   5.454
15084TIP3   OH245192   0.830   7.728   5.937
15084TIP3    H145193   0.780   7.807   5.918
15084TIP3    H245194   0.770   7.671   5.985
15085TIP3   OH245195   7.842   5.261   0.810
15085TIP3    H145196   7.831   5.311   0.729
15085TIP3    H245197   7.754   5.230   0.831
15086TIP3   OH245198   4.636   1.231   0.589
15086TIP3    H145199   4.601   1.299   0.646
15086TIP3    H245200   4.677   1.168   0.649
15087TIP3   OH245201   0.110   4.758   2.298
15087TIP3    H145202   0.082   4.773   2.389
15087TIP3    H245203   0.201   4.788   2.296
15088TIP3   OH245204   7.112   5.798   5.663
15088TIP3    H145205   7.045   5.838   5.607
15088TIP3    H245206   7.158   5.872   5.702
15089TIP3   OH245207   0.579   6.725   2.837
15089TIP3    H145208   0.576   6.633   2.863
15089TIP3    H245209   0.510   6.767   2.889
15090TIP3   OH245210   0.207   4.070   5.577
15090TIP3    H145211   0.179   4.078   5.669
15090TIP3    H245212   0.292   4.114   5.575
15091TIP3   OH245213   3.242   3.106   1.598
15091TIP3    H145214   3.332   3.106   1.631
15091TIP3    H245215   3.194   3.049   1.657
15092TIP3   OH245216   1.194   7.064   0.187
15092TIP3    H145217   1.136   7.097   0.255
15092TIP3    H245218   1.184   7.126   0.114
15093TIP3   OH245219   1.307   5.860   0.038
15093TIP3    H145220   1.288   5.769   0.062
15093TIP3    H245221   1.366   5.891   0.106
15094TIP3   OH245222   4.067   6.581   3.793
15094TIP3    H145223   4.038   6.524   3.722
15094TIP3    H245224   4.132   6.638   3.753
15095TIP3   OH245225   1.789   5.251   5.063
15095TIP3    H145226   1.841   5.300   5.127
15095TIP3    H245227   1.847   5.238   4.989
15096TIP3   OH245228   0.611   6.519   0.356
15096TIP3    H145229   0.644   6.526   0.266
15096TIP3    H245230   0.685   6.544   0.411
15097TIP3   OH245231   3.840   0.511   2.080
15097TIP3    H145232   3.836   0.554   2.166
15097TIP3    H245233   3.891   0.432   2.096
15098TIP3   OH245234   7.806   3.896   4.501
15098TIP3    H145235   7.887   3.914   4.548
15098TIP3    H245236   7.834   3.871   4.413
15099TIP3   OH245237   4.427   0.012   1.459
15099TIP3    H145238   4.456  -0.054   1.396
15099TIP3    H245239   4.505   0.066   1.475
15100TIP3   OH245240   6.005   6.806   5.521
15100TIP3    H145241   6.085   6.810   5.573
15100TIP3    H245242   5.958   6.730   5.555
15101TIP3   OH245243   0.092   5.040   4.156
15101TIP3    H145244   0.114   5.060   4.247
15101TIP3    H245245   0.028   5.106   4.132
15102TIP3   OH245246   1.369   6.770   4.292
15102TIP3    H145247   1.348   6.688   4.335
15102TIP3    H245248   1.285   6.816   4.283
15103TIP3   OH245249   2.768   1.377   4.505
15103TIP3    H145250   2.688   1.390   4.453
15103TIP3    H245251   2.768   1.450   4.567
15104TIP3   OH245252   1.066   3.169   1.809
15104TIP3    H145253   1.041   3.222   1.734
15104TIP3    H245254   0.994   3.180   1.872
15105TIP3   OH245255   4.632   3.025   6.250
15105TIP3    H145256   4.710   3.051   6.201
15105TIP3    H245257   4.663   3.007   6.338
15106TIP3   OH245258   5.153   6.636   3.252
15106TIP3    H145259   5.215   6.676   3.313
15106TIP3    H245260   5.089   6.592   3.308
15107TIP3   OH245261   2.651   4.828   0.254
15107TIP3    H145262   2.606   4.896   0.202
15107TIP3    H245263   2.580   4.775   0.289
15108TIP3   OH245264   1.257   2.015   1.789
15108TIP3    H145265   1.285   2.103   1.767
15108TIP3    H245266   1.192   2.027   1.858
15109TIP3   OH245267   0.290   2.598   0.716
15109TIP3    H145268   0.259   2.685   0.692
15109TIP3    H245269   0.315   2.557   0.633
15110TIP3   OH245270   2.421   5.107   4.223
15110TIP3    H145271   2.498   5.129   4.171
15110TIP3    H245272   2.440   5.138   4.311
15111TIP3   OH245273   5.917   7.688   5.992
15111TIP3    H145274   5.993   7.689   5.933
15111TIP3    H245275   5.889   7.596   5.993
15112TIP3   OH245276   8.263   5.602   0.988
15112TIP3    H145277   8.324   5.624   0.918
15112TIP3    H245278   8.188   5.660   0.974
15113TIP3   OH245279   6.026   7.812   5.675
15113TIP3    H145280   5.935   7.783   5.683
15113TIP3    H245281   6.074   7.761   5.740
15114TIP3   OH245282   4.238   6.902   6.478
15114TIP3    H145283   4.259   6.955   6.401
15114TIP3    H245284   4.277   6.816   6.460
15115TIP3   OH245285   4.386   2.021   1.240
15115TIP3    H145286   4.334   1.963   1.184
15115TIP3    H245287   4.465   1.971   1.260
15116TIP3   OH245288   2.026   2.222   2.057
15116TIP3    H145289   2.120   2.237   2.047
15116TIP3    H245290   2.019   2.168   2.136
15117TIP3   OH245291   0.877   4.266   0.253
15117TIP3    H145292   0.821   4.285   0.328
15117TIP3    H245293   0.846   4.325   0.184
15118TIP3   OH245294   8.051   4.245   3.124
15118TIP3    H145295   8.012   4.158   3.130
15118TIP3    H245296   8.058   4.274   3.215
15119TIP3   OH245297   1.212   1.087   5.022
15119TIP3    H145298   1.119   1.109   5.022
15119TIP3    H245299   1.226   1.041   4.939
15120TIP3   OH245300   4.249   6.156   0.079
15120TIP3    H145301   4.194   6.106   0.140
15120TIP3    H245302   4.291   6.089   0.025
15121TIP3   OH245303   1.024   6.105   4.074
15121TIP3    H145304   0.951   6.151   4.117
15121TIP3    H245305   1.079   6.075   4.147
15122TIP3   OH245306   6.068   4.012   6.596
15122TIP3    H145307   6.026   4.091   6.561
15122TIP3    H245308   6.127   3.984   6.526
15123TIP3   OH245309   4.680   5.749   1.537
15123TIP3    H145310   4.726   5.795   1.467
15123TIP3    H245311   4.678   5.658   1.507
15124TIP3   OH245312   5.168   1.085   5.549
15124TIP3    H145313   5.216   1.046   5.476
15124TIP3    H245314   5.082   1.107   5.512
15125TIP3   OH245315   1.846   2.950   3.989
15125TIP3    H145316   1.932   2.991   3.998
15125TIP3    H245317   1.846   2.879   4.052
15126TIP3   OH245318   3.680   1.296   4.986
15126TIP3    H145319   3.667   1.354   4.911
15126TIP3    H245320   3.724   1.219   4.949
15127TIP3   OH245321   5.131   6.074   0.726
15127TIP3    H145322   5.137   6.165   0.756
15127TIP3    H245323   5.210   6.032   0.758
15128TIP3   OH245324   4.503   2.898   3.294
15128TIP3    H145325   4.488   2.813   3.336
15128TIP3    H245326   4.593   2.893   3.260
15129TIP3   OH245327   8.226   1.698   3.781
15129TIP3    H145328   8.275   1.631   3.829
15129TIP3    H245329   8.202   1.763   3.847
15130TIP3   OH245330   6.375   2.378   1.736
15130TIP3    H145331   6.406   2.288   1.726
15130TIP3    H245332   6.347   2.404   1.648
15131TIP3   OH245333   6.458   5.677   1.173
15131TIP3    H145334   6.370   5.655   1.206
15131TIP3    H245335   6.511   5.686   1.251
15132TIP3   OH245336   7.187   2.587   1.921
15132TIP3    H145337   7.246   2.569   1.848
15132TIP3    H245338   7.143   2.668   1.898
15133TIP3   OH245339   3.094   0.646   0.256
15133TIP3    H145340   3.189   0.657   0.255
15133TIP3    H245341   3.081   0.551   0.252
15134TIP3   OH245342   0.528   0.873   5.846
15134TIP3    H145343   0.539   0.835   5.758
15134TIP3    H245344   0.488   0.958   5.830
15135TIP3   OH245345   1.234   6.865   1.587
15135TIP3    H145346   1.245   6.958   1.571
15135TIP3    H245347   1.215   6.828   1.500
15136TIP3   OH245348   5.301   0.014   2.096
15136TIP3    H145349   5.368  -0.024   2.152
15136TIP3    H245350   5.323   0.107   2.091
15137TIP3   OH245351   6.706   2.748   3.517
15137TIP3    H145352   6.642   2.711   3.578
15137TIP3    H245353   6.765   2.674   3.498
15138TIP3   OH245354   0.630   7.410   2.949
15138TIP3    H145355   0.709   7.439   2.903
15138TIP3    H245356   0.642   7.441   3.039
15139TIP3   OH245357   2.226   3.249   1.621
15139TIP3    H145358   2.291   3.199   1.671
15139TIP3    H245359   2.143   3.231   1.666
15140TIP3   OH245360   0.027   3.247   6.369
15140TIP3    H145361   0.076   3.167   6.355
15140TIP3    H245362  -0.021   3.261   6.287
15141TIP3   OH245363   5.955   5.044   5.521
15141TIP3    H145364   5.884   5.096   5.557
15141TIP3    H245365   6.028   5.106   5.513
15142TIP3   OH245366   1.365   5.600   2.637
15142TIP3    H145367   1.417   5.529   2.598
15142TIP3    H245368   1.420   5.678   2.627
15143TIP3   OH245369   6.316   0.511   5.312
15143TIP3    H145370   6.341   0.603   5.320
15143TIP3    H245371   6.325   0.491   5.219
15144TIP3   OH245372   3.660   2.705   1.492
15144TIP3    H145373   3.718   2.759   1.544
15144TIP3    H245374   3.614   2.766   1.434
15145TIP3   OH245375   5.216   0.767   3.428
15145TIP3    H145376   5.209   0.696   3.364
15145TIP3    H245377   5.292   0.818   3.399
15146TIP3   OH245378   1.700   5.458   1.624
15146TIP3    H145379   1.618   5.442   1.672
15146TIP3    H245380   1.672   5.490   1.538
15147TIP3   OH245381   0.213   3.914   2.629
15147TIP3    H145382   0.247   3.958   2.707
15147TIP3    H245383   0.232   3.821   2.645
15148TIP3   OH245384   2.210   3.718   5.968
15148TIP3    H145385   2.207   3.674   6.053
15148TIP3    H245386   2.272   3.666   5.917
15149TIP3   OH245387   0.830   1.111   3.405
15149TIP3    H145388   0.876   1.167   3.343
15149TIP3    H245389   0.891   1.039   3.423
15150TIP3   OH245390   6.918   3.325   4.031
15150TIP3    H145391   6.926   3.355   3.941
15150TIP3    H245392   6.835   3.276   4.033
15151TIP3   OH245393   4.805   1.448   4.270
15151TIP3    H145394   4.869   1.380   4.291
15151TIP3    H245395   4.721   1.409   4.297
15152TIP3   OH245396   3.198   5.155   4.192
15152TIP3    H145397   3.247   5.173   4.272
15152TIP3    H245398   3.265   5.137   4.126
15153TIP3   OH245399   3.870   0.318   1.499
15153TIP3    H145400   3.923   0.330   1.578
15153TIP3    H245401   3.783   0.295   1.532
15154TIP3   OH245402   4.433   1.071   0.429
15154TIP3    H145403   4.517   1.047   0.391
15154TIP3    H245404   4.395   1.134   0.367
15155TIP3   OH245405   8.295   3.130   5.922
15155TIP3    H145406   8.269   3.040   5.899
15155TIP3    H245407   8.247   3.149   6.003
15156TIP3   OH245408   1.093   0.085   2.505
15156TIP3    H145409   1.039   0.066   2.429
15156TIP3    H245410   1.082   0.179   2.519
15157TIP3   OH245411   6.689   1.806   5.118
15157TIP3    H145412   6.744   1.735   5.152
15157TIP3    H245413   6.734   1.886   5.145
15158TIP3   OH245414   8.127   6.078   6.760
15158TIP3    H145415   8.064   6.145   6.787
15158TIP3    H245416   8.212   6.114   6.785
15159TIP3   OH245417   3.090   2.232   6.758
15159TIP3    H145418   3.140   2.314   6.752
15159TIP3    H245419   3.125   2.178   6.687
15160TIP3   OH245420   7.348   3.634   0.593
15160TIP3    H145421   7.255   3.613   0.584
15160TIP3    H245422   7.365   3.630   0.687
15161TIP3   OH245423   2.758   0.294   3.429
15161TIP3    H145424   2.833   0.260   3.478
15161TIP3    H245425   2.777   0.388   3.418
15162TIP3   OH245426   6.343   0.541   1.109
15162TIP3    H145427   6.377   0.461   1.150
15162TIP3    H245428   6.333   0.518   1.017
15163TIP3   OH245429   1.912   5.249   3.949
15163TIP3    H145430   1.950   5.171   3.910
15163TIP3    H245431   1.987   5.296   3.986
15164TIP3   OH245432   3.406   1.022   6.566
15164TIP3    H145433   3.337   0.976   6.519
15164TIP3    H245434   3.377   1.024   6.657
15165TIP3   OH245435   6.852   4.155   2.880
15165TIP3    H145436   6.870   4.198   2.796
15165TIP3    H245437   6.774   4.102   2.864
15166TIP3   OH245438   7.412   7.471   3.048
15166TIP3    H145439   7.321   7.485   3.024
15166TIP3    H245440   7.410   7.450   3.142
15167TIP3   OH245441   6.700   4.303   3.129
15167TIP3    H145442   6.769   4.338   3.073
15167TIP3    H245443   6.668   4.378   3.178
15168TIP3   OH245444   7.398   1.546   3.678
15168TIP3    H145445   7.412   1.486   3.605
15168TIP3    H245446   7.424   1.496   3.755
15169TIP3   OH245447   4.715   4.757   2.986
15169TIP3    H145448   4.722   4.758   2.891
15169TIP3    H245449   4.703   4.665   3.009
15170TIP3   OH245450   0.438   7.444   2.296
15170TIP3    H145451   0.399   7.368   2.338
15170TIP3    H245452   0.398   7.519   2.341
15171TIP3   OH245453   3.129   0.245   0.633
15171TIP3    H145454   3.092   0.199   0.558
15171TIP3    H245455   3.065   0.230   0.703
15172TIP3   OH245456   6.697   5.160   5.575
15172TIP3    H145457   6.743   5.099   5.632
15172TIP3    H245458   6.760   5.181   5.506
15173TIP3   OH245459   2.031   6.559   1.275
15173TIP3    H145460   1.988   6.515   1.348
15173TIP3    H245461   1.978   6.636   1.258
15174TIP3   OH245462   1.028   4.918   1.216
15174TIP3    H145463   1.093   4.960   1.273
15174TIP3    H245464   1.048   4.825   1.222
15175TIP3   OH245465   1.429   4.541   4.694
15175TIP3    H145466   1.373   4.478   4.650
15175TIP3    H245467   1.490   4.570   4.626
15176TIP3   OH245468   7.736   0.329   5.906
15176TIP3    H145469   7.767   0.249   5.865
15176TIP3    H245470   7.755   0.398   5.841
15177TIP3   OH245471   7.427   2.986   0.863
15177TIP3    H145472   7.448   3.076   0.890
15177TIP3    H245473   7.337   2.972   0.894
15178TIP3   OH245474   3.837   2.498   6.709
15178TIP3    H145475   3.932   2.495   6.695
15178TIP3    H245476   3.824   2.458   6.795
15179TIP3   OH245477   5.651   5.078   0.756
15179TIP3    H145478   5.744   5.093   0.737
15179TIP3    H245479   5.605   5.120   0.684
15180TIP3   OH245480   2.839   6.442   5.560
15180TIP3    H145481   2.856   6.390   5.481
15180TIP3    H245482   2.792   6.382   5.618
15181TIP3   OH245483   3.609   1.216   4.377
15181TIP3    H145484   3.643   1.301   4.352
15181TIP3    H245485   3.524   1.209   4.334
15182TIP3   OH245486   7.341   6.308   0.647
15182TIP3    H145487   7.253   6.344   0.634
15182TIP3    H245488   7.397   6.362   0.590
15183TIP3   OH245489   8.074   7.385   3.444
15183TIP3    H145490   8.149   7.443   3.459
15183TIP3    H245491   8.054   7.396   3.351
15184TIP3   OH245492   7.419   4.838   4.151
15184TIP3    H145493   7.377   4.864   4.069
15184TIP3    H245494   7.385   4.750   4.169
15185TIP3   OH245495   3.829   4.970   1.493
15185TIP3    H145496   3.808   5.061   1.516
15185TIP3    H245497   3.745   4.925   1.492
15186TIP3   OH245498   3.893   5.297   3.036
15186TIP3    H145499   3.986   5.320   3.030
15186TIP3    H245500   3.867   5.321   3.125
15187TIP3   OH245501   2.741   2.578   2.735
15187TIP3    H145502   2.676   2.594   2.804
15187TIP3    H245503   2.690   2.550   2.660
15188TIP3   OH245504   1.309   5.604   0.118
15188TIP3    H145505   1.356   5.541   0.064
15188TIP3    H245506   1.342   5.590   0.207
15189TIP3   OH245507   1.638   2.758   4.098
15189TIP3    H145508   1.562   2.743   4.155
15189TIP3    H245509   1.714   2.753   4.156
15190TIP3   OH245510   5.098   5.280   5.398
15190TIP3    H145511   5.029   5.329   5.354
15190TIP3    H245512   5.106   5.199   5.347
15191TIP3   OH245513   5.985   3.506   3.162
15191TIP3    H145514   5.892   3.484   3.165
15191TIP3    H245515   5.989   3.598   3.186
15192TIP3   OH245516   4.627   3.576   5.162
15192TIP3    H145517   4.717   3.590   5.131
15192TIP3    H245518   4.579   3.652   5.128
15193TIP3   OH245519   1.568   1.958   3.090
15193TIP3    H145520   1.635   2.026   3.092
15193TIP3    H245521   1.552   1.943   2.997
15194TIP3   OH245522   2.796   0.350   5.656
15194TIP3    H145523   2.778   0.421   5.717
15194TIP3    H245524   2.730   0.360   5.588
15195TIP3   OH245525   7.817   4.350   1.488
15195TIP3    H145526   7.848   4.392   1.569
15195TIP3    H245527   7.732   4.391   1.472
15196TIP3   OH245528   3.048   7.143   3.110
15196TIP3    H145529   3.092   7.184   3.036
15196TIP3    H245530   2.971   7.198   3.125
15197TIP3   OH245531   2.215   0.344   0.558
15197TIP3    H145532   2.303   0.375   0.538
15197TIP3    H245533   2.163   0.424   0.566
15198TIP3   OH245534   0.572   2.628   6.834
15198TIP3    H145535   0.564   2.623   6.738
15198TIP3    H245536   0.499   2.683   6.861
15199TIP3   OH245537   7.753   3.822   0.646
15199TIP3    H145538   7.674   3.830   0.592
15199TIP3    H245539   7.726   3.853   0.733
15200TIP3   OH245540   0.107   0.396   5.158
15200TIP3    H145541   0.035   0.452   5.188
15200TIP3    H245542   0.183   0.427   5.207
15201TIP3   OH245543   8.202   7.620   1.313
15201TIP3    H145544   8.223   7.599   1.222
15201TIP3    H245545   8.124   7.676   1.308
15202TIP3   OH245546   7.952   6.372   2.158
15202TIP3    H145547   7.938   6.402   2.248
15202TIP3    H245548   8.004   6.441   2.118
15203TIP3   OH245549   3.481   2.965   0.307
15203TIP3    H145550   3.548   2.903   0.333
15203TIP3    H245551   3.529   3.042   0.278
15204TIP3   OH245552   7.945   0.259   6.330
15204TIP3    H145553   7.913   0.169   6.328
15204TIP3    H245554   8.022   0.259   6.273
15205TIP3   OH245555   5.491   1.116   2.081
15205TIP3    H145556   5.528   1.129   2.168
15205TIP3    H245557   5.413   1.171   2.080
15206TIP3   OH245558   5.022   7.678   3.351
15206TIP3    H145559   5.104   7.662   3.304
15206TIP3    H245560   5.030   7.625   3.431
15207TIP3   OH245561   2.681   4.449   0.167
15207TIP3    H145562   2.716   4.503   0.096
15207TIP3    H245563   2.677   4.508   0.243
15208TIP3   OH245564   6.758   6.152   1.679
15208TIP3    H145565   6.783   6.084   1.617
15208TIP3    H245566   6.713   6.218   1.625
15209TIP3   OH245567   0.851   7.852   3.967
15209TIP3    H145568   0.788   7.877   4.035
15209TIP3    H245569   0.932   7.834   4.016
15210TIP3   OH245570   2.488   2.588   5.328
15210TIP3    H145571   2.460   2.680   5.330
15210TIP3    H245572   2.408   2.540   5.307
15211TIP3   OH245573   3.183   1.057   3.658
15211TIP3    H145574   3.153   1.022   3.742
15211TIP3    H245575   3.234   0.986   3.620
15212TIP3   OH245576   0.913   4.373   3.578
15212TIP3    H145577   0.882   4.431   3.648
15212TIP3    H245578   1.005   4.395   3.568
15213TIP3   OH245579   8.395   0.619   1.618
15213TIP3    H145580   8.317   0.655   1.576
15213TIP3    H245581   8.368   0.602   1.708
15214TIP3   OH245582   0.954   6.278   1.203
15214TIP3    H145583   0.938   6.324   1.285
15214TIP3    H245584   0.997   6.342   1.147
15215TIP3   OH245585   5.166   1.506   4.106
15215TIP3    H145586   5.208   1.507   4.020
15215TIP3    H245587   5.184   1.418   4.141
15216TIP3   OH245588   1.520   4.815  -0.048
15216TIP3    H145589   1.467   4.863   0.015
15216TIP3    H245590   1.472   4.733  -0.061
15217TIP3   OH245591   6.811   2.482   6.073
15217TIP3    H145592   6.898   2.458   6.106
15217TIP3    H245593   6.757   2.489   6.151
15218TIP3   OH245594   2.581   5.825   4.259
15218TIP3    H145595   2.650   5.890   4.239
15218TIP3    H245596   2.613   5.780   4.337
15219TIP3   OH245597   3.447   5.693   3.667
15219TIP3    H145598   3.415   5.773   3.709
15219TIP3    H245599   3.480   5.640   3.739
15220TIP3   OH245600   0.040   2.650   2.747
15220TIP3    H145601   0.133   2.642   2.727
15220TIP3    H245602   0.018   2.568   2.791
15221TIP3   OH245603   3.157   5.623   0.911
15221TIP3    H145604   3.244   5.640   0.876
15221TIP3    H245605   3.156   5.529   0.929
15222TIP3   OH245606   6.905   3.039   5.510
15222TIP3    H145607   6.999   3.039   5.489
15222TIP3    H245608   6.895   3.109   5.574
15223TIP3   OH245609   0.362   2.291   6.412
15223TIP3    H145610   0.336   2.216   6.359
15223TIP3    H245611   0.453   2.273   6.436
15224TIP3   OH245612   0.476   4.621   4.418
15224TIP3    H145613   0.428   4.669   4.351
15224TIP3    H245614   0.409   4.572   4.466
15225TIP3   OH245615   1.951   4.715   1.821
15225TIP3    H145616   2.029   4.674   1.784
15225TIP3    H245617   1.984   4.794   1.864
15226TIP3   OH245618   3.202   1.925   5.934
15226TIP3    H145619   3.212   1.909   5.840
15226TIP3    H245620   3.133   1.864   5.962
15227TIP3   OH245621   0.919   7.519   1.029
15227TIP3    H145622   0.853   7.562   0.975
15227TIP3    H245623   1.002   7.544   0.989
15228TIP3   OH245624   0.639   1.517   1.828
15228TIP3    H145625   0.578   1.582   1.793
15228TIP3    H245626   0.696   1.566   1.888
15229TIP3   OH245627   3.584   3.893   2.184
15229TIP3    H145628   3.629   3.897   2.269
15229TIP3    H245629   3.551   3.803   2.179
15230TIP3   OH245630   2.482   3.742   6.278
15230TIP3    H145631   2.453   3.833   6.276
15230TIP3    H245632   2.457   3.711   6.365
15231TIP3   OH245633   1.987   1.996   2.245
15231TIP3    H145634   2.054   1.945   2.199
15231TIP3    H245635   1.905   1.971   2.203
15232TIP3   OH245636   1.985   2.544   0.149
15232TIP3    H145637   2.003   2.630   0.111
15232TIP3    H245638   1.960   2.562   0.240
15233TIP3   OH245639   2.249   3.888   3.179
15233TIP3    H145640   2.153   3.896   3.181
15233TIP3    H245641   2.279   3.948   3.248
15234TIP3   OH245642   0.714   3.921   1.688
15234TIP3    H145643   0.621   3.916   1.666
15234TIP3    H245644   0.753   3.845   1.646
15235TIP3   OH245645   0.692   0.083   4.315
15235TIP3    H145646   0.652   0.018   4.372
15235TIP3    H245647   0.654   0.166   4.343
15236TIP3   OH245648   4.631   5.392   1.101
15236TIP3    H145649   4.645   5.344   1.020
15236TIP3    H245650   4.625   5.484   1.075
15237TIP3   OH245651   2.962   1.293   1.864
15237TIP3    H145652   2.883   1.271   1.815
15237TIP3    H245653   2.982   1.215   1.915
15238TIP3   OH245654   0.936   2.215   0.116
15238TIP3    H145655   0.873   2.271   0.161
15238TIP3    H245656   0.885   2.172   0.047
15239TIP3   OH245657   5.709   1.407   2.365
15239TIP3    H145658   5.718   1.497   2.396
15239TIP3    H245659   5.627   1.406   2.316
15240TIP3   OH245660   0.863   2.630   2.274
15240TIP3    H145661   0.775   2.595   2.259
15240TIP3    H245662   0.921   2.569   2.228
15241TIP3   OH245663   3.298   3.196   0.159
15241TIP3    H145664   3.283   3.146   0.240
15241TIP3    H245665   3.240   3.156   0.095
15242TIP3   OH245666   6.054   2.507   1.175
15242TIP3    H145667   6.040   2.425   1.129
15242TIP3    H245668   6.139   2.498   1.216
15243TIP3   OH245669   6.306   6.901   3.960
15243TIP3    H145670   6.287   6.952   4.039
15243TIP3    H245671   6.352   6.963   3.903
15244TIP3   OH245672   5.357   0.849   1.556
15244TIP3    H145673   5.314   0.765   1.544
15244TIP3    H245674   5.396   0.844   1.643
15245TIP3   OH245675   3.229   2.656   0.843
15245TIP3    H145676   3.181   2.682   0.764
15245TIP3    H245677   3.265   2.570   0.821
15246TIP3   OH245678   0.862   2.459   3.345
15246TIP3    H145679   0.886   2.548   3.321
15246TIP3    H245680   0.924   2.435   3.415
15247TIP3   OH245681   5.104   6.461   0.501
15247TIP3    H145682   5.191   6.420   0.506
15247TIP3    H245683   5.095   6.486   0.409
15248TIP3   OH245684   2.739   2.549   0.457
15248TIP3    H145685   2.696   2.464   0.450
15248TIP3    H245686   2.805   2.548   0.388
15249TIP3   OH245687   2.118   7.061   0.625
15249TIP3    H145688   2.137   7.063   0.531
15249TIP3    H245689   2.047   6.997   0.633
15250TIP3   OH245690   1.882   4.687   0.460
15250TIP3    H145691   1.857   4.741   0.535
15250TIP3    H245692   1.905   4.750   0.392
15251TIP3   OH245693   2.402   3.317   5.225
15251TIP3    H145694   2.429   3.404   5.253
15251TIP3    H245695   2.313   3.328   5.193
15252TIP3   OH245696   0.559   5.257   0.717
15252TIP3    H145697   0.494   5.320   0.747
15252TIP3    H245698   0.611   5.305   0.653
15253TIP3   OH245699   0.450   0.381   4.235
15253TIP3    H145700   0.507   0.398   4.160
15253TIP3    H245701   0.439   0.466   4.277
15254TIP3   OH245702   3.156   5.731   3.508
15254TIP3    H145703   3.156   5.811   3.456
15254TIP3    H245704   3.078   5.683   3.480
15255TIP3   OH245705   6.968   3.734   2.600
15255TIP3    H145706   6.969   3.812   2.656
15255TIP3    H245707   7.060   3.710   2.590
15256TIP3   OH245708   5.300   2.558   4.801
15256TIP3    H145709   5.379   2.504   4.800
15256TIP3    H245710   5.257   2.538   4.718
15257TIP3   OH245711   5.818   6.762   6.060
15257TIP3    H145712   5.878   6.718   6.121
15257TIP3    H245713   5.850   6.852   6.057
15258TIP3   OH245714   8.370   0.010   0.499
15258TIP3    H145715   8.316   0.089   0.496
15258TIP3    H245716   8.453   0.038   0.537
15259TIP3   OH245717   4.568   6.512   4.290
15259TIP3    H145718   4.486   6.545   4.327
15259TIP3    H245719   4.615   6.474   4.364
15260TIP3   OH245720   3.361   3.233   3.677
15260TIP3    H145721   3.336   3.269   3.762
15260TIP3    H245722   3.289   3.173   3.654
15261TIP3   OH245723   2.560   6.712   2.166
15261TIP3    H145724   2.535   6.722   2.074
15261TIP3    H245725   2.562   6.801   2.200
15262TIP3   OH245726   1.285   5.931   3.277
15262TIP3    H145727   1.237   5.871   3.219
15262TIP3    H245728   1.314   5.876   3.349
15263TIP3   OH245729   4.263   3.745   0.122
15263TIP3    H145730   4.329   3.742   0.053
15263TIP3    H245731   4.185   3.782   0.081
15264TIP3   OH245732   0.585   1.630   1.386
15264TIP3    H145733   0.506   1.671   1.421
15264TIP3    H245734   0.606   1.560   1.447
15265TIP3   OH245735   8.123   0.174   5.598
15265TIP3    H145736   8.042   0.207   5.559
15265TIP3    H245737   8.185   0.170   5.525
15266TIP3   OH245738   1.964   2.757   1.829
15266TIP3    H145739   1.891   2.701   1.800
15266TIP3    H245740   2.038   2.729   1.776
15267TIP3   OH245741   3.984   6.228   4.905
15267TIP3    H145742   3.990   6.214   5.000
15267TIP3    H245743   4.075   6.236   4.876
15268TIP3   OH245744   1.017   1.580   6.711
15268TIP3    H145745   1.051   1.638   6.780
15268TIP3    H245746   0.959   1.519   6.757
15269TIP3   OH245747   4.390   1.366   0.989
15269TIP3    H145748   4.320   1.346   1.052
15269TIP3    H245749   4.470   1.366   1.042
15270TIP3   OH245750   1.184   4.311   6.607
15270TIP3    H145751   1.156   4.259   6.531
15270TIP3    H245752   1.255   4.366   6.573
15271TIP3   OH245753   1.756   6.856   5.030
15271TIP3    H145754   1.696   6.790   5.064
15271TIP3    H245755   1.702   6.935   5.020
15272TIP3   OH245756   0.237   6.658   2.775
15272TIP3    H145757   0.295   6.715   2.724
15272TIP3    H245758   0.292   6.584   2.800
15273TIP3   OH245759   3.437   5.598   5.075
15273TIP3    H145760   3.526   5.628   5.059
15273TIP3    H245761   3.390   5.677   5.102
15274TIP3   OH245762   5.670   0.310   2.025
15274TIP3    H145763   5.649   0.401   2.002
15274TIP3    H245764   5.610   0.258   1.972
15275TIP3   OH245765   0.687   2.330   1.219
15275TIP3    H145766   0.636   2.412   1.220
15275TIP3    H245767   0.679   2.297   1.308
15276TIP3   OH245768   2.877   7.890   2.713
15276TIP3    H145769   2.892   7.983   2.733
15276TIP3    H245770   2.917   7.877   2.627
15277TIP3   OH245771   8.257   2.815   0.302
15277TIP3    H145772   8.197   2.859   0.242
15277TIP3    H245773   8.320   2.770   0.245
15278TIP3   OH245774   3.225   2.625   1.115
15278TIP3    H145775   3.254   2.616   1.025
15278TIP3    H245776   3.300   2.664   1.161
15279TIP3   OH245777   3.463   2.946   6.246
15279TIP3    H145778   3.543   2.897   6.267
15279TIP3    H245779   3.441   2.918   6.157
15280TIP3   OH245780   7.506   3.688   0.993
15280TIP3    H145781   7.422   3.675   0.949
15280TIP3    H245782   7.495   3.768   1.044
15281TIP3   OH245783   7.745   2.049   1.382
15281TIP3    H145784   7.791   1.994   1.445
15281TIP3    H245785   7.808   2.118   1.360
15282TIP3   OH245786   5.840   4.796   6.787
15282TIP3    H145787   5.860   4.885   6.815
15282TIP3    H245788   5.925   4.751   6.789
15283TIP3   OH245789   6.889   3.807   1.483
15283TIP3    H145790   6.837   3.729   1.470
15283TIP3    H245791   6.980   3.776   1.480
15284TIP3   OH245792   4.193   1.349   6.693
15284TIP3    H145793   4.244   1.410   6.639
15284TIP3    H245794   4.258   1.306   6.749
15285TIP3   OH245795   3.678   0.515   6.495
15285TIP3    H145796   3.693   0.439   6.439
15285TIP3    H245797   3.701   0.590   6.440
15286TIP3   OH245798   4.509   4.134   5.598
15286TIP3    H145799   4.523   4.136   5.692
15286TIP3    H245800   4.518   4.041   5.574
15287TIP3   OH245801   2.657   7.086   4.323
15287TIP3    H145802   2.646   7.053   4.413
15287TIP3    H245803   2.612   7.170   4.324
15288TIP3   OH245804   8.207   3.653   4.490
15288TIP3    H145805   8.226   3.626   4.400
15288TIP3    H245806   8.195   3.748   4.485
15289TIP3   OH245807   5.223   3.384   3.372
15289TIP3    H145808   5.241   3.335   3.452
15289TIP3    H245809   5.160   3.451   3.399
15290TIP3   OH245810   5.753   5.734   3.621
15290TIP3    H145811   5.843   5.702   3.626
15290TIP3    H245812   5.756   5.821   3.660
15291TIP3   OH245813   8.201   2.632   3.998
15291TIP3    H145814   8.197   2.573   3.923
15291TIP3    H245815   8.233   2.715   3.962
15292TIP3   OH245816   8.131   3.062   6.145
15292TIP3    H145817   8.131   2.988   6.206
15292TIP3    H245818   8.041   3.065   6.112
15293TIP3   OH245819   5.773   7.037   2.862
15293TIP3    H145820   5.836   7.107   2.881
15293TIP3    H245821   5.812   6.959   2.902
15294TIP3   OH245822   1.249   2.523   5.995
15294TIP3    H145823   1.240   2.514   6.090
15294TIP3    H245824   1.337   2.559   5.982
15295TIP3   OH245825   7.765   0.517   5.120
15295TIP3    H145826   7.713   0.597   5.112
15295TIP3    H245827   7.840   0.543   5.174
15296TIP3   OH245828   0.845   6.395   2.843
15296TIP3    H145829   0.752   6.376   2.840
15296TIP3    H245830   0.870   6.384   2.935
15297TIP3   OH245831   2.506   2.553   2.386
15297TIP3    H145832   2.494   2.628   2.444
15297TIP3    H245833   2.544   2.485   2.443
15298TIP3   OH245834   1.428   7.160   4.529
15298TIP3    H145835   1.475   7.108   4.463
15298TIP3    H245836   1.342   7.175   4.490
15299TIP3   OH245837   4.404   6.458   4.637
15299TIP3    H145838   4.415   6.368   4.606
15299TIP3    H245839   4.485   6.478   4.683
15300TIP3   OH245840   3.933   4.443   2.087
15300TIP3    H145841   3.971   4.524   2.122
15300TIP3    H245842   3.866   4.419   2.151
15301TIP3   OH245843   0.183   7.429   4.781
15301TIP3    H145844   0.181   7.508   4.727
15301TIP3    H245845   0.275   7.419   4.805
15302TIP3   OH245846   0.747   3.681   5.849
15302TIP3    H145847   0.704   3.641   5.924
15302TIP3    H245848   0.764   3.771   5.877
15303TIP3   OH245849   2.359   6.902   5.476
15303TIP3    H145850   2.335   6.995   5.471
15303TIP3    H245851   2.409   6.887   5.395
15304TIP3   OH245852   2.339   4.306   6.038
15304TIP3    H145853   2.375   4.385   6.077
15304TIP3    H245854   2.413   4.267   5.991
15305TIP3   OH245855   4.059   2.893   3.482
15305TIP3    H145856   3.996   2.964   3.491
15305TIP3    H245857   4.143   2.937   3.466
15306TIP3   OH245858   1.959   7.658   4.435
15306TIP3    H145859   1.989   7.749   4.441
15306TIP3    H245860   2.030   7.607   4.474
15307TIP3   OH245861   2.886   6.576   6.608
15307TIP3    H145862   2.858   6.487   6.588
15307TIP3    H245863   2.981   6.573   6.606
15308TIP3   OH245864   3.352   3.339   1.911
15308TIP3    H145865   3.324   3.371   1.825
15308TIP3    H245866   3.416   3.404   1.941
15309TIP3   OH245867   3.322   2.960   4.895
15309TIP3    H145868   3.246   2.956   4.837
15309TIP3    H245869   3.296   3.020   4.965
15310TIP3   OH245870   3.665   4.445   0.530
15310TIP3    H145871   3.713   4.372   0.492
15310TIP3    H245872   3.705   4.523   0.491
15311TIP3   OH245873   1.904   0.661   4.663
15311TIP3    H145874   1.959   0.584   4.654
15311TIP3    H245875   1.939   0.723   4.598
15312TIP3   OH245876   8.041   0.877   4.609
15312TIP3    H145877   8.096   0.865   4.532
15312TIP3    H245878   7.966   0.927   4.577
15313TIP3   OH245879   4.629   3.222   4.767
15313TIP3    H145880   4.598   3.165   4.696
15313TIP3    H245881   4.581   3.191   4.844
15314TIP3   OH245882   5.849   4.356   1.819
15314TIP3    H145883   5.754   4.366   1.828
15314TIP3    H245884   5.882   4.446   1.818
15315TIP3   OH245885   3.019   1.715   1.722
15315TIP3    H145886   3.010   1.673   1.637
15315TIP3    H245887   3.013   1.809   1.703
15316TIP3   OH245888   0.413   7.628   4.975
15316TIP3    H145889   0.469   7.685   4.922
15316TIP3    H245890   0.385   7.684   5.047
15317TIP3   OH245891   7.187   0.452   5.399
15317TIP3    H145892   7.265   0.504   5.416
15317TIP3    H245893   7.117   0.498   5.445
15318TIP3   OH245894   1.895   6.543   0.255
15318TIP3    H145895   1.800   6.539   0.264
15318TIP3    H245896   1.918   6.464   0.206
15319TIP3   OH245897   7.405   1.337   2.766
15319TIP3    H145898   7.330   1.329   2.706
15319TIP3    H245899   7.385   1.414   2.819
15320TIP3   OH245900   3.031   6.212   2.221
15320TIP3    H145901   3.074   6.146   2.276
15320TIP3    H245902   3.096   6.282   2.211
15321TIP3   OH245903   5.574   2.233   5.728
15321TIP3    H145904   5.610   2.158   5.681
15321TIP3    H245905   5.628   2.240   5.807
15322TIP3   OH245906   1.998   6.934   4.410
15322TIP3    H145907   1.930   7.000   4.411
15322TIP3    H245908   2.003   6.903   4.501
15323TIP3   OH245909   6.656   1.413   0.138
15323TIP3    H145910   6.643   1.328   0.178
15323TIP3    H245911   6.714   1.396   0.064
15324TIP3   OH245912   8.297   4.172   2.889
15324TIP3    H145913   8.291   4.081   2.862
15324TIP3    H245914   8.231   4.217   2.836
15325TIP3   OH245915   1.818   4.939   4.099
15325TIP3    H145916   1.842   5.011   4.156
15325TIP3    H245917   1.834   4.971   4.011
15326TIP3   OH245918   2.822   4.877   4.017
15326TIP3    H145919   2.891   4.888   4.082
15326TIP3    H245920   2.850   4.932   3.943
15327TIP3   OH245921   4.919   0.648   5.942
15327TIP3    H145922   4.845   0.708   5.928
15327TIP3    H245923   4.925   0.640   6.037
15328TIP3   OH245924   4.083   4.189   2.008
15328TIP3    H145925   4.024   4.257   2.040
15328TIP3    H245926   4.077   4.195   1.913
15329TIP3   OH245927   4.774   2.707   4.230
15329TIP3    H145928   4.680   2.691   4.225
15329TIP3    H245929   4.813   2.621   4.244
15330TIP3   OH245930   4.059   0.255   5.299
15330TIP3    H145931   4.064   0.159   5.290
15330TIP3    H245932   4.006   0.282   5.224
15331TIP3   OH245933   1.595   6.574   4.962
15331TIP3    H145934   1.569   6.652   4.912
15331TIP3    H245935   1.516   6.549   5.009
15332TIP3   OH245936   2.480   2.555   3.424
15332TIP3    H145937   2.461   2.462   3.441
15332TIP3    H245938   2.448   2.569   3.335
15333TIP3   OH245939   5.321   7.319   5.167
15333TIP3    H145940   5.302   7.402   5.124
15333TIP3    H245941   5.408   7.331   5.205
15334TIP3   OH245942   4.012   0.732   4.561
15334TIP3    H145943   3.987   0.823   4.547
15334TIP3    H245944   3.968   0.684   4.491
15335TIP3   OH245945   0.988   7.543   5.437
15335TIP3    H145946   0.907   7.568   5.482
15335TIP3    H245947   0.958   7.511   5.352
15336TIP3   OH245948   0.563   1.182   1.654
15336TIP3    H145949   0.650   1.222   1.645
15336TIP3    H245950   0.556   1.162   1.747
15337TIP3   OH245951   6.939   0.860   2.930
15337TIP3    H145952   7.022   0.872   2.883
15337TIP3    H245953   6.959   0.886   3.020
15338TIP3   OH245954   4.667   0.916   4.537
15338TIP3    H145955   4.658   0.975   4.612
15338TIP3    H245956   4.640   0.831   4.571
15339TIP3   OH245957   3.097   3.975   5.892
15339TIP3    H145958   3.074   3.887   5.923
15339TIP3    H245959   3.070   4.033   5.963
15340TIP3   OH245960   1.283   3.082   4.667
15340TIP3    H145961   1.336   3.082   4.747
15340TIP3    H245962   1.299   2.995   4.629
15341TIP3   OH245963   7.180   1.188   4.968
15341TIP3    H145964   7.126   1.171   4.890
15341TIP3    H245965   7.133   1.256   5.015
15342TIP3   OH245966   1.778   4.862   4.890
15342TIP3    H145967   1.721   4.938   4.887
15342TIP3    H245968   1.745   4.810   4.963
15343TIP3   OH245969   5.113   2.084   0.257
15343TIP3    H145970   5.024   2.050   0.269
15343TIP3    H245971   5.101   2.170   0.218
15344TIP3   OH245972   1.166   0.192   3.250
15344TIP3    H145973   1.198   0.109   3.216
15344TIP3    H245974   1.232   0.218   3.315
15345TIP3   OH245975   2.305   1.958   3.617
15345TIP3    H145976   2.265   2.039   3.649
15345TIP3    H245977   2.232   1.908   3.581
15346TIP3   OH245978   5.060   1.858   0.498
15346TIP3    H145979   5.017   1.774   0.485
15346TIP3    H245980   4.989   1.920   0.514
15347TIP3   OH245981   5.894   3.093   0.575
15347TIP3    H145982   5.986   3.119   0.568
15347TIP3    H245983   5.890   3.039   0.653
15348TIP3   OH245984   2.855   1.159   0.155
15348TIP3    H145985   2.817   1.222   0.217
15348TIP3    H245986   2.890   1.089   0.209
15349TIP3   OH245987   0.891   7.772   3.082
15349TIP3    H145988   0.868   7.696   3.027
15349TIP3    H245989   0.940   7.829   3.023
15350TIP3   OH245990   1.828   2.918   5.297
15350TIP3    H145991   1.870   2.967   5.367
15350TIP3    H245992   1.752   2.877   5.338
15351TIP3   OH245993   5.408   6.599   2.469
15351TIP3    H145994   5.368   6.685   2.479
15351TIP3    H245995   5.384   6.552   2.548
15352TIP3   OH245996   2.566   6.588   6.740
15352TIP3    H145997   2.561   6.587   6.644
15352TIP3    H245998   2.517   6.665   6.766
15353TIP3   OH245999   2.420   6.249   0.118
15353TIP3    H146000   2.414   6.334   0.075
15353TIP3    H246001   2.350   6.250   0.184
15354TIP3   OH246002   0.597   6.843   0.051
15354TIP3    H146003   0.592   6.866  -0.042
15354TIP3    H246004   0.515   6.874   0.088
15355TIP3   OH246005   3.610   6.952   3.801
15355TIP3    H146006   3.617   6.887   3.731
15355TIP3    H246007   3.609   7.037   3.755
15356TIP3   OH246008   5.109   0.405   5.765
15356TIP3    H146009   5.136   0.493   5.739
15356TIP3    H246010   5.110   0.407   5.861
15357TIP3   OH246011   5.129   5.672   0.077
15357TIP3    H146012   5.075   5.636   0.147
15357TIP3    H246013   5.219   5.666   0.110
15358TIP3   OH246014   6.090   5.844   5.901
15358TIP3    H146015   6.109   5.752   5.921
15358TIP3    H246016   6.088   5.848   5.805
15359TIP3   OH246017   1.165   5.691   5.113
15359TIP3    H146018   1.081   5.650   5.132
15359TIP3    H246019   1.229   5.641   5.165
15360TIP3   OH246020   5.673   3.570   5.349
15360TIP3    H146021   5.590   3.532   5.378
15360TIP3    H246022   5.740   3.511   5.383
15361TIP3   OH246023   7.552   1.833   4.028
15361TIP3    H146024   7.506   1.766   4.078
15361TIP3    H246025   7.588   1.785   3.952
15362TIP3   OH246026   5.999   3.711   2.405
15362TIP3    H146027   6.036   3.666   2.481
15362TIP3    H246028   5.921   3.660   2.383
15363TIP3   OH246029   4.529   7.426   5.581
15363TIP3    H146030   4.516   7.430   5.486
15363TIP3    H246031   4.541   7.333   5.600
15364TIP3   OH246032   4.854   0.694   1.912
15364TIP3    H146033   4.914   0.649   1.852
15364TIP3    H246034   4.824   0.771   1.863
15365TIP3   OH246035   1.497   5.906   3.859
15365TIP3    H146036   1.552   5.865   3.925
15365TIP3    H246037   1.410   5.908   3.899
15366TIP3   OH246038   0.084   7.636   2.759
15366TIP3    H146039   0.108   7.655   2.850
15366TIP3    H246040  -0.012   7.634   2.759
15367TIP3   OH246041   4.558   4.151   2.673
15367TIP3    H146042   4.534   4.227   2.726
15367TIP3    H246043   4.525   4.076   2.723
15368TIP3   OH246044   2.323   1.463   2.768
15368TIP3    H146045   2.301   1.371   2.782
15368TIP3    H246046   2.273   1.488   2.691
15369TIP3   OH246047   8.394   6.934   4.144
15369TIP3    H146048   8.475   6.909   4.099
15369TIP3    H246049   8.373   6.859   4.199
15370TIP3   OH246050   5.347   6.973   5.965
15370TIP3    H146051   5.303   7.042   6.015
15370TIP3    H246052   5.374   6.909   6.031
15371TIP3   OH246053   1.944   6.179   4.620
15371TIP3    H146054   1.927   6.272   4.636
15371TIP3    H246055   1.932   6.168   4.526
   8.40181   7.92130   6.86005   0.00000   0.00000  -2.80060   0.00000  -2.80060  -3.96065
