Title t= 279.00000 step= 139500
44469
    1GLY      N    1   5.917   5.428   3.824
    1GLY    HT1    2   5.833   5.389   3.872
    1GLY    HT2    3   5.938   5.519   3.871
    1GLY    HT3    4   5.994   5.359   3.836
    1GLY     CA    5   5.897   5.452   3.678
    1GLY    HA1    6   5.834   5.374   3.638
    1GLY    HA2    7   5.998   5.434   3.644
    1GLY      C    8   5.850   5.590   3.638
    1GLY      O    9   5.813   5.668   3.725
    2PRO      N   10   5.857   5.621   3.509
    2PRO     CD   11   5.914   5.533   3.408
    2PRO    HD1   12   5.877   5.428   3.405
    2PRO    HD2   13   6.024   5.529   3.423
    2PRO     CA   14   5.832   5.753   3.456
    2PRO     HA   15   5.886   5.829   3.512
    2PRO     CB   16   5.881   5.751   3.316
    2PRO    HB1   17   5.989   5.780   3.309
    2PRO    HB2   18   5.826   5.808   3.238
    2PRO     CG   19   5.877   5.601   3.278
    2PRO    HG1   20   5.776   5.574   3.240
    2PRO    HG2   21   5.948   5.579   3.196
    2PRO      C   22   5.686   5.795   3.467
    2PRO      O   23   5.662   5.912   3.484
    3GLY      N   24   5.587   5.704   3.463
    3GLY     HN   25   5.601   5.606   3.452
    3GLY     CA   26   5.451   5.747   3.477
    3GLY    HA1   27   5.387   5.668   3.441
    3GLY    HA2   28   5.431   5.839   3.426
    3GLY      C   29   5.409   5.774   3.618
    3GLY      O   30   5.324   5.859   3.644
    4ASN      N   31   5.473   5.703   3.718
    4ASN     HN   32   5.545   5.644   3.682
    4ASN     CA   33   5.438   5.711   3.863
    4ASN     HA   34   5.332   5.687   3.863
    4ASN     CB   35   5.510   5.616   3.959
    4ASN    HB1   36   5.452   5.605   4.053
    4ASN    HB2   37   5.612   5.658   3.971
    4ASN     CG   38   5.516   5.484   3.888
    4ASN    OD1   39   5.630   5.432   3.880
    4ASN    ND2   40   5.399   5.418   3.856
    4ASN   HD21   41   5.417   5.330   3.812
    4ASN   HD22   42   5.311   5.447   3.893
    4ASN      C   43   5.461   5.853   3.924
    4ASN      O   44   5.564   5.911   3.894
    5PRO      N   45   5.373   5.909   4.009
    5PRO     CD   46   5.235   5.860   4.022
    5PRO    HD1   47   5.235   5.748   4.021
    5PRO    HD2   48   5.172   5.891   3.936
    5PRO     CA   49   5.373   6.052   4.054
    5PRO     HA   50   5.341   6.120   3.977
    5PRO     CB   51   5.280   6.047   4.178
    5PRO    HB1   52   5.237   6.146   4.203
    5PRO    HB2   53   5.336   6.004   4.264
    5PRO     CG   54   5.177   5.937   4.144
    5PRO    HG1   55   5.162   5.864   4.227
    5PRO    HG2   56   5.078   5.981   4.117
    5PRO      C   57   5.508   6.098   4.103
    5PRO      O   58   5.571   6.011   4.165
    6GLY      N   59   5.548   6.223   4.082
    6GLY     HN   60   5.493   6.269   4.013
    6GLY     CA   61   5.666   6.283   4.148
    6GLY    HA1   62   5.661   6.386   4.118
    6GLY    HA2   63   5.756   6.226   4.126
    6GLY      C   64   5.659   6.290   4.295
    6GLY      O   65   5.573   6.223   4.357
    7PRO      N   66   5.742   6.364   4.368
    7PRO     CD   67   5.852   6.446   4.320
    7PRO    HD1   68   5.835   6.513   4.233
    7PRO    HD2   69   5.932   6.370   4.302
    7PRO     CA   70   5.746   6.375   4.518
    7PRO     HA   71   5.741   6.273   4.555
    7PRO     CB   72   5.874   6.449   4.555
    7PRO    HB1   73   5.963   6.382   4.557
    7PRO    HB2   74   5.862   6.502   4.651
    7PRO     CG   75   5.896   6.536   4.434
    7PRO    HG1   76   5.837   6.630   4.436
    7PRO    HG2   77   6.006   6.551   4.429
    7PRO      C   78   5.624   6.448   4.563
    7PRO      O   79   5.576   6.544   4.500
    8GLY      N   80   5.565   6.405   4.673
    8GLY     HN   81   5.595   6.320   4.713
    8GLY     CA   82   5.442   6.464   4.717
    8GLY    HA1   83   5.452   6.570   4.700
    8GLY    HA2   84   5.436   6.447   4.823
    8GLY      C   85   5.314   6.419   4.651
    8GLY      O   86   5.321   6.397   4.529
    9ASN      N   87   5.197   6.415   4.727
    9ASN     HN   88   5.194   6.449   4.820
    9ASN     CA   89   5.072   6.352   4.676
    9ASN     HA   90   5.105   6.253   4.648
    9ASN     CB   91   4.961   6.343   4.786
    9ASN    HB1   92   4.866   6.322   4.733
    9ASN    HB2   93   4.956   6.446   4.827
    9ASN     CG   94   5.004   6.235   4.883
    9ASN    OD1   95   5.073   6.138   4.854
    9ASN    ND2   96   4.961   6.255   5.013
    9ASN   HD21   97   4.990   6.198   5.090
    9ASN   HD22   98   4.895   6.327   5.034
    9ASN      C   99   5.007   6.424   4.554
    9ASN      O  100   5.006   6.550   4.546
   10PRO      N  101   4.949   6.362   4.453
   10PRO     CD  102   4.969   6.224   4.403
   10PRO    HD1  103   4.977   6.143   4.478
   10PRO    HD2  104   5.056   6.224   4.333
   10PRO     CA  105   4.855   6.436   4.365
   10PRO     HA  106   4.907   6.520   4.323
   10PRO     CB  107   4.818   6.325   4.257
   10PRO    HB1  108   4.882   6.342   4.168
   10PRO    HB2  109   4.714   6.340   4.220
   10PRO     CG  110   4.843   6.192   4.325
   10PRO    HG1  111   4.758   6.164   4.390
   10PRO    HG2  112   4.866   6.117   4.246
   10PRO      C  113   4.737   6.490   4.427
   10PRO      O  114   4.684   6.444   4.526
   11GLY      N  115   4.681   6.600   4.369
   11GLY     HN  116   4.717   6.647   4.289
   11GLY     CA  117   4.555   6.664   4.408
   11GLY    HA1  118   4.545   6.749   4.342
   11GLY    HA2  119   4.555   6.689   4.513
   11GLY      C  120   4.433   6.587   4.383
   11GLY      O  121   4.446   6.475   4.337
   12PRO      N  122   4.312   6.634   4.411
   12PRO     CD  123   4.292   6.754   4.482
   12PRO    HD1  124   4.346   6.841   4.440
   12PRO    HD2  125   4.328   6.739   4.586
   12PRO     CA  126   4.191   6.545   4.414
   12PRO     HA  127   4.204   6.450   4.465
   12PRO     CB  128   4.083   6.628   4.488
   12PRO    HB1  129   4.077   6.610   4.598
   12PRO    HB2  130   3.980   6.622   4.447
   12PRO     CG  131   4.136   6.770   4.471
   12PRO    HG1  132   4.121   6.815   4.371
   12PRO    HG2  133   4.097   6.842   4.547
   12PRO      C  134   4.144   6.508   4.279
   12PRO      O  135   4.068   6.410   4.272
   13GLY      N  136   4.161   6.577   4.163
   13GLY     HN  137   4.222   6.656   4.167
   13GLY     CA  138   4.079   6.559   4.041
   13GLY    HA1  139   4.018   6.470   4.047
   13GLY    HA2  140   4.151   6.555   3.960
   13GLY      C  141   3.982   6.673   4.017
   13GLY      O  142   3.949   6.744   4.113
   14ASN      N  143   3.924   6.692   3.896
   14ASN     HN  144   3.953   6.627   3.827
   14ASN     CA  145   3.836   6.803   3.874
   14ASN     HA  146   3.889   6.885   3.922
   14ASN     CB  147   3.820   6.836   3.720
   14ASN    HB1  148   3.749   6.920   3.703
   14ASN    HB2  149   3.783   6.750   3.660
   14ASN     CG  150   3.958   6.877   3.667
   14ASN    OD1  151   4.033   6.940   3.738
   14ASN    ND2  152   3.997   6.833   3.543
   14ASN   HD21  153   4.090   6.859   3.517
   14ASN   HD22  154   3.944   6.764   3.493
   14ASN      C  155   3.695   6.806   3.943
   14ASN      O  156   3.650   6.703   3.989
   15PRO      N  157   3.625   6.915   3.956
   15PRO     CD  158   3.695   7.036   3.998
   15PRO    HD1  159   3.736   7.082   3.906
   15PRO    HD2  160   3.777   7.018   4.072
   15PRO     CA  161   3.482   6.923   3.995
   15PRO     HA  162   3.451   6.885   4.091
   15PRO     CB  163   3.464   7.072   4.002
   15PRO    HB1  164   3.371   7.098   4.058
   15PRO    HB2  165   3.459   7.105   3.896
   15PRO     CG  166   3.594   7.128   4.060
   15PRO    HG1  167   3.618   7.233   4.033
   15PRO    HG2  168   3.604   7.119   4.171
   15PRO      C  169   3.400   6.855   3.887
   15PRO    OT1  170   3.290   6.804   3.916
   15PRO    OT2  171   3.441   6.850   3.765
   16LIT    LIT  172   2.354   5.959   1.985
   17LIT    LIT  173   2.389   7.498   1.739
   18LIT    LIT  174   5.903   3.764   6.582
   19LIT    LIT  175   1.585   5.656   4.116
   20LIT    LIT  176   2.191   1.380   3.563
   21LIT    LIT  177   6.447   1.981   0.156
   22LIT    LIT  178   5.213   7.460   4.531
   23LIT    LIT  179   3.517   0.910   5.189
   24LIT    LIT  180   3.348   5.649   2.430
   25LIT    LIT  181   7.110   7.652   5.168
   26LIT    LIT  182   7.306   6.680   0.215
   27LIT    LIT  183   1.634   4.315   0.511
   28LIT    LIT  184   8.023   4.182   6.061
   29LIT    LIT  185   5.967   0.289   0.100
   30LIT    LIT  186   5.158   1.070   4.609
   31LIT    LIT  187   8.079   2.555   1.382
   32LIT    LIT  188   6.046   1.759   2.572
   33LIT    LIT  189   7.708   4.966   3.049
   34LIT    LIT  190   0.910   0.445   3.288
   35LIT    LIT  191   6.185   4.933   3.024
   36LIT    LIT  192   5.091   4.101   1.064
   37LIT    LIT  193   3.480   1.582   6.687
   38LIT    LIT  194   2.142   2.086   2.272
   39LIT    LIT  195   4.783   5.241   5.094
   40LIT    LIT  196   6.377   1.622   6.595
   41LIT    LIT  197   0.293   4.951   6.203
   42LIT    LIT  198   0.851   2.893   4.495
   43LIT    LIT  199   3.245   6.842   3.732
   44LIT    LIT  200   4.712   4.003   3.833
   45LIT    LIT  201   2.099   3.412   4.546
   46LIT    LIT  202   5.824   4.684   6.339
   47LIT    LIT  203   5.964   4.298   5.092
   48LIT    LIT  204   6.804   0.711   0.594
   49LIT    LIT  205   1.306   3.004   3.684
   50LIT    LIT  206   4.782   3.898   1.424
   51LIT    LIT  207   3.832   1.055   2.254
   52LIT    LIT  208   5.286   4.113   2.913
   53LIT    LIT  209   8.247   7.858   1.967
   54LIT    LIT  210   3.920   7.046   1.032
   55LIT    LIT  211   3.485   7.839   6.404
   56LIT    LIT  212   3.756   7.156   6.332
   57LIT    LIT  213   6.474   4.924   4.304
   58CLA    CLA  214   3.437   1.413   1.490
   59CLA    CLA  215   5.493   0.041   1.204
   60CLA    CLA  216   5.709   7.648   3.593
   61CLA    CLA  217   5.365   3.676   4.487
   62CLA    CLA  218   5.542   7.248   0.444
   63CLA    CLA  219   2.765   0.034   3.045
   64CLA    CLA  220   1.573   5.580   5.067
   65CLA    CLA  221   3.444   1.383   5.509
   66CLA    CLA  222   3.516   0.018   0.400
   67CLA    CLA  223   6.469   3.919   3.025
   68CLA    CLA  224   1.695   5.919   1.841
   69CLA    CLA  225   5.402   5.147   4.101
   70CLA    CLA  226   5.230   1.132   5.025
   71CLA    CLA  227   8.062   5.569   5.083
   72CLA    CLA  228   4.855   4.838   2.124
   73CLA    CLA  229   0.360   3.312   3.068
   74CLA    CLA  230   2.223   3.245   4.467
   75CLA    CLA  231   0.811   4.553   5.339
   76CLA    CLA  232   3.842   1.518   3.862
   77CLA    CLA  233   5.194   5.090   6.471
   78CLA    CLA  234   5.603   7.682   5.977
   79CLA    CLA  235   2.591   6.596   4.256
   80CLA    CLA  236   1.374   5.063   4.006
   81CLA    CLA  237   4.288   2.526   0.856
   82CLA    CLA  238   0.840   2.150   3.960
   83CLA    CLA  239   5.078   6.553   0.944
   84CLA    CLA  240   2.555   6.308   2.164
   85CLA    CLA  241   7.765   2.552   0.643
   86CLA    CLA  242   6.639   0.599   3.753
   87CLA    CLA  243   6.674   2.307   1.821
   88CLA    CLA  244   4.083   5.867   5.307
   89CLA    CLA  245   7.187   4.762   2.620
   90CLA    CLA  246   5.808   3.261   0.644
   91CLA    CLA  247   2.318   0.452   2.120
   92CLA    CLA  248   0.519   4.341   6.717
   93CLA    CLA  249   4.168   2.207   5.904
   94CLA    CLA  250   2.860   4.403   3.871
   95CLA    CLA  251   1.943   1.739   5.256
   96CLA    CLA  252   1.969   4.103   5.767
   97CLA    CLA  253   7.499   5.482   0.109
   98CLA    CLA  254   0.051   5.428   5.770
   99CLA    CLA  255   6.181   4.265   0.570
  100TIP3   OH2  256   5.320   0.750   2.812
  100TIP3    H1  257   5.283   0.739   2.724
  100TIP3    H2  258   5.246   0.779   2.865
  101TIP3   OH2  259   6.128   4.623   2.130
  101TIP3    H1  260   6.180   4.544   2.142
  101TIP3    H2  261   6.053   4.612   2.188
  102TIP3   OH2  262   5.073   0.513   1.359
  102TIP3    H1  263   5.150   0.464   1.331
  102TIP3    H2  264   5.109   0.590   1.403
  103TIP3   OH2  265   2.403   4.319   5.987
  103TIP3    H1  266   2.462   4.244   5.989
  103TIP3    H2  267   2.401   4.345   5.895
  104TIP3   OH2  268   0.370   5.355   0.135
  104TIP3    H1  269   0.465   5.362   0.135
  104TIP3    H2  270   0.352   5.282   0.195
  105TIP3   OH2  271   1.396   6.301   0.372
  105TIP3    H1  272   1.449   6.234   0.415
  105TIP3    H2  273   1.374   6.264   0.287
  106TIP3   OH2  274   3.134   6.213   3.958
  106TIP3    H1  275   3.073   6.278   3.992
  106TIP3    H2  276   3.214   6.262   3.939
  107TIP3   OH2  277   2.547   1.783   2.270
  107TIP3    H1  278   2.516   1.762   2.358
  107TIP3    H2  279   2.577   1.698   2.235
  108TIP3   OH2  280   4.081   7.505   6.331
  108TIP3    H1  281   4.126   7.501   6.415
  108TIP3    H2  282   4.048   7.416   6.317
  109TIP3   OH2  283   5.315   4.881   4.026
  109TIP3    H1  284   5.303   4.844   4.114
  109TIP3    H2  285   5.330   4.975   4.042
  110TIP3   OH2  286   2.786   0.077   0.433
  110TIP3    H1  287   2.744  -0.007   0.451
  110TIP3    H2  288   2.788   0.082   0.337
  111TIP3   OH2  289   5.453   7.030   5.286
  111TIP3    H1  290   5.500   7.021   5.369
  111TIP3    H2  291   5.500   7.098   5.239
  112TIP3   OH2  292   7.094   4.533   1.251
  112TIP3    H1  293   7.044   4.543   1.332
  112TIP3    H2  294   7.096   4.620   1.212
  113TIP3   OH2  295   0.075   1.772   5.970
  113TIP3    H1  296   0.140   1.728   6.025
  113TIP3    H2  297   0.041   1.703   5.913
  114TIP3   OH2  298   3.950   2.953   0.412
  114TIP3    H1  299   3.956   2.858   0.425
  114TIP3    H2  300   3.909   2.985   0.492
  115TIP3   OH2  301   4.813   5.424   3.892
  115TIP3    H1  302   4.820   5.490   3.961
  115TIP3    H2  303   4.721   5.429   3.865
  116TIP3   OH2  304   6.905   2.393   4.419
  116TIP3    H1  305   6.829   2.445   4.446
  116TIP3    H2  306   6.899   2.313   4.471
  117TIP3   OH2  307   5.655   5.891   5.019
  117TIP3    H1  308   5.563   5.875   5.040
  117TIP3    H2  309   5.679   5.968   5.071
  118TIP3   OH2  310   8.152   2.122   1.526
  118TIP3    H1  311   8.084   2.075   1.479
  118TIP3    H2  312   8.201   2.055   1.572
  119TIP3   OH2  313   1.383   1.622   0.579
  119TIP3    H1  314   1.425   1.585   0.656
  119TIP3    H2  315   1.396   1.716   0.587
  120TIP3   OH2  316   1.369   0.844   5.760
  120TIP3    H1  317   1.317   0.916   5.796
  120TIP3    H2  318   1.434   0.825   5.827
  121TIP3   OH2  319   1.252   6.292   3.034
  121TIP3    H1  320   1.177   6.233   3.035
  121TIP3    H2  321   1.291   6.280   2.947
  122TIP3   OH2  322   1.665   7.146   6.701
  122TIP3    H1  323   1.752   7.129   6.738
  122TIP3    H2  324   1.672   7.120   6.609
  123TIP3   OH2  325   2.108   7.597   3.062
  123TIP3    H1  326   2.149   7.598   3.148
  123TIP3    H2  327   2.102   7.689   3.038
  124TIP3   OH2  328   1.811   6.694   3.473
  124TIP3    H1  329   1.872   6.686   3.400
  124TIP3    H2  330   1.823   6.612   3.522
  125TIP3   OH2  331   4.779   7.329   1.938
  125TIP3    H1  332   4.838   7.360   2.006
  125TIP3    H2  333   4.838   7.302   1.867
  126TIP3   OH2  334   6.383   6.585   2.569
  126TIP3    H1  335   6.319   6.575   2.639
  126TIP3    H2  336   6.462   6.542   2.603
  127TIP3   OH2  337   0.183   6.188   1.861
  127TIP3    H1  338   0.243   6.114   1.860
  127TIP3    H2  339   0.125   6.173   1.786
  128TIP3   OH2  340   0.776   2.272   5.368
  128TIP3    H1  341   0.775   2.341   5.435
  128TIP3    H2  342   0.868   2.247   5.360
  129TIP3   OH2  343   6.219   5.886   2.875
  129TIP3    H1  344   6.200   5.980   2.869
  129TIP3    H2  345   6.133   5.845   2.884
  130TIP3   OH2  346   0.724   0.244   1.688
  130TIP3    H1  347   0.752   0.268   1.776
  130TIP3    H2  348   0.792   0.185   1.656
  131TIP3   OH2  349   2.443   1.924   5.079
  131TIP3    H1  350   2.472   2.015   5.067
  131TIP3    H2  351   2.463   1.904   5.170
  132TIP3   OH2  352   7.373   3.090   6.622
  132TIP3    H1  353   7.438   3.099   6.691
  132TIP3    H2  354   7.298   3.049   6.665
  133TIP3   OH2  355   0.896   1.940   1.470
  133TIP3    H1  356   0.990   1.958   1.460
  133TIP3    H2  357   0.854   2.025   1.454
  134TIP3   OH2  358   3.023   0.592   4.116
  134TIP3    H1  359   2.946   0.644   4.136
  134TIP3    H2  360   3.050   0.622   4.029
  135TIP3   OH2  361   4.216   1.934   3.427
  135TIP3    H1  362   4.307   1.937   3.395
  135TIP3    H2  363   4.163   1.932   3.347
  136TIP3   OH2  364   5.969   7.093   0.275
  136TIP3    H1  365   5.937   7.003   0.270
  136TIP3    H2  366   5.894   7.147   0.247
  137TIP3   OH2  367   3.550   7.312   3.041
  137TIP3    H1  368   3.611   7.337   3.110
  137TIP3    H2  369   3.485   7.382   3.039
  138TIP3   OH2  370   5.157   3.453   1.767
  138TIP3    H1  371   5.230   3.394   1.754
  138TIP3    H2  372   5.197   3.538   1.787
  139TIP3   OH2  373   6.980   1.137   3.338
  139TIP3    H1  374   6.888   1.132   3.313
  139TIP3    H2  375   6.995   1.230   3.356
  140TIP3   OH2  376   7.696   5.393   4.336
  140TIP3    H1  377   7.600   5.394   4.327
  140TIP3    H2  378   7.725   5.470   4.288
  141TIP3   OH2  379   7.537   1.313   2.380
  141TIP3    H1  380   7.499   1.401   2.383
  141TIP3    H2  381   7.581   1.303   2.464
  142TIP3   OH2  382   3.318   4.167   0.766
  142TIP3    H1  383   3.286   4.105   0.831
  142TIP3    H2  384   3.275   4.250   0.788
  143TIP3   OH2  385   8.095   6.629   4.529
  143TIP3    H1  386   8.180   6.588   4.512
  143TIP3    H2  387   8.117   6.708   4.579
  144TIP3   OH2  388   3.193   3.756   1.667
  144TIP3    H1  389   3.125   3.784   1.729
  144TIP3    H2  390   3.170   3.666   1.644
  145TIP3   OH2  391   5.166   2.106   5.614
  145TIP3    H1  392   5.163   2.010   5.611
  145TIP3    H2  393   5.156   2.127   5.707
  146TIP3   OH2  394   1.606   3.370   5.254
  146TIP3    H1  395   1.692   3.336   5.280
  146TIP3    H2  396   1.616   3.465   5.259
  147TIP3   OH2  397   0.864   4.056   6.669
  147TIP3    H1  398   0.921   4.048   6.745
  147TIP3    H2  399   0.921   4.091   6.600
  148TIP3   OH2  400   3.099   6.964   2.745
  148TIP3    H1  401   3.078   6.875   2.717
  148TIP3    H2  402   3.045   6.978   2.824
  149TIP3   OH2  403   2.118   3.622   3.701
  149TIP3    H1  404   2.131   3.714   3.724
  149TIP3    H2  405   2.024   3.615   3.682
  150TIP3   OH2  406   3.156   7.091   1.482
  150TIP3    H1  407   3.116   7.005   1.482
  150TIP3    H2  408   3.146   7.123   1.392
  151TIP3   OH2  409   3.678   5.252   1.945
  151TIP3    H1  410   3.670   5.160   1.971
  151TIP3    H2  411   3.751   5.284   1.997
  152TIP3   OH2  412   5.484   0.561   1.163
  152TIP3    H1  413   5.432   0.630   1.204
  152TIP3    H2  414   5.574   0.577   1.193
  153TIP3   OH2  415   1.914   7.558   6.209
  153TIP3    H1  416   1.975   7.556   6.283
  153TIP3    H2  417   1.920   7.470   6.172
  154TIP3   OH2  418   8.002   7.371   5.044
  154TIP3    H1  419   7.907   7.374   5.031
  154TIP3    H2  420   8.023   7.278   5.053
  155TIP3   OH2  421   1.853   4.331   1.405
  155TIP3    H1  422   1.847   4.348   1.499
  155TIP3    H2  423   1.770   4.361   1.369
  156TIP3   OH2  424   0.664   1.677   2.786
  156TIP3    H1  425   0.590   1.707   2.837
  156TIP3    H2  426   0.713   1.620   2.846
  157TIP3   OH2  427   7.370   3.072   1.972
  157TIP3    H1  428   7.446   3.021   2.000
  157TIP3    H2  429   7.406   3.152   1.935
  158TIP3   OH2  430   7.573   2.116   6.211
  158TIP3    H1  431   7.633   2.132   6.284
  158TIP3    H2  432   7.586   2.190   6.153
  159TIP3   OH2  433   1.796   1.152   5.244
  159TIP3    H1  434   1.779   1.215   5.314
  159TIP3    H2  435   1.728   1.086   5.255
  160TIP3   OH2  436   5.426   4.505   0.283
  160TIP3    H1  437   5.470   4.551   0.212
  160TIP3    H2  438   5.380   4.432   0.240
  161TIP3   OH2  439   4.549   3.980   4.090
  161TIP3    H1  440   4.605   3.947   4.161
  161TIP3    H2  441   4.541   4.073   4.107
  162TIP3   OH2  442   0.296   5.772   2.829
  162TIP3    H1  443   0.361   5.721   2.876
  162TIP3    H2  444   0.235   5.803   2.896
  163TIP3   OH2  445   3.500   1.095   5.576
  163TIP3    H1  446   3.522   1.176   5.529
  163TIP3    H2  447   3.414   1.113   5.614
  164TIP3   OH2  448   4.282   2.790   0.565
  164TIP3    H1  449   4.189   2.767   0.566
  164TIP3    H2  450   4.311   2.777   0.655
  165TIP3   OH2  451   2.015   4.897   5.153
  165TIP3    H1  452   2.016   4.806   5.182
  165TIP3    H2  453   2.105   4.927   5.164
  166TIP3   OH2  454   6.863   3.818   4.684
  166TIP3    H1  455   6.882   3.734   4.724
  166TIP3    H2  456   6.773   3.838   4.712
  167TIP3   OH2  457   4.533   3.724   1.384
  167TIP3    H1  458   4.539   3.655   1.318
  167TIP3    H2  459   4.574   3.686   1.462
  168TIP3   OH2  460   5.874   2.665   3.011
  168TIP3    H1  461   5.845   2.582   3.049
  168TIP3    H2  462   5.936   2.640   2.943
  169TIP3   OH2  463   4.728   5.709   1.717
  169TIP3    H1  464   4.668   5.636   1.730
  169TIP3    H2  465   4.696   5.755   1.640
  170TIP3   OH2  466   5.866   4.193   1.648
  170TIP3    H1  467   5.871   4.257   1.577
  170TIP3    H2  468   5.883   4.244   1.727
  171TIP3   OH2  469   1.657   3.698   3.340
  171TIP3    H1  470   1.699   3.762   3.282
  171TIP3    H2  471   1.704   3.616   3.324
  172TIP3   OH2  472   3.642   1.868   4.046
  172TIP3    H1  473   3.623   1.954   4.083
  172TIP3    H2  474   3.672   1.816   4.121
  173TIP3   OH2  475   7.789   2.862   2.883
  173TIP3    H1  476   7.714   2.911   2.917
  173TIP3    H2  477   7.860   2.926   2.879
  174TIP3   OH2  478   7.959   5.441   2.567
  174TIP3    H1  479   7.933   5.532   2.553
  174TIP3    H2  480   7.969   5.405   2.479
  175TIP3   OH2  481   1.902   1.459   2.403
  175TIP3    H1  482   1.887   1.370   2.373
  175TIP3    H2  483   1.888   1.513   2.325
  176TIP3   OH2  484   1.580   1.641   5.134
  176TIP3    H1  485   1.596   1.651   5.228
  176TIP3    H2  486   1.493   1.677   5.120
  177TIP3   OH2  487   5.295   4.521   0.522
  177TIP3    H1  488   5.209   4.554   0.493
  177TIP3    H2  489   5.355   4.550   0.454
  178TIP3   OH2  490   2.338   5.813   3.692
  178TIP3    H1  491   2.369   5.778   3.609
  178TIP3    H2  492   2.267   5.753   3.717
  179TIP3   OH2  493   2.005   4.740   2.621
  179TIP3    H1  494   2.002   4.815   2.681
  179TIP3    H2  495   1.916   4.734   2.585
  180TIP3   OH2  496   6.997   0.315   6.659
  180TIP3    H1  497   7.010   0.410   6.670
  180TIP3    H2  498   6.903   0.302   6.673
  181TIP3   OH2  499   4.344   0.740   3.996
  181TIP3    H1  500   4.370   0.701   4.080
  181TIP3    H2  501   4.280   0.807   4.019
  182TIP3   OH2  502   4.355   0.169   0.037
  182TIP3    H1  503   4.360   0.210   0.123
  182TIP3    H2  504   4.327   0.239  -0.022
  183TIP3   OH2  505   7.446   0.448   1.953
  183TIP3    H1  506   7.440   0.436   1.859
  183TIP3    H2  507   7.432   0.360   1.989
  184TIP3   OH2  508   2.643   5.962   2.614
  184TIP3    H1  509   2.593   6.044   2.612
  184TIP3    H2  510   2.713   5.978   2.677
  185TIP3   OH2  511   0.697   3.130   1.036
  185TIP3    H1  512   0.746   3.212   1.047
  185TIP3    H2  513   0.608   3.158   1.016
  186TIP3   OH2  514   2.370   6.037   0.829
  186TIP3    H1  515   2.280   6.004   0.834
  186TIP3    H2  516   2.424   5.962   0.854
  187TIP3   OH2  517   3.974   6.735   2.751
  187TIP3    H1  518   3.950   6.780   2.832
  187TIP3    H2  519   4.063   6.705   2.766
  188TIP3   OH2  520   6.831   3.269   4.808
  188TIP3    H1  521   6.858   3.262   4.900
  188TIP3    H2  522   6.741   3.236   4.808
  189TIP3   OH2  523   4.407   4.897   2.995
  189TIP3    H1  524   4.417   4.932   3.083
  189TIP3    H2  525   4.316   4.917   2.971
  190TIP3   OH2  526   3.554   3.370   5.804
  190TIP3    H1  527   3.523   3.279   5.808
  190TIP3    H2  528   3.605   3.374   5.723
  191TIP3   OH2  529   8.153   0.035   1.519
  191TIP3    H1  530   8.202   0.115   1.533
  191TIP3    H2  531   8.217  -0.035   1.531
  192TIP3   OH2  532   2.826   2.135   1.483
  192TIP3    H1  533   2.753   2.092   1.439
  192TIP3    H2  534   2.885   2.161   1.411
  193TIP3   OH2  535   6.619   5.060   2.022
  193TIP3    H1  536   6.555   4.990   2.008
  193TIP3    H2  537   6.687   5.043   1.956
  194TIP3   OH2  538   4.193   4.179   0.192
  194TIP3    H1  539   4.169   4.089   0.169
  194TIP3    H2  540   4.289   4.179   0.191
  195TIP3   OH2  541   3.508   0.620   5.847
  195TIP3    H1  542   3.557   0.697   5.877
  195TIP3    H2  543   3.435   0.614   5.909
  196TIP3   OH2  544   0.264   7.716   3.353
  196TIP3    H1  545   0.217   7.654   3.298
  196TIP3    H2  546   0.224   7.801   3.333
  197TIP3   OH2  547   4.356   0.387   0.663
  197TIP3    H1  548   4.312   0.303   0.655
  197TIP3    H2  549   4.443   0.366   0.698
  198TIP3   OH2  550   5.760   5.220   2.677
  198TIP3    H1  551   5.737   5.129   2.694
  198TIP3    H2  552   5.702   5.246   2.606
  199TIP3   OH2  553   8.086   1.867   4.822
  199TIP3    H1  554   8.131   1.826   4.896
  199TIP3    H2  555   8.147   1.859   4.749
  200TIP3   OH2  556   6.314   1.947   2.906
  200TIP3    H1  557   6.376   1.945   2.979
  200TIP3    H2  558   6.229   1.926   2.946
  201TIP3   OH2  559   3.861   4.252   5.600
  201TIP3    H1  560   3.896   4.175   5.645
  201TIP3    H2  561   3.777   4.268   5.642
  202TIP3   OH2  562   4.385   4.690   2.682
  202TIP3    H1  563   4.401   4.659   2.594
  202TIP3    H2  564   4.293   4.669   2.700
  203TIP3   OH2  565   1.961   3.969   5.303
  203TIP3    H1  566   1.943   3.904   5.372
  203TIP3    H2  567   1.971   4.051   5.350
  204TIP3   OH2  568   1.942   7.589   2.226
  204TIP3    H1  569   1.905   7.677   2.219
  204TIP3    H2  570   1.867   7.532   2.240
  205TIP3   OH2  571   5.151   3.591   5.330
  205TIP3    H1  572   5.078   3.569   5.272
  205TIP3    H2  573   5.192   3.668   5.290
  206TIP3   OH2  574   6.748   0.438   5.420
  206TIP3    H1  575   6.794   0.458   5.339
  206TIP3    H2  576   6.716   0.349   5.408
  207TIP3   OH2  577   0.231   4.728   4.410
  207TIP3    H1  578   0.253   4.638   4.388
  207TIP3    H2  579   0.256   4.737   4.502
  208TIP3   OH2  580   3.805   3.095   0.604
  208TIP3    H1  581   3.819   3.164   0.669
  208TIP3    H2  582   3.711   3.092   0.591
  209TIP3   OH2  583   4.602   6.576   0.083
  209TIP3    H1  584   4.540   6.503   0.094
  209TIP3    H2  585   4.656   6.551   0.008
  210TIP3   OH2  586   1.996   4.642   6.246
  210TIP3    H1  587   1.917   4.599   6.213
  210TIP3    H2  588   2.064   4.618   6.184
  211TIP3   OH2  589   0.503   7.224   6.108
  211TIP3    H1  590   0.559   7.295   6.137
  211TIP3    H2  591   0.545   7.192   6.028
  212TIP3   OH2  592   2.358   7.087   3.998
  212TIP3    H1  593   2.286   7.025   3.992
  212TIP3    H2  594   2.370   7.119   3.909
  213TIP3   OH2  595   6.056   0.686   1.382
  213TIP3    H1  596   6.101   0.757   1.337
  213TIP3    H2  597   6.123   0.619   1.396
  214TIP3   OH2  598   5.323   7.793   0.813
  214TIP3    H1  599   5.231   7.779   0.789
  214TIP3    H2  600   5.373   7.765   0.737
  215TIP3   OH2  601   5.127   3.253   1.217
  215TIP3    H1  602   5.106   3.160   1.205
  215TIP3    H2  603   5.044   3.298   1.202
  216TIP3   OH2  604   0.863   0.324   2.309
  216TIP3    H1  605   0.818   0.408   2.322
  216TIP3    H2  606   0.803   0.259   2.343
  217TIP3   OH2  607   6.388   5.675   0.460
  217TIP3    H1  608   6.480   5.653   0.473
  217TIP3    H2  609   6.342   5.631   0.532
  218TIP3   OH2  610   3.853   0.422   1.739
  218TIP3    H1  611   3.888   0.433   1.651
  218TIP3    H2  612   3.811   0.506   1.759
  219TIP3   OH2  613   1.380   7.655   5.017
  219TIP3    H1  614   1.446   7.709   5.061
  219TIP3    H2  615   1.303   7.661   5.073
  220TIP3   OH2  616   3.609   1.986   5.303
  220TIP3    H1  617   3.701   1.979   5.330
  220TIP3    H2  618   3.580   2.070   5.337
  221TIP3   OH2  619   3.647   0.447   2.123
  221TIP3    H1  620   3.686   0.522   2.078
  221TIP3    H2  621   3.625   0.386   2.053
  222TIP3   OH2  622   3.768   3.548   3.276
  222TIP3    H1  623   3.860   3.552   3.299
  222TIP3    H2  624   3.733   3.475   3.327
  223TIP3   OH2  625   1.699   0.883   4.609
  223TIP3    H1  626   1.703   0.932   4.691
  223TIP3    H2  627   1.728   0.945   4.542
  224TIP3   OH2  628   2.814   2.485   5.036
  224TIP3    H1  629   2.764   2.538   4.974
  224TIP3    H2  630   2.747   2.448   5.094
  225TIP3   OH2  631   2.805   1.866   1.806
  225TIP3    H1  632   2.746   1.791   1.817
  225TIP3    H2  633   2.830   1.890   1.895
  226TIP3   OH2  634   7.992   4.986   6.675
  226TIP3    H1  635   7.932   5.057   6.695
  226TIP3    H2  636   7.935   4.914   6.647
  227TIP3   OH2  637   3.678   0.632   1.795
  227TIP3    H1  638   3.620   0.673   1.730
  227TIP3    H2  639   3.659   0.678   1.877
  228TIP3   OH2  640   0.349   3.371   4.750
  228TIP3    H1  641   0.321   3.450   4.704
  228TIP3    H2  642   0.320   3.299   4.693
  229TIP3   OH2  643   5.121   3.200   5.154
  229TIP3    H1  644   5.041   3.247   5.179
  229TIP3    H2  645   5.133   3.134   5.223
  230TIP3   OH2  646   2.386   4.143   5.455
  230TIP3    H1  647   2.332   4.216   5.425
  230TIP3    H2  648   2.469   4.183   5.482
  231TIP3   OH2  649   3.875   7.730   4.168
  231TIP3    H1  650   3.884   7.637   4.190
  231TIP3    H2  651   3.964   7.759   4.148
  232TIP3   OH2  652   1.302   5.452   4.526
  232TIP3    H1  653   1.296   5.520   4.593
  232TIP3    H2  654   1.275   5.496   4.445
  233TIP3   OH2  655   3.286   0.422   0.050
  233TIP3    H1  656   3.297   0.357  -0.019
  233TIP3    H2  657   3.367   0.473   0.049
  234TIP3   OH2  658   1.680   2.354   3.279
  234TIP3    H1  659   1.606   2.294   3.286
  234TIP3    H2  660   1.663   2.421   3.346
  235TIP3   OH2  661   5.616   5.186   4.447
  235TIP3    H1  662   5.588   5.217   4.361
  235TIP3    H2  663   5.534   5.175   4.496
  236TIP3   OH2  664   6.541   7.209   3.684
  236TIP3    H1  665   6.494   7.211   3.601
  236TIP3    H2  666   6.600   7.285   3.681
  237TIP3   OH2  667   5.441   1.036   0.517
  237TIP3    H1  668   5.413   1.124   0.492
  237TIP3    H2  669   5.502   1.010   0.449
  238TIP3   OH2  670   1.907   0.480   2.373
  238TIP3    H1  671   1.987   0.436   2.345
  238TIP3    H2  672   1.937   0.550   2.431
  239TIP3   OH2  673   1.135   3.016   6.426
  239TIP3    H1  674   1.226   2.997   6.449
  239TIP3    H2  675   1.140   3.091   6.366
  240TIP3   OH2  676   2.283   3.785   2.981
  240TIP3    H1  677   2.247   3.818   2.899
  240TIP3    H2  678   2.343   3.854   3.010
  241TIP3   OH2  679   2.508   6.338   4.972
  241TIP3    H1  680   2.578   6.345   4.907
  241TIP3    H2  681   2.552   6.310   5.052
  242TIP3   OH2  682   1.843   2.897   1.123
  242TIP3    H1  683   1.859   2.966   1.188
  242TIP3    H2  684   1.926   2.888   1.077
  243TIP3   OH2  685   6.495   3.933   0.167
  243TIP3    H1  686   6.459   3.945   0.079
  243TIP3    H2  687   6.522   3.841   0.169
  244TIP3   OH2  688   4.171   4.489   2.587
  244TIP3    H1  689   4.170   4.502   2.493
  244TIP3    H2  690   4.246   4.432   2.604
  245TIP3   OH2  691   3.545   4.043   3.334
  245TIP3    H1  692   3.610   4.034   3.264
  245TIP3    H2  693   3.475   3.983   3.309
  246TIP3   OH2  694   5.673   4.216   5.750
  246TIP3    H1  695   5.578   4.215   5.760
  246TIP3    H2  696   5.691   4.297   5.702
  247TIP3   OH2  697   3.020   2.760   1.214
  247TIP3    H1  698   3.108   2.733   1.190
  247TIP3    H2  699   3.033   2.831   1.277
  248TIP3   OH2  700   0.388   5.745   5.283
  248TIP3    H1  701   0.439   5.743   5.202
  248TIP3    H2  702   0.453   5.734   5.353
  249TIP3   OH2  703   4.821   1.242   6.293
  249TIP3    H1  704   4.835   1.187   6.216
  249TIP3    H2  705   4.726   1.240   6.306
  250TIP3   OH2  706   3.125   3.554   0.734
  250TIP3    H1  707   3.086   3.502   0.805
  250TIP3    H2  708   3.136   3.491   0.662
  251TIP3   OH2  709   4.145   0.182   1.593
  251TIP3    H1  710   4.138   0.124   1.668
  251TIP3    H2  711   4.239   0.195   1.582
  252TIP3   OH2  712   0.715   6.712   5.611
  252TIP3    H1  713   0.703   6.751   5.524
  252TIP3    H2  714   0.802   6.740   5.638
  253TIP3   OH2  715   1.472   1.651   1.075
  253TIP3    H1  716   1.457   1.744   1.056
  253TIP3    H2  717   1.487   1.648   1.169
  254TIP3   OH2  718   0.659   6.155   3.641
  254TIP3    H1  719   0.598   6.089   3.607
  254TIP3    H2  720   0.605   6.233   3.653
  255TIP3   OH2  721   5.271   5.198   1.181
  255TIP3    H1  722   5.322   5.258   1.237
  255TIP3    H2  723   5.180   5.216   1.204
  256TIP3   OH2  724   7.104   0.100   1.334
  256TIP3    H1  725   7.110   0.023   1.277
  256TIP3    H2  726   7.190   0.141   1.328
  257TIP3   OH2  727   4.969   5.601   6.699
  257TIP3    H1  728   5.024   5.532   6.662
  257TIP3    H2  729   4.882   5.584   6.662
  258TIP3   OH2  730   0.012   3.766   2.804
  258TIP3    H1  731   0.082   3.701   2.807
  258TIP3    H2  732   0.029   3.824   2.878
  259TIP3   OH2  733   2.994   0.461   5.615
  259TIP3    H1  734   2.937   0.530   5.650
  259TIP3    H2  735   3.031   0.499   5.535
  260TIP3   OH2  736   4.630   4.697   3.886
  260TIP3    H1  737   4.575   4.757   3.834
  260TIP3    H2  738   4.575   4.673   3.960
  261TIP3   OH2  739   4.826   4.890   2.425
  261TIP3    H1  740   4.795   4.816   2.476
  261TIP3    H2  741   4.831   4.857   2.335
  262TIP3   OH2  742   1.556   2.901   6.197
  262TIP3    H1  743   1.492   2.858   6.140
  262TIP3    H2  744   1.574   2.985   6.155
  263TIP3   OH2  745   0.362   6.876   2.945
  263TIP3    H1  746   0.428   6.870   2.875
  263TIP3    H2  747   0.401   6.828   3.018
  264TIP3   OH2  748   4.545   2.167   3.238
  264TIP3    H1  749   4.490   2.112   3.294
  264TIP3    H2  750   4.617   2.195   3.296
  265TIP3   OH2  751   0.395   5.174   0.702
  265TIP3    H1  752   0.455   5.130   0.762
  265TIP3    H2  753   0.311   5.176   0.749
  266TIP3   OH2  754   3.979   7.341   3.229
  266TIP3    H1  755   3.968   7.266   3.287
  266TIP3    H2  756   4.040   7.398   3.275
  267TIP3   OH2  757   6.313   5.191   4.963
  267TIP3    H1  758   6.290   5.233   5.046
  267TIP3    H2  759   6.403   5.163   4.974
  268TIP3   OH2  760   2.445   7.702   1.207
  268TIP3    H1  761   2.538   7.722   1.197
  268TIP3    H2  762   2.430   7.702   1.301
  269TIP3   OH2  763   3.682   0.479   0.802
  269TIP3    H1  764   3.604   0.515   0.843
  269TIP3    H2  765   3.672   0.501   0.709
  270TIP3   OH2  766   0.169   6.133   1.139
  270TIP3    H1  767   0.191   6.208   1.084
  270TIP3    H2  768   0.225   6.062   1.106
  271TIP3   OH2  769   4.963   7.602   2.925
  271TIP3    H1  770   5.042   7.654   2.941
  271TIP3    H2  771   4.995   7.512   2.919
  272TIP3   OH2  772   7.491   4.486   0.311
  272TIP3    H1  773   7.545   4.558   0.279
  272TIP3    H2  774   7.551   4.430   0.361
  273TIP3   OH2  775   1.766   1.174   1.444
  273TIP3    H1  776   1.775   1.084   1.477
  273TIP3    H2  777   1.835   1.182   1.378
  274TIP3   OH2  778   5.328   6.983   4.085
  274TIP3    H1  779   5.346   7.005   4.176
  274TIP3    H2  780   5.407   7.010   4.037
  275TIP3   OH2  781   1.637   0.305   2.527
  275TIP3    H1  782   1.663   0.300   2.435
  275TIP3    H2  783   1.656   0.395   2.553
  276TIP3   OH2  784   3.847   3.789   0.200
  276TIP3    H1  785   3.759   3.751   0.190
  276TIP3    H2  786   3.903   3.713   0.217
  277TIP3   OH2  787   4.267   3.618   4.375
  277TIP3    H1  788   4.229   3.592   4.291
  277TIP3    H2  789   4.195   3.659   4.423
  278TIP3   OH2  790   2.092   7.340   0.109
  278TIP3    H1  791   2.041   7.409   0.151
  278TIP3    H2  792   2.098   7.366   0.017
  279TIP3   OH2  793   1.449   6.042   3.127
  279TIP3    H1  794   1.386   5.996   3.183
  279TIP3    H2  795   1.436   6.004   3.040
  280TIP3   OH2  796   6.629   3.117   3.773
  280TIP3    H1  797   6.643   3.079   3.860
  280TIP3    H2  798   6.657   3.208   3.782
  281TIP3   OH2  799   1.628   2.479   0.519
  281TIP3    H1  800   1.612   2.488   0.613
  281TIP3    H2  801   1.542   2.490   0.479
  282TIP3   OH2  802   8.088   2.270   3.195
  282TIP3    H1  803   8.048   2.210   3.132
  282TIP3    H2  804   8.018   2.290   3.257
  283TIP3   OH2  805   3.162   7.597   6.086
  283TIP3    H1  806   3.087   7.542   6.067
  283TIP3    H2  807   3.172   7.593   6.181
  284TIP3   OH2  808   3.516   5.754   0.969
  284TIP3    H1  809   3.526   5.700   0.890
  284TIP3    H2  810   3.442   5.716   1.015
  285TIP3   OH2  811   7.617   3.486   6.173
  285TIP3    H1  812   7.633   3.537   6.253
  285TIP3    H2  813   7.524   3.463   6.178
  286TIP3   OH2  814   5.921   2.319   6.429
  286TIP3    H1  815   5.928   2.392   6.367
  286TIP3    H2  816   5.827   2.302   6.435
  287TIP3   OH2  817   3.616   7.377   5.496
  287TIP3    H1  818   3.661   7.358   5.578
  287TIP3    H2  819   3.666   7.450   5.458
  288TIP3   OH2  820   6.334   2.783   5.564
  288TIP3    H1  821   6.324   2.714   5.629
  288TIP3    H2  822   6.345   2.737   5.481
  289TIP3   OH2  823   1.775   6.211   5.442
  289TIP3    H1  824   1.720   6.184   5.516
  289TIP3    H2  825   1.720   6.272   5.393
  290TIP3   OH2  826   6.670   6.411   0.962
  290TIP3    H1  827   6.709   6.475   0.902
  290TIP3    H2  828   6.745   6.369   1.004
  291TIP3   OH2  829   3.083   2.169   2.788
  291TIP3    H1  830   3.045   2.252   2.759
  291TIP3    H2  831   3.156   2.194   2.844
  292TIP3   OH2  832   0.674   2.608   5.375
  292TIP3    H1  833   0.735   2.670   5.415
  292TIP3    H2  834   0.670   2.535   5.437
  293TIP3   OH2  835   1.125   2.317   4.013
  293TIP3    H1  836   1.060   2.383   4.038
  293TIP3    H2  837   1.073   2.240   3.990
  294TIP3   OH2  838   2.091   7.159   1.644
  294TIP3    H1  839   2.108   7.218   1.571
  294TIP3    H2  840   2.047   7.084   1.605
  295TIP3   OH2  841   7.601   3.273   4.430
  295TIP3    H1  842   7.598   3.355   4.380
  295TIP3    H2  843   7.629   3.208   4.366
  296TIP3   OH2  844   0.305   3.632   5.309
  296TIP3    H1  845   0.271   3.710   5.264
  296TIP3    H2  846   0.398   3.631   5.286
  297TIP3   OH2  847   2.944   4.461   4.507
  297TIP3    H1  848   2.960   4.375   4.467
  297TIP3    H2  849   2.858   4.452   4.548
  298TIP3   OH2  850   4.446   6.290   6.012
  298TIP3    H1  851   4.421   6.198   6.020
  298TIP3    H2  852   4.393   6.335   6.077
  299TIP3   OH2  853   6.085   1.983   5.627
  299TIP3    H1  854   6.064   1.918   5.695
  299TIP3    H2  855   6.061   1.940   5.545
  300TIP3   OH2  856   7.049   1.383   1.582
  300TIP3    H1  857   7.141   1.361   1.568
  300TIP3    H2  858   7.025   1.336   1.662
  301TIP3   OH2  859   8.023   6.660   2.783
  301TIP3    H1  860   8.085   6.653   2.856
  301TIP3    H2  861   8.056   6.597   2.718
  302TIP3   OH2  862   5.907   1.238   6.017
  302TIP3    H1  863   5.991   1.245   6.063
  302TIP3    H2  864   5.924   1.276   5.931
  303TIP3   OH2  865   3.256   7.597   1.364
  303TIP3    H1  866   3.318   7.581   1.435
  303TIP3    H2  867   3.193   7.659   1.401
  304TIP3   OH2  868   3.826   4.621   6.425
  304TIP3    H1  869   3.772   4.624   6.346
  304TIP3    H2  870   3.835   4.527   6.444
  305TIP3   OH2  871   7.962   0.977   0.296
  305TIP3    H1  872   7.903   1.041   0.257
  305TIP3    H2  873   7.907   0.926   0.355
  306TIP3   OH2  874   7.747   0.402   2.572
  306TIP3    H1  875   7.834   0.363   2.561
  306TIP3    H2  876   7.734   0.404   2.667
  307TIP3   OH2  877   4.600   6.699   1.004
  307TIP3    H1  878   4.537   6.748   0.951
  307TIP3    H2  879   4.574   6.715   1.094
  308TIP3   OH2  880   6.682   4.715   1.282
  308TIP3    H1  881   6.712   4.625   1.273
  308TIP3    H2  882   6.751   4.758   1.332
  309TIP3   OH2  883   4.284   4.736   1.468
  309TIP3    H1  884   4.239   4.677   1.529
  309TIP3    H2  885   4.297   4.684   1.388
  310TIP3   OH2  886   3.213   3.242   5.497
  310TIP3    H1  887   3.152   3.292   5.551
  310TIP3    H2  888   3.172   3.156   5.488
  311TIP3   OH2  889   7.183   4.774   1.135
  311TIP3    H1  890   7.261   4.782   1.080
  311TIP3    H2  891   7.137   4.857   1.123
  312TIP3   OH2  892   4.282   0.114   0.665
  312TIP3    H1  893   4.357   0.085   0.717
  312TIP3    H2  894   4.266   0.043   0.603
  313TIP3   OH2  895   7.499   0.606   5.918
  313TIP3    H1  896   7.509   0.603   6.013
  313TIP3    H2  897   7.470   0.695   5.900
  314TIP3   OH2  898   2.500   1.593   1.270
  314TIP3    H1  899   2.523   1.531   1.201
  314TIP3    H2  900   2.555   1.567   1.344
  315TIP3   OH2  901   7.666   1.103   2.634
  315TIP3    H1  902   7.585   1.060   2.607
  315TIP3    H2  903   7.728   1.085   2.564
  316TIP3   OH2  904   5.096   4.545   4.513
  316TIP3    H1  905   5.146   4.497   4.579
  316TIP3    H2  906   5.059   4.619   4.560
  317TIP3   OH2  907   2.773   5.328   4.115
  317TIP3    H1  908   2.693   5.340   4.063
  317TIP3    H2  909   2.753   5.370   4.199
  318TIP3   OH2  910   3.219   4.609   5.116
  318TIP3    H1  911   3.256   4.653   5.039
  318TIP3    H2  912   3.129   4.589   5.091
  319TIP3   OH2  913   0.958   5.430   2.991
  319TIP3    H1  914   0.891   5.499   2.999
  319TIP3    H2  915   1.034   5.465   3.038
  320TIP3   OH2  916   5.250   7.452   1.068
  320TIP3    H1  917   5.233   7.475   0.977
  320TIP3    H2  918   5.259   7.356   1.068
  321TIP3   OH2  919   5.213   4.342   5.022
  321TIP3    H1  920   5.145   4.383   4.969
  321TIP3    H2  921   5.288   4.401   5.017
  322TIP3   OH2  922   0.930   4.976   1.368
  322TIP3    H1  923   0.854   5.005   1.419
  322TIP3    H2  924   0.903   4.891   1.333
  323TIP3   OH2  925   2.969   4.693   5.964
  323TIP3    H1  926   2.944   4.761   5.901
  323TIP3    H2  927   3.017   4.629   5.911
  324TIP3   OH2  928   8.187   2.438   5.048
  324TIP3    H1  929   8.203   2.485   4.966
  324TIP3    H2  930   8.271   2.398   5.070
  325TIP3   OH2  931   1.275   4.057   2.173
  325TIP3    H1  932   1.258   4.146   2.204
  325TIP3    H2  933   1.368   4.044   2.187
  326TIP3   OH2  934   3.575   5.603   0.741
  326TIP3    H1  935   3.484   5.605   0.710
  326TIP3    H2  936   3.605   5.514   0.723
  327TIP3   OH2  937   0.723   4.232   5.227
  327TIP3    H1  938   0.818   4.240   5.222
  327TIP3    H2  939   0.696   4.297   5.292
  328TIP3   OH2  940   1.431   4.203   5.891
  328TIP3    H1  941   1.369   4.201   5.818
  328TIP3    H2  942   1.469   4.115   5.892
  329TIP3   OH2  943   3.704   3.092   0.058
  329TIP3    H1  944   3.765   3.019   0.046
  329TIP3    H2  945   3.752   3.155   0.112
  330TIP3   OH2  946   5.576   7.643   6.422
  330TIP3    H1  947   5.609   7.717   6.371
  330TIP3    H2  948   5.555   7.576   6.357
  331TIP3   OH2  949   7.663   0.937   6.238
  331TIP3    H1  950   7.714   1.016   6.257
  331TIP3    H2  951   7.609   0.961   6.163
  332TIP3   OH2  952   7.424   3.913   2.112
  332TIP3    H1  953   7.439   3.984   2.049
  332TIP3    H2  954   7.329   3.914   2.127
  333TIP3   OH2  955   6.571   5.499   0.200
  333TIP3    H1  956   6.607   5.532   0.282
  333TIP3    H2  957   6.628   5.534   0.132
  334TIP3   OH2  958   2.741   6.431   4.837
  334TIP3    H1  959   2.804   6.453   4.905
  334TIP3    H2  960   2.781   6.463   4.756
  335TIP3   OH2  961   7.116   3.287   5.316
  335TIP3    H1  962   7.155   3.325   5.395
  335TIP3    H2  963   7.191   3.261   5.262
  336TIP3   OH2  964   2.917   7.129   6.048
  336TIP3    H1  965   2.835   7.087   6.021
  336TIP3    H2  966   2.893   7.178   6.126
  337TIP3   OH2  967   5.263   5.025   5.438
  337TIP3    H1  968   5.204   5.021   5.513
  337TIP3    H2  969   5.338   5.076   5.469
  338TIP3   OH2  970   0.810   0.554   3.421
  338TIP3    H1  971   0.742   0.621   3.413
  338TIP3    H2  972   0.876   0.593   3.478
  339TIP3   OH2  973   0.723   7.039   2.292
  339TIP3    H1  974   0.803   7.073   2.333
  339TIP3    H2  975   0.742   6.947   2.275
  340TIP3   OH2  976   8.268   2.421   4.192
  340TIP3    H1  977   8.284   2.473   4.271
  340TIP3    H2  978   8.230   2.339   4.224
  341TIP3   OH2  979   7.662   6.128   5.946
  341TIP3    H1  980   7.615   6.142   5.864
  341TIP3    H2  981   7.655   6.211   5.993
  342TIP3   OH2  982   2.807   6.628   0.637
  342TIP3    H1  983   2.735   6.615   0.575
  342TIP3    H2  984   2.852   6.706   0.604
  343TIP3   OH2  985   1.516   0.259   6.542
  343TIP3    H1  986   1.584   0.314   6.505
  343TIP3    H2  987   1.563   0.189   6.588
  344TIP3   OH2  988   8.199   6.297   2.058
  344TIP3    H1  989   8.257   6.373   2.053
  344TIP3    H2  990   8.115   6.328   2.023
  345TIP3   OH2  991   1.254   5.367   0.763
  345TIP3    H1  992   1.208   5.405   0.689
  345TIP3    H2  993   1.214   5.282   0.776
  346TIP3   OH2  994   0.915   3.105   2.559
  346TIP3    H1  995   0.929   3.018   2.596
  346TIP3    H2  996   0.833   3.097   2.509
  347TIP3   OH2  997   0.945   7.562   4.596
  347TIP3    H1  998   0.986   7.476   4.598
  347TIP3    H2  999   0.865   7.551   4.646
  348TIP3   OH2 1000   3.331   3.885   3.252
  348TIP3    H1 1001   3.272   3.923   3.317
  348TIP3    H2 1002   3.370   3.809   3.296
  349TIP3   OH2 1003   0.649   6.606   1.632
  349TIP3    H1 1004   0.594   6.616   1.554
  349TIP3    H2 1005   0.727   6.561   1.599
  350TIP3   OH2 1006   1.127   7.079   5.979
  350TIP3    H1 1007   1.123   7.130   5.898
  350TIP3    H2 1008   1.040   7.039   5.986
  351TIP3   OH2 1009   4.198   4.468   3.470
  351TIP3    H1 1010   4.200   4.562   3.456
  351TIP3    H2 1011   4.122   4.438   3.421
  352TIP3   OH2 1012   6.209   6.306   3.605
  352TIP3    H1 1013   6.288   6.319   3.552
  352TIP3    H2 1014   6.153   6.380   3.583
  353TIP3   OH2 1015   5.659   1.663   3.482
  353TIP3    H1 1016   5.581   1.620   3.447
  353TIP3    H2 1017   5.659   1.750   3.443
  354TIP3   OH2 1018   6.064   3.814   2.694
  354TIP3    H1 1019   6.127   3.787   2.761
  354TIP3    H2 1020   6.094   3.771   2.614
  355TIP3   OH2 1021   8.293   2.294   5.819
  355TIP3    H1 1022   8.240   2.236   5.874
  355TIP3    H2 1023   8.234   2.318   5.746
  356TIP3   OH2 1024   3.911   0.536   6.407
  356TIP3    H1 1025   3.993   0.552   6.454
  356TIP3    H2 1026   3.915   0.444   6.383
  357TIP3   OH2 1027   7.156   2.899   0.448
  357TIP3    H1 1028   7.088   2.963   0.426
  357TIP3    H2 1029   7.124   2.816   0.412
  358TIP3   OH2 1030   5.968   1.600   4.755
  358TIP3    H1 1031   6.025   1.635   4.824
  358TIP3    H2 1032   6.011   1.626   4.674
  359TIP3   OH2 1033   3.573   4.154   4.127
  359TIP3    H1 1034   3.633   4.227   4.112
  359TIP3    H2 1035   3.486   4.195   4.132
  360TIP3   OH2 1036   5.207   5.472   2.691
  360TIP3    H1 1037   5.162   5.392   2.718
  360TIP3    H2 1038   5.193   5.478   2.597
  361TIP3   OH2 1039   0.257   1.036   6.561
  361TIP3    H1 1040   0.322   1.095   6.523
  361TIP3    H2 1041   0.194   1.094   6.604
  362TIP3   OH2 1042   1.716   6.209   6.273
  362TIP3    H1 1043   1.628   6.173   6.259
  362TIP3    H2 1044   1.753   6.156   6.343
  363TIP3   OH2 1045   5.397   7.813   6.729
  363TIP3    H1 1046   5.339   7.844   6.659
  363TIP3    H2 1047   5.413   7.891   6.782
  364TIP3   OH2 1048   4.951   5.427   5.519
  364TIP3    H1 1049   4.973   5.447   5.610
  364TIP3    H2 1050   4.993   5.496   5.468
  365TIP3   OH2 1051   3.435   5.169   0.717
  365TIP3    H1 1052   3.419   5.173   0.622
  365TIP3    H2 1053   3.411   5.080   0.741
  366TIP3   OH2 1054   1.775   3.088   6.598
  366TIP3    H1 1055   1.724   3.086   6.517
  366TIP3    H2 1056   1.712   3.110   6.666
  367TIP3   OH2 1057   7.947   3.638   5.326
  367TIP3    H1 1058   8.008   3.572   5.293
  367TIP3    H2 1059   7.861   3.596   5.322
  368TIP3   OH2 1060   6.507   6.143   3.361
  368TIP3    H1 1061   6.541   6.179   3.443
  368TIP3    H2 1062   6.584   6.135   3.305
  369TIP3   OH2 1063   2.329   4.007   2.269
  369TIP3    H1 1064   2.299   3.943   2.334
  369TIP3    H2 1065   2.320   4.091   2.313
  370TIP3   OH2 1066   8.258   1.768   3.886
  370TIP3    H1 1067   8.174   1.772   3.931
  370TIP3    H2 1068   8.260   1.681   3.845
  371TIP3   OH2 1069   2.194   6.015   4.929
  371TIP3    H1 1070   2.207   5.957   4.853
  371TIP3    H2 1071   2.217   6.102   4.896
  372TIP3   OH2 1072   1.828   1.216   0.477
  372TIP3    H1 1073   1.785   1.284   0.426
  372TIP3    H2 1074   1.763   1.146   0.482
  373TIP3   OH2 1075   0.583   6.192   6.257
  373TIP3    H1 1076   0.525   6.186   6.182
  373TIP3    H2 1077   0.558   6.273   6.301
  374TIP3   OH2 1078   7.179   3.338   1.561
  374TIP3    H1 1079   7.139   3.421   1.588
  374TIP3    H2 1080   7.271   3.359   1.547
  375TIP3   OH2 1081   2.421   6.205   0.081
  375TIP3    H1 1082   2.464   6.218   0.166
  375TIP3    H2 1083   2.339   6.255   0.088
  376TIP3   OH2 1084   5.588   4.095   0.402
  376TIP3    H1 1085   5.618   4.185   0.390
  376TIP3    H2 1086   5.657   4.054   0.454
  377TIP3   OH2 1087   6.604   0.519   6.666
  377TIP3    H1 1088   6.648   0.578   6.728
  377TIP3    H2 1089   6.520   0.499   6.708
  378TIP3   OH2 1090   6.087   5.433   5.348
  378TIP3    H1 1091   6.009   5.380   5.332
  378TIP3    H2 1092   6.056   5.523   5.345
  379TIP3   OH2 1093   4.905   3.792   5.028
  379TIP3    H1 1094   4.844   3.816   4.958
  379TIP3    H2 1095   4.934   3.704   5.005
  380TIP3   OH2 1096   1.182   1.338   4.496
  380TIP3    H1 1097   1.209   1.417   4.543
  380TIP3    H2 1098   1.264   1.294   4.474
  381TIP3   OH2 1099   4.303   1.658   3.136
  381TIP3    H1 1100   4.225   1.603   3.125
  381TIP3    H2 1101   4.348   1.622   3.213
  382TIP3   OH2 1102   2.805   2.266   5.721
  382TIP3    H1 1103   2.783   2.324   5.794
  382TIP3    H2 1104   2.742   2.289   5.652
  383TIP3   OH2 1105   7.218   1.154   3.002
  383TIP3    H1 1106   7.187   1.182   2.916
  383TIP3    H2 1107   7.311   1.174   3.001
  384TIP3   OH2 1108   3.327   4.954   3.487
  384TIP3    H1 1109   3.261   4.905   3.439
  384TIP3    H2 1110   3.350   5.027   3.428
  385TIP3   OH2 1111   5.985   4.190   3.953
  385TIP3    H1 1112   5.984   4.141   4.035
  385TIP3    H2 1113   5.929   4.266   3.970
  386TIP3   OH2 1114   2.765   5.249   5.516
  386TIP3    H1 1115   2.694   5.295   5.561
  386TIP3    H2 1116   2.843   5.270   5.567
  387TIP3   OH2 1117   2.505   6.483   3.792
  387TIP3    H1 1118   2.415   6.512   3.804
  387TIP3    H2 1119   2.555   6.532   3.857
  388TIP3   OH2 1120   1.861   5.869   2.832
  388TIP3    H1 1121   1.785   5.812   2.820
  388TIP3    H2 1122   1.849   5.908   2.919
  389TIP3   OH2 1123   0.235   0.354   0.930
  389TIP3    H1 1124   0.264   0.436   0.971
  389TIP3    H2 1125   0.299   0.336   0.862
  390TIP3   OH2 1126   6.640   5.703   4.347
  390TIP3    H1 1127   6.686   5.689   4.430
  390TIP3    H2 1128   6.669   5.789   4.318
  391TIP3   OH2 1129   4.246   0.214   5.078
  391TIP3    H1 1130   4.265   0.270   5.153
  391TIP3    H2 1131   4.213   0.273   5.011
  392TIP3   OH2 1132   3.126   5.599   5.347
  392TIP3    H1 1133   3.065   5.612   5.419
  392TIP3    H2 1134   3.106   5.669   5.285
  393TIP3   OH2 1135   0.262   3.654   2.786
  393TIP3    H1 1136   0.286   3.603   2.709
  393TIP3    H2 1137   0.305   3.739   2.773
  394TIP3   OH2 1138   1.021   6.106   6.054
  394TIP3    H1 1139   1.060   6.028   6.017
  394TIP3    H2 1140   1.058   6.179   6.004
  395TIP3   OH2 1141   1.560   7.443   0.901
  395TIP3    H1 1142   1.619   7.387   0.953
  395TIP3    H2 1143   1.528   7.386   0.831
  396TIP3   OH2 1144   3.773   1.103   4.308
  396TIP3    H1 1145   3.781   1.095   4.213
  396TIP3    H2 1146   3.707   1.037   4.332
  397TIP3   OH2 1147   7.800   0.037   6.729
  397TIP3    H1 1148   7.800   0.020   6.635
  397TIP3    H2 1149   7.779   0.130   6.737
  398TIP3   OH2 1150   4.491   1.662   0.545
  398TIP3    H1 1151   4.534   1.746   0.560
  398TIP3    H2 1152   4.533   1.627   0.466
  399TIP3   OH2 1153   3.642   7.810   4.801
  399TIP3    H1 1154   3.707   7.740   4.804
  399TIP3    H2 1155   3.592   7.793   4.720
  400TIP3   OH2 1156   6.106   7.222   1.313
  400TIP3    H1 1157   6.165   7.175   1.374
  400TIP3    H2 1158   6.024   7.230   1.361
  401TIP3   OH2 1159   1.594   6.953   2.384
  401TIP3    H1 1160   1.581   6.993   2.470
  401TIP3    H2 1161   1.506   6.940   2.350
  402TIP3   OH2 1162   8.141   1.498   6.571
  402TIP3    H1 1163   8.136   1.416   6.523
  402TIP3    H2 1164   8.201   1.552   6.521
  403TIP3   OH2 1165   4.737   0.244   2.859
  403TIP3    H1 1166   4.716   0.305   2.930
  403TIP3    H2 1167   4.831   0.257   2.844
  404TIP3   OH2 1168   1.496   6.603   4.076
  404TIP3    H1 1169   1.545   6.667   4.025
  404TIP3    H2 1170   1.471   6.650   4.156
  405TIP3   OH2 1171   4.325   5.716   5.691
  405TIP3    H1 1172   4.317   5.737   5.784
  405TIP3    H2 1173   4.284   5.790   5.647
  406TIP3   OH2 1174   7.110   5.199   4.835
  406TIP3    H1 1175   7.048   5.173   4.904
  406TIP3    H2 1176   7.171   5.258   4.879
  407TIP3   OH2 1177   0.044   1.338   0.955
  407TIP3    H1 1178  -0.038   1.291   0.941
  407TIP3    H2 1179   0.112   1.272   0.940
  408TIP3   OH2 1180   6.429   7.641   3.182
  408TIP3    H1 1181   6.477   7.669   3.260
  408TIP3    H2 1182   6.407   7.549   3.198
  409TIP3   OH2 1183   7.842   6.128   4.113
  409TIP3    H1 1184   7.759   6.128   4.161
  409TIP3    H2 1185   7.853   6.037   4.085
  410TIP3   OH2 1186   4.008   5.329   1.257
  410TIP3    H1 1187   3.967   5.316   1.172
  410TIP3    H2 1188   3.946   5.384   1.305
  411TIP3   OH2 1189   0.566   0.391   2.614
  411TIP3    H1 1190   0.599   0.398   2.704
  411TIP3    H2 1191   0.609   0.313   2.579
  412TIP3   OH2 1192   0.286   2.035   5.349
  412TIP3    H1 1193   0.271   2.107   5.411
  412TIP3    H2 1194   0.200   2.017   5.312
  413TIP3   OH2 1195   3.141   4.525   5.405
  413TIP3    H1 1196   3.108   4.550   5.318
  413TIP3    H2 1197   3.068   4.543   5.464
  414TIP3   OH2 1198   3.567   4.717   3.869
  414TIP3    H1 1199   3.539   4.749   3.783
  414TIP3    H2 1200   3.498   4.745   3.929
  415TIP3   OH2 1201   3.156   7.668   3.309
  415TIP3    H1 1202   3.164   7.580   3.346
  415TIP3    H2 1203   3.244   7.706   3.318
  416TIP3   OH2 1204   8.252   6.994   1.570
  416TIP3    H1 1205   8.227   6.920   1.515
  416TIP3    H2 1206   8.243   7.070   1.512
  417TIP3   OH2 1207   3.226   2.182   1.362
  417TIP3    H1 1208   3.140   2.197   1.323
  417TIP3    H2 1209   3.275   2.134   1.294
  418TIP3   OH2 1210   6.926   1.870   2.069
  418TIP3    H1 1211   6.843   1.871   2.116
  418TIP3    H2 1212   6.956   1.961   2.072
  419TIP3   OH2 1213   1.634   3.070   2.221
  419TIP3    H1 1214   1.679   3.153   2.206
  419TIP3    H2 1215   1.559   3.094   2.277
  420TIP3   OH2 1216   6.897   6.702   2.321
  420TIP3    H1 1217   6.856   6.671   2.241
  420TIP3    H2 1218   6.825   6.731   2.376
  421TIP3   OH2 1219   1.117   7.764   3.512
  421TIP3    H1 1220   1.210   7.781   3.499
  421TIP3    H2 1221   1.076   7.786   3.428
  422TIP3   OH2 1222   8.286   0.590   0.246
  422TIP3    H1 1223   8.203   0.547   0.229
  422TIP3    H2 1224   8.338   0.574   0.167
  423TIP3   OH2 1225   1.122   4.349   5.577
  423TIP3    H1 1226   1.210   4.321   5.602
  423TIP3    H2 1227   1.135   4.404   5.500
  424TIP3   OH2 1228   3.953   4.978   0.190
  424TIP3    H1 1229   4.040   4.969   0.228
  424TIP3    H2 1230   3.895   4.931   0.249
  425TIP3   OH2 1231   3.303   7.186   3.408
  425TIP3    H1 1232   3.386   7.144   3.383
  425TIP3    H2 1233   3.236   7.133   3.365
  426TIP3   OH2 1234   1.888   0.402   1.379
  426TIP3    H1 1235   1.817   0.435   1.433
  426TIP3    H2 1236   1.962   0.390   1.439
  427TIP3   OH2 1237   0.917   6.349   2.947
  427TIP3    H1 1238   0.830   6.334   2.910
  427TIP3    H2 1239   0.948   6.263   2.974
  428TIP3   OH2 1240   2.301   6.259   5.282
  428TIP3    H1 1241   2.213   6.221   5.271
  428TIP3    H2 1242   2.286   6.338   5.333
  429TIP3   OH2 1243   6.300   1.694   2.638
  429TIP3    H1 1244   6.349   1.738   2.569
  429TIP3    H2 1245   6.341   1.608   2.646
  430TIP3   OH2 1246   2.306   0.644   4.178
  430TIP3    H1 1247   2.251   0.626   4.102
  430TIP3    H2 1248   2.354   0.563   4.194
  431TIP3   OH2 1249   2.635   2.841   5.743
  431TIP3    H1 1250   2.705   2.893   5.781
  431TIP3    H2 1251   2.556   2.873   5.786
  432TIP3   OH2 1252   1.359   2.523   0.725
  432TIP3    H1 1253   1.413   2.590   0.683
  432TIP3    H2 1254   1.380   2.528   0.818
  433TIP3   OH2 1255   2.464   2.515   5.592
  433TIP3    H1 1256   2.486   2.428   5.558
  433TIP3    H2 1257   2.482   2.509   5.686
  434TIP3   OH2 1258   3.961   4.767   3.648
  434TIP3    H1 1259   3.953   4.684   3.694
  434TIP3    H2 1260   4.007   4.824   3.710
  435TIP3   OH2 1261   3.686   1.890   3.125
  435TIP3    H1 1262   3.712   1.814   3.176
  435TIP3    H2 1263   3.684   1.859   3.034
  436TIP3   OH2 1264   4.309   7.542   5.585
  436TIP3    H1 1265   4.378   7.601   5.553
  436TIP3    H2 1266   4.307   7.557   5.680
  437TIP3   OH2 1267   7.012   0.718   2.533
  437TIP3    H1 1268   6.963   0.700   2.613
  437TIP3    H2 1269   6.973   0.659   2.468
  438TIP3   OH2 1270   0.469   6.461   3.457
  438TIP3    H1 1271   0.564   6.472   3.467
  438TIP3    H2 1272   0.461   6.389   3.394
  439TIP3   OH2 1273   3.738   2.243   1.813
  439TIP3    H1 1274   3.655   2.278   1.781
  439TIP3    H2 1275   3.717   2.207   1.900
  440TIP3   OH2 1276   0.107   7.521   6.731
  440TIP3    H1 1277   0.041   7.467   6.774
  440TIP3    H2 1278   0.101   7.498   6.639
  441TIP3   OH2 1279   3.089   7.092   0.727
  441TIP3    H1 1280   3.168   7.138   0.699
  441TIP3    H2 1281   3.057   7.141   0.803
  442TIP3   OH2 1282   8.135   4.256   5.907
  442TIP3    H1 1283   8.119   4.350   5.901
  442TIP3    H2 1284   8.230   4.247   5.895
  443TIP3   OH2 1285   5.867   1.713   0.413
  443TIP3    H1 1286   5.889   1.625   0.382
  443TIP3    H2 1287   5.893   1.712   0.506
  444TIP3   OH2 1288   5.366   0.054   5.521
  444TIP3    H1 1289   5.398   0.120   5.460
  444TIP3    H2 1290   5.319   0.104   5.588
  445TIP3   OH2 1291   8.065   5.808   0.713
  445TIP3    H1 1292   8.010   5.882   0.740
  445TIP3    H2 1293   8.124   5.793   0.787
  446TIP3   OH2 1294   4.813   5.205   4.087
  446TIP3    H1 1295   4.899   5.171   4.112
  446TIP3    H2 1296   4.828   5.250   4.004
  447TIP3   OH2 1297   6.806   2.501   4.697
  447TIP3    H1 1298   6.838   2.420   4.738
  447TIP3    H2 1299   6.715   2.482   4.675
  448TIP3   OH2 1300   3.168   5.348   2.582
  448TIP3    H1 1301   3.186   5.281   2.647
  448TIP3    H2 1302   3.150   5.300   2.502
  449TIP3   OH2 1303   0.609   3.012   0.757
  449TIP3    H1 1304   0.688   2.994   0.809
  449TIP3    H2 1305   0.549   2.941   0.779
  450TIP3   OH2 1306   1.198   1.910   4.461
  450TIP3    H1 1307   1.179   1.844   4.394
  450TIP3    H2 1308   1.167   1.871   4.543
  451TIP3   OH2 1309   5.701   7.258   5.635
  451TIP3    H1 1310   5.620   7.243   5.685
  451TIP3    H2 1311   5.746   7.174   5.637
  452TIP3   OH2 1312   5.047   1.547   2.778
  452TIP3    H1 1313   5.107   1.594   2.720
  452TIP3    H2 1314   4.966   1.539   2.729
  453TIP3   OH2 1315  -0.002   7.711   4.293
  453TIP3    H1 1316  -0.042   7.767   4.227
  453TIP3    H2 1317  -0.030   7.623   4.271
  454TIP3   OH2 1318   0.494   7.356   0.588
  454TIP3    H1 1319   0.479   7.336   0.495
  454TIP3    H2 1320   0.501   7.451   0.591
  455TIP3   OH2 1321   2.084   2.937   0.991
  455TIP3    H1 1322   2.102   2.879   0.917
  455TIP3    H2 1323   2.138   3.014   0.974
  456TIP3   OH2 1324   7.708   2.983   5.797
  456TIP3    H1 1325   7.795   3.011   5.824
  456TIP3    H2 1326   7.659   2.974   5.879
  457TIP3   OH2 1327   0.521   4.310   0.245
  457TIP3    H1 1328   0.462   4.314   0.170
  457TIP3    H2 1329   0.503   4.225   0.285
  458TIP3   OH2 1330   5.995   5.399   0.229
  458TIP3    H1 1331   5.912   5.437   0.200
  458TIP3    H2 1332   6.019   5.450   0.306
  459TIP3   OH2 1333   2.625   4.706   3.258
  459TIP3    H1 1334   2.558   4.640   3.237
  459TIP3    H2 1335   2.707   4.668   3.226
  460TIP3   OH2 1336   8.161   0.534   6.260
  460TIP3    H1 1337   8.182   0.479   6.185
  460TIP3    H2 1338   8.246   0.557   6.298
  461TIP3   OH2 1339   5.808   5.903   6.279
  461TIP3    H1 1340   5.745   5.917   6.350
  461TIP3    H2 1341   5.779   5.962   6.210
  462TIP3   OH2 1342   7.113   0.829   4.892
  462TIP3    H1 1343   7.099   0.918   4.924
  462TIP3    H2 1344   7.154   0.783   4.965
  463TIP3   OH2 1345   1.461   2.128   5.743
  463TIP3    H1 1346   1.482   2.137   5.650
  463TIP3    H2 1347   1.470   2.035   5.762
  464TIP3   OH2 1348   3.573   0.769   6.335
  464TIP3    H1 1349   3.608   0.692   6.290
  464TIP3    H2 1350   3.578   0.747   6.428
  465TIP3   OH2 1351   0.569   4.470   6.444
  465TIP3    H1 1352   0.543   4.424   6.524
  465TIP3    H2 1353   0.596   4.400   6.384
  466TIP3   OH2 1354   2.170   3.439   6.643
  466TIP3    H1 1355   2.150   3.440   6.737
  466TIP3    H2 1356   2.099   3.388   6.603
  467TIP3   OH2 1357   0.482   1.793   0.685
  467TIP3    H1 1358   0.513   1.845   0.759
  467TIP3    H2 1359   0.505   1.703   0.707
  468TIP3   OH2 1360   0.106   5.826   1.821
  468TIP3    H1 1361   0.193   5.864   1.835
  468TIP3    H2 1362   0.054   5.898   1.785
  469TIP3   OH2 1363   2.105   3.440   4.736
  469TIP3    H1 1364   2.184   3.448   4.789
  469TIP3    H2 1365   2.048   3.510   4.767
  470TIP3   OH2 1366   6.002   5.583   1.563
  470TIP3    H1 1367   6.006   5.488   1.568
  470TIP3    H2 1368   5.963   5.602   1.478
  471TIP3   OH2 1369   1.714   2.945   2.574
  471TIP3    H1 1370   1.679   2.881   2.513
  471TIP3    H2 1371   1.723   2.897   2.657
  472TIP3   OH2 1372   7.504   1.219   5.463
  472TIP3    H1 1373   7.488   1.267   5.382
  472TIP3    H2 1374   7.599   1.207   5.465
  473TIP3   OH2 1375   7.782   3.348   3.079
  473TIP3    H1 1376   7.769   3.273   3.138
  473TIP3    H2 1377   7.732   3.326   3.001
  474TIP3   OH2 1378   4.070   5.646   3.753
  474TIP3    H1 1379   4.013   5.608   3.686
  474TIP3    H2 1380   4.012   5.663   3.828
  475TIP3   OH2 1381   7.667   5.174   4.551
  475TIP3    H1 1382   7.745   5.148   4.501
  475TIP3    H2 1383   7.619   5.233   4.493
  476TIP3   OH2 1384   4.918   0.997   0.193
  476TIP3    H1 1385   4.926   0.937   0.268
  476TIP3    H2 1386   4.862   0.950   0.131
  477TIP3   OH2 1387   5.698   6.456   6.698
  477TIP3    H1 1388   5.645   6.440   6.776
  477TIP3    H2 1389   5.735   6.371   6.676
  478TIP3   OH2 1390   8.081   6.344   0.902
  478TIP3    H1 1391   8.113   6.376   0.986
  478TIP3    H2 1392   8.156   6.298   0.864
  479TIP3   OH2 1393   4.257   0.378   2.208
  479TIP3    H1 1394   4.272   0.413   2.296
  479TIP3    H2 1395   4.164   0.354   2.208
  480TIP3   OH2 1396   7.847   6.043   4.781
  480TIP3    H1 1397   7.807   5.991   4.851
  480TIP3    H2 1398   7.883   5.978   4.720
  481TIP3   OH2 1399   4.568   0.747   0.728
  481TIP3    H1 1400   4.616   0.824   0.761
  481TIP3    H2 1401   4.537   0.703   0.807
  482TIP3   OH2 1402   3.462   1.662   4.545
  482TIP3    H1 1403   3.485   1.680   4.454
  482TIP3    H2 1404   3.367   1.647   4.543
  483TIP3   OH2 1405   4.323   6.456   1.218
  483TIP3    H1 1406   4.304   6.478   1.127
  483TIP3    H2 1407   4.416   6.432   1.218
  484TIP3   OH2 1408   5.411   0.498   0.483
  484TIP3    H1 1409   5.461   0.514   0.563
  484TIP3    H2 1410   5.339   0.561   0.486
  485TIP3   OH2 1411   3.286   6.329   5.998
  485TIP3    H1 1412   3.191   6.321   5.994
  485TIP3    H2 1413   3.315   6.318   5.907
  486TIP3   OH2 1414   7.910   0.494   4.270
  486TIP3    H1 1415   7.966   0.567   4.297
  486TIP3    H2 1416   7.963   0.416   4.285
  487TIP3   OH2 1417   2.168   6.308   5.988
  487TIP3    H1 1418   2.185   6.338   5.898
  487TIP3    H2 1419   2.238   6.245   6.005
  488TIP3   OH2 1420   7.025   4.340   3.490
  488TIP3    H1 1421   6.961   4.351   3.561
  488TIP3    H2 1422   7.042   4.246   3.488
  489TIP3   OH2 1423   3.517   2.421   3.954
  489TIP3    H1 1424   3.463   2.446   3.879
  489TIP3    H2 1425   3.464   2.356   4.000
  490TIP3   OH2 1426   2.565   0.344   1.075
  490TIP3    H1 1427   2.551   0.250   1.085
  490TIP3    H2 1428   2.602   0.353   0.987
  491TIP3   OH2 1429   8.143   2.372   1.361
  491TIP3    H1 1430   8.164   2.292   1.410
  491TIP3    H2 1431   8.146   2.345   1.269
  492TIP3   OH2 1432   2.940   4.872   5.748
  492TIP3    H1 1433   2.998   4.947   5.744
  492TIP3    H2 1434   2.885   4.879   5.670
  493TIP3   OH2 1435   2.603   6.283   4.289
  493TIP3    H1 1436   2.610   6.378   4.278
  493TIP3    H2 1437   2.692   6.255   4.310
  494TIP3   OH2 1438   7.769   3.938   5.772
  494TIP3    H1 1439   7.754   3.879   5.846
  494TIP3    H2 1440   7.864   3.937   5.761
  495TIP3   OH2 1441   4.180   2.274   1.671
  495TIP3    H1 1442   4.254   2.308   1.721
  495TIP3    H2 1443   4.172   2.183   1.701
  496TIP3   OH2 1444   1.831   1.235   4.652
  496TIP3    H1 1445   1.819   1.191   4.737
  496TIP3    H2 1446   1.924   1.259   4.651
  497TIP3   OH2 1447   5.866   2.197   2.014
  497TIP3    H1 1448   5.873   2.281   1.969
  497TIP3    H2 1449   5.957   2.172   2.031
  498TIP3   OH2 1450   6.967   2.152   0.332
  498TIP3    H1 1451   6.964   2.061   0.303
  498TIP3    H2 1452   6.909   2.199   0.272
  499TIP3   OH2 1453   6.360   6.857   5.222
  499TIP3    H1 1454   6.393   6.886   5.307
  499TIP3    H2 1455   6.352   6.937   5.170
  500TIP3   OH2 1456   1.135   5.227   4.532
  500TIP3    H1 1457   1.077   5.232   4.608
  500TIP3    H2 1458   1.186   5.307   4.535
  501TIP3   OH2 1459   0.201   0.885   2.152
  501TIP3    H1 1460   0.153   0.870   2.234
  501TIP3    H2 1461   0.192   0.803   2.104
  502TIP3   OH2 1462   2.278   1.308   0.838
  502TIP3    H1 1463   2.349   1.245   0.831
  502TIP3    H2 1464   2.241   1.312   0.750
  503TIP3   OH2 1465   1.841   6.235   3.755
  503TIP3    H1 1466   1.816   6.159   3.808
  503TIP3    H2 1467   1.919   6.270   3.798
  504TIP3   OH2 1468   5.342   4.469   1.755
  504TIP3    H1 1469   5.398   4.438   1.826
  504TIP3    H2 1470   5.319   4.559   1.779
  505TIP3   OH2 1471   3.614   7.530   0.150
  505TIP3    H1 1472   3.550   7.562   0.214
  505TIP3    H2 1473   3.686   7.496   0.203
  506TIP3   OH2 1474   5.057   0.455   0.602
  506TIP3    H1 1475   5.114   0.390   0.645
  506TIP3    H2 1476   5.117   0.525   0.576
  507TIP3   OH2 1477   4.603   0.719   3.228
  507TIP3    H1 1478   4.592   0.683   3.140
  507TIP3    H2 1479   4.664   0.792   3.217
  508TIP3   OH2 1480   3.179   7.334   3.822
  508TIP3    H1 1481   3.209   7.263   3.879
  508TIP3    H2 1482   3.109   7.295   3.770
  509TIP3   OH2 1483   5.628   2.076   0.063
  509TIP3    H1 1484   5.602   2.164   0.090
  509TIP3    H2 1485   5.675   2.041   0.139
  510TIP3   OH2 1486   1.604   3.288   3.218
  510TIP3    H1 1487   1.636   3.258   3.133
  510TIP3    H2 1488   1.564   3.373   3.200
  511TIP3   OH2 1489   0.817   5.480   4.039
  511TIP3    H1 1490   0.894   5.500   4.093
  511TIP3    H2 1491   0.753   5.547   4.062
  512TIP3   OH2 1492   6.130   4.421   6.312
  512TIP3    H1 1493   6.134   4.386   6.222
  512TIP3    H2 1494   6.196   4.371   6.359
  513TIP3   OH2 1495   6.543   3.607   3.111
  513TIP3    H1 1496   6.626   3.624   3.155
  513TIP3    H2 1497   6.519   3.691   3.071
  514TIP3   OH2 1498   8.020   4.103   6.614
  514TIP3    H1 1499   7.980   4.019   6.593
  514TIP3    H2 1500   7.953   4.168   6.589
  515TIP3   OH2 1501   1.716   3.879   2.733
  515TIP3    H1 1502   1.805   3.911   2.720
  515TIP3    H2 1503   1.726   3.786   2.753
  516TIP3   OH2 1504   3.822   7.812   6.624
  516TIP3    H1 1505   3.757   7.761   6.671
  516TIP3    H2 1506   3.896   7.818   6.684
  517TIP3   OH2 1507   3.424   0.753   1.119
  517TIP3    H1 1508   3.467   0.834   1.146
  517TIP3    H2 1509   3.469   0.729   1.038
  518TIP3   OH2 1510   3.277   1.152   4.066
  518TIP3    H1 1511   3.260   1.061   4.045
  518TIP3    H2 1512   3.213   1.173   4.134
  519TIP3   OH2 1513   0.789   2.088   2.447
  519TIP3    H1 1514   0.843   2.012   2.423
  519TIP3    H2 1515   0.734   2.103   2.370
  520TIP3   OH2 1516   1.513   3.945   5.848
  520TIP3    H1 1517   1.554   3.866   5.882
  520TIP3    H2 1518   1.454   3.915   5.779
  521TIP3   OH2 1519   2.491   0.665   0.943
  521TIP3    H1 1520   2.463   0.757   0.938
  521TIP3    H2 1521   2.586   0.668   0.946
  522TIP3   OH2 1522   0.170   7.437   0.995
  522TIP3    H1 1523   0.083   7.438   0.956
  522TIP3    H2 1524   0.229   7.416   0.923
  523TIP3   OH2 1525   6.092   7.016   2.394
  523TIP3    H1 1526   6.141   6.964   2.458
  523TIP3    H2 1527   6.001   7.012   2.425
  524TIP3   OH2 1528   2.618   5.815   6.311
  524TIP3    H1 1529   2.610   5.831   6.217
  524TIP3    H2 1530   2.666   5.892   6.344
  525TIP3   OH2 1531   2.426   1.467   1.022
  525TIP3    H1 1532   2.431   1.376   1.052
  525TIP3    H2 1533   2.355   1.467   0.958
  526TIP3   OH2 1534   4.057   3.369   0.976
  526TIP3    H1 1535   4.022   3.292   1.020
  526TIP3    H2 1536   4.017   3.443   1.021
  527TIP3   OH2 1537   1.989   4.347   5.152
  527TIP3    H1 1538   1.971   4.382   5.065
  527TIP3    H2 1539   1.907   4.305   5.179
  528TIP3   OH2 1540   6.800   4.196   1.381
  528TIP3    H1 1541   6.709   4.201   1.353
  528TIP3    H2 1542   6.799   4.134   1.454
  529TIP3   OH2 1543   2.939   7.497   4.173
  529TIP3    H1 1544   3.009   7.442   4.209
  529TIP3    H2 1545   2.970   7.522   4.086
  530TIP3   OH2 1546   6.834   0.069   2.777
  530TIP3    H1 1547   6.903   0.045   2.839
  530TIP3    H2 1548   6.828   0.164   2.783
  531TIP3   OH2 1549   6.908   6.517   4.810
  531TIP3    H1 1550   6.842   6.485   4.872
  531TIP3    H2 1551   6.974   6.448   4.807
  532TIP3   OH2 1552   3.417   6.674   1.363
  532TIP3    H1 1553   3.377   6.722   1.435
  532TIP3    H2 1554   3.488   6.731   1.332
  533TIP3   OH2 1555   5.625   5.457   5.948
  533TIP3    H1 1556   5.540   5.453   5.992
  533TIP3    H2 1557   5.688   5.471   6.019
  534TIP3   OH2 1558   4.574   2.888   3.192
  534TIP3    H1 1559   4.562   2.981   3.214
  534TIP3    H2 1560   4.665   2.881   3.166
  535TIP3   OH2 1561   5.487   3.533   4.777
  535TIP3    H1 1562   5.508   3.448   4.737
  535TIP3    H2 1563   5.438   3.579   4.710
  536TIP3   OH2 1564   4.187   2.281   4.988
  536TIP3    H1 1565   4.199   2.244   5.075
  536TIP3    H2 1566   4.143   2.212   4.938
  537TIP3   OH2 1567   5.720   3.048   6.486
  537TIP3    H1 1568   5.718   3.066   6.392
  537TIP3    H2 1569   5.631   3.021   6.507
  538TIP3   OH2 1570   6.153   5.210   2.565
  538TIP3    H1 1571   6.219   5.237   2.629
  538TIP3    H2 1572   6.116   5.292   2.532
  539TIP3   OH2 1573   3.851   2.872   1.035
  539TIP3    H1 1574   3.931   2.847   0.989
  539TIP3    H2 1575   3.819   2.791   1.074
  540TIP3   OH2 1576   4.715   2.191   3.430
  540TIP3    H1 1577   4.711   2.256   3.500
  540TIP3    H2 1578   4.805   2.158   3.434
  541TIP3   OH2 1579   0.330   6.264   6.736
  541TIP3    H1 1580   0.349   6.356   6.717
  541TIP3    H2 1581   0.236   6.261   6.750
  542TIP3   OH2 1582   0.330   0.496   5.745
  542TIP3    H1 1583   0.379   0.420   5.713
  542TIP3    H2 1584   0.366   0.570   5.698
  543TIP3   OH2 1585   6.153   4.756   4.346
  543TIP3    H1 1586   6.172   4.715   4.430
  543TIP3    H2 1587   6.077   4.708   4.313
  544TIP3   OH2 1588   3.270   5.731   3.599
  544TIP3    H1 1589   3.184   5.746   3.638
  544TIP3    H2 1590   3.309   5.662   3.653
  545TIP3   OH2 1591   7.308   6.989   0.036
  545TIP3    H1 1592   7.383   7.048   0.023
  545TIP3    H2 1593   7.239   7.026  -0.018
  546TIP3   OH2 1594   4.737   3.102   4.783
  546TIP3    H1 1595   4.706   3.012   4.775
  546TIP3    H2 1596   4.672   3.145   4.840
  547TIP3   OH2 1597   4.057   1.066   4.696
  547TIP3    H1 1598   4.081   1.086   4.605
  547TIP3    H2 1599   4.066   1.150   4.742
  548TIP3   OH2 1600   4.380   4.037   1.662
  548TIP3    H1 1601   4.337   4.112   1.621
  548TIP3    H2 1602   4.364   3.965   1.602
  549TIP3   OH2 1603   3.498   7.431   6.668
  549TIP3    H1 1604   3.454   7.391   6.593
  549TIP3    H2 1605   3.436   7.421   6.740
  550TIP3   OH2 1606   7.092   5.462   4.671
  550TIP3    H1 1607   7.137   5.382   4.646
  550TIP3    H2 1608   7.136   5.531   4.621
  551TIP3   OH2 1609   4.744   1.987   1.178
  551TIP3    H1 1610   4.702   1.902   1.189
  551TIP3    H2 1611   4.674   2.051   1.193
  552TIP3   OH2 1612   1.409   0.900   2.485
  552TIP3    H1 1613   1.434   0.920   2.575
  552TIP3    H2 1614   1.355   0.975   2.458
  553TIP3   OH2 1615   6.649   3.930   2.554
  553TIP3    H1 1616   6.713   3.919   2.623
  553TIP3    H2 1617   6.590   3.999   2.586
  554TIP3   OH2 1618   1.213   1.103   1.290
  554TIP3    H1 1619   1.192   1.107   1.384
  554TIP3    H2 1620   1.309   1.099   1.288
  555TIP3   OH2 1621   5.341   4.197   3.338
  555TIP3    H1 1622   5.297   4.127   3.386
  555TIP3    H2 1623   5.399   4.151   3.277
  556TIP3   OH2 1624   5.242   3.344   3.140
  556TIP3    H1 1625   5.172   3.292   3.178
  556TIP3    H2 1626   5.253   3.310   3.051
  557TIP3   OH2 1627   3.489   4.571   5.986
  557TIP3    H1 1628   3.437   4.491   5.982
  557TIP3    H2 1629   3.530   4.578   5.899
  558TIP3   OH2 1630   2.756   1.590   4.039
  558TIP3    H1 1631   2.800   1.626   3.962
  558TIP3    H2 1632   2.695   1.525   4.004
  559TIP3   OH2 1633   4.678   0.303   4.999
  559TIP3    H1 1634   4.741   0.247   5.045
  559TIP3    H2 1635   4.731   0.374   4.963
  560TIP3   OH2 1636   5.991   6.955   1.771
  560TIP3    H1 1637   6.063   6.898   1.797
  560TIP3    H2 1638   5.931   6.898   1.723
  561TIP3   OH2 1639   1.919   4.227   6.072
  561TIP3    H1 1640   1.825   4.232   6.086
  561TIP3    H2 1641   1.929   4.174   5.993
  562TIP3   OH2 1642   1.420   4.767   2.798
  562TIP3    H1 1643   1.462   4.681   2.786
  562TIP3    H2 1644   1.329   4.753   2.771
  563TIP3   OH2 1645   3.737   7.089   0.083
  563TIP3    H1 1646   3.710   7.180   0.074
  563TIP3    H2 1647   3.805   7.090   0.150
  564TIP3   OH2 1648   4.741   5.128   4.746
  564TIP3    H1 1649   4.752   5.196   4.680
  564TIP3    H2 1650   4.666   5.156   4.798
  565TIP3   OH2 1651   3.153   5.072   2.034
  565TIP3    H1 1652   3.234   5.034   2.002
  565TIP3    H2 1653   3.087   5.051   1.968
  566TIP3   OH2 1654   1.643   6.574   1.275
  566TIP3    H1 1655   1.646   6.549   1.367
  566TIP3    H2 1656   1.645   6.492   1.227
  567TIP3   OH2 1657   2.991   4.024   3.163
  567TIP3    H1 1658   2.902   4.037   3.196
  567TIP3    H2 1659   2.983   3.954   3.099
  568TIP3   OH2 1660   0.733   5.937   4.899
  568TIP3    H1 1661   0.810   5.881   4.906
  568TIP3    H2 1662   0.742   6.000   4.970
  569TIP3   OH2 1663   6.442   0.476   4.667
  569TIP3    H1 1664   6.460   0.502   4.757
  569TIP3    H2 1665   6.364   0.525   4.642
  570TIP3   OH2 1666   2.186   1.943   2.382
  570TIP3    H1 1667   2.261   1.894   2.416
  570TIP3    H2 1668   2.111   1.906   2.428
  571TIP3   OH2 1669   1.208   4.880   6.322
  571TIP3    H1 1670   1.218   4.966   6.283
  571TIP3    H2 1671   1.290   4.834   6.301
  572TIP3   OH2 1672   3.827   4.684   4.859
  572TIP3    H1 1673   3.775   4.716   4.934
  572TIP3    H2 1674   3.773   4.705   4.783
  573TIP3   OH2 1675   7.168   7.573   1.236
  573TIP3    H1 1676   7.237   7.632   1.264
  573TIP3    H2 1677   7.094   7.630   1.214
  574TIP3   OH2 1678   0.806   5.834   1.574
  574TIP3    H1 1679   0.818   5.740   1.591
  574TIP3    H2 1680   0.724   5.856   1.618
  575TIP3   OH2 1681   7.129   0.956   3.926
  575TIP3    H1 1682   7.168   1.018   3.864
  575TIP3    H2 1683   7.042   0.992   3.944
  576TIP3   OH2 1684   2.381   2.794   1.468
  576TIP3    H1 1685   2.467   2.775   1.504
  576TIP3    H2 1686   2.388   2.883   1.433
  577TIP3   OH2 1687   1.203   0.758   4.049
  577TIP3    H1 1688   1.243   0.835   4.009
  577TIP3    H2 1689   1.192   0.697   3.976
  578TIP3   OH2 1690   1.423   5.538   5.586
  578TIP3    H1 1691   1.431   5.501   5.497
  578TIP3    H2 1692   1.366   5.614   5.575
  579TIP3   OH2 1693   3.488   1.433   0.718
  579TIP3    H1 1694   3.437   1.361   0.754
  579TIP3    H2 1695   3.560   1.391   0.671
  580TIP3   OH2 1696   2.111   7.559   5.755
  580TIP3    H1 1697   2.151   7.593   5.835
  580TIP3    H2 1698   2.182   7.558   5.692
  581TIP3   OH2 1699   8.311   0.060   3.730
  581TIP3    H1 1700   8.280   0.059   3.821
  581TIP3    H2 1701   8.384  -0.002   3.730
  582TIP3   OH2 1702   7.710   3.697   3.477
  582TIP3    H1 1703   7.696   3.618   3.424
  582TIP3    H2 1704   7.796   3.684   3.516
  583TIP3   OH2 1705   1.767   7.169   0.855
  583TIP3    H1 1706   1.812   7.246   0.819
  583TIP3    H2 1707   1.834   7.100   0.856
  584TIP3   OH2 1708   1.714   7.853   5.442
  584TIP3    H1 1709   1.723   7.913   5.515
  584TIP3    H2 1710   1.762   7.774   5.469
  585TIP3   OH2 1711   0.488   5.233   2.199
  585TIP3    H1 1712   0.401   5.238   2.160
  585TIP3    H2 1713   0.529   5.317   2.178
  586TIP3   OH2 1714   3.876   0.435   2.618
  586TIP3    H1 1715   3.857   0.352   2.661
  586TIP3    H2 1716   3.799   0.489   2.636
  587TIP3   OH2 1717   3.806   1.335   4.808
  587TIP3    H1 1718   3.769   1.339   4.720
  587TIP3    H2 1719   3.810   1.242   4.828
  588TIP3   OH2 1720   0.085   7.717   1.136
  588TIP3    H1 1721   0.052   7.627   1.131
  588TIP3    H2 1722   0.153   7.721   1.069
  589TIP3   OH2 1723   4.926   0.334   2.476
  589TIP3    H1 1724   4.966   0.335   2.390
  589TIP3    H2 1725   4.931   0.243   2.504
  590TIP3   OH2 1726   1.798   7.566   3.169
  590TIP3    H1 1727   1.805   7.658   3.142
  590TIP3    H2 1728   1.748   7.569   3.251
  591TIP3   OH2 1729   1.384   6.461   1.093
  591TIP3    H1 1730   1.346   6.412   1.020
  591TIP3    H2 1731   1.442   6.398   1.137
  592TIP3   OH2 1732   4.087   3.692   3.867
  592TIP3    H1 1733   4.031   3.616   3.883
  592TIP3    H2 1734   4.175   3.656   3.860
  593TIP3   OH2 1735   8.132   6.794   6.271
  593TIP3    H1 1736   8.166   6.782   6.360
  593TIP3    H2 1737   8.041   6.766   6.276
  594TIP3   OH2 1738   4.531   6.794   0.744
  594TIP3    H1 1739   4.515   6.745   0.663
  594TIP3    H2 1740   4.593   6.862   0.720
  595TIP3   OH2 1741   0.182   7.661   0.656
  595TIP3    H1 1742   0.165   7.568   0.668
  595TIP3    H2 1743   0.228   7.666   0.571
  596TIP3   OH2 1744   6.734   6.616   0.771
  596TIP3    H1 1745   6.741   6.699   0.724
  596TIP3    H2 1746   6.768   6.636   0.858
  597TIP3   OH2 1747   7.332   7.170   3.745
  597TIP3    H1 1748   7.353   7.263   3.750
  597TIP3    H2 1749   7.361   7.135   3.829
  598TIP3   OH2 1750   2.805   4.942   2.272
  598TIP3    H1 1751   2.817   4.866   2.328
  598TIP3    H2 1752   2.712   4.940   2.249
  599TIP3   OH2 1753   7.379   6.966   2.744
  599TIP3    H1 1754   7.460   7.016   2.731
  599TIP3    H2 1755   7.407   6.875   2.739
  600TIP3   OH2 1756   6.792   7.622   6.677
  600TIP3    H1 1757   6.857   7.644   6.610
  600TIP3    H2 1758   6.726   7.691   6.670
  601TIP3   OH2 1759   7.391   1.764   5.578
  601TIP3    H1 1760   7.389   1.811   5.494
  601TIP3    H2 1761   7.441   1.684   5.559
  602TIP3   OH2 1762   4.514   5.939   3.533
  602TIP3    H1 1763   4.511   5.946   3.628
  602TIP3    H2 1764   4.604   5.914   3.514
  603TIP3   OH2 1765   2.475   3.099   0.522
  603TIP3    H1 1766   2.441   3.010   0.527
  603TIP3    H2 1767   2.403   3.150   0.485
  604TIP3   OH2 1768   7.736   3.077   4.282
  604TIP3    H1 1769   7.735   2.998   4.335
  604TIP3    H2 1770   7.823   3.080   4.244
  605TIP3   OH2 1771   5.589   4.945   1.443
  605TIP3    H1 1772   5.522   5.013   1.447
  605TIP3    H2 1773   5.605   4.921   1.534
  606TIP3   OH2 1774   6.256   0.711   1.944
  606TIP3    H1 1775   6.299   0.652   1.883
  606TIP3    H2 1776   6.255   0.663   2.027
  607TIP3   OH2 1777   1.693   1.028   0.233
  607TIP3    H1 1778   1.611   1.074   0.251
  607TIP3    H2 1779   1.693   0.952   0.291
  608TIP3   OH2 1780   6.496   5.257   1.403
  608TIP3    H1 1781   6.481   5.346   1.436
  608TIP3    H2 1782   6.418   5.238   1.351
  609TIP3   OH2 1783   0.030   4.256   3.564
  609TIP3    H1 1784   0.045   4.345   3.596
  609TIP3    H2 1785  -0.026   4.216   3.630
  610TIP3   OH2 1786   1.121   0.532   6.586
  610TIP3    H1 1787   1.160   0.470   6.648
  610TIP3    H2 1788   1.171   0.520   6.506
  611TIP3   OH2 1789   1.495   6.013   4.830
  611TIP3    H1 1790   1.497   6.075   4.757
  611TIP3    H2 1791   1.520   6.065   4.906
  612TIP3   OH2 1792   4.970   0.675   2.205
  612TIP3    H1 1793   4.876   0.687   2.201
  612TIP3    H2 1794   5.007   0.756   2.168
  613TIP3   OH2 1795   8.216   3.905   2.311
  613TIP3    H1 1796   8.122   3.925   2.304
  613TIP3    H2 1797   8.233   3.906   2.405
  614TIP3   OH2 1798   4.700   0.497   0.894
  614TIP3    H1 1799   4.754   0.432   0.940
  614TIP3    H2 1800   4.751   0.578   0.900
  615TIP3   OH2 1801   0.968   0.101   2.564
  615TIP3    H1 1802   0.965   0.197   2.559
  615TIP3    H2 1803   1.034   0.076   2.500
  616TIP3   OH2 1804   1.179   7.785   0.760
  616TIP3    H1 1805   1.129   7.750   0.686
  616TIP3    H2 1806   1.182   7.879   0.745
  617TIP3   OH2 1807   7.152   0.013   2.531
  617TIP3    H1 1808   7.209   0.002   2.608
  617TIP3    H2 1809   7.176   0.099   2.496
  618TIP3   OH2 1810   3.972   0.344   5.921
  618TIP3    H1 1811   3.904   0.403   5.889
  618TIP3    H2 1812   3.925   0.273   5.963
  619TIP3   OH2 1813   0.644   5.856   1.810
  619TIP3    H1 1814   0.599   5.771   1.811
  619TIP3    H2 1815   0.715   5.846   1.873
  620TIP3   OH2 1816   2.542   1.109   3.252
  620TIP3    H1 1817   2.512   1.063   3.173
  620TIP3    H2 1818   2.632   1.077   3.265
  621TIP3   OH2 1819   3.710   5.124   0.380
  621TIP3    H1 1820   3.781   5.172   0.424
  621TIP3    H2 1821   3.718   5.034   0.411
  622TIP3   OH2 1822   1.223   6.692   4.818
  622TIP3    H1 1823   1.224   6.718   4.910
  622TIP3    H2 1824   1.141   6.644   4.807
  623TIP3   OH2 1825   6.747   3.748   5.512
  623TIP3    H1 1826   6.754   3.843   5.525
  623TIP3    H2 1827   6.803   3.731   5.435
  624TIP3   OH2 1828   3.978   4.945   1.916
  624TIP3    H1 1829   4.001   5.031   1.952
  624TIP3    H2 1830   3.932   4.965   1.835
  625TIP3   OH2 1831   4.482   7.278   3.563
  625TIP3    H1 1832   4.513   7.215   3.498
  625TIP3    H2 1833   4.560   7.299   3.615
  626TIP3   OH2 1834   1.597   1.737   4.185
  626TIP3    H1 1835   1.607   1.693   4.101
  626TIP3    H2 1836   1.683   1.776   4.202
  627TIP3   OH2 1837   8.175   3.932   1.100
  627TIP3    H1 1838   8.159   3.924   1.006
  627TIP3    H2 1839   8.145   4.020   1.122
  628TIP3   OH2 1840   0.704   0.533   0.763
  628TIP3    H1 1841   0.635   0.471   0.739
  628TIP3    H2 1842   0.785   0.482   0.755
  629TIP3   OH2 1843   4.819   0.189   3.222
  629TIP3    H1 1844   4.819   0.227   3.309
  629TIP3    H2 1845   4.769   0.251   3.168
  630TIP3   OH2 1846   6.742   4.662   5.756
  630TIP3    H1 1847   6.667   4.667   5.696
  630TIP3    H2 1848   6.789   4.583   5.730
  631TIP3   OH2 1849   1.334   4.641   1.136
  631TIP3    H1 1850   1.239   4.651   1.131
  631TIP3    H2 1851   1.351   4.607   1.224
  632TIP3   OH2 1852   5.851   3.421   4.823
  632TIP3    H1 1853   5.895   3.340   4.795
  632TIP3    H2 1854   5.825   3.464   4.742
  633TIP3   OH2 1855   0.490   6.671   6.090
  633TIP3    H1 1856   0.505   6.679   5.995
  633TIP3    H2 1857   0.398   6.645   6.097
  634TIP3   OH2 1858   5.218   3.063   5.359
  634TIP3    H1 1859   5.307   3.038   5.334
  634TIP3    H2 1860   5.181   2.984   5.397
  635TIP3   OH2 1861   3.562   0.240   6.061
  635TIP3    H1 1862   3.564   0.245   6.157
  635TIP3    H2 1863   3.541   0.330   6.033
  636TIP3   OH2 1864   5.418   5.665   1.081
  636TIP3    H1 1865   5.447   5.619   1.002
  636TIP3    H2 1866   5.404   5.755   1.052
  637TIP3   OH2 1867   3.030   0.041   0.986
  637TIP3    H1 1868   3.095   0.048   0.916
  637TIP3    H2 1869   3.068   0.089   1.059
  638TIP3   OH2 1870   3.088   6.709   2.544
  638TIP3    H1 1871   3.055   6.718   2.455
  638TIP3    H2 1872   3.049   6.628   2.576
  639TIP3   OH2 1873   3.765   6.572   2.719
  639TIP3    H1 1874   3.834   6.635   2.700
  639TIP3    H2 1875   3.716   6.565   2.637
  640TIP3   OH2 1876   2.535   3.195   1.549
  640TIP3    H1 1877   2.567   3.270   1.498
  640TIP3    H2 1878   2.558   3.216   1.639
  641TIP3   OH2 1879   5.512   7.478   1.082
  641TIP3    H1 1880   5.418   7.466   1.091
  641TIP3    H2 1881   5.541   7.513   1.166
  642TIP3   OH2 1882   7.365   3.857   4.268
  642TIP3    H1 1883   7.384   3.769   4.301
  642TIP3    H2 1884   7.435   3.912   4.302
  643TIP3   OH2 1885   0.276   4.621   0.415
  643TIP3    H1 1886   0.348   4.586   0.467
  643TIP3    H2 1887   0.202   4.563   0.435
  644TIP3   OH2 1888   0.287   7.277   0.164
  644TIP3    H1 1889   0.301   7.276   0.259
  644TIP3    H2 1890   0.280   7.185   0.139
  645TIP3   OH2 1891   2.097   0.359   1.549
  645TIP3    H1 1892   2.159   0.298   1.589
  645TIP3    H2 1893   2.151   0.433   1.520
  646TIP3   OH2 1894   7.211   1.736   2.924
  646TIP3    H1 1895   7.154   1.808   2.950
  646TIP3    H2 1896   7.299   1.772   2.931
  647TIP3   OH2 1897   4.278   6.144   0.932
  647TIP3    H1 1898   4.192   6.132   0.893
  647TIP3    H2 1899   4.280   6.084   1.007
  648TIP3   OH2 1900   5.242   2.377   0.331
  648TIP3    H1 1901   5.171   2.332   0.285
  648TIP3    H2 1902   5.213   2.468   0.337
  649TIP3   OH2 1903   2.977   5.897   2.793
  649TIP3    H1 1904   2.934   5.935   2.869
  649TIP3    H2 1905   3.063   5.939   2.790
  650TIP3   OH2 1906   0.649   0.910   1.557
  650TIP3    H1 1907   0.580   0.860   1.513
  650TIP3    H2 1908   0.666   0.983   1.498
  651TIP3   OH2 1909   6.299   5.072   3.085
  651TIP3    H1 1910   6.289   5.157   3.129
  651TIP3    H2 1911   6.393   5.054   3.089
  652TIP3   OH2 1912   5.228   3.850   5.243
  652TIP3    H1 1913   5.323   3.852   5.252
  652TIP3    H2 1914   5.201   3.942   5.253
  653TIP3   OH2 1915   3.061   5.001   4.011
  653TIP3    H1 1916   2.966   5.010   4.021
  653TIP3    H2 1917   3.072   4.957   3.927
  654TIP3   OH2 1918   2.821   7.416   5.305
  654TIP3    H1 1919   2.833   7.472   5.228
  654TIP3    H2 1920   2.816   7.477   5.379
  655TIP3   OH2 1921   6.576   1.924   2.455
  655TIP3    H1 1922   6.539   1.978   2.525
  655TIP3    H2 1923   6.666   1.955   2.445
  656TIP3   OH2 1924   7.575   4.942   0.264
  656TIP3    H1 1925   7.521   4.961   0.187
  656TIP3    H2 1926   7.663   4.969   0.239
  657TIP3   OH2 1927   2.369   5.629   5.483
  657TIP3    H1 1928   2.291   5.652   5.434
  657TIP3    H2 1929   2.386   5.538   5.460
  658TIP3   OH2 1930   3.629   3.058   2.560
  658TIP3    H1 1931   3.723   3.046   2.571
  658TIP3    H2 1932   3.595   2.970   2.549
  659TIP3   OH2 1933   5.135   3.663   4.254
  659TIP3    H1 1934   5.162   3.750   4.223
  659TIP3    H2 1935   5.178   3.654   4.339
  660TIP3   OH2 1936   5.300   7.583   3.731
  660TIP3    H1 1937   5.366   7.534   3.682
  660TIP3    H2 1938   5.288   7.664   3.681
  661TIP3   OH2 1939   1.115   5.624   1.068
  661TIP3    H1 1940   1.164   5.558   1.018
  661TIP3    H2 1941   1.035   5.578   1.096
  662TIP3   OH2 1942   1.882   0.951   1.017
  662TIP3    H1 1943   1.847   0.932   0.930
  662TIP3    H2 1944   1.920   1.038   1.009
  663TIP3   OH2 1945   7.924   7.012   6.252
  663TIP3    H1 1946   8.019   7.007   6.257
  663TIP3    H2 1947   7.897   7.052   6.334
  664TIP3   OH2 1948   2.505   2.445   3.882
  664TIP3    H1 1949   2.564   2.518   3.864
  664TIP3    H2 1950   2.417   2.484   3.876
  665TIP3   OH2 1951   3.876   2.269   2.674
  665TIP3    H1 1952   3.827   2.343   2.639
  665TIP3    H2 1953   3.824   2.238   2.748
  666TIP3   OH2 1954   7.377   0.344   4.606
  666TIP3    H1 1955   7.405   0.303   4.524
  666TIP3    H2 1956   7.456   0.346   4.660
  667TIP3   OH2 1957   8.142   4.085   5.313
  667TIP3    H1 1958   8.158   4.139   5.236
  667TIP3    H2 1959   8.229   4.070   5.350
  668TIP3   OH2 1960   2.275   3.426   2.135
  668TIP3    H1 1961   2.231   3.507   2.111
  668TIP3    H2 1962   2.220   3.357   2.097
  669TIP3   OH2 1963   7.502   4.343   2.857
  669TIP3    H1 1964   7.485   4.415   2.796
  669TIP3    H2 1965   7.532   4.271   2.801
  670TIP3   OH2 1966   4.935   4.309   5.512
  670TIP3    H1 1967   4.936   4.393   5.465
  670TIP3    H2 1968   4.956   4.332   5.602
  671TIP3   OH2 1969   5.587   7.648   1.602
  671TIP3    H1 1970   5.601   7.557   1.630
  671TIP3    H2 1971   5.670   7.674   1.563
  672TIP3   OH2 1972   5.106   3.213   2.458
  672TIP3    H1 1973   5.130   3.304   2.472
  672TIP3    H2 1974   5.189   3.169   2.438
  673TIP3   OH2 1975   1.020   5.318   0.116
  673TIP3    H1 1976   1.023   5.386   0.049
  673TIP3    H2 1977   1.095   5.337   0.173
  674TIP3   OH2 1978   2.325   2.717   5.465
  674TIP3    H1 1979   2.336   2.792   5.524
  674TIP3    H2 1980   2.379   2.649   5.504
  675TIP3   OH2 1981   5.590   0.872   4.172
  675TIP3    H1 1982   5.559   0.934   4.106
  675TIP3    H2 1983   5.519   0.869   4.237
  676TIP3   OH2 1984   5.213   3.350   6.009
  676TIP3    H1 1985   5.288   3.294   5.991
  676TIP3    H2 1986   5.223   3.377   6.100
  677TIP3   OH2 1987   5.565   1.351   0.740
  677TIP3    H1 1988   5.578   1.268   0.786
  677TIP3    H2 1989   5.486   1.388   0.779
  678TIP3   OH2 1990   2.607   6.671   4.912
  678TIP3    H1 1991   2.681   6.704   4.962
  678TIP3    H2 1992   2.639   6.590   4.871
  679TIP3   OH2 1993   2.773   4.483   5.021
  679TIP3    H1 1994   2.827   4.440   4.954
  679TIP3    H2 1995   2.684   4.456   5.000
  680TIP3   OH2 1996   0.328   3.381   5.441
  680TIP3    H1 1997   0.271   3.448   5.406
  680TIP3    H2 1998   0.392   3.429   5.494
  681TIP3   OH2 1999   6.920   6.321   6.662
  681TIP3    H1 2000   7.002   6.335   6.613
  681TIP3    H2 2001   6.864   6.273   6.602
  682TIP3   OH2 2002   5.743   1.710   2.845
  682TIP3    H1 2003   5.836   1.693   2.859
  682TIP3    H2 2004   5.729   1.797   2.882
  683TIP3   OH2 2005   5.840   0.730   3.403
  683TIP3    H1 2006   5.829   0.647   3.358
  683TIP3    H2 2007   5.928   0.726   3.440
  684TIP3   OH2 2008   4.420   1.792   2.627
  684TIP3    H1 2009   4.367   1.778   2.706
  684TIP3    H2 2010   4.510   1.777   2.656
  685TIP3   OH2 2011   5.835   2.309   5.503
  685TIP3    H1 2012   5.805   2.374   5.567
  685TIP3    H2 2013   5.875   2.362   5.434
  686TIP3   OH2 2014   4.388   4.570   4.953
  686TIP3    H1 2015   4.375   4.497   4.892
  686TIP3    H2 2016   4.299   4.593   4.981
  687TIP3   OH2 2017   0.400   1.798   5.263
  687TIP3    H1 2018   0.438   1.741   5.329
  687TIP3    H2 2019   0.381   1.880   5.310
  688TIP3   OH2 2020   8.225   1.562   0.846
  688TIP3    H1 2021   8.203   1.613   0.924
  688TIP3    H2 2022   8.277   1.489   0.880
  689TIP3   OH2 2023   6.100   4.340   3.327
  689TIP3    H1 2024   6.045   4.316   3.252
  689TIP3    H2 2025   6.171   4.275   3.326
  690TIP3   OH2 2026   5.395   4.999   3.253
  690TIP3    H1 2027   5.455   5.034   3.187
  690TIP3    H2 2028   5.346   5.075   3.284
  691TIP3   OH2 2029   4.274   5.440   0.166
  691TIP3    H1 2030   4.311   5.509   0.111
  691TIP3    H2 2031   4.182   5.464   0.177
  692TIP3   OH2 2032   2.205   4.551   1.063
  692TIP3    H1 2033   2.145   4.490   1.106
  692TIP3    H2 2034   2.163   4.637   1.072
  693TIP3   OH2 2035   6.063   2.284   1.539
  693TIP3    H1 2036   6.063   2.199   1.583
  693TIP3    H2 2037   6.073   2.264   1.446
  694TIP3   OH2 2038   1.263   7.006   2.774
  694TIP3    H1 2039   1.244   6.939   2.841
  694TIP3    H2 2040   1.215   7.083   2.804
  695TIP3   OH2 2041   3.559   2.025   3.430
  695TIP3    H1 2042   3.574   1.933   3.450
  695TIP3    H2 2043   3.465   2.038   3.446
  696TIP3   OH2 2044   0.603   4.893   3.964
  696TIP3    H1 2045   0.666   4.920   4.031
  696TIP3    H2 2046   0.541   4.836   4.010
  697TIP3   OH2 2047   0.691   0.241   4.243
  697TIP3    H1 2048   0.721   0.229   4.153
  697TIP3    H2 2049   0.737   0.173   4.293
  698TIP3   OH2 2050   4.898   1.705   4.653
  698TIP3    H1 2051   4.932   1.788   4.688
  698TIP3    H2 2052   4.903   1.645   4.727
  699TIP3   OH2 2053   6.787   6.652   3.865
  699TIP3    H1 2054   6.767   6.658   3.772
  699TIP3    H2 2055   6.856   6.586   3.871
  700TIP3   OH2 2056   4.611   0.356   1.216
  700TIP3    H1 2057   4.637   0.312   1.136
  700TIP3    H2 2058   4.682   0.419   1.233
  701TIP3   OH2 2059   3.318   4.016   2.015
  701TIP3    H1 2060   3.267   3.943   2.049
  701TIP3    H2 2061   3.254   4.072   1.972
  702TIP3   OH2 2062   5.645   3.768   5.551
  702TIP3    H1 2063   5.611   3.836   5.609
  702TIP3    H2 2064   5.611   3.686   5.587
  703TIP3   OH2 2065   6.468   7.206   5.410
  703TIP3    H1 2066   6.519   7.261   5.351
  703TIP3    H2 2067   6.499   7.230   5.498
  704TIP3   OH2 2068   8.233   5.905   4.574
  704TIP3    H1 2069   8.141   5.878   4.580
  704TIP3    H2 2070   8.254   5.898   4.481
  705TIP3   OH2 2071   5.203   1.907   6.363
  705TIP3    H1 2072   5.165   1.827   6.326
  705TIP3    H2 2073   5.169   1.978   6.307
  706TIP3   OH2 2074   4.832   2.180   5.781
  706TIP3    H1 2075   4.807   2.240   5.712
  706TIP3    H2 2076   4.793   2.216   5.861
  707TIP3   OH2 2077   6.283   0.144   0.624
  707TIP3    H1 2078   6.355   0.101   0.578
  707TIP3    H2 2079   6.303   0.130   0.717
  708TIP3   OH2 2080   7.157   4.251   6.060
  708TIP3    H1 2081   7.126   4.205   5.982
  708TIP3    H2 2082   7.162   4.343   6.033
  709TIP3   OH2 2083   1.711   3.146   3.555
  709TIP3    H1 2084   1.727   3.208   3.484
  709TIP3    H2 2085   1.716   3.199   3.634
  710TIP3   OH2 2086   7.292   0.323   6.311
  710TIP3    H1 2087   7.266   0.253   6.371
  710TIP3    H2 2088   7.300   0.280   6.226
  711TIP3   OH2 2089   7.409   1.937   6.106
  711TIP3    H1 2090   7.321   1.975   6.116
  711TIP3    H2 2091   7.468   2.008   6.131
  712TIP3   OH2 2092   6.339   4.854   4.182
  712TIP3    H1 2093   6.252   4.858   4.221
  712TIP3    H2 2094   6.347   4.763   4.153
  713TIP3   OH2 2095   0.260   2.349   1.855
  713TIP3    H1 2096   0.167   2.328   1.860
  713TIP3    H2 2097   0.300   2.273   1.813
  714TIP3   OH2 2098   5.121   6.486   6.492
  714TIP3    H1 2099   5.196   6.475   6.433
  714TIP3    H2 2100   5.049   6.509   6.434
  715TIP3   OH2 2101   7.411   6.508   3.570
  715TIP3    H1 2102   7.462   6.458   3.634
  715TIP3    H2 2103   7.321   6.500   3.599
  716TIP3   OH2 2104   7.691   6.045   1.298
  716TIP3    H1 2105   7.633   6.118   1.318
  716TIP3    H2 2106   7.702   5.999   1.381
  717TIP3   OH2 2107   6.475   7.604   1.372
  717TIP3    H1 2108   6.414   7.678   1.375
  717TIP3    H2 2109   6.433   7.536   1.424
  718TIP3   OH2 2110   5.138   4.367   3.697
  718TIP3    H1 2111   5.143   4.309   3.773
  718TIP3    H2 2112   5.090   4.316   3.631
  719TIP3   OH2 2113   7.233   4.774   1.958
  719TIP3    H1 2114   7.207   4.865   1.969
  719TIP3    H2 2115   7.253   4.744   2.046
  720TIP3   OH2 2116   2.480   0.068   1.062
  720TIP3    H1 2117   2.526   0.042   0.983
  720TIP3    H2 2118   2.447  -0.014   1.099
  721TIP3   OH2 2119   4.652   2.408   1.228
  721TIP3    H1 2120   4.614   2.321   1.225
  721TIP3    H2 2121   4.733   2.398   1.279
  722TIP3   OH2 2122   7.594   5.224   4.969
  722TIP3    H1 2123   7.623   5.287   4.903
  722TIP3    H2 2124   7.672   5.175   4.992
  723TIP3   OH2 2125   1.122   1.527   6.149
  723TIP3    H1 2126   1.081   1.592   6.092
  723TIP3    H2 2127   1.071   1.531   6.231
  724TIP3   OH2 2128   1.905   4.054   0.287
  724TIP3    H1 2129   1.978   3.995   0.266
  724TIP3    H2 2130   1.863   4.013   0.362
  725TIP3   OH2 2131   3.442   4.341   2.406
  725TIP3    H1 2132   3.529   4.357   2.441
  725TIP3    H2 2133   3.454   4.271   2.342
  726TIP3   OH2 2134   3.565   4.698   2.978
  726TIP3    H1 2135   3.591   4.630   2.917
  726TIP3    H2 2136   3.482   4.666   3.015
  727TIP3   OH2 2137   1.755   4.825   6.074
  727TIP3    H1 2138   1.668   4.797   6.049
  727TIP3    H2 2139   1.796   4.746   6.110
  728TIP3   OH2 2140   1.931   2.357   2.039
  728TIP3    H1 2141   1.873   2.342   1.965
  728TIP3    H2 2142   2.018   2.330   2.007
  729TIP3   OH2 2143   7.197   1.621   6.278
  729TIP3    H1 2144   7.291   1.636   6.289
  729TIP3    H2 2145   7.185   1.612   6.183
  730TIP3   OH2 2146   7.490   3.933   5.091
  730TIP3    H1 2147   7.525   3.993   5.156
  730TIP3    H2 2148   7.558   3.927   5.024
  731TIP3   OH2 2149   7.710   0.349   2.932
  731TIP3    H1 2150   7.772   0.294   2.981
  731TIP3    H2 2151   7.759   0.428   2.911
  732TIP3   OH2 2152   7.579   2.931   6.024
  732TIP3    H1 2153   7.557   2.931   6.117
  732TIP3    H2 2154   7.572   2.839   5.998
  733TIP3   OH2 2155   5.766   7.659   3.281
  733TIP3    H1 2156   5.740   7.657   3.374
  733TIP3    H2 2157   5.716   7.732   3.245
  734TIP3   OH2 2158   6.623   0.237   1.363
  734TIP3    H1 2159   6.657   0.321   1.393
  734TIP3    H2 2160   6.695   0.198   1.313
  735TIP3   OH2 2161   4.243   6.960   3.417
  735TIP3    H1 2162   4.335   6.985   3.406
  735TIP3    H2 2163   4.235   6.880   3.365
  736TIP3   OH2 2164   0.276   7.538   3.596
  736TIP3    H1 2165   0.235   7.624   3.583
  736TIP3    H2 2166   0.368   7.558   3.615
  737TIP3   OH2 2167   5.862   7.537   2.424
  737TIP3    H1 2168   5.837   7.487   2.502
  737TIP3    H2 2169   5.845   7.478   2.351
  738TIP3   OH2 2170   1.182   4.673   2.672
  738TIP3    H1 2171   1.178   4.626   2.756
  738TIP3    H2 2172   1.092   4.703   2.658
  739TIP3   OH2 2173   4.354   5.634   2.212
  739TIP3    H1 2174   4.259   5.649   2.210
  739TIP3    H2 2175   4.371   5.601   2.300
  740TIP3   OH2 2176   6.076   5.926   1.160
  740TIP3    H1 2177   6.086   5.841   1.118
  740TIP3    H2 2178   6.004   5.914   1.223
  741TIP3   OH2 2179   3.365   3.464   1.196
  741TIP3    H1 2180   3.408   3.507   1.270
  741TIP3    H2 2181   3.274   3.494   1.200
  742TIP3   OH2 2182   2.971   5.024   6.052
  742TIP3    H1 2183   2.931   5.074   6.123
  742TIP3    H2 2184   2.904   5.021   5.984
  743TIP3   OH2 2185   6.915   4.015   2.163
  743TIP3    H1 2186   6.825   4.021   2.195
  743TIP3    H2 2187   6.941   4.106   2.148
  744TIP3   OH2 2188   1.033   1.824   1.135
  744TIP3    H1 2189   0.997   1.912   1.126
  744TIP3    H2 2190   0.971   1.769   1.087
  745TIP3   OH2 2191   2.255   3.130   1.531
  745TIP3    H1 2192   2.199   3.062   1.567
  745TIP3    H2 2193   2.338   3.121   1.578
  746TIP3   OH2 2194   7.102   4.652   2.322
  746TIP3    H1 2195   7.131   4.701   2.399
  746TIP3    H2 2196   7.182   4.617   2.284
  747TIP3   OH2 2197   2.633   5.596   4.032
  747TIP3    H1 2198   2.584   5.589   4.114
  747TIP3    H2 2199   2.680   5.679   4.038
  748TIP3   OH2 2200   1.852   4.283   0.162
  748TIP3    H1 2201   1.879   4.197   0.196
  748TIP3    H2 2202   1.934   4.330   0.147
  749TIP3   OH2 2203   3.253   5.465   4.617
  749TIP3    H1 2204   3.235   5.441   4.708
  749TIP3    H2 2205   3.349   5.459   4.609
  750TIP3   OH2 2206   5.926   0.424   6.790
  750TIP3    H1 2207   5.964   0.487   6.729
  750TIP3    H2 2208   5.849   0.467   6.825
  751TIP3   OH2 2209   3.918   0.910   0.631
  751TIP3    H1 2210   3.970   0.865   0.698
  751TIP3    H2 2211   3.839   0.857   0.622
  752TIP3   OH2 2212   5.713   6.675   2.449
  752TIP3    H1 2213   5.651   6.724   2.395
  752TIP3    H2 2214   5.677   6.679   2.537
  753TIP3   OH2 2215   4.684   5.280   6.354
  753TIP3    H1 2216   4.767   5.239   6.327
  753TIP3    H2 2217   4.676   5.259   6.447
  754TIP3   OH2 2218   2.773   5.608   3.146
  754TIP3    H1 2219   2.850   5.566   3.109
  754TIP3    H2 2220   2.760   5.567   3.231
  755TIP3   OH2 2221   5.724   4.629   2.227
  755TIP3    H1 2222   5.629   4.646   2.224
  755TIP3    H2 2223   5.755   4.651   2.140
  756TIP3   OH2 2224   6.471   2.227   5.214
  756TIP3    H1 2225   6.390   2.192   5.176
  756TIP3    H2 2226   6.499   2.160   5.276
  757TIP3   OH2 2227   3.213   7.636   4.341
  757TIP3    H1 2228   3.215   7.561   4.282
  757TIP3    H2 2229   3.248   7.708   4.290
  758TIP3   OH2 2230   5.033   4.721   1.659
  758TIP3    H1 2231   5.052   4.807   1.622
  758TIP3    H2 2232   5.089   4.660   1.610
  759TIP3   OH2 2233   0.467   0.203   5.200
  759TIP3    H1 2234   0.439   0.113   5.218
  759TIP3    H2 2235   0.560   0.195   5.176
  760TIP3   OH2 2236   2.656   6.157   1.038
  760TIP3    H1 2237   2.633   6.249   1.034
  760TIP3    H2 2238   2.737   6.150   0.988
  761TIP3   OH2 2239   3.985   7.047   2.445
  761TIP3    H1 2240   3.892   7.065   2.463
  761TIP3    H2 2241   3.999   7.082   2.357
  762TIP3   OH2 2242   6.904   0.605   1.300
  762TIP3    H1 2243   6.837   0.541   1.274
  762TIP3    H2 2244   6.987   0.564   1.277
  763TIP3   OH2 2245   2.118   7.093   4.976
  763TIP3    H1 2246   2.083   7.010   4.943
  763TIP3    H2 2247   2.057   7.118   5.045
  764TIP3   OH2 2248   1.721   0.862   3.654
  764TIP3    H1 2249   1.775   0.847   3.577
  764TIP3    H2 2250   1.695   0.775   3.683
  765TIP3   OH2 2251   2.614   0.617   2.117
  765TIP3    H1 2252   2.652   0.568   2.043
  765TIP3    H2 2253   2.535   0.567   2.140
  766TIP3   OH2 2254   2.392   1.446   4.696
  766TIP3    H1 2255   2.453   1.441   4.770
  766TIP3    H2 2256   2.406   1.365   4.647
  767TIP3   OH2 2257   1.654   3.320   5.797
  767TIP3    H1 2258   1.715   3.323   5.723
  767TIP3    H2 2259   1.568   3.313   5.756
  768TIP3   OH2 2260   7.861   2.275   0.642
  768TIP3    H1 2261   7.823   2.361   0.657
  768TIP3    H2 2262   7.901   2.281   0.555
  769TIP3   OH2 2263   4.156   3.590   1.243
  769TIP3    H1 2264   4.182   3.670   1.197
  769TIP3    H2 2265   4.109   3.621   1.321
  770TIP3   OH2 2266   7.001   1.866   6.451
  770TIP3    H1 2267   7.014   1.854   6.357
  770TIP3    H2 2268   6.906   1.876   6.461
  771TIP3   OH2 2269   3.722   0.810   3.720
  771TIP3    H1 2270   3.686   0.858   3.795
  771TIP3    H2 2271   3.647   0.795   3.663
  772TIP3   OH2 2272   1.059   3.851   0.681
  772TIP3    H1 2273   1.017   3.904   0.613
  772TIP3    H2 2274   1.068   3.764   0.642
  773TIP3   OH2 2275   3.631   1.679   5.658
  773TIP3    H1 2276   3.672   1.600   5.623
  773TIP3    H2 2277   3.664   1.686   5.748
  774TIP3   OH2 2278   7.841   6.835   2.673
  774TIP3    H1 2279   7.907   6.784   2.721
  774TIP3    H2 2280   7.889   6.912   2.641
  775TIP3   OH2 2281   3.341   7.809   1.837
  775TIP3    H1 2282   3.370   7.723   1.807
  775TIP3    H2 2283   3.247   7.811   1.817
  776TIP3   OH2 2284   2.978   7.736   4.438
  776TIP3    H1 2285   3.018   7.823   4.449
  776TIP3    H2 2286   3.048   7.682   4.401
  777TIP3   OH2 2287   0.838   7.039  -0.049
  777TIP3    H1 2288   0.866   7.129  -0.038
  777TIP3    H2 2289   0.916   6.986  -0.033
  778TIP3   OH2 2290   1.593   5.201   0.943
  778TIP3    H1 2291   1.662   5.135   0.958
  778TIP3    H2 2292   1.597   5.257   1.021
  779TIP3   OH2 2293   5.992   2.063   0.498
  779TIP3    H1 2294   5.911   2.088   0.452
  779TIP3    H2 2295   6.019   2.142   0.543
  780TIP3   OH2 2296   5.905   7.316   3.965
  780TIP3    H1 2297   5.847   7.341   3.893
  780TIP3    H2 2298   5.960   7.393   3.979
  781TIP3   OH2 2299   2.833   7.556   0.847
  781TIP3    H1 2300   2.798   7.551   0.759
  781TIP3    H2 2301   2.922   7.588   0.836
  782TIP3   OH2 2302   2.944   5.586   1.545
  782TIP3    H1 2303   2.964   5.580   1.639
  782TIP3    H2 2304   3.029   5.574   1.502
  783TIP3   OH2 2305   2.345   3.653   4.142
  783TIP3    H1 2306   2.416   3.632   4.203
  783TIP3    H2 2307   2.350   3.748   4.131
  784TIP3   OH2 2308   8.161   7.043   1.842
  784TIP3    H1 2309   8.067   7.037   1.826
  784TIP3    H2 2310   8.200   7.037   1.755
  785TIP3   OH2 2311   1.542   5.744   4.809
  785TIP3    H1 2312   1.565   5.690   4.884
  785TIP3    H2 2313   1.554   5.834   4.839
  786TIP3   OH2 2314   4.120   0.092   2.303
  786TIP3    H1 2315   4.114   0.021   2.368
  786TIP3    H2 2316   4.040   0.144   2.317
  787TIP3   OH2 2317   7.836   4.399   4.188
  787TIP3    H1 2318   7.910   4.392   4.128
  787TIP3    H2 2319   7.866   4.459   4.257
  788TIP3   OH2 2320   7.186   7.475   0.244
  788TIP3    H1 2321   7.170   7.507   0.332
  788TIP3    H2 2322   7.100   7.446   0.213
  789TIP3   OH2 2323   6.620   3.984   3.337
  789TIP3    H1 2324   6.565   3.959   3.263
  789TIP3    H2 2325   6.563   3.977   3.414
  790TIP3   OH2 2326   7.456   7.807   4.326
  790TIP3    H1 2327   7.458   7.821   4.231
  790TIP3    H2 2328   7.504   7.726   4.339
  791TIP3   OH2 2329   7.563   4.986   5.857
  791TIP3    H1 2330   7.478   5.007   5.819
  791TIP3    H2 2331   7.593   5.068   5.895
  792TIP3   OH2 2332   7.880   7.534   2.729
  792TIP3    H1 2333   7.839   7.558   2.646
  792TIP3    H2 2334   7.919   7.616   2.761
  793TIP3   OH2 2335   3.834   1.339   2.165
  793TIP3    H1 2336   3.747   1.372   2.186
  793TIP3    H2 2337   3.890   1.373   2.234
  794TIP3   OH2 2338   6.852   1.808   4.496
  794TIP3    H1 2339   6.821   1.718   4.484
  794TIP3    H2 2340   6.789   1.862   4.450
  795TIP3   OH2 2341   8.184   4.632   0.045
  795TIP3    H1 2342   8.154   4.700   0.106
  795TIP3    H2 2343   8.183   4.675  -0.040
  796TIP3   OH2 2344   5.156   6.151   0.332
  796TIP3    H1 2345   5.207   6.196   0.399
  796TIP3    H2 2346   5.067   6.185   0.342
  797TIP3   OH2 2347   5.062   6.807   5.193
  797TIP3    H1 2348   4.970   6.822   5.172
  797TIP3    H2 2349   5.083   6.875   5.258
  798TIP3   OH2 2350   5.559   0.775   4.909
  798TIP3    H1 2351   5.603   0.733   4.983
  798TIP3    H2 2352   5.472   0.736   4.907
  799TIP3   OH2 2353   5.949   5.598   0.515
  799TIP3    H1 2354   5.861   5.626   0.493
  799TIP3    H2 2355   5.937   5.513   0.557
  800TIP3   OH2 2356   3.226   7.027   1.045
  800TIP3    H1 2357   3.286   6.960   1.011
  800TIP3    H2 2358   3.281   7.084   1.099
  801TIP3   OH2 2359   6.601   3.932   4.769
  801TIP3    H1 2360   6.531   3.970   4.716
  801TIP3    H2 2361   6.601   3.985   4.849
  802TIP3   OH2 2362   6.910   5.895   6.392
  802TIP3    H1 2363   6.989   5.899   6.446
  802TIP3    H2 2364   6.839   5.879   6.455
  803TIP3   OH2 2365   2.088   1.912   6.229
  803TIP3    H1 2366   2.006   1.920   6.181
  803TIP3    H2 2367   2.088   1.985   6.291
  804TIP3   OH2 2368   0.806   2.277   6.029
  804TIP3    H1 2369   0.713   2.256   6.024
  804TIP3    H2 2370   0.823   2.291   6.122
  805TIP3   OH2 2371   3.728   7.460   3.231
  805TIP3    H1 2372   3.807   7.407   3.224
  805TIP3    H2 2373   3.718   7.476   3.325
  806TIP3   OH2 2374   3.916   2.068   0.880
  806TIP3    H1 2375   3.854   2.001   0.905
  806TIP3    H2 2376   3.991   2.054   0.937
  807TIP3   OH2 2377   0.726   3.004   6.250
  807TIP3    H1 2378   0.764   2.965   6.328
  807TIP3    H2 2379   0.801   3.023   6.193
  808TIP3   OH2 2380   6.542   4.011   5.037
  808TIP3    H1 2381   6.562   4.101   5.013
  808TIP3    H2 2382   6.447   4.010   5.051
  809TIP3   OH2 2383   1.031   6.234   3.742
  809TIP3    H1 2384   0.994   6.321   3.754
  809TIP3    H2 2385   1.124   6.244   3.766
  810TIP3   OH2 2386   7.866   7.457   0.407
  810TIP3    H1 2387   7.785   7.464   0.458
  810TIP3    H2 2388   7.936   7.473   0.470
  811TIP3   OH2 2389   5.816  -0.006   1.135
  811TIP3    H1 2390   5.869   0.071   1.156
  811TIP3    H2 2391   5.726   0.022   1.148
  812TIP3   OH2 2392   3.051   1.276   4.196
  812TIP3    H1 2393   2.977   1.246   4.249
  812TIP3    H2 2394   3.042   1.371   4.195
  813TIP3   OH2 2395   7.542   0.286   0.520
  813TIP3    H1 2396   7.464   0.283   0.575
  813TIP3    H2 2397   7.605   0.336   0.571
  814TIP3   OH2 2398   4.824   3.390   0.439
  814TIP3    H1 2399   4.795   3.437   0.517
  814TIP3    H2 2400   4.789   3.301   0.449
  815TIP3   OH2 2401   2.980   0.543   1.567
  815TIP3    H1 2402   2.967   0.462   1.518
  815TIP3    H2 2403   3.069   0.536   1.601
  816TIP3   OH2 2404   3.954   6.716   4.844
  816TIP3    H1 2405   4.030   6.663   4.868
  816TIP3    H2 2406   3.900   6.658   4.791
  817TIP3   OH2 2407   4.836   6.202   6.317
  817TIP3    H1 2408   4.897   6.139   6.279
  817TIP3    H2 2409   4.854   6.201   6.411
  818TIP3   OH2 2410   4.653   5.096   2.489
  818TIP3    H1 2411   4.614   5.094   2.577
  818TIP3    H2 2412   4.733   5.044   2.497
  819TIP3   OH2 2413   3.683   6.329   3.395
  819TIP3    H1 2414   3.729   6.340   3.312
  819TIP3    H2 2415   3.751   6.297   3.455
  820TIP3   OH2 2416   6.236   7.164   0.218
  820TIP3    H1 2417   6.314   7.143   0.270
  820TIP3    H2 2418   6.164   7.121   0.264
  821TIP3   OH2 2419   5.229   4.750   4.269
  821TIP3    H1 2420   5.260   4.801   4.344
  821TIP3    H2 2421   5.144   4.787   4.247
  822TIP3   OH2 2422   1.236   1.889   6.230
  822TIP3    H1 2423   1.203   1.814   6.280
  822TIP3    H2 2424   1.267   1.850   6.148
  823TIP3   OH2 2425   7.352   1.427   3.726
  823TIP3    H1 2426   7.379   1.421   3.634
  823TIP3    H2 2427   7.301   1.348   3.741
  824TIP3   OH2 2428   3.086   3.997   0.531
  824TIP3    H1 2429   3.002   4.030   0.561
  824TIP3    H2 2430   3.120   3.945   0.604
  825TIP3   OH2 2431   1.777   3.743   4.119
  825TIP3    H1 2432   1.806   3.678   4.183
  825TIP3    H2 2433   1.858   3.772   4.077
  826TIP3   OH2 2434   1.267   5.255   2.997
  826TIP3    H1 2435   1.299   5.184   3.052
  826TIP3    H2 2436   1.343   5.312   2.985
  827TIP3   OH2 2437   2.674   0.109   2.412
  827TIP3    H1 2438   2.758   0.065   2.400
  827TIP3    H2 2439   2.696   0.202   2.416
  828TIP3   OH2 2440   3.943   3.456   5.934
  828TIP3    H1 2441   4.016   3.398   5.913
  828TIP3    H2 2442   3.900   3.472   5.850
  829TIP3   OH2 2443   2.337   2.135   5.576
  829TIP3    H1 2444   2.393   2.058   5.584
  829TIP3    H2 2445   2.300   2.129   5.488
  830TIP3   OH2 2446   7.224   2.404   5.375
  830TIP3    H1 2447   7.135   2.383   5.403
  830TIP3    H2 2448   7.269   2.428   5.455
  831TIP3   OH2 2449   6.806   7.483   1.589
  831TIP3    H1 2450   6.802   7.419   1.661
  831TIP3    H2 2451   6.798   7.568   1.632
  832TIP3   OH2 2452   7.701   3.083   2.044
  832TIP3    H1 2453   7.782   3.062   1.997
  832TIP3    H2 2454   7.661   3.153   1.992
  833TIP3   OH2 2455   3.320   5.364   5.235
  833TIP3    H1 2456   3.413   5.389   5.239
  833TIP3    H2 2457   3.272   5.446   5.241
  834TIP3   OH2 2458   4.188   5.282   5.198
  834TIP3    H1 2459   4.275   5.319   5.179
  834TIP3    H2 2460   4.205   5.207   5.255
  835TIP3   OH2 2461   3.057   5.126   0.543
  835TIP3    H1 2462   3.109   5.147   0.620
  835TIP3    H2 2463   3.085   5.038   0.519
  836TIP3   OH2 2464   7.320   1.696   3.602
  836TIP3    H1 2465   7.331   1.627   3.668
  836TIP3    H2 2466   7.241   1.669   3.554
  837TIP3   OH2 2467   7.153   5.327   6.013
  837TIP3    H1 2468   7.081   5.341   5.953
  837TIP3    H2 2469   7.121   5.259   6.073
  838TIP3   OH2 2470   8.259   5.884   3.657
  838TIP3    H1 2471   8.312   5.837   3.721
  838TIP3    H2 2472   8.195   5.820   3.627
  839TIP3   OH2 2473   5.610   1.084   6.778
  839TIP3    H1 2474   5.524   1.117   6.802
  839TIP3    H2 2475   5.634   1.136   6.701
  840TIP3   OH2 2476   5.394   1.572   3.337
  840TIP3    H1 2477   5.428   1.522   3.263
  840TIP3    H2 2478   5.385   1.507   3.408
  841TIP3   OH2 2479   5.637   4.831   2.463
  841TIP3    H1 2480   5.703   4.799   2.523
  841TIP3    H2 2481   5.610   4.916   2.499
  842TIP3   OH2 2482   1.846   5.214   2.031
  842TIP3    H1 2483   1.826   5.190   1.940
  842TIP3    H2 2484   1.929   5.170   2.049
  843TIP3   OH2 2485   3.597   4.945   4.854
  843TIP3    H1 2486   3.551   5.021   4.817
  843TIP3    H2 2487   3.688   4.957   4.827
  844TIP3   OH2 2488   7.922   1.203   3.980
  844TIP3    H1 2489   7.842   1.150   3.969
  844TIP3    H2 2490   7.927   1.218   4.074
  845TIP3   OH2 2491   0.562   2.260   0.311
  845TIP3    H1 2492   0.486   2.297   0.267
  845TIP3    H2 2493   0.587   2.185   0.257
  846TIP3   OH2 2494   0.552   2.265   5.198
  846TIP3    H1 2495   0.497   2.342   5.211
  846TIP3    H2 2496   0.634   2.286   5.244
  847TIP3   OH2 2497   2.071   7.744   5.478
  847TIP3    H1 2498   2.045   7.775   5.565
  847TIP3    H2 2499   2.126   7.814   5.443
  848TIP3   OH2 2500   2.211   7.261   5.342
  848TIP3    H1 2501   2.248   7.176   5.366
  848TIP3    H2 2502   2.287   7.313   5.315
  849TIP3   OH2 2503   4.664   7.088   2.166
  849TIP3    H1 2504   4.580   7.125   2.142
  849TIP3    H2 2505   4.652   6.993   2.158
  850TIP3   OH2 2506   4.258   6.106   6.748
  850TIP3    H1 2507   4.308   6.181   6.715
  850TIP3    H2 2508   4.249   6.122   6.841
  851TIP3   OH2 2509   3.606   5.112   3.785
  851TIP3    H1 2510   3.660   5.034   3.798
  851TIP3    H2 2511   3.516   5.079   3.783
  852TIP3   OH2 2512   4.203   7.769   0.263
  852TIP3    H1 2513   4.134   7.747   0.201
  852TIP3    H2 2514   4.275   7.709   0.242
  853TIP3   OH2 2515   7.227   4.539   3.463
  853TIP3    H1 2516   7.213   4.582   3.378
  853TIP3    H2 2517   7.149   4.486   3.476
  854TIP3   OH2 2518   2.955   6.519   3.034
  854TIP3    H1 2519   2.929   6.601   2.993
  854TIP3    H2 2520   2.895   6.454   2.997
  855TIP3   OH2 2521   0.518   3.993   3.064
  855TIP3    H1 2522   0.428   4.000   3.096
  855TIP3    H2 2523   0.571   4.035   3.133
  856TIP3   OH2 2524   4.223   7.111   4.099
  856TIP3    H1 2525   4.146   7.107   4.156
  856TIP3    H2 2526   4.287   7.053   4.141
  857TIP3   OH2 2527   1.562   5.321   0.490
  857TIP3    H1 2528   1.499   5.248   0.492
  857TIP3    H2 2529   1.533   5.379   0.560
  858TIP3   OH2 2530   3.853   7.437   4.212
  858TIP3    H1 2531   3.860   7.386   4.131
  858TIP3    H2 2532   3.761   7.464   4.216
  859TIP3   OH2 2533   4.984   6.284   6.588
  859TIP3    H1 2534   5.039   6.357   6.563
  859TIP3    H2 2535   4.943   6.311   6.670
  860TIP3   OH2 2536   2.813   0.737   0.370
  860TIP3    H1 2537   2.793   0.665   0.311
  860TIP3    H2 2538   2.826   0.696   0.455
  861TIP3   OH2 2539   0.600   4.538   4.291
  861TIP3    H1 2540   0.667   4.606   4.294
  861TIP3    H2 2541   0.576   4.531   4.199
  862TIP3   OH2 2542   1.117   1.048   5.324
  862TIP3    H1 2543   1.181   1.020   5.258
  862TIP3    H2 2544   1.159   1.033   5.408
  863TIP3   OH2 2545   6.713   4.135   4.140
  863TIP3    H1 2546   6.788   4.178   4.181
  863TIP3    H2 2547   6.742   4.120   4.049
  864TIP3   OH2 2548   4.415   1.753   6.422
  864TIP3    H1 2549   4.360   1.763   6.500
  864TIP3    H2 2550   4.447   1.663   6.427
  865TIP3   OH2 2551   2.695   7.802   4.781
  865TIP3    H1 2552   2.626   7.738   4.762
  865TIP3    H2 2553   2.725   7.779   4.869
  866TIP3   OH2 2554   3.138   6.710   4.106
  866TIP3    H1 2555   3.186   6.766   4.046
  866TIP3    H2 2556   3.058   6.687   4.058
  867TIP3   OH2 2557   5.412   6.436   3.919
  867TIP3    H1 2558   5.480   6.501   3.938
  867TIP3    H2 2559   5.388   6.452   3.828
  868TIP3   OH2 2560   6.389   1.777   2.354
  868TIP3    H1 2561   6.433   1.693   2.367
  868TIP3    H2 2562   6.457   1.843   2.370
  869TIP3   OH2 2563   3.618   6.037   2.104
  869TIP3    H1 2564   3.595   6.048   2.197
  869TIP3    H2 2565   3.557   6.094   2.058
  870TIP3   OH2 2566   3.447   1.797   1.980
  870TIP3    H1 2567   3.499   1.846   1.916
  870TIP3    H2 2568   3.511   1.743   2.027
  871TIP3   OH2 2569   6.361   5.407   3.817
  871TIP3    H1 2570   6.442   5.362   3.795
  871TIP3    H2 2571   6.375   5.498   3.788
  872TIP3   OH2 2572   6.708   4.167   0.592
  872TIP3    H1 2573   6.696   4.138   0.683
  872TIP3    H2 2574   6.693   4.088   0.540
  873TIP3   OH2 2575   1.197   5.137   6.491
  873TIP3    H1 2576   1.273   5.193   6.477
  873TIP3    H2 2577   1.123   5.188   6.459
  874TIP3   OH2 2578   3.628   1.806   5.907
  874TIP3    H1 2579   3.692   1.865   5.947
  874TIP3    H2 2580   3.544   1.850   5.918
  875TIP3   OH2 2581   4.734   3.834   3.924
  875TIP3    H1 2582   4.668   3.770   3.949
  875TIP3    H2 2583   4.817   3.792   3.947
  876TIP3   OH2 2584   4.792   1.322   2.287
  876TIP3    H1 2585   4.711   1.366   2.313
  876TIP3    H2 2586   4.771   1.229   2.292
  877TIP3   OH2 2587   1.872   2.824   6.582
  877TIP3    H1 2588   1.895   2.775   6.661
  877TIP3    H2 2589   1.827   2.902   6.614
  878TIP3   OH2 2590   3.655   6.058   3.088
  878TIP3    H1 2591   3.684   6.149   3.098
  878TIP3    H2 2592   3.699   6.028   3.008
  879TIP3   OH2 2593   6.742   6.322   5.756
  879TIP3    H1 2594   6.799   6.351   5.827
  879TIP3    H2 2595   6.738   6.397   5.696
  880TIP3   OH2 2596   3.897   5.222   4.164
  880TIP3    H1 2597   3.868   5.164   4.093
  880TIP3    H2 2598   3.821   5.276   4.184
  881TIP3   OH2 2599   3.105   3.514   3.020
  881TIP3    H1 2600   3.183   3.540   3.069
  881TIP3    H2 2601   3.073   3.436   3.065
  882TIP3   OH2 2602   6.696   6.459   4.519
  882TIP3    H1 2603   6.660   6.435   4.605
  882TIP3    H2 2604   6.785   6.487   4.538
  883TIP3   OH2 2605   0.571   6.595   2.743
  883TIP3    H1 2606   0.527   6.597   2.828
  883TIP3    H2 2607   0.627   6.518   2.747
  884TIP3   OH2 2608   6.742   6.857   4.661
  884TIP3    H1 2609   6.689   6.935   4.645
  884TIP3    H2 2610   6.684   6.798   4.710
  885TIP3   OH2 2611   6.502   4.810   4.858
  885TIP3    H1 2612   6.422   4.825   4.807
  885TIP3    H2 2613   6.536   4.727   4.825
  886TIP3   OH2 2614   5.434   5.384   4.300
  886TIP3    H1 2615   5.524   5.410   4.281
  886TIP3    H2 2616   5.411   5.324   4.229
  887TIP3   OH2 2617   6.027   7.797   2.652
  887TIP3    H1 2618   5.987   7.724   2.699
  887TIP3    H2 2619   5.953   7.854   2.629
  888TIP3   OH2 2620   6.174   4.599   3.111
  888TIP3    H1 2621   6.079   4.612   3.108
  888TIP3    H2 2622   6.208   4.657   3.042
  889TIP3   OH2 2623   6.096   3.951   3.599
  889TIP3    H1 2624   6.031   4.006   3.557
  889TIP3    H2 2625   6.083   3.864   3.561
  890TIP3   OH2 2626   4.747   4.894   5.219
  890TIP3    H1 2627   4.664   4.855   5.190
  890TIP3    H2 2628   4.804   4.819   5.236
  891TIP3   OH2 2629   1.865   3.798   1.850
  891TIP3    H1 2630   1.852   3.856   1.775
  891TIP3    H2 2631   1.838   3.712   1.819
  892TIP3   OH2 2632   3.971   7.011   2.162
  892TIP3    H1 2633   3.929   6.943   2.110
  892TIP3    H2 2634   3.951   7.093   2.118
  893TIP3   OH2 2635   5.340   6.112   1.484
  893TIP3    H1 2636   5.347   6.207   1.497
  893TIP3    H2 2637   5.401   6.074   1.548
  894TIP3   OH2 2638   6.686   6.688   3.619
  894TIP3    H1 2639   6.646   6.772   3.594
  894TIP3    H2 2640   6.760   6.678   3.559
  895TIP3   OH2 2641   4.897   3.595   4.376
  895TIP3    H1 2642   4.950   3.611   4.298
  895TIP3    H2 2643   4.943   3.643   4.446
  896TIP3   OH2 2644   4.388   0.067   3.447
  896TIP3    H1 2645   4.313   0.016   3.417
  896TIP3    H2 2646   4.432   0.010   3.511
  897TIP3   OH2 2647   5.082   2.663   4.722
  897TIP3    H1 2648   5.037   2.618   4.651
  897TIP3    H2 2649   5.148   2.601   4.752
  898TIP3   OH2 2650   5.357   7.339   4.592
  898TIP3    H1 2651   5.311   7.267   4.636
  898TIP3    H2 2652   5.450   7.317   4.601
  899TIP3   OH2 2653   1.710   2.095   5.102
  899TIP3    H1 2654   1.745   2.183   5.083
  899TIP3    H2 2655   1.770   2.035   5.058
  900TIP3   OH2 2656   0.180   0.937   3.104
  900TIP3    H1 2657   0.128   0.879   3.161
  900TIP3    H2 2658   0.222   0.997   3.165
  901TIP3   OH2 2659   7.727   7.328   1.091
  901TIP3    H1 2660   7.664   7.400   1.085
  901TIP3    H2 2661   7.686   7.257   1.043
  902TIP3   OH2 2662   1.673   2.564   6.539
  902TIP3    H1 2663   1.761   2.540   6.568
  902TIP3    H2 2664   1.663   2.656   6.564
  903TIP3   OH2 2665   3.692   2.646   1.794
  903TIP3    H1 2666   3.723   2.600   1.872
  903TIP3    H2 2667   3.723   2.593   1.721
  904TIP3   OH2 2668   1.247   0.911   5.517
  904TIP3    H1 2669   1.157   0.880   5.526
  904TIP3    H2 2670   1.289   0.890   5.601
  905TIP3   OH2 2671   2.967   1.092   4.995
  905TIP3    H1 2672   2.935   1.182   5.007
  905TIP3    H2 2673   3.036   1.100   4.929
  906TIP3   OH2 2674   5.813   0.370   4.928
  906TIP3    H1 2675   5.898   0.341   4.961
  906TIP3    H2 2676   5.760   0.290   4.923
  907TIP3   OH2 2677   1.224   0.455   4.252
  907TIP3    H1 2678   1.313   0.420   4.239
  907TIP3    H2 2679   1.167   0.390   4.213
  908TIP3   OH2 2680   6.610   1.548   6.136
  908TIP3    H1 2681   6.543   1.538   6.068
  908TIP3    H2 2682   6.615   1.463   6.178
  909TIP3   OH2 2683   7.439   4.050   4.820
  909TIP3    H1 2684   7.388   3.994   4.879
  909TIP3    H2 2685   7.464   4.125   4.874
  910TIP3   OH2 2686   2.415   3.900   4.050
  910TIP3    H1 2687   2.431   3.932   3.961
  910TIP3    H2 2688   2.487   3.934   4.102
  911TIP3   OH2 2689   2.153   4.236   6.214
  911TIP3    H1 2690   2.230   4.271   6.170
  911TIP3    H2 2691   2.080   4.259   6.155
  912TIP3   OH2 2692   8.144   0.981   4.488
  912TIP3    H1 2693   8.203   0.950   4.419
  912TIP3    H2 2694   8.117   0.902   4.534
  913TIP3   OH2 2695   5.418   0.236   3.813
  913TIP3    H1 2696   5.513   0.232   3.820
  913TIP3    H2 2697   5.389   0.145   3.819
  914TIP3   OH2 2698   4.788   5.242   1.107
  914TIP3    H1 2699   4.701   5.203   1.115
  914TIP3    H2 2700   4.826   5.201   1.029
  915TIP3   OH2 2701   7.603   6.492   5.778
  915TIP3    H1 2702   7.646   6.479   5.694
  915TIP3    H2 2703   7.532   6.428   5.779
  916TIP3   OH2 2704   2.355   3.672   4.734
  916TIP3    H1 2705   2.278   3.711   4.776
  916TIP3    H2 2706   2.416   3.656   4.806
  917TIP3   OH2 2707   6.227   1.820   2.133
  917TIP3    H1 2708   6.267   1.818   2.220
  917TIP3    H2 2709   6.151   1.762   2.141
  918TIP3   OH2 2710   5.934   6.019   2.386
  918TIP3    H1 2711   6.010   6.057   2.341
  918TIP3    H2 2712   5.874   5.995   2.315
  919TIP3   OH2 2713   7.246   6.149   6.660
  919TIP3    H1 2714   7.328   6.170   6.615
  919TIP3    H2 2715   7.266   6.157   6.753
  920TIP3   OH2 2716   2.279   2.546   3.812
  920TIP3    H1 2717   2.254   2.637   3.829
  920TIP3    H2 2718   2.275   2.537   3.717
  921TIP3   OH2 2719   5.549   3.488   6.440
  921TIP3    H1 2720   5.458   3.464   6.423
  921TIP3    H2 2721   5.561   3.570   6.393
  922TIP3   OH2 2722   2.996   6.168   3.282
  922TIP3    H1 2723   2.927   6.217   3.328
  922TIP3    H2 2724   2.955   6.137   3.202
  923TIP3   OH2 2725   5.266   4.069   2.491
  923TIP3    H1 2726   5.202   4.010   2.530
  923TIP3    H2 2727   5.351   4.028   2.509
  924TIP3   OH2 2728   7.994   3.841   3.817
  924TIP3    H1 2729   8.057   3.861   3.886
  924TIP3    H2 2730   8.043   3.855   3.736
  925TIP3   OH2 2731   5.525   6.030   0.645
  925TIP3    H1 2732   5.527   6.119   0.681
  925TIP3    H2 2733   5.444   5.992   0.679
  926TIP3   OH2 2734   7.231   0.385   5.296
  926TIP3    H1 2735   7.305   0.436   5.263
  926TIP3    H2 2736   7.207   0.328   5.222
  927TIP3   OH2 2737   2.681   6.916   4.791
  927TIP3    H1 2738   2.610   6.852   4.790
  927TIP3    H2 2739   2.755   6.870   4.829
  928TIP3   OH2 2740   3.534   1.841   6.250
  928TIP3    H1 2741   3.494   1.843   6.163
  928TIP3    H2 2742   3.626   1.864   6.235
  929TIP3   OH2 2743   0.682   6.812   4.499
  929TIP3    H1 2744   0.678   6.765   4.416
  929TIP3    H2 2745   0.751   6.877   4.487
  930TIP3   OH2 2746   6.079   3.510   4.660
  930TIP3    H1 2747   6.155   3.561   4.632
  930TIP3    H2 2748   6.078   3.519   4.755
  931TIP3   OH2 2749   7.359   6.078   3.904
  931TIP3    H1 2750   7.347   6.026   3.983
  931TIP3    H2 2751   7.427   6.031   3.854
  932TIP3   OH2 2752   4.452   0.178   5.666
  932TIP3    H1 2753   4.365   0.197   5.701
  932TIP3    H2 2754   4.490   0.116   5.729
  933TIP3   OH2 2755   1.978   2.432   5.204
  933TIP3    H1 2756   1.975   2.366   5.134
  933TIP3    H2 2757   2.071   2.439   5.225
  934TIP3   OH2 2758   1.706   4.741   0.185
  934TIP3    H1 2759   1.626   4.735   0.133
  934TIP3    H2 2760   1.777   4.727   0.122
  935TIP3   OH2 2761   4.507   2.488   0.625
  935TIP3    H1 2762   4.554   2.529   0.697
  935TIP3    H2 2763   4.416   2.485   0.654
  936TIP3   OH2 2764   3.541   0.921   4.348
  936TIP3    H1 2765   3.490   0.920   4.266
  936TIP3    H2 2766   3.589   0.839   4.348
  937TIP3   OH2 2767   1.509   7.235   6.436
  937TIP3    H1 2768   1.517   7.141   6.452
  937TIP3    H2 2769   1.445   7.242   6.365
  938TIP3   OH2 2770   3.055   5.125   5.623
  938TIP3    H1 2771   3.093   5.212   5.617
  938TIP3    H2 2772   3.104   5.073   5.559
  939TIP3   OH2 2773   5.817   7.188   2.405
  939TIP3    H1 2774   5.782   7.237   2.330
  939TIP3    H2 2775   5.770   7.223   2.480
  940TIP3   OH2 2776   4.293   1.479   2.590
  940TIP3    H1 2777   4.254   1.551   2.540
  940TIP3    H2 2778   4.239   1.473   2.669
  941TIP3   OH2 2779   5.352   6.416   0.173
  941TIP3    H1 2780   5.422   6.451   0.228
  941TIP3    H2 2781   5.364   6.321   0.175
  942TIP3   OH2 2782   2.865   4.322   2.522
  942TIP3    H1 2783   2.923   4.292   2.592
  942TIP3    H2 2784   2.925   4.359   2.456
  943TIP3   OH2 2785   2.172   4.060   6.441
  943TIP3    H1 2786   2.137   4.144   6.412
  943TIP3    H2 2787   2.159   4.001   6.366
  944TIP3   OH2 2788   4.821   7.567   1.203
  944TIP3    H1 2789   4.852   7.491   1.253
  944TIP3    H2 2790   4.841   7.545   1.112
  945TIP3   OH2 2791   6.576   5.181   5.378
  945TIP3    H1 2792   6.623   5.252   5.334
  945TIP3    H2 2793   6.578   5.205   5.471
  946TIP3   OH2 2794   3.261   6.556   4.780
  946TIP3    H1 2795   3.200   6.597   4.719
  946TIP3    H2 2796   3.216   6.558   4.865
  947TIP3   OH2 2797   2.571   2.704   1.851
  947TIP3    H1 2798   2.635   2.638   1.879
  947TIP3    H2 2799   2.563   2.690   1.757
  948TIP3   OH2 2800   6.721   2.250   5.461
  948TIP3    H1 2801   6.668   2.328   5.442
  948TIP3    H2 2802   6.690   2.185   5.399
  949TIP3   OH2 2803   5.999   1.304   2.004
  949TIP3    H1 2804   5.994   1.396   1.979
  949TIP3    H2 2805   6.003   1.305   2.100
  950TIP3   OH2 2806   8.170   4.182   3.749
  950TIP3    H1 2807   8.078   4.164   3.729
  950TIP3    H2 2808   8.183   4.147   3.837
  951TIP3   OH2 2809   0.523   7.420   0.119
  951TIP3    H1 2810   0.540   7.430   0.212
  951TIP3    H2 2811   0.449   7.360   0.114
  952TIP3   OH2 2812   1.982   1.426   5.881
  952TIP3    H1 2813   2.034   1.346   5.879
  952TIP3    H2 2814   1.933   1.425   5.799
  953TIP3   OH2 2815   2.810   5.996   6.085
  953TIP3    H1 2816   2.778   5.931   6.022
  953TIP3    H2 2817   2.905   5.991   6.078
  954TIP3   OH2 2818   2.973   4.624   6.484
  954TIP3    H1 2819   3.046   4.638   6.423
  954TIP3    H2 2820   2.951   4.711   6.516
  955TIP3   OH2 2821   3.842   1.500   3.510
  955TIP3    H1 2822   3.855   1.483   3.604
  955TIP3    H2 2823   3.826   1.594   3.504
  956TIP3   OH2 2824   4.265   0.634   0.556
  956TIP3    H1 2825   4.182   0.613   0.514
  956TIP3    H2 2826   4.292   0.552   0.597
  957TIP3   OH2 2827   8.040   3.227   2.286
  957TIP3    H1 2828   8.132   3.213   2.265
  957TIP3    H2 2829   8.006   3.279   2.213
  958TIP3   OH2 2830   7.723   4.872   5.668
  958TIP3    H1 2831   7.660   4.919   5.612
  958TIP3    H2 2832   7.686   4.879   5.756
  959TIP3   OH2 2833   1.255   7.813   6.278
  959TIP3    H1 2834   1.283   7.849   6.362
  959TIP3    H2 2835   1.274   7.719   6.285
  960TIP3   OH2 2836   3.721   1.886   0.886
  960TIP3    H1 2837   3.690   1.905   0.975
  960TIP3    H2 2838   3.645   1.847   0.842
  961TIP3   OH2 2839   1.051   6.938   6.360
  961TIP3    H1 2840   1.089   6.906   6.279
  961TIP3    H2 2841   0.957   6.926   6.349
  962TIP3   OH2 2842   1.690   2.302   6.047
  962TIP3    H1 2843   1.684   2.212   6.014
  962TIP3    H2 2844   1.625   2.350   5.997
  963TIP3   OH2 2845   4.161   5.830   4.176
  963TIP3    H1 2846   4.129   5.816   4.265
  963TIP3    H2 2847   4.121   5.913   4.150
  964TIP3   OH2 2848   6.690   4.474   1.532
  964TIP3    H1 2849   6.766   4.513   1.488
  964TIP3    H2 2850   6.641   4.430   1.463
  965TIP3   OH2 2851   1.329   3.324   5.362
  965TIP3    H1 2852   1.313   3.406   5.409
  965TIP3    H2 2853   1.423   3.323   5.346
  966TIP3   OH2 2854   6.024   3.493   3.128
  966TIP3    H1 2855   6.114   3.460   3.127
  966TIP3    H2 2856   5.981   3.443   3.197
  967TIP3   OH2 2857   0.076   4.180   4.878
  967TIP3    H1 2858   0.155   4.229   4.858
  967TIP3    H2 2859   0.099   4.088   4.863
  968TIP3   OH2 2860   7.715   3.308   6.406
  968TIP3    H1 2861   7.701   3.347   6.320
  968TIP3    H2 2862   7.696   3.215   6.394
  969TIP3   OH2 2863   5.055   4.538   6.725
  969TIP3    H1 2864   5.022   4.459   6.769
  969TIP3    H2 2865   5.121   4.506   6.664
  970TIP3   OH2 2866   2.359   2.633   1.249
  970TIP3    H1 2867   2.353   2.682   1.331
  970TIP3    H2 2868   2.419   2.561   1.268
  971TIP3   OH2 2869   7.971   7.136   3.342
  971TIP3    H1 2870   7.945   7.055   3.386
  971TIP3    H2 2871   7.905   7.147   3.273
  972TIP3   OH2 2872   0.837   3.225   5.910
  972TIP3    H1 2873   0.895   3.247   5.837
  972TIP3    H2 2874   0.797   3.309   5.934
  973TIP3   OH2 2875   7.459   3.689   2.433
  973TIP3    H1 2876   7.418   3.769   2.467
  973TIP3    H2 2877   7.432   3.620   2.493
  974TIP3   OH2 2878   6.223   5.294   0.823
  974TIP3    H1 2879   6.289   5.314   0.890
  974TIP3    H2 2880   6.258   5.217   0.778
  975TIP3   OH2 2881   5.993   1.760   1.393
  975TIP3    H1 2882   6.043   1.839   1.371
  975TIP3    H2 2883   5.951   1.734   1.312
  976TIP3   OH2 2884   2.121   2.901   1.283
  976TIP3    H1 2885   2.193   2.948   1.325
  976TIP3    H2 2886   2.124   2.927   1.191
  977TIP3   OH2 2887   2.491   5.166   2.564
  977TIP3    H1 2888   2.407   5.172   2.610
  977TIP3    H2 2889   2.508   5.255   2.533
  978TIP3   OH2 2890   2.276   7.259   2.678
  978TIP3    H1 2891   2.332   7.206   2.621
  978TIP3    H2 2892   2.222   7.196   2.725
  979TIP3   OH2 2893   6.837   0.867   4.829
  979TIP3    H1 2894   6.908   0.816   4.869
  979TIP3    H2 2895   6.862   0.875   4.737
  980TIP3   OH2 2896   6.048   0.840   3.945
  980TIP3    H1 2897   6.048   0.751   3.909
  980TIP3    H2 2898   5.956   0.866   3.947
  981TIP3   OH2 2899   5.647   2.528   5.581
  981TIP3    H1 2900   5.570   2.540   5.637
  981TIP3    H2 2901   5.681   2.616   5.567
  982TIP3   OH2 2902   4.746   0.128   1.893
  982TIP3    H1 2903   4.746   0.144   1.799
  982TIP3    H2 2904   4.821   0.177   1.926
  983TIP3   OH2 2905   2.519   0.924   0.124
  983TIP3    H1 2906   2.536   0.859   0.057
  983TIP3    H2 2907   2.461   0.988   0.082
  984TIP3   OH2 2908   4.432   5.089   5.926
  984TIP3    H1 2909   4.513   5.113   5.881
  984TIP3    H2 2910   4.429   5.147   6.002
  985TIP3   OH2 2911   5.024   5.809   0.171
  985TIP3    H1 2912   4.956   5.842   0.230
  985TIP3    H2 2913   5.083   5.760   0.227
  986TIP3   OH2 2914   1.888   5.372   6.718
  986TIP3    H1 2915   1.909   5.466   6.721
  986TIP3    H2 2916   1.971   5.329   6.735
  987TIP3   OH2 2917   6.707   3.348   6.406
  987TIP3    H1 2918   6.712   3.305   6.492
  987TIP3    H2 2919   6.621   3.324   6.372
  988TIP3   OH2 2920   8.214   2.438   2.285
  988TIP3    H1 2921   8.174   2.509   2.235
  988TIP3    H2 2922   8.143   2.375   2.296
  989TIP3   OH2 2923   2.258   4.842   2.262
  989TIP3    H1 2924   2.185   4.821   2.204
  989TIP3    H2 2925   2.237   4.798   2.344
  990TIP3   OH2 2926   8.175   5.860   3.989
  990TIP3    H1 2927   8.205   5.949   3.971
  990TIP3    H2 2928   8.223   5.806   3.927
  991TIP3   OH2 2929   5.911   6.833   0.163
  991TIP3    H1 2930   5.970   6.771   0.119
  991TIP3    H2 2931   5.846   6.777   0.206
  992TIP3   OH2 2932   8.098   4.529   5.848
  992TIP3    H1 2933   8.137   4.516   5.762
  992TIP3    H2 2934   8.017   4.576   5.831
  993TIP3   OH2 2935   3.117   2.105   5.449
  993TIP3    H1 2936   3.165   2.034   5.406
  993TIP3    H2 2937   3.139   2.096   5.542
  994TIP3   OH2 2938   3.670   3.620   4.608
  994TIP3    H1 2939   3.576   3.615   4.589
  994TIP3    H2 2940   3.701   3.692   4.552
  995TIP3   OH2 2941   4.220   6.204   1.426
  995TIP3    H1 2942   4.162   6.192   1.501
  995TIP3    H2 2943   4.166   6.249   1.361
  996TIP3   OH2 2944   2.951   2.850   5.643
  996TIP3    H1 2945   2.907   2.766   5.635
  996TIP3    H2 2946   2.923   2.885   5.727
  997TIP3   OH2 2947   0.001   7.782   3.512
  997TIP3    H1 2948   0.088   7.809   3.483
  997TIP3    H2 2949  -0.056   7.797   3.437
  998TIP3   OH2 2950   6.117   6.131   4.509
  998TIP3    H1 2951   6.106   6.069   4.437
  998TIP3    H2 2952   6.045   6.112   4.568
  999TIP3   OH2 2953   6.023   1.593   1.852
  999TIP3    H1 2954   6.085   1.666   1.844
  999TIP3    H2 2955   6.012   1.560   1.763
 1000TIP3   OH2 2956   2.031   4.536   1.300
 1000TIP3    H1 2957   1.964   4.468   1.310
 1000TIP3    H2 2958   2.003   4.605   1.360
 1001TIP3   OH2 2959   5.694   6.591   0.647
 1001TIP3    H1 2960   5.711   6.501   0.676
 1001TIP3    H2 2961   5.767   6.642   0.681
 1002TIP3   OH2 2962   5.953   5.662   3.983
 1002TIP3    H1 2963   5.909   5.746   3.971
 1002TIP3    H2 2964   5.977   5.660   4.076
 1003TIP3   OH2 2965   1.323   0.546   6.403
 1003TIP3    H1 2966   1.272   0.609   6.352
 1003TIP3    H2 2967   1.408   0.543   6.358
 1004TIP3   OH2 2968   0.237   0.241   0.428
 1004TIP3    H1 2969   0.280   0.223   0.511
 1004TIP3    H2 2970   0.206   0.331   0.435
 1005TIP3   OH2 2971   4.727   1.409   5.758
 1005TIP3    H1 2972   4.699   1.341   5.818
 1005TIP3    H2 2973   4.725   1.368   5.671
 1006TIP3   OH2 2974   6.154   5.208   5.685
 1006TIP3    H1 2975   6.089   5.258   5.735
 1006TIP3    H2 2976   6.223   5.189   5.748
 1007TIP3   OH2 2977   7.151   7.457   4.235
 1007TIP3    H1 2978   7.069   7.454   4.285
 1007TIP3    H2 2979   7.211   7.402   4.285
 1008TIP3   OH2 2980   1.906   3.407   2.390
 1008TIP3    H1 2981   1.860   3.356   2.456
 1008TIP3    H2 2982   1.949   3.342   2.334
 1009TIP3   OH2 2983   0.927   0.589   1.957
 1009TIP3    H1 2984   0.888   0.635   2.031
 1009TIP3    H2 2985   1.007   0.551   1.992
 1010TIP3   OH2 2986   0.320   2.379   2.780
 1010TIP3    H1 2987   0.344   2.315   2.846
 1010TIP3    H2 2988   0.381   2.365   2.708
 1011TIP3   OH2 2989   3.279   6.874   3.046
 1011TIP3    H1 2990   3.371   6.868   3.072
 1011TIP3    H2 2991   3.281   6.897   2.953
 1012TIP3   OH2 2992   6.967   2.727   6.309
 1012TIP3    H1 2993   6.916   2.695   6.235
 1012TIP3    H2 2994   7.054   2.744   6.273
 1013TIP3   OH2 2995   6.532   7.106   3.251
 1013TIP3    H1 2996   6.571   7.163   3.316
 1013TIP3    H2 2997   6.555   7.017   3.280
 1014TIP3   OH2 2998   3.871   0.137   2.749
 1014TIP3    H1 2999   3.955   0.180   2.738
 1014TIP3    H2 3000   3.838   0.124   2.660
 1015TIP3   OH2 3001   0.707   0.947   5.429
 1015TIP3    H1 3002   0.734   1.005   5.358
 1015TIP3    H2 3003   0.626   0.985   5.463
 1016TIP3   OH2 3004   1.395   6.746   0.584
 1016TIP3    H1 3005   1.415   6.654   0.597
 1016TIP3    H2 3006   1.313   6.761   0.631
 1017TIP3   OH2 3007   2.511   0.550   5.954
 1017TIP3    H1 3008   2.566   0.628   5.950
 1017TIP3    H2 3009   2.548   0.498   6.025
 1018TIP3   OH2 3010   3.392   5.840   1.668
 1018TIP3    H1 3011   3.362   5.758   1.708
 1018TIP3    H2 3012   3.484   5.848   1.694
 1019TIP3   OH2 3013   7.421   0.209   3.684
 1019TIP3    H1 3014   7.401   0.302   3.671
 1019TIP3    H2 3015   7.358   0.180   3.749
 1020TIP3   OH2 3016   1.381   3.127   3.019
 1020TIP3    H1 3017   1.305   3.070   3.012
 1020TIP3    H2 3018   1.398   3.133   3.113
 1021TIP3   OH2 3019   3.144   5.393   3.249
 1021TIP3    H1 3020   3.119   5.437   3.167
 1021TIP3    H2 3021   3.161   5.465   3.309
 1022TIP3   OH2 3022   4.587   2.905   6.232
 1022TIP3    H1 3023   4.538   2.838   6.280
 1022TIP3    H2 3024   4.676   2.899   6.266
 1023TIP3   OH2 3025   4.945   2.003   2.793
 1023TIP3    H1 3026   4.931   1.978   2.884
 1023TIP3    H2 3027   4.950   1.920   2.746
 1024TIP3   OH2 3028   4.347   5.932   0.241
 1024TIP3    H1 3029   4.353   5.930   0.145
 1024TIP3    H2 3030   4.358   5.841   0.268
 1025TIP3   OH2 3031   1.747   5.930   3.292
 1025TIP3    H1 3032   1.830   5.973   3.314
 1025TIP3    H2 3033   1.684   5.965   3.355
 1026TIP3   OH2 3034   0.179   3.254   3.718
 1026TIP3    H1 3035   0.265   3.290   3.696
 1026TIP3    H2 3036   0.156   3.199   3.643
 1027TIP3   OH2 3037   0.069   6.849   2.881
 1027TIP3    H1 3038   0.036   6.915   2.943
 1027TIP3    H2 3039   0.164   6.857   2.887
 1028TIP3   OH2 3040   7.173   5.878   0.594
 1028TIP3    H1 3041   7.259   5.847   0.624
 1028TIP3    H2 3042   7.126   5.798   0.570
 1029TIP3   OH2 3043   5.832   4.018   2.090
 1029TIP3    H1 3044   5.911   3.993   2.138
 1029TIP3    H2 3045   5.817   4.109   2.115
 1030TIP3   OH2 3046   6.886   0.632   3.568
 1030TIP3    H1 3047   6.817   0.604   3.628
 1030TIP3    H2 3048   6.841   0.690   3.507
 1031TIP3   OH2 3049   0.896   4.299   4.758
 1031TIP3    H1 3050   0.845   4.254   4.826
 1031TIP3    H2 3051   0.925   4.379   4.801
 1032TIP3   OH2 3052   4.276   1.041   2.510
 1032TIP3    H1 3053   4.242   1.113   2.563
 1032TIP3    H2 3054   4.262   0.963   2.564
 1033TIP3   OH2 3055   4.224   0.293   6.646
 1033TIP3    H1 3056   4.258   0.254   6.566
 1033TIP3    H2 3057   4.278   0.255   6.716
 1034TIP3   OH2 3058   1.173   0.369   5.160
 1034TIP3    H1 3059   1.085   0.395   5.188
 1034TIP3    H2 3060   1.204   0.443   5.108
 1035TIP3   OH2 3061   2.569   2.616   4.951
 1035TIP3    H1 3062   2.595   2.599   4.860
 1035TIP3    H2 3063   2.484   2.659   4.944
 1036TIP3   OH2 3064   4.274   7.659   4.539
 1036TIP3    H1 3065   4.179   7.654   4.534
 1036TIP3    H2 3066   4.302   7.684   4.451
 1037TIP3   OH2 3067   6.874   5.970   1.303
 1037TIP3    H1 3068   6.857   5.963   1.396
 1037TIP3    H2 3069   6.801   6.021   1.268
 1038TIP3   OH2 3070   0.717   3.963   4.224
 1038TIP3    H1 3071   0.687   3.907   4.296
 1038TIP3    H2 3072   0.674   4.047   4.240
 1039TIP3   OH2 3073   2.793   7.658   3.739
 1039TIP3    H1 3074   2.879   7.638   3.703
 1039TIP3    H2 3075   2.809   7.723   3.806
 1040TIP3   OH2 3076   5.017   4.280   2.002
 1040TIP3    H1 3077   4.938   4.326   1.976
 1040TIP3    H2 3078   5.062   4.340   2.061
 1041TIP3   OH2 3079   3.056   3.017   5.451
 1041TIP3    H1 3080   3.031   2.938   5.501
 1041TIP3    H2 3081   2.988   3.026   5.385
 1042TIP3   OH2 3082   3.975   4.563   5.236
 1042TIP3    H1 3083   3.930   4.602   5.161
 1042TIP3    H2 3084   3.929   4.480   5.251
 1043TIP3   OH2 3085   0.612   5.084   3.323
 1043TIP3    H1 3086   0.536   5.048   3.277
 1043TIP3    H2 3087   0.685   5.065   3.264
 1044TIP3   OH2 3088   3.478   6.386   2.575
 1044TIP3    H1 3089   3.446   6.473   2.600
 1044TIP3    H2 3090   3.508   6.398   2.484
 1045TIP3   OH2 3091   8.245   6.208   2.456
 1045TIP3    H1 3092   8.251   6.303   2.455
 1045TIP3    H2 3093   8.332   6.177   2.429
 1046TIP3   OH2 3094   0.613   3.677   3.117
 1046TIP3    H1 3095   0.527   3.705   3.087
 1046TIP3    H2 3096   0.635   3.603   3.061
 1047TIP3   OH2 3097   5.481   0.336   5.655
 1047TIP3    H1 3098   5.562   0.386   5.659
 1047TIP3    H2 3099   5.445   0.355   5.569
 1048TIP3   OH2 3100   2.430   7.673   3.200
 1048TIP3    H1 3101   2.380   7.754   3.190
 1048TIP3    H2 3102   2.521   7.702   3.205
 1049TIP3   OH2 3103   0.175   7.616   1.433
 1049TIP3    H1 3104   0.156   7.710   1.439
 1049TIP3    H2 3105   0.254   7.612   1.380
 1050TIP3   OH2 3106   5.482   2.779   5.815
 1050TIP3    H1 3107   5.460   2.686   5.811
 1050TIP3    H2 3108   5.430   2.819   5.746
 1051TIP3   OH2 3109   5.459   6.939   4.346
 1051TIP3    H1 3110   5.509   6.883   4.287
 1051TIP3    H2 3111   5.458   6.892   4.429
 1052TIP3   OH2 3112   6.906   1.041   3.711
 1052TIP3    H1 3113   6.852   1.049   3.632
 1052TIP3    H2 3114   6.863   0.973   3.762
 1053TIP3   OH2 3115   3.642   3.725   5.311
 1053TIP3    H1 3116   3.565   3.744   5.364
 1053TIP3    H2 3117   3.608   3.696   5.227
 1054TIP3   OH2 3118   5.284   4.471   4.248
 1054TIP3    H1 3119   5.259   4.546   4.302
 1054TIP3    H2 3120   5.272   4.395   4.305
 1055TIP3   OH2 3121   1.996   1.664   3.291
 1055TIP3    H1 3122   2.046   1.681   3.211
 1055TIP3    H2 3123   1.905   1.682   3.267
 1056TIP3   OH2 3124   3.215   5.667   5.670
 1056TIP3    H1 3125   3.160   5.650   5.594
 1056TIP3    H2 3126   3.292   5.612   5.656
 1057TIP3   OH2 3127   7.664   0.620   1.061
 1057TIP3    H1 3128   7.605   0.552   1.095
 1057TIP3    H2 3129   7.744   0.609   1.112
 1058TIP3   OH2 3130   4.195   6.199   5.688
 1058TIP3    H1 3131   4.138   6.270   5.717
 1058TIP3    H2 3132   4.236   6.168   5.769
 1059TIP3   OH2 3133   1.226   6.001   4.894
 1059TIP3    H1 3134   1.318   5.987   4.871
 1059TIP3    H2 3135   1.201   6.080   4.845
 1060TIP3   OH2 3136   7.352   1.335   1.615
 1060TIP3    H1 3137   7.385   1.365   1.700
 1060TIP3    H2 3138   7.410   1.375   1.551
 1061TIP3   OH2 3139   5.401   2.272   6.182
 1061TIP3    H1 3140   5.338   2.340   6.205
 1061TIP3    H2 3141   5.420   2.228   6.265
 1062TIP3   OH2 3142   4.797   0.498   5.417
 1062TIP3    H1 3143   4.797   0.516   5.511
 1062TIP3    H2 3144   4.757   0.411   5.410
 1063TIP3   OH2 3145   6.251   2.406   2.685
 1063TIP3    H1 3146   6.274   2.354   2.762
 1063TIP3    H2 3147   6.163   2.376   2.662
 1064TIP3   OH2 3148   0.062   3.607   3.151
 1064TIP3    H1 3149   0.154   3.579   3.144
 1064TIP3    H2 3150   0.015   3.529   3.181
 1065TIP3   OH2 3151   0.566   1.451   1.027
 1065TIP3    H1 3152   0.633   1.450   1.095
 1065TIP3    H2 3153   0.510   1.376   1.048
 1066TIP3   OH2 3154   5.776   6.986   6.080
 1066TIP3    H1 3155   5.836   6.955   6.148
 1066TIP3    H2 3156   5.699   7.016   6.128
 1067TIP3   OH2 3157   0.829   4.721   1.276
 1067TIP3    H1 3158   0.783   4.709   1.359
 1067TIP3    H2 3159   0.789   4.656   1.218
 1068TIP3   OH2 3160   4.597   5.565   3.334
 1068TIP3    H1 3161   4.622   5.492   3.391
 1068TIP3    H2 3162   4.556   5.523   3.258
 1069TIP3   OH2 3163   4.508   5.893   1.909
 1069TIP3    H1 3164   4.502   5.799   1.921
 1069TIP3    H2 3165   4.426   5.928   1.944
 1070TIP3   OH2 3166   7.271   2.995   3.145
 1070TIP3    H1 3167   7.259   2.917   3.090
 1070TIP3    H2 3168   7.254   3.068   3.085
 1071TIP3   OH2 3169   6.384   6.052   4.058
 1071TIP3    H1 3170   6.354   6.138   4.028
 1071TIP3    H2 3171   6.457   6.030   3.999
 1072TIP3   OH2 3172   1.964   5.320   5.025
 1072TIP3    H1 3173   2.057   5.339   5.013
 1072TIP3    H2 3174   1.927   5.400   5.063
 1073TIP3   OH2 3175   5.020   4.401   0.254
 1073TIP3    H1 3176   5.069   4.466   0.202
 1073TIP3    H2 3177   5.070   4.320   0.243
 1074TIP3   OH2 3178   3.037   0.936   3.118
 1074TIP3    H1 3179   2.965   0.996   3.098
 1074TIP3    H2 3180   3.043   0.938   3.214
 1075TIP3   OH2 3181   6.497   7.531   6.013
 1075TIP3    H1 3182   6.451   7.503   6.092
 1075TIP3    H2 3183   6.576   7.478   6.011
 1076TIP3   OH2 3184   2.127   2.973   3.614
 1076TIP3    H1 3185   2.082   2.980   3.698
 1076TIP3    H2 3186   2.155   3.062   3.594
 1077TIP3   OH2 3187   4.417   1.780   2.361
 1077TIP3    H1 3188   4.498   1.761   2.314
 1077TIP3    H2 3189   4.444   1.789   2.453
 1078TIP3   OH2 3190   1.796   2.221   1.800
 1078TIP3    H1 3191   1.711   2.260   1.822
 1078TIP3    H2 3192   1.840   2.288   1.747
 1079TIP3   OH2 3193   5.758   2.052   5.417
 1079TIP3    H1 3194   5.792   2.137   5.443
 1079TIP3    H2 3195   5.681   2.039   5.473
 1080TIP3   OH2 3196   4.526   4.168   1.068
 1080TIP3    H1 3197   4.564   4.106   1.006
 1080TIP3    H2 3198   4.432   4.152   1.064
 1081TIP3   OH2 3199   3.754   0.099   0.207
 1081TIP3    H1 3200   3.772   0.190   0.183
 1081TIP3    H2 3201   3.686   0.105   0.274
 1082TIP3   OH2 3202   1.467   0.841   0.553
 1082TIP3    H1 3203   1.397   0.871   0.496
 1082TIP3    H2 3204   1.449   0.883   0.638
 1083TIP3   OH2 3205   6.515   6.041   2.613
 1083TIP3    H1 3206   6.548   6.068   2.527
 1083TIP3    H2 3207   6.583   5.982   2.646
 1084TIP3   OH2 3208   0.233   1.747   2.356
 1084TIP3    H1 3209   0.193   1.769   2.440
 1084TIP3    H2 3210   0.294   1.676   2.378
 1085TIP3   OH2 3211   3.414   1.677   4.198
 1085TIP3    H1 3212   3.402   1.598   4.251
 1085TIP3    H2 3213   3.476   1.651   4.130
 1086TIP3   OH2 3214   4.518   0.315   1.834
 1086TIP3    H1 3215   4.522   0.221   1.817
 1086TIP3    H2 3216   4.496   0.354   1.749
 1087TIP3   OH2 3217   0.855   4.496   4.996
 1087TIP3    H1 3218   0.842   4.506   5.090
 1087TIP3    H2 3219   0.773   4.526   4.957
 1088TIP3   OH2 3220   2.768   3.732   4.900
 1088TIP3    H1 3221   2.761   3.663   4.966
 1088TIP3    H2 3222   2.838   3.702   4.842
 1089TIP3   OH2 3223   1.578   0.703   1.542
 1089TIP3    H1 3224   1.638   0.681   1.470
 1089TIP3    H2 3225   1.498   0.654   1.522
 1090TIP3   OH2 3226   0.421   2.235   1.456
 1090TIP3    H1 3227   0.467   2.311   1.495
 1090TIP3    H2 3228   0.486   2.195   1.399
 1091TIP3   OH2 3229   8.041   7.213   2.180
 1091TIP3    H1 3230   7.972   7.194   2.117
 1091TIP3    H2 3231   7.999   7.269   2.245
 1092TIP3   OH2 3232   4.479   3.441   5.249
 1092TIP3    H1 3233   4.519   3.442   5.337
 1092TIP3    H2 3234   4.522   3.368   5.205
 1093TIP3   OH2 3235   6.817   4.870   4.595
 1093TIP3    H1 3236   6.885   4.804   4.608
 1093TIP3    H2 3237   6.797   4.867   4.501
 1094TIP3   OH2 3238   5.931   5.867   0.513
 1094TIP3    H1 3239   5.951   5.775   0.494
 1094TIP3    H2 3240   6.016   5.910   0.517
 1095TIP3   OH2 3241   4.623   2.090   5.525
 1095TIP3    H1 3242   4.544   2.038   5.514
 1095TIP3    H2 3243   4.593   2.173   5.560
 1096TIP3   OH2 3244   4.321   5.076   5.387
 1096TIP3    H1 3245   4.379   5.140   5.429
 1096TIP3    H2 3246   4.277   5.032   5.459
 1097TIP3   OH2 3247   2.242   3.593   0.276
 1097TIP3    H1 3248   2.284   3.642   0.347
 1097TIP3    H2 3249   2.259   3.646   0.198
 1098TIP3   OH2 3250   6.970   3.097   4.046
 1098TIP3    H1 3251   6.913   3.164   4.083
 1098TIP3    H2 3252   6.975   3.117   3.953
 1099TIP3   OH2 3253   5.570   7.502   0.253
 1099TIP3    H1 3254   5.478   7.479   0.242
 1099TIP3    H2 3255   5.591   7.473   0.342
 1100TIP3   OH2 3256   7.234   6.955   4.897
 1100TIP3    H1 3257   7.155   6.912   4.865
 1100TIP3    H2 3258   7.281   6.982   4.818
 1101TIP3   OH2 3259   3.550   4.501   5.067
 1101TIP3    H1 3260   3.595   4.545   5.140
 1101TIP3    H2 3261   3.490   4.440   5.109
 1102TIP3   OH2 3262   4.797   5.277   2.961
 1102TIP3    H1 3263   4.732   5.299   2.895
 1102TIP3    H2 3264   4.881   5.296   2.919
 1103TIP3   OH2 3265   5.700   0.015   3.335
 1103TIP3    H1 3266   5.771  -0.049   3.328
 1103TIP3    H2 3267   5.727   0.088   3.279
 1104TIP3   OH2 3268   6.009   6.716   3.258
 1104TIP3    H1 3269   5.955   6.744   3.183
 1104TIP3    H2 3270   5.947   6.672   3.317
 1105TIP3   OH2 3271   0.811   1.603   4.021
 1105TIP3    H1 3272   0.862   1.684   4.025
 1105TIP3    H2 3273   0.730   1.624   4.067
 1106TIP3   OH2 3274   7.512   5.370   3.802
 1106TIP3    H1 3275   7.472   5.446   3.845
 1106TIP3    H2 3276   7.468   5.294   3.842
 1107TIP3   OH2 3277   4.348   5.452   4.591
 1107TIP3    H1 3278   4.362   5.369   4.544
 1107TIP3    H2 3279   4.253   5.462   4.593
 1108TIP3   OH2 3280   6.496  -0.003   1.119
 1108TIP3    H1 3281   6.463   0.034   1.201
 1108TIP3    H2 3282   6.557   0.063   1.086
 1109TIP3   OH2 3283   7.115   0.034   0.995
 1109TIP3    H1 3284   7.116  -0.052   1.038
 1109TIP3    H2 3285   7.097   0.014   0.903
 1110TIP3   OH2 3286   5.243   0.236   2.723
 1110TIP3    H1 3287   5.284   0.158   2.760
 1110TIP3    H2 3288   5.224   0.211   2.632
 1111TIP3   OH2 3289   6.848   7.002   1.098
 1111TIP3    H1 3290   6.922   6.998   1.158
 1111TIP3    H2 3291   6.871   7.069   1.034
 1112TIP3   OH2 3292   7.334   7.049   4.661
 1112TIP3    H1 3293   7.400   7.111   4.629
 1112TIP3    H2 3294   7.368   6.963   4.636
 1113TIP3   OH2 3295   4.691   4.564   0.099
 1113TIP3    H1 3296   4.686   4.504   0.173
 1113TIP3    H2 3297   4.715   4.649   0.138
 1114TIP3   OH2 3298   0.408   2.204   2.977
 1114TIP3    H1 3299   0.343   2.135   2.989
 1114TIP3    H2 3300   0.438   2.224   3.065
 1115TIP3   OH2 3301   3.174   7.417   0.851
 1115TIP3    H1 3302   3.255   7.435   0.803
 1115TIP3    H2 3303   3.164   7.491   0.911
 1116TIP3   OH2 3304   5.189   7.463   0.817
 1116TIP3    H1 3305   5.261   7.452   0.756
 1116TIP3    H2 3306   5.133   7.530   0.777
 1117TIP3   OH2 3307   5.970   3.944   6.625
 1117TIP3    H1 3308   6.004   4.024   6.584
 1117TIP3    H2 3309   5.996   3.952   6.717
 1118TIP3   OH2 3310   3.541   2.751   2.833
 1118TIP3    H1 3311   3.623   2.714   2.803
 1118TIP3    H2 3312   3.535   2.836   2.789
 1119TIP3   OH2 3313   7.306   3.149   0.976
 1119TIP3    H1 3314   7.216   3.173   0.954
 1119TIP3    H2 3315   7.329   3.081   0.912
 1120TIP3   OH2 3316   3.422   6.879   0.916
 1120TIP3    H1 3317   3.487   6.820   0.954
 1120TIP3    H2 3318   3.394   6.835   0.835
 1121TIP3   OH2 3319   1.649   0.025   5.171
 1121TIP3    H1 3320   1.626   0.090   5.105
 1121TIP3    H2 3321   1.743   0.012   5.160
 1122TIP3   OH2 3322   0.449   6.816   5.382
 1122TIP3    H1 3323   0.382   6.747   5.378
 1122TIP3    H2 3324   0.488   6.816   5.295
 1123TIP3   OH2 3325   6.241   3.280   5.124
 1123TIP3    H1 3326   6.304   3.337   5.080
 1123TIP3    H2 3327   6.258   3.193   5.089
 1124TIP3   OH2 3328   3.004   4.893   3.757
 1124TIP3    H1 3329   2.990   4.822   3.694
 1124TIP3    H2 3330   2.917   4.913   3.791
 1125TIP3   OH2 3331   2.253   1.507   6.555
 1125TIP3    H1 3332   2.237   1.601   6.545
 1125TIP3    H2 3333   2.251   1.492   6.650
 1126TIP3   OH2 3334   2.397   2.160   3.891
 1126TIP3    H1 3335   2.337   2.234   3.901
 1126TIP3    H2 3336   2.477   2.187   3.937
 1127TIP3   OH2 3337   7.258   7.215   2.340
 1127TIP3    H1 3338   7.242   7.121   2.334
 1127TIP3    H2 3339   7.305   7.227   2.422
 1128TIP3   OH2 3340   7.869   4.314   6.557
 1128TIP3    H1 3341   7.893   4.372   6.485
 1128TIP3    H2 3342   7.827   4.372   6.621
 1129TIP3   OH2 3343   7.349   0.678   4.475
 1129TIP3    H1 3344   7.342   0.662   4.569
 1129TIP3    H2 3345   7.266   0.719   4.451
 1130TIP3   OH2 3346   3.796   1.700   2.089
 1130TIP3    H1 3347   3.720   1.645   2.107
 1130TIP3    H2 3348   3.863   1.670   2.151
 1131TIP3   OH2 3349   0.739   2.982   5.879
 1131TIP3    H1 3350   0.644   2.976   5.870
 1131TIP3    H2 3351   0.758   3.076   5.877
 1132TIP3   OH2 3352   4.750   1.215   0.160
 1132TIP3    H1 3353   4.813   1.178   0.098
 1132TIP3    H2 3354   4.729   1.143   0.219
 1133TIP3   OH2 3355   3.846   5.429   3.656
 1133TIP3    H1 3356   3.900   5.351   3.670
 1133TIP3    H2 3357   3.802   5.443   3.739
 1134TIP3   OH2 3358   4.517   1.473   4.985
 1134TIP3    H1 3359   4.561   1.389   4.999
 1134TIP3    H2 3360   4.458   1.457   4.911
 1135TIP3   OH2 3361   5.286   1.620   5.296
 1135TIP3    H1 3362   5.357   1.565   5.263
 1135TIP3    H2 3363   5.265   1.678   5.222
 1136TIP3   OH2 3364   6.425   2.131   0.835
 1136TIP3    H1 3365   6.429   2.224   0.860
 1136TIP3    H2 3366   6.393   2.086   0.913
 1137TIP3   OH2 3367   6.930   4.844   0.341
 1137TIP3    H1 3368   6.848   4.884   0.369
 1137TIP3    H2 3369   6.985   4.918   0.315
 1138TIP3   OH2 3370   2.442   6.964   5.913
 1138TIP3    H1 3371   2.417   6.872   5.902
 1138TIP3    H2 3372   2.365   7.005   5.952
 1139TIP3   OH2 3373   3.124   6.651   5.728
 1139TIP3    H1 3374   3.072   6.710   5.673
 1139TIP3    H2 3375   3.071   6.572   5.734
 1140TIP3   OH2 3376   6.932   4.457   5.681
 1140TIP3    H1 3377   7.016   4.468   5.637
 1140TIP3    H2 3378   6.882   4.400   5.623
 1141TIP3   OH2 3379   3.211   7.436   1.790
 1141TIP3    H1 3380   3.300   7.469   1.780
 1141TIP3    H2 3381   3.205   7.413   1.883
 1142TIP3   OH2 3382   1.097   5.831   2.484
 1142TIP3    H1 3383   1.046   5.794   2.556
 1142TIP3    H2 3384   1.056   5.796   2.405
 1143TIP3   OH2 3385   0.294   5.751   2.438
 1143TIP3    H1 3386   0.337   5.684   2.384
 1143TIP3    H2 3387   0.201   5.737   2.422
 1144TIP3   OH2 3388   8.246   2.845   2.974
 1144TIP3    H1 3389   8.234   2.938   2.955
 1144TIP3    H2 3390   8.163   2.818   3.013
 1145TIP3   OH2 3391   3.680   1.130   2.340
 1145TIP3    H1 3392   3.589   1.159   2.335
 1145TIP3    H2 3393   3.696   1.119   2.433
 1146TIP3   OH2 3394   1.820   3.541   1.787
 1146TIP3    H1 3395   1.742   3.566   1.837
 1146TIP3    H2 3396   1.808   3.447   1.771
 1147TIP3   OH2 3397   4.458   2.688   3.366
 1147TIP3    H1 3398   4.489   2.750   3.299
 1147TIP3    H2 3399   4.435   2.609   3.316
 1148TIP3   OH2 3400   3.184   2.315   4.236
 1148TIP3    H1 3401   3.136   2.374   4.294
 1148TIP3    H2 3402   3.133   2.234   4.236
 1149TIP3   OH2 3403   2.632   1.863   5.303
 1149TIP3    H1 3404   2.567   1.873   5.373
 1149TIP3    H2 3405   2.700   1.927   5.325
 1150TIP3   OH2 3406   3.317   0.172   1.595
 1150TIP3    H1 3407   3.244   0.179   1.533
 1150TIP3    H2 3408   3.395   0.162   1.539
 1151TIP3   OH2 3409   0.127   1.258   2.750
 1151TIP3    H1 3410   0.118   1.163   2.740
 1151TIP3    H2 3411   0.038   1.291   2.737
 1152TIP3   OH2 3412   4.042   0.436   1.019
 1152TIP3    H1 3413   4.050   0.438   1.114
 1152TIP3    H2 3414   4.059   0.527   0.991
 1153TIP3   OH2 3415   5.577   3.670   6.771
 1153TIP3    H1 3416   5.532   3.718   6.701
 1153TIP3    H2 3417   5.631   3.606   6.725
 1154TIP3   OH2 3418   0.081   3.952   5.377
 1154TIP3    H1 3419   0.143   3.938   5.306
 1154TIP3    H2 3420   0.048   3.865   5.398
 1155TIP3   OH2 3421   3.757   6.354   0.170
 1155TIP3    H1 3422   3.808   6.343   0.089
 1155TIP3    H2 3423   3.824   6.367   0.238
 1156TIP3   OH2 3424   0.467   4.020   6.850
 1156TIP3    H1 3425   0.485   3.973   6.769
 1156TIP3    H2 3426   0.476   3.955   6.919
 1157TIP3   OH2 3427   7.905   3.159   4.517
 1157TIP3    H1 3428   7.827   3.132   4.565
 1157TIP3    H2 3429   7.978   3.122   4.568
 1158TIP3   OH2 3430   2.219   1.778   2.763
 1158TIP3    H1 3431   2.151   1.845   2.758
 1158TIP3    H2 3432   2.171   1.695   2.763
 1159TIP3   OH2 3433   6.943   1.007   6.241
 1159TIP3    H1 3434   6.910   1.081   6.292
 1159TIP3    H2 3435   7.000   1.047   6.175
 1160TIP3   OH2 3436   3.665   2.242   1.488
 1160TIP3    H1 3437   3.688   2.156   1.524
 1160TIP3    H2 3438   3.704   2.242   1.401
 1161TIP3   OH2 3439   6.101   7.213   3.092
 1161TIP3    H1 3440   6.169   7.160   3.133
 1161TIP3    H2 3441   6.039   7.232   3.163
 1162TIP3   OH2 3442   5.427   1.067   5.444
 1162TIP3    H1 3443   5.377   1.127   5.500
 1162TIP3    H2 3444   5.376   0.986   5.445
 1163TIP3   OH2 3445   7.057   3.413   5.988
 1163TIP3    H1 3446   6.990   3.351   5.958
 1163TIP3    H2 3447   7.010   3.475   6.044
 1164TIP3   OH2 3448   1.002   0.231   2.021
 1164TIP3    H1 3449   1.034   0.299   2.081
 1164TIP3    H2 3450   1.022   0.149   2.066
 1165TIP3   OH2 3451   4.195   0.526   3.035
 1165TIP3    H1 3452   4.201   0.621   3.045
 1165TIP3    H2 3453   4.137   0.497   3.105
 1166TIP3   OH2 3454   2.995   4.227   0.988
 1166TIP3    H1 3455   2.993   4.133   1.007
 1166TIP3    H2 3456   2.939   4.237   0.911
 1167TIP3   OH2 3457   6.103   3.665   1.193
 1167TIP3    H1 3458   6.071   3.575   1.194
 1167TIP3    H2 3459   6.062   3.705   1.116
 1168TIP3   OH2 3460   1.827   0.390   1.081
 1168TIP3    H1 3461   1.831   0.484   1.059
 1168TIP3    H2 3462   1.850   0.386   1.173
 1169TIP3   OH2 3463   7.037   2.041   1.595
 1169TIP3    H1 3464   6.990   2.023   1.676
 1169TIP3    H2 3465   7.105   2.104   1.620
 1170TIP3   OH2 3466   1.470   4.738   0.007
 1170TIP3    H1 3467   1.430   4.792   0.075
 1170TIP3    H2 3468   1.462   4.789  -0.073
 1171TIP3   OH2 3469   5.331   5.880   3.198
 1171TIP3    H1 3470   5.246   5.841   3.217
 1171TIP3    H2 3471   5.317   5.935   3.122
 1172TIP3   OH2 3472   5.096   1.846   5.875
 1172TIP3    H1 3473   5.022   1.801   5.834
 1172TIP3    H2 3474   5.126   1.785   5.943
 1173TIP3   OH2 3475   3.091   3.510   1.591
 1173TIP3    H1 3476   3.014   3.463   1.624
 1173TIP3    H2 3477   3.164   3.452   1.611
 1174TIP3   OH2 3478   7.501   3.649   2.164
 1174TIP3    H1 3479   7.463   3.648   2.252
 1174TIP3    H2 3480   7.490   3.739   2.135
 1175TIP3   OH2 3481   1.977   2.943   3.845
 1175TIP3    H1 3482   1.989   3.036   3.860
 1175TIP3    H2 3483   1.884   2.926   3.863
 1176TIP3   OH2 3484   0.729   6.000   4.013
 1176TIP3    H1 3485   0.764   5.976   4.100
 1176TIP3    H2 3486   0.788   6.069   3.982
 1177TIP3   OH2 3487   2.990   3.133   1.574
 1177TIP3    H1 3488   2.963   3.065   1.636
 1177TIP3    H2 3489   2.920   3.197   1.577
 1178TIP3   OH2 3490   7.104   1.366   1.119
 1178TIP3    H1 3491   7.033   1.317   1.160
 1178TIP3    H2 3492   7.117   1.442   1.176
 1179TIP3   OH2 3493   6.280   3.176   4.447
 1179TIP3    H1 3494   6.283   3.270   4.430
 1179TIP3    H2 3495   6.200   3.147   4.404
 1180TIP3   OH2 3496   5.777   2.417   6.708
 1180TIP3    H1 3497   5.829   2.487   6.669
 1180TIP3    H2 3498   5.729   2.379   6.634
 1181TIP3   OH2 3499   6.433   4.825   2.062
 1181TIP3    H1 3500   6.363   4.819   1.996
 1181TIP3    H2 3501   6.390   4.803   2.144
 1182TIP3   OH2 3502   3.591   1.717   2.729
 1182TIP3    H1 3503   3.620   1.664   2.803
 1182TIP3    H2 3504   3.499   1.694   2.718
 1183TIP3   OH2 3505   2.780   2.925   0.608
 1183TIP3    H1 3506   2.697   2.937   0.655
 1183TIP3    H2 3507   2.830   2.865   0.663
 1184TIP3   OH2 3508   4.681   5.285   0.788
 1184TIP3    H1 3509   4.752   5.232   0.824
 1184TIP3    H2 3510   4.627   5.223   0.738
 1185TIP3   OH2 3511   8.070   0.477   2.865
 1185TIP3    H1 3512   7.989   0.510   2.826
 1185TIP3    H2 3513   8.041   0.408   2.926
 1186TIP3   OH2 3514   5.793   1.350   5.263
 1186TIP3    H1 3515   5.715   1.382   5.216
 1186TIP3    H2 3516   5.822   1.275   5.211
 1187TIP3   OH2 3517   4.703   1.307   1.067
 1187TIP3    H1 3518   4.774   1.243   1.074
 1187TIP3    H2 3519   4.665   1.290   0.981
 1188TIP3   OH2 3520   1.056   2.771   4.005
 1188TIP3    H1 3521   0.996   2.845   4.015
 1188TIP3    H2 3522   1.037   2.736   3.918
 1189TIP3   OH2 3523   8.071   7.585   0.733
 1189TIP3    H1 3524   8.015   7.624   0.800
 1189TIP3    H2 3525   8.122   7.520   0.781
 1190TIP3   OH2 3526   6.010   1.436   5.032
 1190TIP3    H1 3527   6.057   1.355   5.052
 1190TIP3    H2 3528   5.974   1.422   4.944
 1191TIP3   OH2 3529   4.160   1.037   0.543
 1191TIP3    H1 3530   4.070   1.004   0.538
 1191TIP3    H2 3531   4.176   1.076   0.457
 1192TIP3   OH2 3532   4.963   4.901   0.378
 1192TIP3    H1 3533   4.986   4.989   0.349
 1192TIP3    H2 3534   5.040   4.871   0.426
 1193TIP3   OH2 3535   7.685   3.378   5.849
 1193TIP3    H1 3536   7.624   3.304   5.841
 1193TIP3    H2 3537   7.632   3.455   5.831
 1194TIP3   OH2 3538   4.187   2.880   6.712
 1194TIP3    H1 3539   4.246   2.951   6.686
 1194TIP3    H2 3540   4.119   2.879   6.645
 1195TIP3   OH2 3541   4.733   6.854   4.571
 1195TIP3    H1 3542   4.783   6.858   4.489
 1195TIP3    H2 3543   4.792   6.812   4.633
 1196TIP3   OH2 3544   7.180   3.546   5.606
 1196TIP3    H1 3545   7.164   3.610   5.675
 1196TIP3    H2 3546   7.229   3.476   5.649
 1197TIP3   OH2 3547   6.100   0.577   3.845
 1197TIP3    H1 3548   6.194   0.563   3.833
 1197TIP3    H2 3549   6.071   0.503   3.897
 1198TIP3   OH2 3550   3.187   3.000   5.126
 1198TIP3    H1 3551   3.107   2.958   5.092
 1198TIP3    H2 3552   3.161   3.090   5.144
 1199TIP3   OH2 3553   0.439   7.756   5.262
 1199TIP3    H1 3554   0.390   7.756   5.345
 1199TIP3    H2 3555   0.376   7.785   5.197
 1200TIP3   OH2 3556   1.457   5.803   4.108
 1200TIP3    H1 3557   1.465   5.898   4.113
 1200TIP3    H2 3558   1.367   5.785   4.134
 1201TIP3   OH2 3559   5.548   0.492   6.726
 1201TIP3    H1 3560   5.497   0.567   6.758
 1201TIP3    H2 3561   5.626   0.531   6.688
 1202TIP3   OH2 3562   4.640   5.057   0.059
 1202TIP3    H1 3563   4.657   4.967   0.088
 1202TIP3    H2 3564   4.680   5.061  -0.028
 1203TIP3   OH2 3565   0.065   4.470   1.915
 1203TIP3    H1 3566   0.108   4.410   1.976
 1203TIP3    H2 3567   0.136   4.511   1.867
 1204TIP3   OH2 3568   0.739   7.514   6.453
 1204TIP3    H1 3569   0.803   7.585   6.455
 1204TIP3    H2 3570   0.669   7.543   6.512
 1205TIP3   OH2 3571   6.209   5.017   0.148
 1205TIP3    H1 3572   6.133   5.005   0.205
 1205TIP3    H2 3573   6.230   5.110   0.156
 1206TIP3   OH2 3574   3.696   0.993   4.038
 1206TIP3    H1 3575   3.671   0.912   4.083
 1206TIP3    H2 3576   3.789   0.983   4.019
 1207TIP3   OH2 3577   0.323   2.525   6.259
 1207TIP3    H1 3578   0.338   2.562   6.346
 1207TIP3    H2 3579   0.408   2.530   6.216
 1208TIP3   OH2 3580   7.810   3.084   3.526
 1208TIP3    H1 3581   7.746   3.141   3.567
 1208TIP3    H2 3582   7.861   3.048   3.599
 1209TIP3   OH2 3583   2.659   4.047   0.935
 1209TIP3    H1 3584   2.616   4.064   1.019
 1209TIP3    H2 3585   2.668   4.134   0.896
 1210TIP3   OH2 3586   7.275   4.696   1.417
 1210TIP3    H1 3587   7.244   4.609   1.444
 1210TIP3    H2 3588   7.294   4.686   1.323
 1211TIP3   OH2 3589   4.492   6.107   2.584
 1211TIP3    H1 3590   4.546   6.067   2.652
 1211TIP3    H2 3591   4.443   6.033   2.547
 1212TIP3   OH2 3592   6.798   6.924   0.191
 1212TIP3    H1 3593   6.737   6.990   0.159
 1212TIP3    H2 3594   6.803   6.859   0.121
 1213TIP3   OH2 3595   0.667   0.941   6.693
 1213TIP3    H1 3596   0.732   0.900   6.750
 1213TIP3    H2 3597   0.678   0.897   6.609
 1214TIP3   OH2 3598   4.877   5.700   2.714
 1214TIP3    H1 3599   4.879   5.686   2.808
 1214TIP3    H2 3600   4.855   5.615   2.677
 1215TIP3   OH2 3601   3.004   3.684   6.686
 1215TIP3    H1 3602   3.085   3.635   6.671
 1215TIP3    H2 3603   2.936   3.630   6.646
 1216TIP3   OH2 3604   7.740   2.079   2.206
 1216TIP3    H1 3605   7.785   2.005   2.165
 1216TIP3    H2 3606   7.797   2.155   2.188
 1217TIP3   OH2 3607   3.208   5.629   2.283
 1217TIP3    H1 3608   3.158   5.703   2.248
 1217TIP3    H2 3609   3.144   5.558   2.288
 1218TIP3   OH2 3610   4.653   6.155   2.347
 1218TIP3    H1 3611   4.614   6.111   2.423
 1218TIP3    H2 3612   4.596   6.131   2.273
 1219TIP3   OH2 3613   4.808   2.843   0.576
 1219TIP3    H1 3614   4.878   2.777   0.579
 1219TIP3    H2 3615   4.781   2.845   0.484
 1220TIP3   OH2 3616   1.814   3.617   2.593
 1220TIP3    H1 3617   1.808   3.522   2.587
 1220TIP3    H2 3618   1.903   3.634   2.624
 1221TIP3   OH2 3619   2.731   3.615   3.927
 1221TIP3    H1 3620   2.820   3.646   3.909
 1221TIP3    H2 3621   2.739   3.566   4.009
 1222TIP3   OH2 3622   3.365   6.639   0.049
 1222TIP3    H1 3623   3.274   6.615   0.035
 1222TIP3    H2 3624   3.368   6.734   0.032
 1223TIP3   OH2 3625   8.019   6.848   0.480
 1223TIP3    H1 3626   7.983   6.763   0.457
 1223TIP3    H2 3627   8.037   6.890   0.396
 1224TIP3   OH2 3628   4.251   4.862   1.192
 1224TIP3    H1 3629   4.298   4.940   1.163
 1224TIP3    H2 3630   4.289   4.841   1.277
 1225TIP3   OH2 3631   4.255   1.200   0.740
 1225TIP3    H1 3632   4.219   1.119   0.704
 1225TIP3    H2 3633   4.298   1.243   0.666
 1226TIP3   OH2 3634   8.033   3.473   3.156
 1226TIP3    H1 3635   8.107   3.413   3.147
 1226TIP3    H2 3636   7.961   3.428   3.113
 1227TIP3   OH2 3637   4.184   3.132   1.157
 1227TIP3    H1 3638   4.234   3.197   1.206
 1227TIP3    H2 3639   4.096   3.170   1.149
 1228TIP3   OH2 3640   2.029   3.122   6.186
 1228TIP3    H1 3641   1.987   3.037   6.199
 1228TIP3    H2 3642   2.060   3.147   6.273
 1229TIP3   OH2 3643   3.221   7.164   3.022
 1229TIP3    H1 3644   3.201   7.075   2.996
 1229TIP3    H2 3645   3.316   7.172   3.010
 1230TIP3   OH2 3646   5.978   7.029   4.104
 1230TIP3    H1 3647   5.970   7.036   4.199
 1230TIP3    H2 3648   5.989   7.119   4.073
 1231TIP3   OH2 3649   6.162   0.275   2.669
 1231TIP3    H1 3650   6.230   0.229   2.620
 1231TIP3    H2 3651   6.156   0.361   2.627
 1232TIP3   OH2 3652   5.206   7.524   6.374
 1232TIP3    H1 3653   5.166   7.522   6.287
 1232TIP3    H2 3654   5.257   7.443   6.378
 1233TIP3   OH2 3655   7.658   6.332   1.323
 1233TIP3    H1 3656   7.708   6.357   1.245
 1233TIP3    H2 3657   7.578   6.384   1.318
 1234TIP3   OH2 3658   7.577   0.224   5.178
 1234TIP3    H1 3659   7.551   0.261   5.093
 1234TIP3    H2 3660   7.511   0.157   5.196
 1235TIP3   OH2 3661   1.513   0.935   2.731
 1235TIP3    H1 3662   1.482   0.965   2.816
 1235TIP3    H2 3663   1.607   0.953   2.732
 1236TIP3   OH2 3664   7.561   7.271   6.047
 1236TIP3    H1 3665   7.603   7.348   6.084
 1236TIP3    H2 3666   7.599   7.196   6.094
 1237TIP3   OH2 3667   0.523   1.536   0.789
 1237TIP3    H1 3668   0.523   1.527   0.884
 1237TIP3    H2 3669   0.436   1.510   0.762
 1238TIP3   OH2 3670   7.448   1.097   6.041
 1238TIP3    H1 3671   7.520   1.144   5.999
 1238TIP3    H2 3672   7.385   1.166   6.064
 1239TIP3   OH2 3673   6.217   5.276   3.552
 1239TIP3    H1 3674   6.238   5.190   3.587
 1239TIP3    H2 3675   6.281   5.335   3.592
 1240TIP3   OH2 3676   7.206   2.109   4.689
 1240TIP3    H1 3677   7.231   2.154   4.608
 1240TIP3    H2 3678   7.174   2.024   4.659
 1241TIP3   OH2 3679   0.383   2.082   0.912
 1241TIP3    H1 3680   0.455   2.027   0.881
 1241TIP3    H2 3681   0.357   2.043   0.996
 1242TIP3   OH2 3682   7.622   7.723   2.786
 1242TIP3    H1 3683   7.712   7.740   2.813
 1242TIP3    H2 3684   7.628   7.705   2.693
 1243TIP3   OH2 3685   7.957   6.409   1.406
 1243TIP3    H1 3686   7.888   6.469   1.435
 1243TIP3    H2 3687   7.946   6.331   1.459
 1244TIP3   OH2 3688   7.316   2.422   0.439
 1244TIP3    H1 3689   7.267   2.455   0.514
 1244TIP3    H2 3690   7.398   2.391   0.475
 1245TIP3   OH2 3691   3.799   1.772   3.533
 1245TIP3    H1 3692   3.831   1.859   3.511
 1245TIP3    H2 3693   3.775   1.777   3.626
 1246TIP3   OH2 3694   6.156   0.262   4.762
 1246TIP3    H1 3695   6.251   0.256   4.764
 1246TIP3    H2 3696   6.130   0.269   4.854
 1247TIP3   OH2 3697   4.191   6.909   1.898
 1247TIP3    H1 3698   4.145   6.993   1.907
 1247TIP3    H2 3699   4.267   6.917   1.955
 1248TIP3   OH2 3700   0.194   4.643   3.830
 1248TIP3    H1 3701   0.150   4.727   3.842
 1248TIP3    H2 3702   0.125   4.582   3.806
 1249TIP3   OH2 3703   2.680   2.059   5.877
 1249TIP3    H1 3704   2.708   1.969   5.859
 1249TIP3    H2 3705   2.714   2.110   5.803
 1250TIP3   OH2 3706   7.149   2.587   3.512
 1250TIP3    H1 3707   7.079   2.563   3.572
 1250TIP3    H2 3708   7.133   2.535   3.433
 1251TIP3   OH2 3709   6.472   4.007   5.864
 1251TIP3    H1 3710   6.459   3.925   5.911
 1251TIP3    H2 3711   6.408   4.004   5.792
 1252TIP3   OH2 3712   0.884   3.438   5.395
 1252TIP3    H1 3713   0.932   3.447   5.313
 1252TIP3    H2 3714   0.803   3.394   5.372
 1253TIP3   OH2 3715   1.309   6.269   0.104
 1253TIP3    H1 3716   1.311   6.187   0.055
 1253TIP3    H2 3717   1.372   6.325   0.060
 1254TIP3   OH2 3718   0.091   3.356   5.175
 1254TIP3    H1 3719   0.125   3.436   5.137
 1254TIP3    H2 3720   0.162   3.292   5.166
 1255TIP3   OH2 3721   5.246   3.224   0.580
 1255TIP3    H1 3722   5.218   3.210   0.671
 1255TIP3    H2 3723   5.215   3.147   0.533
 1256TIP3   OH2 3724   6.179   7.216   5.416
 1256TIP3    H1 3725   6.267   7.180   5.413
 1256TIP3    H2 3726   6.179   7.273   5.493
 1257TIP3   OH2 3727   6.131   4.262   6.089
 1257TIP3    H1 3728   6.224   4.241   6.090
 1257TIP3    H2 3729   6.089   4.186   6.050
 1258TIP3   OH2 3730   6.282   5.440   5.618
 1258TIP3    H1 3731   6.261   5.475   5.705
 1258TIP3    H2 3732   6.240   5.354   5.617
 1259TIP3   OH2 3733   5.081   2.289   3.596
 1259TIP3    H1 3734   5.155   2.328   3.642
 1259TIP3    H2 3735   5.121   2.233   3.529
 1260TIP3   OH2 3736   2.248   1.276   1.557
 1260TIP3    H1 3737   2.300   1.264   1.478
 1260TIP3    H2 3738   2.311   1.266   1.629
 1261TIP3   OH2 3739   6.978   5.363   1.693
 1261TIP3    H1 3740   7.022   5.447   1.701
 1261TIP3    H2 3741   7.047   5.301   1.668
 1262TIP3   OH2 3742   3.554   1.952   6.692
 1262TIP3    H1 3743   3.489   1.882   6.697
 1262TIP3    H2 3744   3.526   2.006   6.619
 1263TIP3   OH2 3745   5.327   3.861   0.465
 1263TIP3    H1 3746   5.393   3.832   0.529
 1263TIP3    H2 3747   5.339   3.956   0.461
 1264TIP3   OH2 3748   3.082   4.707   2.511
 1264TIP3    H1 3749   3.156   4.646   2.505
 1264TIP3    H2 3750   3.119   4.786   2.551
 1265TIP3   OH2 3751   5.305   5.394   2.164
 1265TIP3    H1 3752   5.326   5.455   2.233
 1265TIP3    H2 3753   5.222   5.426   2.128
 1266TIP3   OH2 3754   1.920   0.187   3.850
 1266TIP3    H1 3755   1.906   0.269   3.898
 1266TIP3    H2 3756   1.937   0.215   3.760
 1267TIP3   OH2 3757   5.052   7.275   4.226
 1267TIP3    H1 3758   5.057   7.348   4.164
 1267TIP3    H2 3759   5.058   7.197   4.171
 1268TIP3   OH2 3760   1.289   3.844   0.017
 1268TIP3    H1 3761   1.259   3.828   0.107
 1268TIP3    H2 3762   1.337   3.765  -0.007
 1269TIP3   OH2 3763   6.673   0.806   2.910
 1269TIP3    H1 3764   6.583   0.788   2.886
 1269TIP3    H2 3765   6.673   0.899   2.937
 1270TIP3   OH2 3766   2.181   1.196   1.885
 1270TIP3    H1 3767   2.261   1.144   1.877
 1270TIP3    H2 3768   2.132   1.176   1.805
 1271TIP3   OH2 3769   7.373   2.657   2.321
 1271TIP3    H1 3770   7.434   2.703   2.378
 1271TIP3    H2 3771   7.295   2.712   2.318
 1272TIP3   OH2 3772   3.851   0.218   3.131
 1272TIP3    H1 3773   3.822   0.177   3.049
 1272TIP3    H2 3774   3.844   0.312   3.114
 1273TIP3   OH2 3775   0.181   0.720   5.989
 1273TIP3    H1 3776   0.198   0.629   6.015
 1273TIP3    H2 3777   0.122   0.712   5.914
 1274TIP3   OH2 3778   3.683   5.368   3.874
 1274TIP3    H1 3779   3.645   5.282   3.857
 1274TIP3    H2 3780   3.700   5.368   3.969
 1275TIP3   OH2 3781   5.525   0.267   6.385
 1275TIP3    H1 3782   5.433   0.291   6.392
 1275TIP3    H2 3783   5.572   0.349   6.395
 1276TIP3   OH2 3784   3.669   4.933   3.105
 1276TIP3    H1 3785   3.634   4.846   3.089
 1276TIP3    H2 3786   3.751   4.917   3.153
 1277TIP3   OH2 3787   2.323   0.916   5.876
 1277TIP3    H1 3788   2.381   0.967   5.819
 1277TIP3    H2 3789   2.332   0.826   5.845
 1278TIP3   OH2 3790   3.795   0.127   2.501
 1278TIP3    H1 3791   3.773   0.040   2.469
 1278TIP3    H2 3792   3.797   0.182   2.423
 1279TIP3   OH2 3793   2.159   3.282   6.016
 1279TIP3    H1 3794   2.250   3.295   6.040
 1279TIP3    H2 3795   2.134   3.201   6.061
 1280TIP3   OH2 3796   0.502   5.958   5.898
 1280TIP3    H1 3797   0.560   6.028   5.929
 1280TIP3    H2 3798   0.449   5.934   5.975
 1281TIP3   OH2 3799   2.389   1.046   4.737
 1281TIP3    H1 3800   2.400   1.105   4.663
 1281TIP3    H2 3801   2.294   1.033   4.744
 1282TIP3   OH2 3802   3.214   4.455   4.797
 1282TIP3    H1 3803   3.292   4.506   4.818
 1282TIP3    H2 3804   3.212   4.453   4.701
 1283TIP3   OH2 3805   0.275   4.389   1.454
 1283TIP3    H1 3806   0.254   4.296   1.456
 1283TIP3    H2 3807   0.191   4.433   1.464
 1284TIP3   OH2 3808   0.283   3.366   4.293
 1284TIP3    H1 3809   0.371   3.333   4.277
 1284TIP3    H2 3810   0.227   3.313   4.236
 1285TIP3   OH2 3811   6.880   3.570   4.782
 1285TIP3    H1 3812   6.843   3.571   4.870
 1285TIP3    H2 3813   6.894   3.477   4.763
 1286TIP3   OH2 3814   0.585   5.123   0.908
 1286TIP3    H1 3815   0.674   5.089   0.917
 1286TIP3    H2 3816   0.588   5.208   0.952
 1287TIP3   OH2 3817   6.205   1.421   4.522
 1287TIP3    H1 3818   6.165   1.475   4.589
 1287TIP3    H2 3819   6.245   1.483   4.461
 1288TIP3   OH2 3820   6.480   1.798   6.631
 1288TIP3    H1 3821   6.572   1.775   6.632
 1288TIP3    H2 3822   6.477   1.889   6.660
 1289TIP3   OH2 3823   3.928   1.054   0.157
 1289TIP3    H1 3824   3.990   0.999   0.205
 1289TIP3    H2 3825   3.975   1.136   0.144
 1290TIP3   OH2 3826   4.456   6.929   6.261
 1290TIP3    H1 3827   4.512   6.974   6.198
 1290TIP3    H2 3828   4.373   6.977   6.258
 1291TIP3   OH2 3829   4.813   4.291   2.740
 1291TIP3    H1 3830   4.854   4.377   2.745
 1291TIP3    H2 3831   4.726   4.303   2.779
 1292TIP3   OH2 3832   0.359   0.664   4.901
 1292TIP3    H1 3833   0.286   0.726   4.900
 1292TIP3    H2 3834   0.394   0.670   4.990
 1293TIP3   OH2 3835   0.501   7.641   2.988
 1293TIP3    H1 3836   0.424   7.699   2.986
 1293TIP3    H2 3837   0.506   7.611   3.078
 1294TIP3   OH2 3838   3.367   5.679   6.194
 1294TIP3    H1 3839   3.324   5.641   6.271
 1294TIP3    H2 3840   3.452   5.635   6.190
 1295TIP3   OH2 3841   3.685   3.610   2.045
 1295TIP3    H1 3842   3.610   3.609   2.105
 1295TIP3    H2 3843   3.750   3.665   2.088
 1296TIP3   OH2 3844   6.880   2.783   3.126
 1296TIP3    H1 3845   6.904   2.845   3.195
 1296TIP3    H2 3846   6.956   2.780   3.068
 1297TIP3   OH2 3847   6.570   4.131   2.749
 1297TIP3    H1 3848   6.654   4.155   2.709
 1297TIP3    H2 3849   6.591   4.115   2.841
 1298TIP3   OH2 3850   6.967   4.095   6.537
 1298TIP3    H1 3851   7.056   4.115   6.510
 1298TIP3    H2 3852   6.975   4.020   6.596
 1299TIP3   OH2 3853   1.255   7.181   0.135
 1299TIP3    H1 3854   1.321   7.233   0.182
 1299TIP3    H2 3855   1.211   7.130   0.204
 1300TIP3   OH2 3856   3.576   4.168   6.738
 1300TIP3    H1 3857   3.520   4.163   6.661
 1300TIP3    H2 3858   3.529   4.224   6.799
 1301TIP3   OH2 3859   2.265   0.752   1.960
 1301TIP3    H1 3860   2.272   0.670   2.009
 1301TIP3    H2 3861   2.325   0.743   1.887
 1302TIP3   OH2 3862   0.266   1.497   1.092
 1302TIP3    H1 3863   0.197   1.451   1.044
 1302TIP3    H2 3864   0.262   1.461   1.181
 1303TIP3   OH2 3865   0.176   5.934   3.290
 1303TIP3    H1 3866   0.261   5.945   3.332
 1303TIP3    H2 3867   0.196   5.916   3.198
 1304TIP3   OH2 3868   7.538   0.939   3.326
 1304TIP3    H1 3869   7.458   0.897   3.297
 1304TIP3    H2 3870   7.603   0.869   3.330
 1305TIP3   OH2 3871   6.141   7.754   5.894
 1305TIP3    H1 3872   6.216   7.714   5.849
 1305TIP3    H2 3873   6.081   7.779   5.824
 1306TIP3   OH2 3874   2.684   7.568   2.162
 1306TIP3    H1 3875   2.735   7.568   2.243
 1306TIP3    H2 3876   2.744   7.602   2.096
 1307TIP3   OH2 3877   3.603   2.518   6.498
 1307TIP3    H1 3878   3.582   2.506   6.406
 1307TIP3    H2 3879   3.518   2.531   6.540
 1308TIP3   OH2 3880   0.068   5.230   3.857
 1308TIP3    H1 3881   0.108   5.205   3.940
 1308TIP3    H2 3882  -0.011   5.177   3.851
 1309TIP3   OH2 3883   2.885   1.883   2.063
 1309TIP3    H1 3884   2.845   1.803   2.096
 1309TIP3    H2 3885   2.966   1.892   2.114
 1310TIP3   OH2 3886   1.697   2.799   2.144
 1310TIP3    H1 3887   1.789   2.819   2.162
 1310TIP3    H2 3888   1.651   2.882   2.158
 1311TIP3   OH2 3889   4.907   0.445   1.555
 1311TIP3    H1 3890   4.819   0.473   1.533
 1311TIP3    H2 3891   4.961   0.474   1.481
 1312TIP3   OH2 3892   0.347   0.670   6.557
 1312TIP3    H1 3893   0.415   0.737   6.550
 1312TIP3    H2 3894   0.325   0.648   6.467
 1313TIP3   OH2 3895   1.119   0.095   2.813
 1313TIP3    H1 3896   1.068   0.066   2.889
 1313TIP3    H2 3897   1.059   0.083   2.739
 1314TIP3   OH2 3898   6.081   3.722   2.145
 1314TIP3    H1 3899   6.045   3.659   2.084
 1314TIP3    H2 3900   6.146   3.770   2.094
 1315TIP3   OH2 3901   6.191   7.719   6.185
 1315TIP3    H1 3902   6.208   7.738   6.093
 1315TIP3    H2 3903   6.154   7.800   6.220
 1316TIP3   OH2 3904   4.600   5.252   4.994
 1316TIP3    H1 3905   4.625   5.305   4.918
 1316TIP3    H2 3906   4.516   5.288   5.021
 1317TIP3   OH2 3907   3.167   6.047   0.757
 1317TIP3    H1 3908   3.199   6.046   0.667
 1317TIP3    H2 3909   3.246   6.053   0.811
 1318TIP3   OH2 3910   1.109   6.098   0.757
 1318TIP3    H1 3911   1.154   6.071   0.677
 1318TIP3    H2 3912   1.102   6.018   0.809
 1319TIP3   OH2 3913   3.600  -0.031   6.685
 1319TIP3    H1 3914   3.578   0.049   6.637
 1319TIP3    H2 3915   3.679  -0.063   6.643
 1320TIP3   OH2 3916   8.130   2.780   4.567
 1320TIP3    H1 3917   8.073   2.825   4.505
 1320TIP3    H2 3918   8.212   2.829   4.564
 1321TIP3   OH2 3919   1.666   4.039   6.796
 1321TIP3    H1 3920   1.732   4.073   6.857
 1321TIP3    H2 3921   1.711   3.971   6.746
 1322TIP3   OH2 3922   7.521   0.225   2.109
 1322TIP3    H1 3923   7.604   0.198   2.069
 1322TIP3    H2 3924   7.455   0.170   2.066
 1323TIP3   OH2 3925   7.879   5.884   4.001
 1323TIP3    H1 3926   7.847   5.797   3.980
 1323TIP3    H2 3927   7.973   5.879   3.990
 1324TIP3   OH2 3928   3.724   6.276   3.992
 1324TIP3    H1 3929   3.710   6.353   3.936
 1324TIP3    H2 3930   3.766   6.212   3.935
 1325TIP3   OH2 3931   1.450   7.102   4.597
 1325TIP3    H1 3932   1.431   7.181   4.648
 1325TIP3    H2 3933   1.388   7.037   4.631
 1326TIP3   OH2 3934   5.245   5.169   0.749
 1326TIP3    H1 3935   5.325   5.206   0.786
 1326TIP3    H2 3936   5.239   5.082   0.786
 1327TIP3   OH2 3937   3.545   0.360   4.065
 1327TIP3    H1 3938   3.639   0.369   4.078
 1327TIP3    H2 3939   3.533   0.358   3.970
 1328TIP3   OH2 3940   7.206   7.387   5.714
 1328TIP3    H1 3941   7.144   7.460   5.715
 1328TIP3    H2 3942   7.258   7.400   5.793
 1329TIP3   OH2 3943   2.979  -0.004   0.021
 1329TIP3    H1 3944   2.961  -0.097   0.007
 1329TIP3    H2 3945   2.934   0.017   0.103
 1330TIP3   OH2 3946   0.710   1.595   5.957
 1330TIP3    H1 3947   0.717   1.501   5.938
 1330TIP3    H2 3948   0.702   1.636   5.870
 1331TIP3   OH2 3949   3.749   0.481   5.859
 1331TIP3    H1 3950   3.808   0.549   5.892
 1331TIP3    H2 3951   3.663   0.524   5.856
 1332TIP3   OH2 3952   5.597   0.805   1.558
 1332TIP3    H1 3953   5.669   0.788   1.619
 1332TIP3    H2 3954   5.592   0.726   1.504
 1333TIP3   OH2 3955   1.107   6.925   5.027
 1333TIP3    H1 3956   1.194   6.921   4.988
 1333TIP3    H2 3957   1.111   7.000   5.087
 1334TIP3   OH2 3958   2.916   3.345   2.789
 1334TIP3    H1 3959   2.837   3.343   2.735
 1334TIP3    H2 3960   2.988   3.357   2.726
 1335TIP3   OH2 3961   1.992   2.061   3.771
 1335TIP3    H1 3962   2.058   2.018   3.716
 1335TIP3    H2 3963   2.026   2.149   3.785
 1336TIP3   OH2 3964   2.951   7.274   3.668
 1336TIP3    H1 3965   2.980   7.315   3.587
 1336TIP3    H2 3966   2.895   7.202   3.640
 1337TIP3   OH2 3967   1.162   7.621   5.198
 1337TIP3    H1 3968   1.188   7.587   5.283
 1337TIP3    H2 3969   1.080   7.667   5.215
 1338TIP3   OH2 3970   6.853   5.469   3.176
 1338TIP3    H1 3971   6.871   5.552   3.219
 1338TIP3    H2 3972   6.842   5.491   3.083
 1339TIP3   OH2 3973   4.768   0.962   4.858
 1339TIP3    H1 3974   4.759   0.966   4.763
 1339TIP3    H2 3975   4.686   0.924   4.889
 1340TIP3   OH2 3976   1.007   6.113   5.345
 1340TIP3    H1 3977   0.972   6.048   5.405
 1340TIP3    H2 3978   1.037   6.062   5.269
 1341TIP3   OH2 3979   3.756   2.337   6.670
 1341TIP3    H1 3980   3.718   2.393   6.602
 1341TIP3    H2 3981   3.682   2.317   6.728
 1342TIP3   OH2 3982   1.553   2.788   6.680
 1342TIP3    H1 3983   1.572   2.816   6.770
 1342TIP3    H2 3984   1.510   2.864   6.640
 1343TIP3   OH2 3985   0.643   0.263   0.820
 1343TIP3    H1 3986   0.699   0.296   0.891
 1343TIP3    H2 3987   0.667   0.171   0.811
 1344TIP3   OH2 3988   4.626   3.517   0.901
 1344TIP3    H1 3989   4.689   3.500   0.832
 1344TIP3    H2 3990   4.549   3.466   0.878
 1345TIP3   OH2 3991   2.053   0.339   1.994
 1345TIP3    H1 3992   1.979   0.391   2.024
 1345TIP3    H2 3993   2.127   0.372   2.046
 1346TIP3   OH2 3994   7.907   0.116   1.394
 1346TIP3    H1 3995   8.002   0.107   1.403
 1346TIP3    H2 3996   7.873   0.028   1.413
 1347TIP3   OH2 3997   4.210   5.207   5.851
 1347TIP3    H1 3998   4.291   5.165   5.878
 1347TIP3    H2 3999   4.225   5.300   5.866
 1348TIP3   OH2 4000   8.297   2.977   5.383
 1348TIP3    H1 4001   8.371   2.924   5.411
 1348TIP3    H2 4002   8.223   2.945   5.435
 1349TIP3   OH2 4003   1.335   1.586   0.232
 1349TIP3    H1 4004   1.426   1.613   0.247
 1349TIP3    H2 4005   1.287   1.669   0.223
 1350TIP3   OH2 4006   6.339   4.493   4.911
 1350TIP3    H1 4007   6.292   4.425   4.863
 1350TIP3    H2 4008   6.407   4.523   4.851
 1351TIP3   OH2 4009   2.699   5.606   5.740
 1351TIP3    H1 4010   2.692   5.511   5.753
 1351TIP3    H2 4011   2.698   5.617   5.645
 1352TIP3   OH2 4012   6.432   1.452   2.633
 1352TIP3    H1 4013   6.446   1.489   2.546
 1352TIP3    H2 4014   6.444   1.358   2.621
 1353TIP3   OH2 4015   3.258   0.172   2.662
 1353TIP3    H1 4016   3.205   0.140   2.589
 1353TIP3    H2 4017   3.347   0.174   2.627
 1354TIP3   OH2 4018   3.151   2.227   3.176
 1354TIP3    H1 4019   3.229   2.278   3.154
 1354TIP3    H2 4020   3.176   2.137   3.157
 1355TIP3   OH2 4021   5.648   4.131   1.433
 1355TIP3    H1 4022   5.732   4.087   1.447
 1355TIP3    H2 4023   5.583   4.063   1.448
 1356TIP3   OH2 4024   5.115   4.724   2.591
 1356TIP3    H1 4025   5.028   4.702   2.557
 1356TIP3    H2 4026   5.144   4.798   2.537
 1357TIP3   OH2 4027   2.634   2.248   4.019
 1357TIP3    H1 4028   2.616   2.339   4.043
 1357TIP3    H2 4029   2.623   2.199   4.100
 1358TIP3   OH2 4030   6.734   0.891   6.102
 1358TIP3    H1 4031   6.762   0.830   6.034
 1358TIP3    H2 4032   6.816   0.922   6.140
 1359TIP3   OH2 4033   4.995   3.216   3.498
 1359TIP3    H1 4034   4.917   3.237   3.550
 1359TIP3    H2 4035   4.973   3.133   3.456
 1360TIP3   OH2 4036   3.276   3.218   4.894
 1360TIP3    H1 4037   3.266   3.187   4.984
 1360TIP3    H2 4038   3.187   3.216   4.858
 1361TIP3   OH2 4039   2.160   5.432   0.181
 1361TIP3    H1 4040   2.099   5.360   0.163
 1361TIP3    H2 4041   2.207   5.445   0.099
 1362TIP3   OH2 4042   3.825   1.929   6.736
 1362TIP3    H1 4043   3.742   1.975   6.747
 1362TIP3    H2 4044   3.848   1.943   6.644
 1363TIP3   OH2 4045   2.207   3.803   5.841
 1363TIP3    H1 4046   2.164   3.743   5.780
 1363TIP3    H2 4047   2.252   3.866   5.785
 1364TIP3   OH2 4048   0.423   2.568   5.711
 1364TIP3    H1 4049   0.331   2.549   5.694
 1364TIP3    H2 4050   0.436   2.542   5.803
 1365TIP3   OH2 4051   2.145   6.496   6.203
 1365TIP3    H1 4052   2.058   6.478   6.240
 1365TIP3    H2 4053   2.151   6.440   6.126
 1366TIP3   OH2 4054   5.024   6.999   0.138
 1366TIP3    H1 4055   5.021   7.070   0.202
 1366TIP3    H2 4056   5.083   6.934   0.178
 1367TIP3   OH2 4057   1.674   1.922   3.423
 1367TIP3    H1 4058   1.714   2.004   3.451
 1367TIP3    H2 4059   1.579   1.938   3.429
 1368TIP3   OH2 4060   6.955   1.070   4.279
 1368TIP3    H1 4061   6.950   1.141   4.216
 1368TIP3    H2 4062   6.964   0.991   4.226
 1369TIP3   OH2 4063   0.024   7.072   3.055
 1369TIP3    H1 4064  -0.007   7.116   3.135
 1369TIP3    H2 4065   0.110   7.110   3.038
 1370TIP3   OH2 4066   3.247   0.584   6.370
 1370TIP3    H1 4067   3.170   0.528   6.375
 1370TIP3    H2 4068   3.260   0.616   6.460
 1371TIP3   OH2 4069   3.877   0.463   1.447
 1371TIP3    H1 4070   3.796   0.490   1.403
 1371TIP3    H2 4071   3.947   0.486   1.386
 1372TIP3   OH2 4072   3.968   2.554   2.390
 1372TIP3    H1 4073   3.940   2.566   2.480
 1372TIP3    H2 4074   3.962   2.640   2.350
 1373TIP3   OH2 4075   6.041   0.030   0.707
 1373TIP3    H1 4076   6.018   0.086   0.782
 1373TIP3    H2 4077   6.121   0.069   0.672
 1374TIP3   OH2 4078   3.187   1.505   0.590
 1374TIP3    H1 4079   3.133   1.468   0.521
 1374TIP3    H2 4080   3.187   1.438   0.659
 1375TIP3   OH2 4081   3.447   3.321   3.300
 1375TIP3    H1 4082   3.434   3.397   3.244
 1375TIP3    H2 4083   3.505   3.351   3.369
 1376TIP3   OH2 4084   3.243   3.014   3.854
 1376TIP3    H1 4085   3.179   2.944   3.865
 1376TIP3    H2 4086   3.221   3.078   3.921
 1377TIP3   OH2 4087   5.608   4.827   4.143
 1377TIP3    H1 4088   5.528   4.877   4.128
 1377TIP3    H2 4089   5.665   4.887   4.191
 1378TIP3   OH2 4090   6.126   3.364   6.166
 1378TIP3    H1 4091   6.040   3.391   6.200
 1378TIP3    H2 4092   6.186   3.375   6.240
 1379TIP3   OH2 4093   1.160   4.306   2.639
 1379TIP3    H1 4094   1.156   4.391   2.683
 1379TIP3    H2 4095   1.232   4.261   2.683
 1380TIP3   OH2 4096   4.584   2.117   3.854
 1380TIP3    H1 4097   4.628   2.032   3.849
 1380TIP3    H2 4098   4.579   2.136   3.947
 1381TIP3   OH2 4099   0.310   2.123   2.177
 1381TIP3    H1 4100   0.313   2.159   2.265
 1381TIP3    H2 4101   0.245   2.177   2.132
 1382TIP3   OH2 4102   7.399   7.612   0.164
 1382TIP3    H1 4103   7.334   7.557   0.206
 1382TIP3    H2 4104   7.472   7.553   0.145
 1383TIP3   OH2 4105   6.155   5.003   4.504
 1383TIP3    H1 4106   6.105   4.937   4.552
 1383TIP3    H2 4107   6.240   5.005   4.549
 1384TIP3   OH2 4108   4.370   5.192   4.446
 1384TIP3    H1 4109   4.313   5.126   4.486
 1384TIP3    H2 4110   4.456   5.151   4.442
 1385TIP3   OH2 4111   4.843   5.647   5.024
 1385TIP3    H1 4112   4.897   5.568   5.033
 1385TIP3    H2 4113   4.875   5.689   4.944
 1386TIP3   OH2 4114   3.357   0.745   0.345
 1386TIP3    H1 4115   3.395   0.796   0.273
 1386TIP3    H2 4116   3.334   0.810   0.411
 1387TIP3   OH2 4117   0.934   7.444   5.848
 1387TIP3    H1 4118   1.017   7.424   5.804
 1387TIP3    H2 4119   0.871   7.454   5.777
 1388TIP3   OH2 4120   2.109   4.320   4.272
 1388TIP3    H1 4121   2.042   4.320   4.205
 1388TIP3    H2 4122   2.141   4.411   4.275
 1389TIP3   OH2 4123   6.079   1.294   3.425
 1389TIP3    H1 4124   6.050   1.211   3.462
 1389TIP3    H2 4125   6.142   1.269   3.357
 1390TIP3   OH2 4126   0.709   4.381   2.868
 1390TIP3    H1 4127   0.711   4.335   2.784
 1390TIP3    H2 4128   0.731   4.314   2.932
 1391TIP3   OH2 4129   2.441   2.002   0.445
 1391TIP3    H1 4130   2.519   1.999   0.500
 1391TIP3    H2 4131   2.368   2.001   0.507
 1392TIP3   OH2 4132   5.239   1.015   0.831
 1392TIP3    H1 4133   5.235   1.077   0.904
 1392TIP3    H2 4134   5.211   1.066   0.755
 1393TIP3   OH2 4135   6.139   5.795   2.249
 1393TIP3    H1 4136   6.160   5.885   2.223
 1393TIP3    H2 4137   6.117   5.802   2.341
 1394TIP3   OH2 4138   6.231   2.949   6.564
 1394TIP3    H1 4139   6.185   2.994   6.493
 1394TIP3    H2 4140   6.288   3.016   6.601
 1395TIP3   OH2 4141   2.420   3.588   6.600
 1395TIP3    H1 4142   2.401   3.680   6.585
 1395TIP3    H2 4143   2.335   3.547   6.617
 1396TIP3   OH2 4144   2.623   6.191   1.835
 1396TIP3    H1 4145   2.551   6.214   1.776
 1396TIP3    H2 4146   2.587   6.206   1.923
 1397TIP3   OH2 4147   5.385   5.041   4.748
 1397TIP3    H1 4148   5.359   5.106   4.683
 1397TIP3    H2 4149   5.444   4.982   4.702
 1398TIP3   OH2 4150   1.994   6.680   5.516
 1398TIP3    H1 4151   1.994   6.587   5.535
 1398TIP3    H2 4152   2.074   6.695   5.466
 1399TIP3   OH2 4153   8.163   7.715   4.670
 1399TIP3    H1 4154   8.199   7.731   4.757
 1399TIP3    H2 4155   8.223   7.758   4.610
 1400TIP3   OH2 4156   5.451   7.689   4.832
 1400TIP3    H1 4157   5.408   7.609   4.862
 1400TIP3    H2 4158   5.543   7.663   4.820
 1401TIP3   OH2 4159   7.687   1.767   5.210
 1401TIP3    H1 4160   7.740   1.834   5.253
 1401TIP3    H2 4161   7.660   1.708   5.281
 1402TIP3   OH2 4162   0.188   4.948   2.486
 1402TIP3    H1 4163   0.201   4.875   2.547
 1402TIP3    H2 4164   0.101   4.933   2.450
 1403TIP3   OH2 4165   4.647   3.362   3.824
 1403TIP3    H1 4166   4.552   3.358   3.834
 1403TIP3    H2 4167   4.681   3.322   3.904
 1404TIP3   OH2 4168   1.885   4.427   4.077
 1404TIP3    H1 4169   1.851   4.422   4.166
 1404TIP3    H2 4170   1.807   4.421   4.022
 1405TIP3   OH2 4171   5.968   3.496   0.264
 1405TIP3    H1 4172   5.953   3.568   0.203
 1405TIP3    H2 4173   6.000   3.538   0.344
 1406TIP3   OH2 4174   6.428   3.551   2.725
 1406TIP3    H1 4175   6.363   3.533   2.792
 1406TIP3    H2 4176   6.388   3.520   2.643
 1407TIP3   OH2 4177   0.208   3.957   2.491
 1407TIP3    H1 4178   0.262   3.904   2.550
 1407TIP3    H2 4179   0.140   3.993   2.547
 1408TIP3   OH2 4180   6.975   6.437   3.828
 1408TIP3    H1 4181   7.047   6.389   3.869
 1408TIP3    H2 4182   6.898   6.383   3.848
 1409TIP3   OH2 4183   6.502   1.215   1.389
 1409TIP3    H1 4184   6.464   1.235   1.303
 1409TIP3    H2 4185   6.552   1.293   1.411
 1410TIP3   OH2 4186   8.289   6.052   6.571
 1410TIP3    H1 4187   8.351   6.026   6.638
 1410TIP3    H2 4188   8.258   5.970   6.532
 1411TIP3   OH2 4189   5.634   4.045   3.233
 1411TIP3    H1 4190   5.566   3.994   3.278
 1411TIP3    H2 4191   5.716   4.005   3.261
 1412TIP3   OH2 4192   4.291   2.910   2.209
 1412TIP3    H1 4193   4.354   2.839   2.193
 1412TIP3    H2 4194   4.343   2.978   2.253
 1413TIP3   OH2 4195   7.395   4.593   5.475
 1413TIP3    H1 4196   7.430   4.627   5.392
 1413TIP3    H2 4197   7.470   4.550   5.516
 1414TIP3   OH2 4198   5.898   7.470   5.743
 1414TIP3    H1 4199   5.902   7.447   5.836
 1414TIP3    H2 4200   5.949   7.402   5.699
 1415TIP3   OH2 4201   7.214   0.347   0.256
 1415TIP3    H1 4202   7.279   0.277   0.251
 1415TIP3    H2 4203   7.215   0.387   0.169
 1416TIP3   OH2 4204   7.708   1.103   0.515
 1416TIP3    H1 4205   7.775   1.164   0.545
 1416TIP3    H2 4206   7.676   1.141   0.434
 1417TIP3   OH2 4207   8.311   1.007   2.698
 1417TIP3    H1 4208   8.277   0.985   2.785
 1417TIP3    H2 4209   8.237   1.048   2.653
 1418TIP3   OH2 4210   1.974   0.251   0.090
 1418TIP3    H1 4211   1.926   0.202   0.023
 1418TIP3    H2 4212   1.931   0.228   0.172
 1419TIP3   OH2 4213   4.738   4.823   3.314
 1419TIP3    H1 4214   4.742   4.759   3.243
 1419TIP3    H2 4215   4.830   4.842   3.334
 1420TIP3   OH2 4216   5.251   3.991   4.918
 1420TIP3    H1 4217   5.206   4.014   4.837
 1420TIP3    H2 4218   5.226   3.899   4.933
 1421TIP3   OH2 4219   0.509   1.797   4.992
 1421TIP3    H1 4220   0.460   1.723   4.957
 1421TIP3    H2 4221   0.484   1.800   5.085
 1422TIP3   OH2 4222   2.796   5.283   5.242
 1422TIP3    H1 4223   2.808   5.267   5.335
 1422TIP3    H2 4224   2.879   5.259   5.202
 1423TIP3   OH2 4225   3.665   2.500   5.261
 1423TIP3    H1 4226   3.716   2.437   5.312
 1423TIP3    H2 4227   3.625   2.447   5.192
 1424TIP3   OH2 4228   4.038   1.767   3.929
 1424TIP3    H1 4229   4.002   1.678   3.928
 1424TIP3    H2 4230   4.097   1.770   3.854
 1425TIP3   OH2 4231   4.407   4.399   0.095
 1425TIP3    H1 4232   4.361   4.385   0.012
 1425TIP3    H2 4233   4.481   4.339   0.092
 1426TIP3   OH2 4234   2.541   0.269   0.293
 1426TIP3    H1 4235   2.460   0.277   0.243
 1426TIP3    H2 4236   2.520   0.304   0.379
 1427TIP3   OH2 4237   0.586   0.079   2.081
 1427TIP3    H1 4238   0.652   0.027   2.035
 1427TIP3    H2 4239   0.543   0.131   2.013
 1428TIP3   OH2 4240   4.813   4.570   2.504
 1428TIP3    H1 4241   4.852   4.496   2.549
 1428TIP3    H2 4242   4.790   4.631   2.574
 1429TIP3   OH2 4243   2.392   6.919   1.753
 1429TIP3    H1 4244   2.303   6.886   1.770
 1429TIP3    H2 4245   2.395   7.003   1.799
 1430TIP3   OH2 4246   1.308   2.680   4.668
 1430TIP3    H1 4247   1.384   2.733   4.691
 1430TIP3    H2 4248   1.326   2.594   4.707
 1431TIP3   OH2 4249   7.878   2.837   1.185
 1431TIP3    H1 4250   7.786   2.856   1.167
 1431TIP3    H2 4251   7.885   2.843   1.281
 1432TIP3   OH2 4252   7.697   2.372   1.893
 1432TIP3    H1 4253   7.704   2.443   1.957
 1432TIP3    H2 4254   7.761   2.307   1.922
 1433TIP3   OH2 4255   0.706   7.513   1.546
 1433TIP3    H1 4256   0.721   7.434   1.494
 1433TIP3    H2 4257   0.762   7.579   1.505
 1434TIP3   OH2 4258   2.440   1.934   1.593
 1434TIP3    H1 4259   2.364   1.954   1.538
 1434TIP3    H2 4260   2.407   1.941   1.683
 1435TIP3   OH2 4261   7.227   0.175   6.547
 1435TIP3    H1 4262   7.191   0.231   6.616
 1435TIP3    H2 4263   7.280   0.110   6.593
 1436TIP3   OH2 4264   7.661   5.762   5.511
 1436TIP3    H1 4265   7.616   5.835   5.554
 1436TIP3    H2 4266   7.753   5.776   5.530
 1437TIP3   OH2 4267   3.202   6.839   0.419
 1437TIP3    H1 4268   3.227   6.836   0.512
 1437TIP3    H2 4269   3.276   6.798   0.374
 1438TIP3   OH2 4270   4.443   1.488   6.385
 1438TIP3    H1 4271   4.443   1.451   6.297
 1438TIP3    H2 4272   4.490   1.424   6.439
 1439TIP3   OH2 4273   4.394   2.775   3.612
 1439TIP3    H1 4274   4.402   2.761   3.517
 1439TIP3    H2 4275   4.477   2.744   3.648
 1440TIP3   OH2 4276   4.214   6.798   5.286
 1440TIP3    H1 4277   4.254   6.817   5.371
 1440TIP3    H2 4278   4.259   6.719   5.256
 1441TIP3   OH2 4279   1.511   4.951   5.514
 1441TIP3    H1 4280   1.454   5.027   5.526
 1441TIP3    H2 4281   1.478   4.907   5.436
 1442TIP3   OH2 4282   6.321   5.357   4.445
 1442TIP3    H1 4283   6.301   5.432   4.389
 1442TIP3    H2 4284   6.255   5.361   4.514
 1443TIP3   OH2 4285   3.856   6.968   4.982
 1443TIP3    H1 4286   3.859   6.922   5.066
 1443TIP3    H2 4287   3.910   6.916   4.923
 1444TIP3   OH2 4288   8.082   7.432   2.553
 1444TIP3    H1 4289   8.075   7.337   2.554
 1444TIP3    H2 4290   8.028   7.461   2.626
 1445TIP3   OH2 4291   7.824   2.274   4.022
 1445TIP3    H1 4292   7.801   2.256   3.931
 1445TIP3    H2 4293   7.794   2.364   4.037
 1446TIP3   OH2 4294   2.770   6.668   2.617
 1446TIP3    H1 4295   2.760   6.764   2.615
 1446TIP3    H2 4296   2.706   6.636   2.554
 1447TIP3   OH2 4297   6.957   6.378   1.100
 1447TIP3    H1 4298   6.964   6.453   1.160
 1447TIP3    H2 4299   6.972   6.301   1.156
 1448TIP3   OH2 4300   0.783   7.482   4.811
 1448TIP3    H1 4301   0.692   7.513   4.810
 1448TIP3    H2 4302   0.787   7.423   4.886
 1449TIP3   OH2 4303   4.308   1.522   5.126
 1449TIP3    H1 4304   4.236   1.462   5.105
 1449TIP3    H2 4305   4.378   1.497   5.066
 1450TIP3   OH2 4306   5.310   3.555   5.805
 1450TIP3    H1 4307   5.280   3.490   5.869
 1450TIP3    H2 4308   5.253   3.540   5.729
 1451TIP3   OH2 4309   6.437   5.921   1.139
 1451TIP3    H1 4310   6.467   5.831   1.150
 1451TIP3    H2 4311   6.387   5.940   1.219
 1452TIP3   OH2 4312   3.004   5.461   3.602
 1452TIP3    H1 4313   3.052   5.391   3.645
 1452TIP3    H2 4314   2.957   5.418   3.531
 1453TIP3   OH2 4315   4.007   6.518   1.604
 1453TIP3    H1 4316   4.022   6.479   1.518
 1453TIP3    H2 4317   4.082   6.577   1.618
 1454TIP3   OH2 4318   2.266   3.747   5.291
 1454TIP3    H1 4319   2.222   3.741   5.375
 1454TIP3    H2 4320   2.353   3.709   5.306
 1455TIP3   OH2 4321   7.973   4.823   4.826
 1455TIP3    H1 4322   7.910   4.894   4.838
 1455TIP3    H2 4323   8.042   4.842   4.890
 1456TIP3   OH2 4324   2.245   6.974   2.157
 1456TIP3    H1 4325   2.317   7.034   2.179
 1456TIP3    H2 4326   2.166   7.024   2.176
 1457TIP3   OH2 4327   3.392   0.133   4.537
 1457TIP3    H1 4328   3.373   0.132   4.444
 1457TIP3    H2 4329   3.473   0.185   4.545
 1458TIP3   OH2 4330   5.006   1.884   3.047
 1458TIP3    H1 4331   5.046   1.969   3.064
 1458TIP3    H2 4332   5.079   1.823   3.043
 1459TIP3   OH2 4333   8.132   6.953   2.244
 1459TIP3    H1 4334   8.204   6.934   2.184
 1459TIP3    H2 4335   8.133   7.049   2.253
 1460TIP3   OH2 4336   6.119   3.078   3.220
 1460TIP3    H1 4337   6.031   3.114   3.224
 1460TIP3    H2 4338   6.107   2.984   3.236
 1461TIP3   OH2 4339   5.130   7.169   5.772
 1461TIP3    H1 4340   5.216   7.159   5.730
 1461TIP3    H2 4341   5.081   7.227   5.714
 1462TIP3   OH2 4342   3.795   3.421   4.062
 1462TIP3    H1 4343   3.710   3.377   4.072
 1462TIP3    H2 4344   3.776   3.513   4.081
 1463TIP3   OH2 4345   7.475   5.836   3.518
 1463TIP3    H1 4346   7.437   5.759   3.476
 1463TIP3    H2 4347   7.510   5.888   3.446
 1464TIP3   OH2 4348   3.971   4.492   3.673
 1464TIP3    H1 4349   4.004   4.445   3.596
 1464TIP3    H2 4350   3.997   4.437   3.747
 1465TIP3   OH2 4351   4.184   1.182   3.587
 1465TIP3    H1 4352   4.173   1.198   3.681
 1465TIP3    H2 4353   4.160   1.265   3.545
 1466TIP3   OH2 4354   2.847   5.920   6.605
 1466TIP3    H1 4355   2.924   5.934   6.549
 1466TIP3    H2 4356   2.826   6.008   6.638
 1467TIP3   OH2 4357   7.584   6.413   2.326
 1467TIP3    H1 4358   7.641   6.431   2.251
 1467TIP3    H2 4359   7.496   6.415   2.290
 1468TIP3   OH2 4360   7.392   5.076   3.156
 1468TIP3    H1 4361   7.380   5.153   3.101
 1468TIP3    H2 4362   7.353   5.005   3.107
 1469TIP3   OH2 4363   7.684   7.445   4.707
 1469TIP3    H1 4364   7.671   7.355   4.736
 1469TIP3    H2 4365   7.779   7.459   4.717
 1470TIP3   OH2 4366   6.799   2.127   6.099
 1470TIP3    H1 4367   6.785   2.034   6.083
 1470TIP3    H2 4368   6.863   2.153   6.033
 1471TIP3   OH2 4369   0.777   0.167   5.728
 1471TIP3    H1 4370   0.707   0.172   5.792
 1471TIP3    H2 4371   0.812   0.256   5.722
 1472TIP3   OH2 4372   2.458   3.321   4.268
 1472TIP3    H1 4373   2.393   3.324   4.338
 1472TIP3    H2 4374   2.411   3.351   4.191
 1473TIP3   OH2 4375   1.080   7.746   6.570
 1473TIP3    H1 4376   1.139   7.670   6.568
 1473TIP3    H2 4377   1.137   7.821   6.556
 1474TIP3   OH2 4378   6.708   2.501   1.207
 1474TIP3    H1 4379   6.724   2.448   1.129
 1474TIP3    H2 4380   6.777   2.474   1.268
 1475TIP3   OH2 4381   0.574   6.092   2.095
 1475TIP3    H1 4382   0.616   6.177   2.080
 1475TIP3    H2 4383   0.537   6.099   2.184
 1476TIP3   OH2 4384   3.877   2.185   2.340
 1476TIP3    H1 4385   3.831   2.265   2.315
 1476TIP3    H2 4386   3.814   2.136   2.393
 1477TIP3   OH2 4387   8.276   1.639   1.358
 1477TIP3    H1 4388   8.347   1.683   1.405
 1477TIP3    H2 4389   8.205   1.633   1.422
 1478TIP3   OH2 4390   7.008   1.578   1.789
 1478TIP3    H1 4391   6.972   1.661   1.757
 1478TIP3    H2 4392   7.063   1.547   1.717
 1479TIP3   OH2 4393   0.743   2.099   1.013
 1479TIP3    H1 4394   0.824   2.070   1.054
 1479TIP3    H2 4395   0.770   2.169   0.954
 1480TIP3   OH2 4396   5.866   3.055   2.951
 1480TIP3    H1 4397   5.798   3.022   2.892
 1480TIP3    H2 4398   5.853   3.007   3.033
 1481TIP3   OH2 4399   4.619   5.325   2.064
 1481TIP3    H1 4400   4.587   5.296   2.149
 1481TIP3    H2 4401   4.675   5.254   2.034
 1482TIP3   OH2 4402   7.976   1.927   5.154
 1482TIP3    H1 4403   7.995   2.007   5.105
 1482TIP3    H2 4404   8.010   1.944   5.242
 1483TIP3   OH2 4405   0.712   4.895   6.497
 1483TIP3    H1 4406   0.792   4.944   6.518
 1483TIP3    H2 4407   0.645   4.963   6.484
 1484TIP3   OH2 4408   4.693   2.633   0.818
 1484TIP3    H1 4409   4.730   2.651   0.904
 1484TIP3    H2 4410   4.755   2.673   0.757
 1485TIP3   OH2 4411   2.192   6.444   1.591
 1485TIP3    H1 4412   2.214   6.411   1.504
 1485TIP3    H2 4413   2.199   6.539   1.584
 1486TIP3   OH2 4414   0.602   1.937   3.970
 1486TIP3    H1 4415   0.574   1.901   4.055
 1486TIP3    H2 4416   0.671   2.000   3.992
 1487TIP3   OH2 4417   4.842   6.492   5.891
 1487TIP3    H1 4418   4.895   6.447   5.825
 1487TIP3    H2 4419   4.906   6.533   5.949
 1488TIP3   OH2 4420   1.419   2.075   2.245
 1488TIP3    H1 4421   1.388   2.154   2.289
 1488TIP3    H2 4422   1.339   2.030   2.217
 1489TIP3   OH2 4423   3.190   1.344   2.386
 1489TIP3    H1 4424   3.197   1.434   2.354
 1489TIP3    H2 4425   3.098   1.322   2.376
 1490TIP3   OH2 4426   5.490   3.661   0.358
 1490TIP3    H1 4427   5.472   3.612   0.278
 1490TIP3    H2 4428   5.422   3.729   0.361
 1491TIP3   OH2 4429   5.515   6.797   6.628
 1491TIP3    H1 4430   5.434   6.761   6.593
 1491TIP3    H2 4431   5.497   6.890   6.640
 1492TIP3   OH2 4432   6.655   6.131   0.837
 1492TIP3    H1 4433   6.579   6.078   0.859
 1492TIP3    H2 4434   6.638   6.216   0.878
 1493TIP3   OH2 4435   1.522   4.411   3.102
 1493TIP3    H1 4436   1.607   4.414   3.059
 1493TIP3    H2 4437   1.466   4.467   3.049
 1494TIP3   OH2 4438   7.908   6.762   2.026
 1494TIP3    H1 4439   7.854   6.766   2.104
 1494TIP3    H2 4440   7.889   6.676   1.988
 1495TIP3   OH2 4441   4.923   1.903   5.214
 1495TIP3    H1 4442   4.981   1.973   5.243
 1495TIP3    H2 4443   4.869   1.883   5.290
 1496TIP3   OH2 4444   6.049   7.443   1.600
 1496TIP3    H1 4445   6.046   7.361   1.649
 1496TIP3    H2 4446   6.042   7.511   1.667
 1497TIP3   OH2 4447   8.094   0.526   2.567
 1497TIP3    H1 4448   8.110   0.498   2.657
 1497TIP3    H2 4449   8.084   0.445   2.518
 1498TIP3   OH2 4450   1.555   0.196   2.800
 1498TIP3    H1 4451   1.599   0.267   2.755
 1498TIP3    H2 4452   1.611   0.176   2.875
 1499TIP3   OH2 4453   4.461   1.909   1.926
 1499TIP3    H1 4454   4.410   1.832   1.953
 1499TIP3    H2 4455   4.542   1.873   1.891
 1500TIP3   OH2 4456   2.425   7.535   6.738
 1500TIP3    H1 4457   2.417   7.625   6.707
 1500TIP3    H2 4458   2.344   7.493   6.708
 1501TIP3   OH2 4459   7.130   6.462   1.736
 1501TIP3    H1 4460   7.116   6.498   1.648
 1501TIP3    H2 4461   7.178   6.530   1.783
 1502TIP3   OH2 4462   3.651   7.318   6.290
 1502TIP3    H1 4463   3.683   7.384   6.229
 1502TIP3    H2 4464   3.568   7.353   6.322
 1503TIP3   OH2 4465   7.327   4.518   3.839
 1503TIP3    H1 4466   7.233   4.522   3.857
 1503TIP3    H2 4467   7.349   4.425   3.850
 1504TIP3   OH2 4468   1.980   1.541   0.957
 1504TIP3    H1 4469   1.915   1.602   0.923
 1504TIP3    H2 4470   2.042   1.529   0.885
 1505TIP3   OH2 4471   2.012   6.208   1.168
 1505TIP3    H1 4472   2.044   6.139   1.109
 1505TIP3    H2 4473   2.008   6.287   1.113
 1506TIP3   OH2 4474   8.029   2.747   6.698
 1506TIP3    H1 4475   8.002   2.703   6.617
 1506TIP3    H2 4476   7.950   2.793   6.728
 1507TIP3   OH2 4477   4.476   7.772   5.481
 1507TIP3    H1 4478   4.563   7.808   5.499
 1507TIP3    H2 4479   4.418   7.848   5.479
 1508TIP3   OH2 4480   4.173   1.811   0.863
 1508TIP3    H1 4481   4.103   1.763   0.907
 1508TIP3    H2 4482   4.185   1.765   0.780
 1509TIP3   OH2 4483   5.611   5.803   4.580
 1509TIP3    H1 4484   5.549   5.858   4.628
 1509TIP3    H2 4485   5.677   5.779   4.646
 1510TIP3   OH2 4486   5.130   7.332   2.470
 1510TIP3    H1 4487   5.066   7.398   2.445
 1510TIP3    H2 4488   5.144   7.346   2.564
 1511TIP3   OH2 4489   7.998   6.954   5.971
 1511TIP3    H1 4490   7.976   6.969   6.063
 1511TIP3    H2 4491   8.061   7.023   5.949
 1512TIP3   OH2 4492   2.658   7.803   1.892
 1512TIP3    H1 4493   2.647   7.769   1.803
 1512TIP3    H2 4494   2.573   7.841   1.915
 1513TIP3   OH2 4495   3.978   5.325   1.867
 1513TIP3    H1 4496   3.932   5.341   1.949
 1513TIP3    H2 4497   4.007   5.412   1.838
 1514TIP3   OH2 4498   2.340   7.436   2.878
 1514TIP3    H1 4499   2.322   7.376   2.806
 1514TIP3    H2 4500   2.310   7.390   2.956
 1515TIP3   OH2 4501   3.652   7.565   2.667
 1515TIP3    H1 4502   3.670   7.512   2.744
 1515TIP3    H2 4503   3.572   7.613   2.689
 1516TIP3   OH2 4504   1.207   0.081   4.637
 1516TIP3    H1 4505   1.288   0.061   4.685
 1516TIP3    H2 4506   1.208   0.177   4.628
 1517TIP3   OH2 4507   7.799   3.378   4.178
 1517TIP3    H1 4508   7.805   3.367   4.083
 1517TIP3    H2 4509   7.835   3.297   4.213
 1518TIP3   OH2 4510   8.198   6.488   6.058
 1518TIP3    H1 4511   8.184   6.582   6.068
 1518TIP3    H2 4512   8.137   6.448   6.120
 1519TIP3   OH2 4513   6.832   6.681   5.895
 1519TIP3    H1 4514   6.913   6.726   5.920
 1519TIP3    H2 4515   6.860   6.593   5.871
 1520TIP3   OH2 4516   5.107   5.251   5.686
 1520TIP3    H1 4517   5.083   5.324   5.743
 1520TIP3    H2 4518   5.108   5.288   5.598
 1521TIP3   OH2 4519   2.604   2.007   1.400
 1521TIP3    H1 4520   2.573   1.963   1.480
 1521TIP3    H2 4521   2.545   2.081   1.389
 1522TIP3   OH2 4522   6.255   0.528   0.273
 1522TIP3    H1 4523   6.290   0.515   0.361
 1522TIP3    H2 4524   6.179   0.585   0.285
 1523TIP3   OH2 4525   7.728   2.568   4.072
 1523TIP3    H1 4526   7.731   2.641   4.133
 1523TIP3    H2 4527   7.817   2.559   4.039
 1524TIP3   OH2 4528   0.922   3.305   3.840
 1524TIP3    H1 4529   0.914   3.370   3.770
 1524TIP3    H2 4530   0.855   3.331   3.904
 1525TIP3   OH2 4531   0.487   5.121   4.147
 1525TIP3    H1 4532   0.569   5.091   4.107
 1525TIP3    H2 4533   0.419   5.073   4.100
 1526TIP3   OH2 4534   4.381   1.340   6.101
 1526TIP3    H1 4535   4.472   1.336   6.072
 1526TIP3    H2 4536   4.360   1.250   6.126
 1527TIP3   OH2 4537   4.278   5.643   2.829
 1527TIP3    H1 4538   4.284   5.552   2.860
 1527TIP3    H2 4539   4.219   5.639   2.754
 1528TIP3   OH2 4540   0.836   0.508   3.107
 1528TIP3    H1 4541   0.862   0.447   3.038
 1528TIP3    H2 4542   0.755   0.547   3.076
 1529TIP3   OH2 4543   0.369   1.697   3.900
 1529TIP3    H1 4544   0.440   1.752   3.932
 1529TIP3    H2 4545   0.411   1.614   3.879
 1530TIP3   OH2 4546   2.853   4.203   0.728
 1530TIP3    H1 4547   2.836   4.123   0.679
 1530TIP3    H2 4548   2.767   4.235   0.755
 1531TIP3   OH2 4549   5.970   0.675   4.408
 1531TIP3    H1 4550   5.969   0.632   4.493
 1531TIP3    H2 4551   6.058   0.657   4.373
 1532TIP3   OH2 4552   2.551   3.886   4.916
 1532TIP3    H1 4553   2.500   3.865   4.994
 1532TIP3    H2 4554   2.617   3.817   4.910
 1533TIP3   OH2 4555   4.454   6.335   0.042
 1533TIP3    H1 4556   4.452   6.284   0.123
 1533TIP3    H2 4557   4.504   6.281  -0.019
 1534TIP3   OH2 4558   7.285   4.719   4.098
 1534TIP3    H1 4559   7.309   4.781   4.030
 1534TIP3    H2 4560   7.263   4.774   4.174
 1535TIP3   OH2 4561   5.653   3.103   0.372
 1535TIP3    H1 4562   5.681   3.165   0.439
 1535TIP3    H2 4563   5.563   3.081   0.395
 1536TIP3   OH2 4564   4.434   3.567   1.891
 1536TIP3    H1 4565   4.500   3.560   1.822
 1536TIP3    H2 4566   4.461   3.502   1.956
 1537TIP3   OH2 4567   3.919   2.159   4.624
 1537TIP3    H1 4568   3.971   2.090   4.583
 1537TIP3    H2 4569   3.832   2.120   4.634
 1538TIP3   OH2 4570   0.730   3.803   2.678
 1538TIP3    H1 4571   0.700   3.823   2.589
 1538TIP3    H2 4572   0.697   3.715   2.695
 1539TIP3   OH2 4573   5.440   7.023   2.911
 1539TIP3    H1 4574   5.399   7.108   2.924
 1539TIP3    H2 4575   5.408   6.970   2.984
 1540TIP3   OH2 4576   0.353   2.543   2.550
 1540TIP3    H1 4577   0.295   2.507   2.616
 1540TIP3    H2 4578   0.381   2.627   2.586
 1541TIP3   OH2 4579   0.637   5.138   5.989
 1541TIP3    H1 4580   0.637   5.212   5.929
 1541TIP3    H2 4581   0.724   5.140   6.029
 1542TIP3   OH2 4582   0.459   3.089   3.621
 1542TIP3    H1 4583   0.430   3.179   3.605
 1542TIP3    H2 4584   0.554   3.092   3.612
 1543TIP3   OH2 4585   2.165   4.253   0.968
 1543TIP3    H1 4586   2.247   4.289   1.001
 1543TIP3    H2 4587   2.108   4.249   1.045
 1544TIP3   OH2 4588   0.860   1.113   6.521
 1544TIP3    H1 4589   0.811   1.151   6.448
 1544TIP3    H2 4590   0.910   1.042   6.481
 1545TIP3   OH2 4591   4.641   6.578   3.343
 1545TIP3    H1 4592   4.702   6.641   3.381
 1545TIP3    H2 4593   4.653   6.499   3.396
 1546TIP3   OH2 4594   4.125   3.709   5.221
 1546TIP3    H1 4595   4.119   3.799   5.189
 1546TIP3    H2 4596   4.036   3.686   5.246
 1547TIP3   OH2 4597   7.101   7.244   1.586
 1547TIP3    H1 4598   7.041   7.182   1.544
 1547TIP3    H2 4599   7.072   7.248   1.677
 1548TIP3   OH2 4600   8.098   0.319   4.367
 1548TIP3    H1 4601   8.190   0.293   4.358
 1548TIP3    H2 4602   8.067   0.273   4.445
 1549TIP3   OH2 4603   7.175   0.012   4.031
 1549TIP3    H1 4604   7.179   0.062   4.113
 1549TIP3    H2 4605   7.081  -0.006   4.019
 1550TIP3   OH2 4606   3.291   0.407   5.685
 1550TIP3    H1 4607   3.215   0.349   5.687
 1550TIP3    H2 4608   3.276   0.468   5.758
 1551TIP3   OH2 4609   2.038   5.287   1.044
 1551TIP3    H1 4610   2.058   5.360   1.102
 1551TIP3    H2 4611   2.022   5.328   0.959
 1552TIP3   OH2 4612   0.574   4.428   5.897
 1552TIP3    H1 4613   0.638   4.357   5.905
 1552TIP3    H2 4614   0.612   4.500   5.948
 1553TIP3   OH2 4615   0.047   5.619   2.405
 1553TIP3    H1 4616   0.083   5.538   2.370
 1553TIP3    H2 4617   0.008   5.594   2.489
 1554TIP3   OH2 4618   1.301   5.897   6.088
 1554TIP3    H1 4619   1.392   5.922   6.070
 1554TIP3    H2 4620   1.263   5.882   6.002
 1555TIP3   OH2 4621   7.391   5.862   5.040
 1555TIP3    H1 4622   7.414   5.954   5.026
 1555TIP3    H2 4623   7.425   5.843   5.128
 1556TIP3   OH2 4624   0.034   2.204   3.284
 1556TIP3    H1 4625   0.097   2.273   3.302
 1556TIP3    H2 4626  -0.041   2.249   3.245
 1557TIP3   OH2 4627   0.037   7.330   3.898
 1557TIP3    H1 4628  -0.026   7.275   3.945
 1557TIP3    H2 4629   0.120   7.284   3.907
 1558TIP3   OH2 4630   1.899   0.236   5.299
 1558TIP3    H1 4631   1.917   0.320   5.255
 1558TIP3    H2 4632   1.922   0.170   5.234
 1559TIP3   OH2 4633   1.208   4.041   1.226
 1559TIP3    H1 4634   1.132   4.054   1.170
 1559TIP3    H2 4635   1.172   4.029   1.313
 1560TIP3   OH2 4636   5.985   6.079   4.840
 1560TIP3    H1 4637   6.067   6.031   4.829
 1560TIP3    H2 4638   5.921   6.030   4.788
 1561TIP3   OH2 4639   4.656   5.506   2.819
 1561TIP3    H1 4640   4.611   5.423   2.807
 1561TIP3    H2 4641   4.695   5.525   2.733
 1562TIP3   OH2 4642   1.671   6.490   0.419
 1562TIP3    H1 4643   1.605   6.536   0.469
 1562TIP3    H2 4644   1.659   6.398   0.443
 1563TIP3   OH2 4645   5.582   5.081   6.417
 1563TIP3    H1 4646   5.644   5.118   6.355
 1563TIP3    H2 4647   5.506   5.057   6.365
 1564TIP3   OH2 4648   2.896   1.650   5.799
 1564TIP3    H1 4649   2.932   1.564   5.777
 1564TIP3    H2 4650   2.853   1.679   5.718
 1565TIP3   OH2 4651   7.809   5.978   2.839
 1565TIP3    H1 4652   7.866   6.055   2.848
 1565TIP3    H2 4653   7.846   5.914   2.899
 1566TIP3   OH2 4654   2.306   7.669   0.385
 1566TIP3    H1 4655   2.344   7.730   0.448
 1566TIP3    H2 4656   2.381   7.632   0.339
 1567TIP3   OH2 4657   8.051   7.727   1.312
 1567TIP3    H1 4658   7.956   7.731   1.319
 1567TIP3    H2 4659   8.071   7.634   1.301
 1568TIP3   OH2 4660   6.922   0.252   5.741
 1568TIP3    H1 4661   6.830   0.281   5.735
 1568TIP3    H2 4662   6.922   0.192   5.815
 1569TIP3   OH2 4663   6.558   3.354   3.215
 1569TIP3    H1 4664   6.533   3.441   3.186
 1569TIP3    H2 4665   6.561   3.302   3.134
 1570TIP3   OH2 4666   4.918   3.036   2.941
 1570TIP3    H1 4667   4.959   3.094   2.876
 1570TIP3    H2 4668   4.899   2.955   2.892
 1571TIP3   OH2 4669   0.948   5.315   3.409
 1571TIP3    H1 4670   0.877   5.289   3.467
 1571TIP3    H2 4671   1.006   5.368   3.464
 1572TIP3   OH2 4672   8.318   0.249   0.673
 1572TIP3    H1 4673   8.315   0.312   0.745
 1572TIP3    H2 4674   8.358   0.171   0.712
 1573TIP3   OH2 4675   4.392   0.257   3.667
 1573TIP3    H1 4676   4.347   0.176   3.643
 1573TIP3    H2 4677   4.484   0.232   3.673
 1574TIP3   OH2 4678   0.580   4.334   4.053
 1574TIP3    H1 4679   0.580   4.419   4.009
 1574TIP3    H2 4680   0.631   4.277   3.995
 1575TIP3   OH2 4681   1.290   0.254   3.444
 1575TIP3    H1 4682   1.256   0.196   3.511
 1575TIP3    H2 4683   1.231   0.242   3.369
 1576TIP3   OH2 4684   8.043   4.415   3.308
 1576TIP3    H1 4685   7.981   4.467   3.359
 1576TIP3    H2 4686   8.058   4.337   3.361
 1577TIP3   OH2 4687   6.098   1.832   0.880
 1577TIP3    H1 4688   6.126   1.866   0.964
 1577TIP3    H2 4689   6.032   1.894   0.849
 1578TIP3   OH2 4690   5.643   7.068   1.991
 1578TIP3    H1 4691   5.728   7.024   1.997
 1578TIP3    H2 4692   5.602   7.053   2.076
 1579TIP3   OH2 4693   0.776   4.679   0.566
 1579TIP3    H1 4694   0.807   4.735   0.496
 1579TIP3    H2 4695   0.836   4.604   0.566
 1580TIP3   OH2 4696   3.788   2.490   3.919
 1580TIP3    H1 4697   3.842   2.452   3.989
 1580TIP3    H2 4698   3.698   2.469   3.944
 1581TIP3   OH2 4699   0.656   4.172   1.952
 1581TIP3    H1 4700   0.706   4.241   1.908
 1581TIP3    H2 4701   0.716   4.138   2.018
 1582TIP3   OH2 4702   1.040   7.648   3.726
 1582TIP3    H1 4703   0.988   7.724   3.753
 1582TIP3    H2 4704   1.078   7.673   3.642
 1583TIP3   OH2 4705   4.622   2.382   3.777
 1583TIP3    H1 4706   4.607   2.290   3.795
 1583TIP3    H2 4707   4.698   2.383   3.718
 1584TIP3   OH2 4708   3.253   2.208  -0.020
 1584TIP3    H1 4709   3.253   2.177   0.071
 1584TIP3    H2 4710   3.293   2.137  -0.069
 1585TIP3   OH2 4711   3.337   0.258   1.271
 1585TIP3    H1 4712   3.371   0.337   1.231
 1585TIP3    H2 4713   3.414   0.212   1.304
 1586TIP3   OH2 4714   0.628   1.118   5.885
 1586TIP3    H1 4715   0.608   1.172   5.962
 1586TIP3    H2 4716   0.722   1.130   5.872
 1587TIP3   OH2 4717   7.049   2.205   3.119
 1587TIP3    H1 4718   7.083   2.214   3.208
 1587TIP3    H2 4719   6.964   2.249   3.121
 1588TIP3   OH2 4720   5.204   3.001   4.013
 1588TIP3    H1 4721   5.177   2.935   4.077
 1588TIP3    H2 4722   5.123   3.045   3.988
 1589TIP3   OH2 4723   6.286   3.488   2.427
 1589TIP3    H1 4724   6.240   3.409   2.454
 1589TIP3    H2 4725   6.228   3.560   2.453
 1590TIP3   OH2 4726   3.517   3.050   0.899
 1590TIP3    H1 4727   3.511   3.108   0.975
 1590TIP3    H2 4728   3.569   3.100   0.835
 1591TIP3   OH2 4729   5.011   6.035   1.827
 1591TIP3    H1 4730   5.000   6.080   1.744
 1591TIP3    H2 4731   4.936   6.060   1.880
 1592TIP3   OH2 4732   4.653   2.276   6.463
 1592TIP3    H1 4733   4.573   2.268   6.412
 1592TIP3    H2 4734   4.723   2.253   6.402
 1593TIP3   OH2 4735   6.139   3.962   6.305
 1593TIP3    H1 4736   6.179   3.962   6.392
 1593TIP3    H2 4737   6.213   3.976   6.245
 1594TIP3   OH2 4738   2.653   6.879   4.423
 1594TIP3    H1 4739   2.669   6.846   4.334
 1594TIP3    H2 4740   2.609   6.807   4.468
 1595TIP3   OH2 4741   5.962   4.355   4.646
 1595TIP3    H1 4742   5.979   4.414   4.719
 1595TIP3    H2 4743   5.868   4.364   4.629
 1596TIP3   OH2 4744   0.687   4.098   4.954
 1596TIP3    H1 4745   0.599   4.113   4.920
 1596TIP3    H2 4746   0.696   4.158   5.027
 1597TIP3   OH2 4747   3.183   4.366   1.485
 1597TIP3    H1 4748   3.119   4.436   1.501
 1597TIP3    H2 4749   3.158   4.329   1.400
 1598TIP3   OH2 4750   1.093   5.256   1.096
 1598TIP3    H1 4751   1.064   5.270   1.186
 1598TIP3    H2 4752   1.181   5.291   1.093
 1599TIP3   OH2 4753   7.764   3.927   6.740
 1599TIP3    H1 4754   7.703   3.875   6.792
 1599TIP3    H2 4755   7.849   3.885   6.753
 1600TIP3   OH2 4756   3.231   5.451   0.132
 1600TIP3    H1 4757   3.242   5.391   0.205
 1600TIP3    H2 4758   3.229   5.395   0.054
 1601TIP3   OH2 4759   7.962   0.163   4.004
 1601TIP3    H1 4760   7.947   0.139   3.913
 1601TIP3    H2 4761   7.938   0.256   4.009
 1602TIP3   OH2 4762   5.132   1.982   4.018
 1602TIP3    H1 4763   5.182   1.934   4.084
 1602TIP3    H2 4764   5.069   2.034   4.068
 1603TIP3   OH2 4765   8.077   6.046   1.969
 1603TIP3    H1 4766   8.119   6.109   1.910
 1603TIP3    H2 4767   8.037   6.100   2.037
 1604TIP3   OH2 4768   8.168   5.944   2.823
 1604TIP3    H1 4769   8.243   5.894   2.790
 1604TIP3    H2 4770   8.126   5.979   2.744
 1605TIP3   OH2 4771   5.933   2.376   4.279
 1605TIP3    H1 4772   5.990   2.389   4.354
 1605TIP3    H2 4773   5.937   2.459   4.231
 1606TIP3   OH2 4774   7.582   1.394   5.234
 1606TIP3    H1 4775   7.550   1.436   5.154
 1606TIP3    H2 4776   7.673   1.372   5.214
 1607TIP3   OH2 4777   2.421   2.203   1.410
 1607TIP3    H1 4778   2.436   2.296   1.426
 1607TIP3    H2 4779   2.327   2.191   1.423
 1608TIP3   OH2 4780   0.840   3.453   4.404
 1608TIP3    H1 4781   0.828   3.524   4.341
 1608TIP3    H2 4782   0.882   3.383   4.353
 1609TIP3   OH2 4783   3.258   0.481   1.541
 1609TIP3    H1 4784   3.221   0.407   1.493
 1609TIP3    H2 4785   3.325   0.443   1.597
 1610TIP3   OH2 4786   3.690   4.725   5.526
 1610TIP3    H1 4787   3.602   4.750   5.500
 1610TIP3    H2 4788   3.737   4.807   5.536
 1611TIP3   OH2 4789   2.261   1.536   6.141
 1611TIP3    H1 4790   2.305   1.473   6.198
 1611TIP3    H2 4791   2.249   1.614   6.195
 1612TIP3   OH2 4792   3.944   2.000   3.521
 1612TIP3    H1 4793   3.964   2.033   3.609
 1612TIP3    H2 4794   4.030   1.984   3.481
 1613TIP3   OH2 4795   0.251   7.511   4.134
 1613TIP3    H1 4796   0.161   7.506   4.102
 1613TIP3    H2 4797   0.252   7.456   4.212
 1614TIP3   OH2 4798   6.793   5.351   1.950
 1614TIP3    H1 4799   6.851   5.380   1.880
 1614TIP3    H2 4800   6.786   5.256   1.938
 1615TIP3   OH2 4801   5.868   7.733   2.229
 1615TIP3    H1 4802   5.830   7.668   2.287
 1615TIP3    H2 4803   5.890   7.806   2.287
 1616TIP3   OH2 4804   3.747   4.769   3.445
 1616TIP3    H1 4805   3.769   4.746   3.355
 1616TIP3    H2 4806   3.830   4.760   3.493
 1617TIP3   OH2 4807   5.659   4.368   0.386
 1617TIP3    H1 4808   5.708   4.375   0.304
 1617TIP3    H2 4809   5.588   4.431   0.377
 1618TIP3   OH2 4810   1.348   1.393   4.833
 1618TIP3    H1 4811   1.384   1.397   4.921
 1618TIP3    H2 4812   1.419   1.422   4.776
 1619TIP3   OH2 4813   6.029   0.655   0.257
 1619TIP3    H1 4814   5.968   0.611   0.198
 1619TIP3    H2 4815   5.979   0.726   0.295
 1620TIP3   OH2 4816   1.712   0.390   3.833
 1620TIP3    H1 4817   1.766   0.469   3.836
 1620TIP3    H2 4818   1.642   0.407   3.896
 1621TIP3   OH2 4819   2.783   4.953   5.550
 1621TIP3    H1 4820   2.848   4.946   5.480
 1621TIP3    H2 4821   2.760   5.046   5.552
 1622TIP3   OH2 4822   3.646   0.949   3.008
 1622TIP3    H1 4823   3.599   0.951   2.924
 1622TIP3    H2 4824   3.630   0.862   3.043
 1623TIP3   OH2 4825   6.395   0.153   2.556
 1623TIP3    H1 4826   6.466   0.203   2.515
 1623TIP3    H2 4827   6.439   0.101   2.624
 1624TIP3   OH2 4828   4.921   7.055   5.299
 1624TIP3    H1 4829   5.004   7.075   5.341
 1624TIP3    H2 4830   4.868   7.134   5.311
 1625TIP3   OH2 4831   7.070   6.865   6.556
 1625TIP3    H1 4832   7.044   6.781   6.595
 1625TIP3    H2 4833   7.057   6.929   6.626
 1626TIP3   OH2 4834   4.108   4.456   6.204
 1626TIP3    H1 4835   4.074   4.520   6.142
 1626TIP3    H2 4836   4.150   4.509   6.272
 1627TIP3   OH2 4837   2.463   0.851   4.459
 1627TIP3    H1 4838   2.413   0.864   4.540
 1627TIP3    H2 4839   2.494   0.761   4.466
 1628TIP3   OH2 4840   4.167   0.520   6.041
 1628TIP3    H1 4841   4.091   0.463   6.034
 1628TIP3    H2 4842   4.132   0.608   6.027
 1629TIP3   OH2 4843   0.803   5.920   0.105
 1629TIP3    H1 4844   0.841   5.939   0.019
 1629TIP3    H2 4845   0.732   5.983   0.115
 1630TIP3   OH2 4846   7.574   5.406   5.201
 1630TIP3    H1 4847   7.600   5.456   5.278
 1630TIP3    H2 4848   7.649   5.411   5.142
 1631TIP3   OH2 4849   4.599   1.686   3.619
 1631TIP3    H1 4850   4.682   1.647   3.645
 1631TIP3    H2 4851   4.599   1.681   3.523
 1632TIP3   OH2 4852   5.769   5.166   4.817
 1632TIP3    H1 4853   5.860   5.147   4.838
 1632TIP3    H2 4854   5.773   5.232   4.748
 1633TIP3   OH2 4855   0.088   4.056   6.284
 1633TIP3    H1 4856   0.061   3.971   6.319
 1633TIP3    H2 4857   0.036   4.120   6.332
 1634TIP3   OH2 4858   2.279   6.374   2.044
 1634TIP3    H1 4859   2.232   6.382   2.127
 1634TIP3    H2 4860   2.371   6.377   2.068
 1635TIP3   OH2 4861   6.004   1.043   4.175
 1635TIP3    H1 4862   5.956   0.986   4.235
 1635TIP3    H2 4863   6.040   0.983   4.109
 1636TIP3   OH2 4864   1.666   2.316   2.804
 1636TIP3    H1 4865   1.666   2.262   2.726
 1636TIP3    H2 4866   1.700   2.401   2.775
 1637TIP3   OH2 4867   5.752   3.731   2.662
 1637TIP3    H1 4868   5.841   3.712   2.694
 1637TIP3    H2 4869   5.697   3.664   2.702
 1638TIP3   OH2 4870   7.611   0.956   4.640
 1638TIP3    H1 4871   7.676   1.025   4.655
 1638TIP3    H2 4872   7.641   0.912   4.561
 1639TIP3   OH2 4873   4.836   6.677   4.866
 1639TIP3    H1 4874   4.928   6.698   4.876
 1639TIP3    H2 4875   4.819   6.610   4.933
 1640TIP3   OH2 4876   7.495   6.908   5.660
 1640TIP3    H1 4877   7.566   6.858   5.699
 1640TIP3    H2 4878   7.499   6.994   5.701
 1641TIP3   OH2 4879   3.177   3.338   4.324
 1641TIP3    H1 4880   3.148   3.417   4.369
 1641TIP3    H2 4881   3.227   3.289   4.389
 1642TIP3   OH2 4882   4.720   6.935   4.167
 1642TIP3    H1 4883   4.791   6.972   4.219
 1642TIP3    H2 4884   4.741   6.842   4.158
 1643TIP3   OH2 4885   5.022   6.525   5.248
 1643TIP3    H1 4886   4.934   6.535   5.285
 1643TIP3    H2 4887   5.059   6.614   5.250
 1644TIP3   OH2 4888   8.162   7.495   3.335
 1644TIP3    H1 4889   8.162   7.411   3.289
 1644TIP3    H2 4890   8.070   7.514   3.351
 1645TIP3   OH2 4891   5.126   2.525   6.545
 1645TIP3    H1 4892   5.074   2.592   6.500
 1645TIP3    H2 4893   5.090   2.524   6.634
 1646TIP3   OH2 4894   4.041   0.492   2.356
 1646TIP3    H1 4895   4.009   0.464   2.442
 1646TIP3    H2 4896   4.091   0.571   2.375
 1647TIP3   OH2 4897   7.055   0.839   1.302
 1647TIP3    H1 4898   6.998   0.772   1.339
 1647TIP3    H2 4899   7.133   0.792   1.274
 1648TIP3   OH2 4900   7.480   2.557   6.172
 1648TIP3    H1 4901   7.549   2.623   6.162
 1648TIP3    H2 4902   7.480   2.536   6.265
 1649TIP3   OH2 4903   5.193   2.960   2.659
 1649TIP3    H1 4904   5.171   2.905   2.584
 1649TIP3    H2 4905   5.268   2.918   2.700
 1650TIP3   OH2 4906   3.893   4.610   5.837
 1650TIP3    H1 4907   3.812   4.561   5.850
 1650TIP3    H2 4908   3.928   4.578   5.754
 1651TIP3   OH2 4909   4.381   5.688   3.485
 1651TIP3    H1 4910   4.449   5.656   3.425
 1651TIP3    H2 4911   4.393   5.783   3.486
 1652TIP3   OH2 4912   3.492   7.380   2.449
 1652TIP3    H1 4913   3.557   7.448   2.433
 1652TIP3    H2 4914   3.410   7.417   2.416
 1653TIP3   OH2 4915   7.159   3.959   5.717
 1653TIP3    H1 4916   7.082   4.011   5.740
 1653TIP3    H2 4917   7.196   4.003   5.641
 1654TIP3   OH2 4918   0.932   3.408   3.140
 1654TIP3    H1 4919   0.842   3.376   3.151
 1654TIP3    H2 4920   0.978   3.334   3.101
 1655TIP3   OH2 4921   0.522   4.658   5.368
 1655TIP3    H1 4922   0.612   4.625   5.372
 1655TIP3    H2 4923   0.468   4.580   5.354
 1656TIP3   OH2 4924   1.760   5.707   6.203
 1656TIP3    H1 4925   1.763   5.615   6.230
 1656TIP3    H2 4926   1.821   5.713   6.130
 1657TIP3   OH2 4927   8.014   7.588   4.453
 1657TIP3    H1 4928   8.040   7.647   4.382
 1657TIP3    H2 4929   8.061   7.619   4.530
 1658TIP3   OH2 4930   0.766   7.273   3.923
 1658TIP3    H1 4931   0.687   7.313   3.960
 1658TIP3    H2 4932   0.733   7.199   3.872
 1659TIP3   OH2 4933   5.324   7.085   5.620
 1659TIP3    H1 4934   5.413   7.086   5.587
 1659TIP3    H2 4935   5.308   6.994   5.645
 1660TIP3   OH2 4936   0.733   1.001   4.088
 1660TIP3    H1 4937   0.769   0.992   4.176
 1660TIP3    H2 4938   0.778   0.935   4.036
 1661TIP3   OH2 4939   1.879   5.480   4.707
 1661TIP3    H1 4940   1.895   5.568   4.742
 1661TIP3    H2 4941   1.789   5.485   4.673
 1662TIP3   OH2 4942   3.166   1.846   5.958
 1662TIP3    H1 4943   3.174   1.794   5.878
 1662TIP3    H2 4944   3.121   1.926   5.930
 1663TIP3   OH2 4945   5.167   0.344   1.579
 1663TIP3    H1 4946   5.208   0.424   1.613
 1663TIP3    H2 4947   5.078   0.371   1.558
 1664TIP3   OH2 4948   0.055   1.951   0.766
 1664TIP3    H1 4949   0.067   1.860   0.793
 1664TIP3    H2 4950   0.085   1.952   0.675
 1665TIP3   OH2 4951   0.306   4.541   4.093
 1665TIP3    H1 4952   0.226   4.528   4.043
 1665TIP3    H2 4953   0.284   4.513   4.182
 1666TIP3   OH2 4954   0.977   7.501   1.117
 1666TIP3    H1 4955   0.969   7.595   1.100
 1666TIP3    H2 4956   1.062   7.491   1.159
 1667TIP3   OH2 4957   1.145   0.767   1.288
 1667TIP3    H1 4958   1.070   0.785   1.345
 1667TIP3    H2 4959   1.216   0.821   1.324
 1668TIP3   OH2 4960   6.969   6.083   5.868
 1668TIP3    H1 4961   6.912   6.024   5.818
 1668TIP3    H2 4962   6.945   6.067   5.960
 1669TIP3   OH2 4963   0.466   6.051   4.931
 1669TIP3    H1 4964   0.454   6.033   5.025
 1669TIP3    H2 4965   0.548   6.007   4.909
 1670TIP3   OH2 4966   4.704   0.988   3.177
 1670TIP3    H1 4967   4.665   1.076   3.180
 1670TIP3    H2 4968   4.741   0.976   3.265
 1671TIP3   OH2 4969   0.282   1.859   4.801
 1671TIP3    H1 4970   0.315   1.785   4.851
 1671TIP3    H2 4971   0.302   1.935   4.856
 1672TIP3   OH2 4972   1.412   5.502   6.586
 1672TIP3    H1 4973   1.353   5.500   6.510
 1672TIP3    H2 4974   1.490   5.455   6.556
 1673TIP3   OH2 4975   4.032   5.199   4.704
 1673TIP3    H1 4976   4.083   5.205   4.785
 1673TIP3    H2 4977   4.031   5.288   4.670
 1674TIP3   OH2 4978   4.570   4.504   0.499
 1674TIP3    H1 4979   4.656   4.467   0.484
 1674TIP3    H2 4980   4.510   4.444   0.454
 1675TIP3   OH2 4981   6.087   6.412   5.881
 1675TIP3    H1 4982   6.163   6.470   5.873
 1675TIP3    H2 4983   6.096   6.372   5.967
 1676TIP3   OH2 4984   7.532   0.416   6.433
 1676TIP3    H1 4985   7.448   0.398   6.392
 1676TIP3    H2 4986   7.530   0.367   6.515
 1677TIP3   OH2 4987   4.819   2.577   4.604
 1677TIP3    H1 4988   4.779   2.602   4.520
 1677TIP3    H2 4989   4.781   2.491   4.623
 1678TIP3   OH2 4990   6.728   5.615   1.867
 1678TIP3    H1 4991   6.823   5.610   1.879
 1678TIP3    H2 4992   6.692   5.612   1.956
 1679TIP3   OH2 4993   3.891   6.296   2.570
 1679TIP3    H1 4994   3.834   6.373   2.577
 1679TIP3    H2 4995   3.901   6.265   2.660
 1680TIP3   OH2 4996   2.486   6.012   4.648
 1680TIP3    H1 4997   2.483   6.008   4.743
 1680TIP3    H2 4998   2.514   6.102   4.629
 1681TIP3   OH2 4999   7.877   5.228   4.210
 1681TIP3    H1 5000   7.808   5.293   4.226
 1681TIP3    H2 5001   7.904   5.201   4.298
 1682TIP3   OH2 5002   4.787   0.405   6.364
 1682TIP3    H1 5003   4.829   0.390   6.449
 1682TIP3    H2 5004   4.855   0.448   6.311
 1683TIP3   OH2 5005   0.605   4.478   5.586
 1683TIP3    H1 5006   0.577   4.554   5.638
 1683TIP3    H2 5007   0.692   4.501   5.554
 1684TIP3   OH2 5008   5.177   3.665   0.915
 1684TIP3    H1 5009   5.220   3.656   1.000
 1684TIP3    H2 5010   5.238   3.716   0.862
 1685TIP3   OH2 5011   2.557   4.175   1.160
 1685TIP3    H1 5012   2.555   4.246   1.096
 1685TIP3    H2 5013   2.488   4.197   1.223
 1686TIP3   OH2 5014   7.444   0.869   6.560
 1686TIP3    H1 5015   7.413   0.805   6.496
 1686TIP3    H2 5016   7.537   0.847   6.572
 1687TIP3   OH2 5017   8.016   4.929   2.851
 1687TIP3    H1 5018   7.997   5.003   2.793
 1687TIP3    H2 5019   8.111   4.925   2.853
 1688TIP3   OH2 5020   5.431   3.183   6.005
 1688TIP3    H1 5021   5.511   3.230   5.984
 1688TIP3    H2 5022   5.451   3.092   5.987
 1689TIP3   OH2 5023   0.422   1.875   6.448
 1689TIP3    H1 5024   0.418   1.795   6.500
 1689TIP3    H2 5025   0.515   1.896   6.442
 1690TIP3   OH2 5026   5.532   6.603   6.031
 1690TIP3    H1 5027   5.498   6.638   6.114
 1690TIP3    H2 5028   5.597   6.668   6.003
 1691TIP3   OH2 5029   5.592   7.805   0.946
 1691TIP3    H1 5030   5.511   7.762   0.918
 1691TIP3    H2 5031   5.569   7.849   1.027
 1692TIP3   OH2 5032   2.794   4.491   2.772
 1692TIP3    H1 5033   2.711   4.534   2.790
 1692TIP3    H2 5034   2.777   4.437   2.695
 1693TIP3   OH2 5035   7.565   3.653   5.000
 1693TIP3    H1 5036   7.546   3.728   5.057
 1693TIP3    H2 5037   7.636   3.606   5.045
 1694TIP3   OH2 5038   3.291   0.354   0.925
 1694TIP3    H1 5039   3.340   0.272   0.937
 1694TIP3    H2 5040   3.204   0.325   0.896
 1695TIP3   OH2 5041   6.326   5.111   1.858
 1695TIP3    H1 5042   6.389   5.052   1.818
 1695TIP3    H2 5043   6.363   5.199   1.845
 1696TIP3   OH2 5044   2.579   3.400   4.845
 1696TIP3    H1 5045   2.570   3.445   4.761
 1696TIP3    H2 5046   2.543   3.461   4.909
 1697TIP3   OH2 5047   3.593   5.697   4.389
 1697TIP3    H1 5048   3.618   5.766   4.327
 1697TIP3    H2 5049   3.504   5.718   4.414
 1698TIP3   OH2 5050   4.520   7.849   3.496
 1698TIP3    H1 5051   4.561   7.780   3.548
 1698TIP3    H2 5052   4.579   7.923   3.503
 1699TIP3   OH2 5053   7.622   2.324   6.028
 1699TIP3    H1 5054   7.642   2.383   6.101
 1699TIP3    H2 5055   7.571   2.379   5.967
 1700TIP3   OH2 5056   5.563   6.109   4.689
 1700TIP3    H1 5057   5.509   6.058   4.749
 1700TIP3    H2 5058   5.503   6.134   4.619
 1701TIP3   OH2 5059   6.660   3.240   2.384
 1701TIP3    H1 5060   6.574   3.198   2.381
 1701TIP3    H2 5061   6.641   3.333   2.372
 1702TIP3   OH2 5062   1.956   1.819   1.310
 1702TIP3    H1 5063   1.938   1.900   1.262
 1702TIP3    H2 5064   1.885   1.813   1.374
 1703TIP3   OH2 5065   4.607   1.053   2.783
 1703TIP3    H1 5066   4.638   1.114   2.850
 1703TIP3    H2 5067   4.590   1.109   2.706
 1704TIP3   OH2 5068   0.999   0.675   0.750
 1704TIP3    H1 5069   0.986   0.582   0.766
 1704TIP3    H2 5070   1.093   0.683   0.730
 1705TIP3   OH2 5071   6.063   4.722   5.231
 1705TIP3    H1 5072   6.097   4.722   5.321
 1705TIP3    H2 5073   6.087   4.808   5.197
 1706TIP3   OH2 5074   3.203   0.556   0.559
 1706TIP3    H1 5075   3.221   0.487   0.494
 1706TIP3    H2 5076   3.141   0.614   0.515
 1707TIP3   OH2 5077   0.068   7.425   6.198
 1707TIP3    H1 5078   0.031   7.438   6.111
 1707TIP3    H2 5079   0.163   7.426   6.184
 1708TIP3   OH2 5080   3.624   2.567   0.088
 1708TIP3    H1 5081   3.552   2.524   0.043
 1708TIP3    H2 5082   3.659   2.500   0.147
 1709TIP3   OH2 5083   7.730   0.817   1.319
 1709TIP3    H1 5084   7.814   0.863   1.320
 1709TIP3    H2 5085   7.707   0.811   1.226
 1710TIP3   OH2 5086   5.010   5.757   2.962
 1710TIP3    H1 5087   5.012   5.829   2.898
 1710TIP3    H2 5088   5.026   5.800   3.046
 1711TIP3   OH2 5089   3.261   5.427   0.527
 1711TIP3    H1 5090   3.352   5.412   0.503
 1711TIP3    H2 5091   3.259   5.414   0.622
 1712TIP3   OH2 5092   0.366   4.632   3.121
 1712TIP3    H1 5093   0.437   4.628   3.057
 1712TIP3    H2 5094   0.409   4.654   3.204
 1713TIP3   OH2 5095   5.138   1.228   0.629
 1713TIP3    H1 5096   5.211   1.289   0.617
 1713TIP3    H2 5097   5.105   1.213   0.540
 1714TIP3   OH2 5098   4.982   1.956   4.781
 1714TIP3    H1 5099   4.920   2.007   4.728
 1714TIP3    H2 5100   4.960   1.979   4.871
 1715TIP3   OH2 5101   1.305   3.172   5.642
 1715TIP3    H1 5102   1.364   3.163   5.567
 1715TIP3    H2 5103   1.217   3.171   5.603
 1716TIP3   OH2 5104   3.327   4.824   5.253
 1716TIP3    H1 5105   3.290   4.740   5.225
 1716TIP3    H2 5106   3.360   4.864   5.172
 1717TIP3   OH2 5107   1.052   2.073   1.005
 1717TIP3    H1 5108   1.003   2.154   0.992
 1717TIP3    H2 5109   1.126   2.080   0.944
 1718TIP3   OH2 5110   4.359   7.623   2.975
 1718TIP3    H1 5111   4.345   7.561   3.047
 1718TIP3    H2 5112   4.426   7.583   2.921
 1719TIP3   OH2 5113   3.112   3.891   4.513
 1719TIP3    H1 5114   3.038   3.928   4.464
 1719TIP3    H2 5115   3.089   3.798   4.523
 1720TIP3   OH2 5116   1.434   7.027   1.297
 1720TIP3    H1 5117   1.481   6.948   1.269
 1720TIP3    H2 5118   1.373   7.045   1.225
 1721TIP3   OH2 5119   6.792   7.220   3.912
 1721TIP3    H1 5120   6.832   7.155   3.854
 1721TIP3    H2 5121   6.777   7.297   3.856
 1722TIP3   OH2 5122   4.870   3.380   0.147
 1722TIP3    H1 5123   4.889   3.473   0.160
 1722TIP3    H2 5124   4.851   3.347   0.234
 1723TIP3   OH2 5125   4.353   7.620   6.256
 1723TIP3    H1 5126   4.401   7.617   6.339
 1723TIP3    H2 5127   4.270   7.575   6.275
 1724TIP3   OH2 5128   6.216   0.011   3.677
 1724TIP3    H1 5129   6.194   0.084   3.620
 1724TIP3    H2 5130   6.266  -0.049   3.621
 1725TIP3   OH2 5131   2.144   0.302   4.504
 1725TIP3    H1 5132   2.124   0.210   4.488
 1725TIP3    H2 5133   2.074   0.349   4.457
 1726TIP3   OH2 5134   7.830   0.312   1.232
 1726TIP3    H1 5135   7.830   0.279   1.142
 1726TIP3    H2 5136   7.871   0.242   1.283
 1727TIP3   OH2 5137   4.335   6.378   6.646
 1727TIP3    H1 5138   4.313   6.435   6.573
 1727TIP3    H2 5139   4.293   6.418   6.722
 1728TIP3   OH2 5140   7.436   7.098   0.459
 1728TIP3    H1 5141   7.530   7.105   0.441
 1728TIP3    H2 5142   7.394   7.134   0.381
 1729TIP3   OH2 5143   2.334   6.145   5.606
 1729TIP3    H1 5144   2.296   6.076   5.552
 1729TIP3    H2 5145   2.393   6.100   5.666
 1730TIP3   OH2 5146   3.055   4.357   0.634
 1730TIP3    H1 5147   3.001   4.300   0.689
 1730TIP3    H2 5148   3.012   4.354   0.548
 1731TIP3   OH2 5149   6.908   4.695   2.143
 1731TIP3    H1 5150   6.884   4.783   2.170
 1731TIP3    H2 5151   6.954   4.658   2.218
 1732TIP3   OH2 5152   4.960   0.615   3.249
 1732TIP3    H1 5153   4.899   0.585   3.316
 1732TIP3    H2 5154   4.997   0.696   3.284
 1733TIP3   OH2 5155   8.195   1.521   1.985
 1733TIP3    H1 5156   8.177   1.532   2.078
 1733TIP3    H2 5157   8.288   1.498   1.980
 1734TIP3   OH2 5158   5.256   6.747   5.710
 1734TIP3    H1 5159   5.296   6.715   5.791
 1734TIP3    H2 5160   5.290   6.688   5.642
 1735TIP3   OH2 5161   7.729   6.918   5.856
 1735TIP3    H1 5162   7.820   6.907   5.885
 1735TIP3    H2 5163   7.683   6.952   5.932
 1736TIP3   OH2 5164   2.057   2.188   1.116
 1736TIP3    H1 5165   2.095   2.101   1.104
 1736TIP3    H2 5166   2.079   2.235   1.035
 1737TIP3   OH2 5167   7.574   0.100   2.881
 1737TIP3    H1 5168   7.622   0.098   2.799
 1737TIP3    H2 5169   7.596   0.185   2.920
 1738TIP3   OH2 5170   1.403   0.257   6.044
 1738TIP3    H1 5171   1.442   0.211   6.118
 1738TIP3    H2 5172   1.471   0.256   5.976
 1739TIP3   OH2 5173   5.299   5.140   2.524
 1739TIP3    H1 5174   5.265   5.101   2.444
 1739TIP3    H2 5175   5.231   5.122   2.590
 1740TIP3   OH2 5176   1.359   3.145   5.953
 1740TIP3    H1 5177   1.375   3.061   5.911
 1740TIP3    H2 5178   1.343   3.205   5.881
 1741TIP3   OH2 5179   6.249   1.568   3.651
 1741TIP3    H1 5180   6.234   1.474   3.645
 1741TIP3    H2 5181   6.235   1.589   3.743
 1742TIP3   OH2 5182   3.628   7.680   6.782
 1742TIP3    H1 5183   3.562   7.731   6.829
 1742TIP3    H2 5184   3.588   7.594   6.771
 1743TIP3   OH2 5185   1.271   4.887   3.597
 1743TIP3    H1 5186   1.281   4.791   3.599
 1743TIP3    H2 5187   1.301   4.912   3.509
 1744TIP3   OH2 5188   7.339   5.698   0.334
 1744TIP3    H1 5189   7.244   5.693   0.321
 1744TIP3    H2 5190   7.375   5.638   0.269
 1745TIP3   OH2 5191   1.537   2.314   4.383
 1745TIP3    H1 5192   1.575   2.226   4.391
 1745TIP3    H2 5193   1.458   2.301   4.330
 1746TIP3   OH2 5194   0.701   5.142   1.481
 1746TIP3    H1 5195   0.642   5.201   1.434
 1746TIP3    H2 5196   0.649   5.111   1.555
 1747TIP3   OH2 5197   1.843   6.266   2.777
 1747TIP3    H1 5198   1.920   6.323   2.787
 1747TIP3    H2 5199   1.769   6.326   2.784
 1748TIP3   OH2 5200   1.136   6.762   4.397
 1748TIP3    H1 5201   1.125   6.845   4.352
 1748TIP3    H2 5202   1.180   6.784   4.479
 1749TIP3   OH2 5203   0.499   1.287   6.083
 1749TIP3    H1 5204   0.499   1.195   6.109
 1749TIP3    H2 5205   0.412   1.319   6.108
 1750TIP3   OH2 5206   7.646   4.312   1.815
 1750TIP3    H1 5207   7.735   4.289   1.841
 1750TIP3    H2 5208   7.634   4.401   1.849
 1751TIP3   OH2 5209   1.848   3.939   2.070
 1751TIP3    H1 5210   1.866   4.030   2.049
 1751TIP3    H2 5211   1.864   3.892   1.988
 1752TIP3   OH2 5212   1.183   0.063   3.642
 1752TIP3    H1 5213   1.252   0.095   3.700
 1752TIP3    H2 5214   1.195  -0.032   3.640
 1753TIP3   OH2 5215   6.724   7.643   0.106
 1753TIP3    H1 5216   6.760   7.713   0.159
 1753TIP3    H2 5217   6.661   7.686   0.048
 1754TIP3   OH2 5218   4.954   7.195   1.138
 1754TIP3    H1 5219   4.955   7.239   1.223
 1754TIP3    H2 5220   5.034   7.224   1.095
 1755TIP3   OH2 5221   6.073   4.174   5.580
 1755TIP3    H1 5222   6.148   4.158   5.523
 1755TIP3    H2 5223   6.034   4.254   5.547
 1756TIP3   OH2 5224   3.371   4.038   3.031
 1756TIP3    H1 5225   3.336   3.986   3.103
 1756TIP3    H2 5226   3.441   3.984   2.994
 1757TIP3   OH2 5227   5.154   7.451   1.553
 1757TIP3    H1 5228   5.218   7.506   1.506
 1757TIP3    H2 5229   5.157   7.482   1.643
 1758TIP3   OH2 5230   0.418   3.012   1.174
 1758TIP3    H1 5231   0.326   3.006   1.200
 1758TIP3    H2 5232   0.432   2.935   1.118
 1759TIP3   OH2 5233   2.219   5.879   2.102
 1759TIP3    H1 5234   2.125   5.872   2.084
 1759TIP3    H2 5235   2.226   5.865   2.196
 1760TIP3   OH2 5236   7.138   3.857   2.186
 1760TIP3    H1 5237   7.139   3.761   2.185
 1760TIP3    H2 5238   7.047   3.879   2.165
 1761TIP3   OH2 5239   5.875   7.603   6.074
 1761TIP3    H1 5240   5.787   7.603   6.034
 1761TIP3    H2 5241   5.923   7.670   6.025
 1762TIP3   OH2 5242   3.991   1.911   0.110
 1762TIP3    H1 5243   4.051   1.974   0.071
 1762TIP3    H2 5244   4.016   1.907   0.202
 1763TIP3   OH2 5245   6.269   7.100   1.116
 1763TIP3    H1 5246   6.193   7.151   1.141
 1763TIP3    H2 5247   6.342   7.139   1.164
 1764TIP3   OH2 5248   0.568   2.939   3.275
 1764TIP3    H1 5249   0.522   2.931   3.359
 1764TIP3    H2 5250   0.653   2.976   3.298
 1765TIP3   OH2 5251   6.401   4.271   5.187
 1765TIP3    H1 5252   6.445   4.332   5.247
 1765TIP3    H2 5253   6.447   4.281   5.104
 1766TIP3   OH2 5254   4.862   7.461   6.309
 1766TIP3    H1 5255   4.940   7.493   6.263
 1766TIP3    H2 5256   4.797   7.446   6.241
 1767TIP3   OH2 5257   7.830   1.072   0.856
 1767TIP3    H1 5258   7.770   1.146   0.861
 1767TIP3    H2 5259   7.775   0.998   0.830
 1768TIP3   OH2 5260   2.344   3.410   1.005
 1768TIP3    H1 5261   2.335   3.318   1.031
 1768TIP3    H2 5262   2.260   3.450   1.028
 1769TIP3   OH2 5263   5.592   2.103   0.778
 1769TIP3    H1 5264   5.498   2.089   0.792
 1769TIP3    H2 5265   5.603   2.096   0.683
 1770TIP3   OH2 5266   4.706   7.172   1.026
 1770TIP3    H1 5267   4.787   7.217   1.052
 1770TIP3    H2 5268   4.717   7.083   1.058
 1771TIP3   OH2 5269   5.727   3.633   4.165
 1771TIP3    H1 5270   5.725   3.538   4.175
 1771TIP3    H2 5271   5.789   3.664   4.231
 1772TIP3   OH2 5272   4.720   3.076   2.670
 1772TIP3    H1 5273   4.697   3.009   2.605
 1772TIP3    H2 5274   4.815   3.088   2.659
 1773TIP3   OH2 5275   2.405   4.811   6.313
 1773TIP3    H1 5276   2.345   4.749   6.355
 1773TIP3    H2 5277   2.400   4.790   6.219
 1774TIP3   OH2 5278   2.932   0.810   5.059
 1774TIP3    H1 5279   2.850   0.829   5.105
 1774TIP3    H2 5280   2.956   0.893   5.018
 1775TIP3   OH2 5281   6.870   0.316   3.828
 1775TIP3    H1 5282   6.805   0.384   3.809
 1775TIP3    H2 5283   6.881   0.320   3.923
 1776TIP3   OH2 5284   5.255   1.587   1.612
 1776TIP3    H1 5285   5.164   1.615   1.617
 1776TIP3    H2 5286   5.303   1.666   1.586
 1777TIP3   OH2 5287   0.133   3.351   6.583
 1777TIP3    H1 5288   0.040   3.346   6.603
 1777TIP3    H2 5289   0.157   3.261   6.558
 1778TIP3   OH2 5290   3.066   5.983   2.505
 1778TIP3    H1 5291   3.108   5.931   2.574
 1778TIP3    H2 5292   2.978   5.947   2.498
 1779TIP3   OH2 5293   2.711   7.461   4.388
 1779TIP3    H1 5294   2.676   7.372   4.383
 1779TIP3    H2 5295   2.770   7.468   4.313
 1780TIP3   OH2 5296   7.242   5.628   2.386
 1780TIP3    H1 5297   7.264   5.585   2.304
 1780TIP3    H2 5298   7.293   5.709   2.385
 1781TIP3   OH2 5299   7.184   0.257   3.864
 1781TIP3    H1 5300   7.153   0.192   3.927
 1781TIP3    H2 5301   7.136   0.238   3.784
 1782TIP3   OH2 5302   1.713   4.121   2.870
 1782TIP3    H1 5303   1.684   4.048   2.816
 1782TIP3    H2 5304   1.655   4.120   2.946
 1783TIP3   OH2 5305   6.234   0.487   3.303
 1783TIP3    H1 5306   6.257   0.579   3.308
 1783TIP3    H2 5307   6.240   0.465   3.210
 1784TIP3   OH2 5308   3.839   7.245   2.047
 1784TIP3    H1 5309   3.802   7.262   2.133
 1784TIP3    H2 5310   3.764   7.219   1.993
 1785TIP3   OH2 5311   4.730   4.350   6.469
 1785TIP3    H1 5312   4.697   4.385   6.552
 1785TIP3    H2 5313   4.672   4.276   6.450
 1786TIP3   OH2 5314   4.418   6.403   2.610
 1786TIP3    H1 5315   4.435   6.311   2.593
 1786TIP3    H2 5316   4.427   6.412   2.705
 1787TIP3   OH2 5317   0.470   1.244   3.437
 1787TIP3    H1 5318   0.503   1.317   3.489
 1787TIP3    H2 5319   0.506   1.259   3.349
 1788TIP3   OH2 5320   2.469   1.925   0.177
 1788TIP3    H1 5321   2.413   1.850   0.156
 1788TIP3    H2 5322   2.472   1.927   0.273
 1789TIP3   OH2 5323   7.551   5.866   1.463
 1789TIP3    H1 5324   7.598   5.796   1.509
 1789TIP3    H2 5325   7.490   5.819   1.406
 1790TIP3   OH2 5326   7.254   5.576   2.660
 1790TIP3    H1 5327   7.211   5.588   2.576
 1790TIP3    H2 5328   7.347   5.585   2.640
 1791TIP3   OH2 5329   6.559   7.298   5.671
 1791TIP3    H1 5330   6.484   7.258   5.715
 1791TIP3    H2 5331   6.603   7.349   5.739
 1792TIP3   OH2 5332   1.240   7.207   2.044
 1792TIP3    H1 5333   1.318   7.172   2.002
 1792TIP3    H2 5334   1.167   7.160   2.002
 1793TIP3   OH2 5335   2.739   2.031   2.865
 1793TIP3    H1 5336   2.686   1.975   2.922
 1793TIP3    H2 5337   2.676   2.067   2.802
 1794TIP3   OH2 5338   7.986   6.617   3.248
 1794TIP3    H1 5339   7.899   6.651   3.268
 1794TIP3    H2 5340   7.971   6.529   3.215
 1795TIP3   OH2 5341   6.465   4.942   0.518
 1795TIP3    H1 5342   6.486   4.939   0.424
 1795TIP3    H2 5343   6.533   4.889   0.559
 1796TIP3   OH2 5344   8.325   5.020   6.672
 1796TIP3    H1 5345   8.330   4.924   6.671
 1796TIP3    H2 5346   8.260   5.041   6.605
 1797TIP3   OH2 5347   0.428   1.800   5.824
 1797TIP3    H1 5348   0.334   1.821   5.827
 1797TIP3    H2 5349   0.459   1.839   5.743
 1798TIP3   OH2 5350   7.442   1.518   4.737
 1798TIP3    H1 5351   7.474   1.486   4.653
 1798TIP3    H2 5352   7.443   1.613   4.729
 1799TIP3   OH2 5353   3.326   5.017   3.789
 1799TIP3    H1 5354   3.320   4.981   3.701
 1799TIP3    H2 5355   3.300   4.945   3.846
 1800TIP3   OH2 5356   2.283   3.897   2.673
 1800TIP3    H1 5357   2.355   3.836   2.661
 1800TIP3    H2 5358   2.254   3.917   2.584
 1801TIP3   OH2 5359   3.113   6.852   5.526
 1801TIP3    H1 5360   3.156   6.938   5.527
 1801TIP3    H2 5361   3.180   6.792   5.493
 1802TIP3   OH2 5362   2.810   2.185   4.426
 1802TIP3    H1 5363   2.873   2.148   4.363
 1802TIP3    H2 5364   2.746   2.231   4.371
 1803TIP3   OH2 5365   0.416   0.741   3.267
 1803TIP3    H1 5366   0.341   0.685   3.288
 1803TIP3    H2 5367   0.418   0.744   3.172
 1804TIP3   OH2 5368   6.054   7.276   0.822
 1804TIP3    H1 5369   6.135   7.226   0.809
 1804TIP3    H2 5370   5.990   7.235   0.764
 1805TIP3   OH2 5371   4.750   4.367   5.158
 1805TIP3    H1 5372   4.759   4.292   5.216
 1805TIP3    H2 5373   4.658   4.391   5.162
 1806TIP3   OH2 5374   3.093   0.709   3.873
 1806TIP3    H1 5375   3.173   0.755   3.848
 1806TIP3    H2 5376   3.027   0.778   3.877
 1807TIP3   OH2 5377   5.952   2.079   6.296
 1807TIP3    H1 5378   5.936   2.142   6.366
 1807TIP3    H2 5379   5.891   2.105   6.226
 1808TIP3   OH2 5380   2.858   5.739   0.680
 1808TIP3    H1 5381   2.833   5.725   0.588
 1808TIP3    H2 5382   2.794   5.688   0.729
 1809TIP3   OH2 5383   0.575   7.813   4.959
 1809TIP3    H1 5384   0.547   7.722   4.963
 1809TIP3    H2 5385   0.575   7.843   5.050
 1810TIP3   OH2 5386   3.268   7.076   5.603
 1810TIP3    H1 5387   3.181   7.110   5.627
 1810TIP3    H2 5388   3.317   7.153   5.576
 1811TIP3   OH2 5389   7.267   0.205   6.074
 1811TIP3    H1 5390   7.195   0.259   6.042
 1811TIP3    H2 5391   7.242   0.115   6.051
 1812TIP3   OH2 5392   6.932   6.651   1.226
 1812TIP3    H1 5393   6.879   6.667   1.148
 1812TIP3    H2 5394   6.877   6.680   1.299
 1813TIP3   OH2 5395   0.064   2.593   6.422
 1813TIP3    H1 5396   0.123   2.547   6.362
 1813TIP3    H2 5397   0.083   2.555   6.508
 1814TIP3   OH2 5398   8.245   3.547   4.550
 1814TIP3    H1 5399   8.207   3.509   4.630
 1814TIP3    H2 5400   8.201   3.632   4.542
 1815TIP3   OH2 5401   3.583   2.968   0.285
 1815TIP3    H1 5402   3.612   3.048   0.241
 1815TIP3    H2 5403   3.512   2.998   0.343
 1816TIP3   OH2 5404   4.030   2.117   1.949
 1816TIP3    H1 5405   4.117   2.089   1.918
 1816TIP3    H2 5406   3.986   2.035   1.973
 1817TIP3   OH2 5407   3.916   7.407   2.563
 1817TIP3    H1 5408   3.883   7.434   2.649
 1817TIP3    H2 5409   3.854   7.444   2.500
 1818TIP3   OH2 5410   5.745   2.256   1.740
 1818TIP3    H1 5411   5.653   2.273   1.718
 1818TIP3    H2 5412   5.782   2.221   1.659
 1819TIP3   OH2 5413   5.798   7.421   3.403
 1819TIP3    H1 5414   5.766   7.476   3.475
 1819TIP3    H2 5415   5.794   7.478   3.326
 1820TIP3   OH2 5416   3.577   3.018   4.579
 1820TIP3    H1 5417   3.513   2.987   4.643
 1820TIP3    H2 5418   3.575   3.114   4.588
 1821TIP3   OH2 5419   6.235   4.132   5.377
 1821TIP3    H1 5420   6.276   4.218   5.367
 1821TIP3    H2 5421   6.281   4.077   5.314
 1822TIP3   OH2 5422   1.118   1.089   2.155
 1822TIP3    H1 5423   1.027   1.109   2.132
 1822TIP3    H2 5424   1.168   1.110   2.076
 1823TIP3   OH2 5425   1.307   1.343   4.188
 1823TIP3    H1 5426   1.333   1.425   4.230
 1823TIP3    H2 5427   1.214   1.335   4.208
 1824TIP3   OH2 5428   8.076   7.802   1.891
 1824TIP3    H1 5429   8.028   7.743   1.832
 1824TIP3    H2 5430   8.008   7.855   1.932
 1825TIP3   OH2 5431   6.894   3.300   1.515
 1825TIP3    H1 5432   6.865   3.333   1.600
 1825TIP3    H2 5433   6.990   3.295   1.523
 1826TIP3   OH2 5434   6.487   2.688   1.150
 1826TIP3    H1 5435   6.537   2.749   1.095
 1826TIP3    H2 5436   6.546   2.614   1.163
 1827TIP3   OH2 5437   5.719   0.005   5.547
 1827TIP3    H1 5438   5.660  -0.001   5.623
 1827TIP3    H2 5439   5.804   0.026   5.585
 1828TIP3   OH2 5440   6.935   6.427   5.926
 1828TIP3    H1 5441   7.022   6.447   5.891
 1828TIP3    H2 5442   6.952   6.377   6.005
 1829TIP3   OH2 5443   1.396   3.590   2.402
 1829TIP3    H1 5444   1.430   3.646   2.471
 1829TIP3    H2 5445   1.428   3.502   2.423
 1830TIP3   OH2 5446   0.058   5.629   1.612
 1830TIP3    H1 5447   0.062   5.713   1.567
 1830TIP3    H2 5448   0.072   5.650   1.704
 1831TIP3   OH2 5449   1.793   6.278   4.558
 1831TIP3    H1 5450   1.825   6.367   4.547
 1831TIP3    H2 5451   1.825   6.252   4.645
 1832TIP3   OH2 5452   0.570   0.187   5.967
 1832TIP3    H1 5453   0.522   0.112   5.933
 1832TIP3    H2 5454   0.639   0.148   6.021
 1833TIP3   OH2 5455   0.674   5.803   3.846
 1833TIP3    H1 5456   0.680   5.882   3.900
 1833TIP3    H2 5457   0.759   5.797   3.802
 1834TIP3   OH2 5458   1.861   6.602   6.698
 1834TIP3    H1 5459   1.787   6.646   6.656
 1834TIP3    H2 5460   1.826   6.572   6.782
 1835TIP3   OH2 5461   0.991   2.756   3.456
 1835TIP3    H1 5462   0.980   2.662   3.443
 1835TIP3    H2 5463   1.024   2.788   3.372
 1836TIP3   OH2 5464   3.523   0.244   5.695
 1836TIP3    H1 5465   3.485   0.162   5.726
 1836TIP3    H2 5466   3.457   0.310   5.714
 1837TIP3   OH2 5467   5.600   3.953   2.385
 1837TIP3    H1 5468   5.678   3.901   2.365
 1837TIP3    H2 5469   5.625   4.003   2.463
 1838TIP3   OH2 5470   4.680   5.973   6.266
 1838TIP3    H1 5471   4.706   6.065   6.264
 1838TIP3    H2 5472   4.683   5.950   6.359
 1839TIP3   OH2 5473   7.064   5.123   0.289
 1839TIP3    H1 5474   7.148   5.151   0.253
 1839TIP3    H2 5475   7.085   5.095   0.378
 1840TIP3   OH2 5476   0.938   1.575   4.437
 1840TIP3    H1 5477   0.937   1.509   4.507
 1840TIP3    H2 5478   1.028   1.607   4.436
 1841TIP3   OH2 5479   1.018   6.632   1.741
 1841TIP3    H1 5480   1.100   6.681   1.735
 1841TIP3    H2 5481   0.977   6.662   1.822
 1842TIP3   OH2 5482   7.084   0.502   6.323
 1842TIP3    H1 5483   7.105   0.590   6.294
 1842TIP3    H2 5484   7.169   0.459   6.332
 1843TIP3   OH2 5485   4.242   2.431   6.128
 1843TIP3    H1 5486   4.321   2.386   6.160
 1843TIP3    H2 5487   4.198   2.366   6.073
 1844TIP3   OH2 5488   7.732   4.896   5.238
 1844TIP3    H1 5489   7.694   4.965   5.292
 1844TIP3    H2 5490   7.797   4.940   5.184
 1845TIP3   OH2 5491   4.670   3.214   5.253
 1845TIP3    H1 5492   4.581   3.183   5.235
 1845TIP3    H2 5493   4.712   3.141   5.298
 1846TIP3   OH2 5494   4.871   5.985   3.387
 1846TIP3    H1 5495   4.880   5.990   3.482
 1846TIP3    H2 5496   4.860   6.076   3.360
 1847TIP3   OH2 5497   6.673   4.088   4.427
 1847TIP3    H1 5498   6.751   4.141   4.410
 1847TIP3    H2 5499   6.636   4.072   4.340
 1848TIP3   OH2 5500   0.567   1.106   4.467
 1848TIP3    H1 5501   0.474   1.106   4.487
 1848TIP3    H2 5502   0.599   1.022   4.502
 1849TIP3   OH2 5503   6.647   2.988   3.499
 1849TIP3    H1 5504   6.610   3.072   3.526
 1849TIP3    H2 5505   6.580   2.949   3.443
 1850TIP3   OH2 5506   3.745   7.212   3.630
 1850TIP3    H1 5507   3.719   7.137   3.577
 1850TIP3    H2 5508   3.687   7.210   3.706
 1851TIP3   OH2 5509   7.461   3.626   3.930
 1851TIP3    H1 5510   7.414   3.648   3.850
 1851TIP3    H2 5511   7.403   3.566   3.976
 1852TIP3   OH2 5512   3.984   1.579   4.406
 1852TIP3    H1 5513   4.028   1.607   4.487
 1852TIP3    H2 5514   3.935   1.501   4.432
 1853TIP3   OH2 5515   6.285   7.590   3.486
 1853TIP3    H1 5516   6.207   7.595   3.431
 1853TIP3    H2 5517   6.270   7.515   3.543
 1854TIP3   OH2 5518   4.540   1.194   2.557
 1854TIP3    H1 5519   4.499   1.277   2.531
 1854TIP3    H2 5520   4.572   1.156   2.475
 1855TIP3   OH2 5521   3.870   0.084   4.069
 1855TIP3    H1 5522   3.875   0.025   4.144
 1855TIP3    H2 5523   3.804   0.046   4.011
 1856TIP3   OH2 5524   4.437   6.013   2.195
 1856TIP3    H1 5525   4.481   5.977   2.119
 1856TIP3    H2 5526   4.379   5.944   2.225
 1857TIP3   OH2 5527   7.946   1.631   4.285
 1857TIP3    H1 5528   7.986   1.606   4.202
 1857TIP3    H2 5529   7.854   1.648   4.264
 1858TIP3   OH2 5530   2.022   1.998   3.373
 1858TIP3    H1 5531   1.960   1.967   3.308
 1858TIP3    H2 5532   2.107   1.991   3.330
 1859TIP3   OH2 5533   5.892   0.799   1.561
 1859TIP3    H1 5534   5.946   0.808   1.640
 1859TIP3    H2 5535   5.944   0.744   1.503
 1860TIP3   OH2 5536   7.505   5.200   2.144
 1860TIP3    H1 5537   7.467   5.279   2.183
 1860TIP3    H2 5538   7.508   5.219   2.050
 1861TIP3   OH2 5539   2.772   5.873   1.517
 1861TIP3    H1 5540   2.790   5.805   1.451
 1861TIP3    H2 5541   2.836   5.857   1.586
 1862TIP3   OH2 5542   5.451   2.074   2.853
 1862TIP3    H1 5543   5.459   2.141   2.786
 1862TIP3    H2 5544   5.371   2.096   2.901
 1863TIP3   OH2 5545   4.331   5.766   3.751
 1863TIP3    H1 5546   4.238   5.776   3.770
 1863TIP3    H2 5547   4.334   5.712   3.672
 1864TIP3   OH2 5548   2.681   2.186   1.038
 1864TIP3    H1 5549   2.735   2.116   1.074
 1864TIP3    H2 5550   2.608   2.141   0.996
 1865TIP3   OH2 5551   1.656   5.404   2.096
 1865TIP3    H1 5552   1.598   5.413   2.020
 1865TIP3    H2 5553   1.720   5.339   2.068
 1866TIP3   OH2 5554   4.803   4.420   1.945
 1866TIP3    H1 5555   4.717   4.410   1.988
 1866TIP3    H2 5556   4.802   4.509   1.911
 1867TIP3   OH2 5557   7.915   2.142   3.021
 1867TIP3    H1 5558   7.842   2.183   2.975
 1867TIP3    H2 5559   7.979   2.123   2.952
 1868TIP3   OH2 5560   3.260   6.141   2.346
 1868TIP3    H1 5561   3.188   6.101   2.395
 1868TIP3    H2 5562   3.337   6.128   2.402
 1869TIP3   OH2 5563   7.710   2.552   2.387
 1869TIP3    H1 5564   7.640   2.590   2.441
 1869TIP3    H2 5565   7.725   2.617   2.319
 1870TIP3   OH2 5566   5.972   1.706   3.614
 1870TIP3    H1 5567   5.876   1.698   3.611
 1870TIP3    H2 5568   6.001   1.624   3.654
 1871TIP3   OH2 5569   2.303   1.561   5.862
 1871TIP3    H1 5570   2.384   1.608   5.879
 1871TIP3    H2 5571   2.267   1.542   5.949
 1872TIP3   OH2 5572   6.931   4.827   0.617
 1872TIP3    H1 5573   6.935   4.840   0.522
 1872TIP3    H2 5574   7.009   4.774   0.637
 1873TIP3   OH2 5575   7.360   4.777   1.643
 1873TIP3    H1 5576   7.343   4.871   1.654
 1873TIP3    H2 5577   7.338   4.761   1.551
 1874TIP3   OH2 5578   3.590   7.348   1.361
 1874TIP3    H1 5579   3.613   7.271   1.413
 1874TIP3    H2 5580   3.669   7.368   1.311
 1875TIP3   OH2 5581   4.459   5.090   4.782
 1875TIP3    H1 5582   4.478   5.006   4.824
 1875TIP3    H2 5583   4.378   5.075   4.734
 1876TIP3   OH2 5584   4.786   4.161   3.929
 1876TIP3    H1 5585   4.819   4.237   3.882
 1876TIP3    H2 5586   4.736   4.198   4.002
 1877TIP3   OH2 5587   6.263   5.930   2.514
 1877TIP3    H1 5588   6.358   5.935   2.522
 1877TIP3    H2 5589   6.231   6.009   2.557
 1878TIP3   OH2 5590   5.943   1.876   4.095
 1878TIP3    H1 5591   5.971   1.810   4.032
 1878TIP3    H2 5592   5.848   1.869   4.098
 1879TIP3   OH2 5593   3.187   3.739   3.688
 1879TIP3    H1 5594   3.241   3.755   3.611
 1879TIP3    H2 5595   3.155   3.825   3.714
 1880TIP3   OH2 5596   7.319   3.281   5.552
 1880TIP3    H1 5597   7.335   3.275   5.646
 1880TIP3    H2 5598   7.289   3.193   5.528
 1881TIP3   OH2 5599   1.956   4.197   2.033
 1881TIP3    H1 5600   2.037   4.243   2.053
 1881TIP3    H2 5601   1.887   4.262   2.047
 1882TIP3   OH2 5602   0.656   1.556   2.340
 1882TIP3    H1 5603   0.734   1.612   2.339
 1882TIP3    H2 5604   0.668   1.501   2.417
 1883TIP3   OH2 5605   3.556   3.870   2.926
 1883TIP3    H1 5606   3.556   3.803   2.995
 1883TIP3    H2 5607   3.647   3.878   2.900
 1884TIP3   OH2 5608   3.841   0.271   2.275
 1884TIP3    H1 5609   3.766   0.312   2.231
 1884TIP3    H2 5610   3.918   0.307   2.230
 1885TIP3   OH2 5611   6.304   6.467   1.388
 1885TIP3    H1 5612   6.373   6.510   1.336
 1885TIP3    H2 5613   6.290   6.527   1.462
 1886TIP3   OH2 5614   3.478   6.996   1.867
 1886TIP3    H1 5615   3.530   7.075   1.882
 1886TIP3    H2 5616   3.393   7.014   1.908
 1887TIP3   OH2 5617   3.491   2.947   6.145
 1887TIP3    H1 5618   3.479   2.896   6.065
 1887TIP3    H2 5619   3.555   2.896   6.196
 1888TIP3   OH2 5620   0.618   6.536   1.031
 1888TIP3    H1 5621   0.588   6.617   1.072
 1888TIP3    H2 5622   0.674   6.564   0.959
 1889TIP3   OH2 5623   1.062   2.492   2.177
 1889TIP3    H1 5624   1.059   2.587   2.171
 1889TIP3    H2 5625   1.016   2.472   2.258
 1890TIP3   OH2 5626   0.034   1.124   1.848
 1890TIP3    H1 5627   0.122   1.159   1.837
 1890TIP3    H2 5628   0.044   1.030   1.834
 1891TIP3   OH2 5629   6.438   2.314   6.236
 1891TIP3    H1 5630   6.418   2.398   6.279
 1891TIP3    H2 5631   6.360   2.261   6.250
 1892TIP3   OH2 5632   8.117   6.290   5.528
 1892TIP3    H1 5633   8.113   6.249   5.442
 1892TIP3    H2 5634   8.028   6.318   5.546
 1893TIP3   OH2 5635   5.109   0.944   6.065
 1893TIP3    H1 5636   5.191   0.918   6.023
 1893TIP3    H2 5637   5.134   1.009   6.130
 1894TIP3   OH2 5638   2.908   5.252   2.940
 1894TIP3    H1 5639   2.937   5.342   2.932
 1894TIP3    H2 5640   2.883   5.243   3.032
 1895TIP3   OH2 5641   6.741   7.548   3.260
 1895TIP3    H1 5642   6.778   7.472   3.305
 1895TIP3    H2 5643   6.668   7.575   3.316
 1896TIP3   OH2 5644   7.675   5.617   6.459
 1896TIP3    H1 5645   7.743   5.605   6.525
 1896TIP3    H2 5646   7.661   5.530   6.423
 1897TIP3   OH2 5647   0.102   7.845   1.846
 1897TIP3    H1 5648   0.131   7.758   1.817
 1897TIP3    H2 5649   0.093   7.895   1.765
 1898TIP3   OH2 5650   2.627   3.042   4.069
 1898TIP3    H1 5651   2.539   3.079   4.075
 1898TIP3    H2 5652   2.651   3.050   3.976
 1899TIP3   OH2 5653   7.755   2.231   6.415
 1899TIP3    H1 5654   7.786   2.289   6.346
 1899TIP3    H2 5655   7.757   2.286   6.494
 1900TIP3   OH2 5656   2.867   7.216   0.281
 1900TIP3    H1 5657   2.918   7.230   0.202
 1900TIP3    H2 5658   2.785   7.177   0.250
 1901TIP3   OH2 5659   4.722   1.070   2.409
 1901TIP3    H1 5660   4.696   0.999   2.468
 1901TIP3    H2 5661   4.818   1.073   2.416
 1902TIP3   OH2 5662   5.997   3.682   6.434
 1902TIP3    H1 5663   5.960   3.597   6.411
 1902TIP3    H2 5664   6.089   3.676   6.410
 1903TIP3   OH2 5665   5.812   0.979   3.313
 1903TIP3    H1 5666   5.802   0.891   3.348
 1903TIP3    H2 5667   5.809   0.968   3.218
 1904TIP3   OH2 5668   3.885   5.159   3.393
 1904TIP3    H1 5669   3.899   5.249   3.423
 1904TIP3    H2 5670   3.793   5.141   3.415
 1905TIP3   OH2 5671   4.966   0.932   4.180
 1905TIP3    H1 5672   4.940   0.841   4.167
 1905TIP3    H2 5673   5.044   0.927   4.237
 1906TIP3   OH2 5674   7.215   3.300   4.858
 1906TIP3    H1 5675   7.162   3.361   4.908
 1906TIP3    H2 5676   7.210   3.332   4.768
 1907TIP3   OH2 5677   0.381   5.978   1.020
 1907TIP3    H1 5678   0.426   5.894   1.033
 1907TIP3    H2 5679   0.444   6.032   0.973
 1908TIP3   OH2 5680   0.473   1.041   3.222
 1908TIP3    H1 5681   0.457   0.948   3.240
 1908TIP3    H2 5682   0.501   1.043   3.130
 1909TIP3   OH2 5683   7.979   4.064   4.542
 1909TIP3    H1 5684   7.994   4.015   4.623
 1909TIP3    H2 5685   7.923   4.007   4.490
 1910TIP3   OH2 5686   0.939   4.330   4.463
 1910TIP3    H1 5687   0.917   4.325   4.556
 1910TIP3    H2 5688   0.856   4.316   4.418
 1911TIP3   OH2 5689   1.452   3.343   3.880
 1911TIP3    H1 5690   1.539   3.375   3.904
 1911TIP3    H2 5691   1.397   3.421   3.879
 1912TIP3   OH2 5692   6.379   6.327   5.052
 1912TIP3    H1 5693   6.382   6.416   5.018
 1912TIP3    H2 5694   6.318   6.281   4.994
 1913TIP3   OH2 5695   1.080   1.028   3.139
 1913TIP3    H1 5696   1.127   0.999   3.217
 1913TIP3    H2 5697   1.124   0.983   3.067
 1914TIP3   OH2 5698   8.075   6.698   1.735
 1914TIP3    H1 5699   8.014   6.647   1.788
 1914TIP3    H2 5700   8.138   6.732   1.799
 1915TIP3   OH2 5701   2.512   0.687   1.369
 1915TIP3    H1 5702   2.536   0.772   1.406
 1915TIP3    H2 5703   2.579   0.670   1.303
 1916TIP3   OH2 5704   4.955   6.749   3.765
 1916TIP3    H1 5705   4.885   6.804   3.802
 1916TIP3    H2 5706   5.002   6.716   3.841
 1917TIP3   OH2 5707   3.612   2.087   4.631
 1917TIP3    H1 5708   3.584   2.178   4.631
 1917TIP3    H2 5709   3.539   2.039   4.592
 1918TIP3   OH2 5710   4.362   3.657   3.858
 1918TIP3    H1 5711   4.359   3.593   3.786
 1918TIP3    H2 5712   4.440   3.633   3.908
 1919TIP3   OH2 5713   2.777   1.313   0.414
 1919TIP3    H1 5714   2.758   1.328   0.322
 1919TIP3    H2 5715   2.723   1.238   0.439
 1920TIP3   OH2 5716   7.740   7.677   2.522
 1920TIP3    H1 5717   7.808   7.725   2.475
 1920TIP3    H2 5718   7.672   7.662   2.456
 1921TIP3   OH2 5719   6.059   7.420   4.602
 1921TIP3    H1 5720   6.096   7.381   4.681
 1921TIP3    H2 5721   5.964   7.415   4.614
 1922TIP3   OH2 5722   6.143   4.481   5.725
 1922TIP3    H1 5723   6.099   4.491   5.809
 1922TIP3    H2 5724   6.223   4.431   5.744
 1923TIP3   OH2 5725   3.412   6.463   0.348
 1923TIP3    H1 5726   3.340   6.512   0.307
 1923TIP3    H2 5727   3.431   6.392   0.287
 1924TIP3   OH2 5728   7.315   3.741   6.689
 1924TIP3    H1 5729   7.321   3.752   6.784
 1924TIP3    H2 5730   7.406   3.739   6.659
 1925TIP3   OH2 5731   0.958   2.993   1.254
 1925TIP3    H1 5732   0.990   2.906   1.279
 1925TIP3    H2 5733   0.865   2.979   1.235
 1926TIP3   OH2 5734   7.430   7.570   0.811
 1926TIP3    H1 5735   7.347   7.617   0.818
 1926TIP3    H2 5736   7.408   7.491   0.761
 1927TIP3   OH2 5737   5.368   6.122   4.506
 1927TIP3    H1 5738   5.426   6.115   4.431
 1927TIP3    H2 5739   5.361   6.217   4.522
 1928TIP3   OH2 5740   4.165   2.853   5.959
 1928TIP3    H1 5741   4.128   2.795   6.026
 1928TIP3    H2 5742   4.259   2.849   5.972
 1929TIP3   OH2 5743   3.992   3.415   4.281
 1929TIP3    H1 5744   3.925   3.435   4.215
 1929TIP3    H2 5745   3.959   3.455   4.361
 1930TIP3   OH2 5746   6.255   3.768   0.324
 1930TIP3    H1 5747   6.197   3.725   0.387
 1930TIP3    H2 5748   6.270   3.856   0.361
 1931TIP3   OH2 5749   5.730   3.212   2.515
 1931TIP3    H1 5750   5.714   3.305   2.500
 1931TIP3    H2 5751   5.778   3.182   2.438
 1932TIP3   OH2 5752   5.341   7.403   4.898
 1932TIP3    H1 5753   5.303   7.350   4.968
 1932TIP3    H2 5754   5.433   7.377   4.894
 1933TIP3   OH2 5755   5.242   1.531   5.841
 1933TIP3    H1 5756   5.159   1.494   5.810
 1933TIP3    H2 5757   5.219   1.575   5.923
 1934TIP3   OH2 5758   3.238   7.111   1.956
 1934TIP3    H1 5759   3.212   7.162   2.032
 1934TIP3    H2 5760   3.173   7.132   1.889
 1935TIP3   OH2 5761   0.269   7.385   3.211
 1935TIP3    H1 5762   0.220   7.327   3.269
 1935TIP3    H2 5763   0.211   7.460   3.198
 1936TIP3   OH2 5764   4.282   7.227   0.227
 1936TIP3    H1 5765   4.253   7.264   0.311
 1936TIP3    H2 5766   4.218   7.259   0.164
 1937TIP3   OH2 5767   7.064   0.634   3.919
 1937TIP3    H1 5768   7.023   0.563   3.870
 1937TIP3    H2 5769   7.096   0.695   3.852
 1938TIP3   OH2 5770   0.066   7.846   2.717
 1938TIP3    H1 5771   0.140   7.785   2.717
 1938TIP3    H2 5772   0.028   7.836   2.804
 1939TIP3   OH2 5773   3.209   5.199   6.191
 1939TIP3    H1 5774   3.217   5.159   6.104
 1939TIP3    H2 5775   3.299   5.219   6.217
 1940TIP3   OH2 5776   5.331   2.560   0.684
 1940TIP3    H1 5777   5.422   2.529   0.683
 1940TIP3    H2 5778   5.280   2.481   0.665
 1941TIP3   OH2 5779   6.873   0.530   0.103
 1941TIP3    H1 5780   6.826   0.448   0.084
 1941TIP3    H2 5781   6.960   0.517   0.065
 1942TIP3   OH2 5782   6.924   4.195   4.361
 1942TIP3    H1 5783   6.948   4.284   4.337
 1942TIP3    H2 5784   6.991   4.140   4.319
 1943TIP3   OH2 5785   0.565   0.401   5.382
 1943TIP3    H1 5786   0.630   0.449   5.332
 1943TIP3    H2 5787   0.545   0.324   5.328
 1944TIP3   OH2 5788   2.331   0.337   5.513
 1944TIP3    H1 5789   2.302   0.263   5.460
 1944TIP3    H2 5790   2.344   0.300   5.601
 1945TIP3   OH2 5791   3.384   3.965   0.578
 1945TIP3    H1 5792   3.340   4.042   0.615
 1945TIP3    H2 5793   3.471   3.997   0.555
 1946TIP3   OH2 5794   7.088   0.776   3.418
 1946TIP3    H1 5795   7.053   0.710   3.478
 1946TIP3    H2 5796   7.107   0.851   3.474
 1947TIP3   OH2 5797   3.717   4.367   2.493
 1947TIP3    H1 5798   3.762   4.448   2.519
 1947TIP3    H2 5799   3.782   4.321   2.439
 1948TIP3   OH2 5800   6.787   4.384   2.122
 1948TIP3    H1 5801   6.818   4.475   2.116
 1948TIP3    H2 5802   6.867   4.331   2.125
 1949TIP3   OH2 5803   0.694   1.865   3.334
 1949TIP3    H1 5804   0.609   1.903   3.309
 1949TIP3    H2 5805   0.688   1.773   3.307
 1950TIP3   OH2 5806   2.644   0.198   4.205
 1950TIP3    H1 5807   2.728   0.222   4.244
 1950TIP3    H2 5808   2.666   0.173   4.115
 1951TIP3   OH2 5809   6.801   4.202   0.074
 1951TIP3    H1 5810   6.844   4.266   0.129
 1951TIP3    H2 5811   6.862   4.187   0.002
 1952TIP3   OH2 5812   1.015   5.051   0.600
 1952TIP3    H1 5813   1.048   5.085   0.683
 1952TIP3    H2 5814   0.954   5.118   0.569
 1953TIP3   OH2 5815   6.365   0.523   1.771
 1953TIP3    H1 5816   6.338   0.493   1.685
 1953TIP3    H2 5817   6.449   0.480   1.787
 1954TIP3   OH2 5818   6.713   2.732   5.021
 1954TIP3    H1 5819   6.802   2.759   4.997
 1954TIP3    H2 5820   6.710   2.639   4.999
 1955TIP3   OH2 5821   7.698   1.313   0.895
 1955TIP3    H1 5822   7.627   1.361   0.853
 1955TIP3    H2 5823   7.776   1.367   0.879
 1956TIP3   OH2 5824   0.277   1.376   3.025
 1956TIP3    H1 5825   0.210   1.334   2.971
 1956TIP3    H2 5826   0.281   1.323   3.105
 1957TIP3   OH2 5827   7.677   7.147   5.496
 1957TIP3    H1 5828   7.761   7.192   5.496
 1957TIP3    H2 5829   7.696   7.060   5.461
 1958TIP3   OH2 5830   7.973   7.723   0.517
 1958TIP3    H1 5831   8.015   7.655   0.569
 1958TIP3    H2 5832   7.929   7.779   0.581
 1959TIP3   OH2 5833   8.276   4.900   2.857
 1959TIP3    H1 5834   8.344   4.943   2.806
 1959TIP3    H2 5835   8.297   4.807   2.852
 1960TIP3   OH2 5836   0.319   1.414   6.395
 1960TIP3    H1 5837   0.340   1.338   6.449
 1960TIP3    H2 5838   0.397   1.426   6.340
 1961TIP3   OH2 5839   4.059   1.692   2.719
 1961TIP3    H1 5840   4.129   1.755   2.736
 1961TIP3    H2 5841   4.003   1.696   2.796
 1962TIP3   OH2 5842   6.333   4.030   1.031
 1962TIP3    H1 5843   6.327   3.969   0.958
 1962TIP3    H2 5844   6.324   4.117   0.992
 1963TIP3   OH2 5845   5.439   0.174   6.096
 1963TIP3    H1 5846   5.391   0.237   6.043
 1963TIP3    H2 5847   5.374   0.144   6.161
 1964TIP3   OH2 5848   7.570   3.771   1.780
 1964TIP3    H1 5849   7.632   3.838   1.809
 1964TIP3    H2 5850   7.515   3.815   1.715
 1965TIP3   OH2 5851   5.927   5.675   2.962
 1965TIP3    H1 5852   5.912   5.631   2.878
 1965TIP3    H2 5853   5.844   5.718   2.982
 1966TIP3   OH2 5854   1.373   3.468   2.724
 1966TIP3    H1 5855   1.282   3.439   2.725
 1966TIP3    H2 5856   1.424   3.386   2.722
 1967TIP3   OH2 5857   1.923   1.195   3.889
 1967TIP3    H1 5858   1.927   1.112   3.842
 1967TIP3    H2 5859   1.935   1.172   3.981
 1968TIP3   OH2 5860   4.503   3.812   5.484
 1968TIP3    H1 5861   4.535   3.787   5.397
 1968TIP3    H2 5862   4.574   3.787   5.544
 1969TIP3   OH2 5863   3.180   2.517   3.547
 1969TIP3    H1 5864   3.129   2.441   3.519
 1969TIP3    H2 5865   3.214   2.493   3.633
 1970TIP3   OH2 5866   3.435   2.565   1.775
 1970TIP3    H1 5867   3.507   2.613   1.733
 1970TIP3    H2 5868   3.457   2.473   1.763
 1971TIP3   OH2 5869   4.209   2.343   2.101
 1971TIP3    H1 5870   4.257   2.285   2.042
 1971TIP3    H2 5871   4.116   2.325   2.082
 1972TIP3   OH2 5872   4.725   2.184   6.689
 1972TIP3    H1 5873   4.703   2.216   6.601
 1972TIP3    H2 5874   4.651   2.127   6.713
 1973TIP3   OH2 5875   4.850   7.072   6.497
 1973TIP3    H1 5876   4.795   6.994   6.506
 1973TIP3    H2 5877   4.869   7.077   6.403
 1974TIP3   OH2 5878   0.332   4.420   5.497
 1974TIP3    H1 5879   0.300   4.349   5.553
 1974TIP3    H2 5880   0.422   4.436   5.526
 1975TIP3   OH2 5881   7.788   2.831   0.823
 1975TIP3    H1 5882   7.818   2.742   0.837
 1975TIP3    H2 5883   7.795   2.844   0.729
 1976TIP3   OH2 5884   3.682   6.607   3.435
 1976TIP3    H1 5885   3.675   6.513   3.416
 1976TIP3    H2 5886   3.658   6.615   3.527
 1977TIP3   OH2 5887   0.801   3.311   2.676
 1977TIP3    H1 5888   0.855   3.246   2.629
 1977TIP3    H2 5889   0.765   3.366   2.606
 1978TIP3   OH2 5890   2.123   7.203   5.866
 1978TIP3    H1 5891   2.166   7.262   5.804
 1978TIP3    H2 5892   2.158   7.116   5.845
 1979TIP3   OH2 5893   2.585   6.183   0.296
 1979TIP3    H1 5894   2.606   6.137   0.377
 1979TIP3    H2 5895   2.658   6.163   0.238
 1980TIP3   OH2 5896   8.115   3.148   1.838
 1980TIP3    H1 5897   8.174   3.074   1.822
 1980TIP3    H2 5898   8.027   3.113   1.827
 1981TIP3   OH2 5899   7.417   1.768   6.811
 1981TIP3    H1 5900   7.480   1.828   6.772
 1981TIP3    H2 5901   7.343   1.769   6.750
 1982TIP3   OH2 5902   1.169   3.475   6.453
 1982TIP3    H1 5903   1.081   3.485   6.490
 1982TIP3    H2 5904   1.227   3.513   6.520
 1983TIP3   OH2 5905   1.703   6.801   3.132
 1983TIP3    H1 5906   1.649   6.816   3.210
 1983TIP3    H2 5907   1.769   6.871   3.135
 1984TIP3   OH2 5908   7.725   3.783   6.001
 1984TIP3    H1 5909   7.640   3.744   6.022
 1984TIP3    H2 5910   7.787   3.710   6.006
 1985TIP3   OH2 5911   3.117   1.753   2.533
 1985TIP3    H1 5912   3.145   1.838   2.567
 1985TIP3    H2 5913   3.035   1.734   2.579
 1986TIP3   OH2 5914   4.050   4.059   1.485
 1986TIP3    H1 5915   3.988   4.116   1.530
 1986TIP3    H2 5916   4.059   3.983   1.543
 1987TIP3   OH2 5917   3.950   4.351   3.443
 1987TIP3    H1 5918   3.913   4.318   3.361
 1987TIP3    H2 5919   3.956   4.273   3.499
 1988TIP3   OH2 5920   6.587   2.921   4.856
 1988TIP3    H1 5921   6.630   2.845   4.894
 1988TIP3    H2 5922   6.636   2.996   4.890
 1989TIP3   OH2 5923   2.805   2.239   6.335
 1989TIP3    H1 5924   2.872   2.194   6.284
 1989TIP3    H2 5925   2.722   2.209   6.298
 1990TIP3   OH2 5926   5.253   1.768   3.102
 1990TIP3    H1 5927   5.251   1.701   3.169
 1990TIP3    H2 5928   5.320   1.830   3.130
 1991TIP3   OH2 5929   0.245   6.846   2.506
 1991TIP3    H1 5930   0.152   6.826   2.511
 1991TIP3    H2 5931   0.248   6.941   2.492
 1992TIP3   OH2 5932   0.445   7.071   5.044
 1992TIP3    H1 5933   0.496   7.090   5.122
 1992TIP3    H2 5934   0.446   7.152   4.994
 1993TIP3   OH2 5935   4.180   5.515   1.128
 1993TIP3    H1 5936   4.127   5.453   1.177
 1993TIP3    H2 5937   4.163   5.599   1.171
 1994TIP3   OH2 5938   4.609   0.108   4.807
 1994TIP3    H1 5939   4.632   0.173   4.741
 1994TIP3    H2 5940   4.589   0.160   4.886
 1995TIP3   OH2 5941   5.992   5.989   6.030
 1995TIP3    H1 5942   5.963   6.043   5.956
 1995TIP3    H2 5943   6.015   6.053   6.098
 1996TIP3   OH2 5944   0.167   6.854   4.756
 1996TIP3    H1 5945   0.108   6.779   4.771
 1996TIP3    H2 5946   0.146   6.915   4.827
 1997TIP3   OH2 5947   7.548   3.510   1.942
 1997TIP3    H1 5948   7.544   3.565   2.020
 1997TIP3    H2 5949   7.479   3.544   1.885
 1998TIP3   OH2 5950   3.863   5.226   4.972
 1998TIP3    H1 5951   3.933   5.276   4.931
 1998TIP3    H2 5952   3.783   5.257   4.929
 1999TIP3   OH2 5953   4.829   3.171   2.374
 1999TIP3    H1 5954   4.908   3.198   2.421
 1999TIP3    H2 5955   4.764   3.238   2.397
 2000TIP3   OH2 5956   3.066   6.277   2.768
 2000TIP3    H1 5957   2.990   6.301   2.714
 2000TIP3    H2 5958   3.102   6.199   2.725
 2001TIP3   OH2 5959   6.644   5.281   3.746
 2001TIP3    H1 5960   6.686   5.228   3.814
 2001TIP3    H2 5961   6.705   5.277   3.672
 2002TIP3   OH2 5962   3.583   0.249   5.421
 2002TIP3    H1 5963   3.611   0.268   5.510
 2002TIP3    H2 5964   3.491   0.225   5.429
 2003TIP3   OH2 5965   7.513   7.406   1.526
 2003TIP3    H1 5966   7.450   7.477   1.519
 2003TIP3    H2 5967   7.461   7.326   1.519
 2004TIP3   OH2 5968   7.928   2.251   1.656
 2004TIP3    H1 5969   7.850   2.215   1.615
 2004TIP3    H2 5970   8.001   2.222   1.601
 2005TIP3   OH2 5971   4.146   7.277   0.761
 2005TIP3    H1 5972   4.081   7.264   0.693
 2005TIP3    H2 5973   4.169   7.370   0.756
 2006TIP3   OH2 5974   2.012   7.737   3.652
 2006TIP3    H1 5975   2.047   7.695   3.574
 2006TIP3    H2 5976   2.080   7.799   3.679
 2007TIP3   OH2 5977   0.822   5.925   1.073
 2007TIP3    H1 5978   0.838   5.924   1.168
 2007TIP3    H2 5979   0.838   6.016   1.047
 2008TIP3   OH2 5980   8.085   6.205   5.279
 2008TIP3    H1 5981   8.142   6.166   5.213
 2008TIP3    H2 5982   8.013   6.143   5.288
 2009TIP3   OH2 5983   3.199   5.495   6.387
 2009TIP3    H1 5984   3.121   5.475   6.438
 2009TIP3    H2 5985   3.183   5.455   6.302
 2010TIP3   OH2 5986   5.853   0.229   5.355
 2010TIP3    H1 5987   5.902   0.295   5.307
 2010TIP3    H2 5988   5.805   0.278   5.422
 2011TIP3   OH2 5989   0.142   5.278   3.601
 2011TIP3    H1 5990   0.218   5.336   3.594
 2011TIP3    H2 5991   0.135   5.258   3.695
 2012TIP3   OH2 5992   1.819   7.075   6.061
 2012TIP3    H1 5993   1.831   6.980   6.051
 2012TIP3    H2 5994   1.801   7.106   5.973
 2013TIP3   OH2 5995   6.076   7.142  -0.014
 2013TIP3    H1 5996   6.136   7.097   0.045
 2013TIP3    H2 5997   6.000   7.084  -0.020
 2014TIP3   OH2 5998   7.815   1.003   1.924
 2014TIP3    H1 5999   7.725   0.988   1.895
 2014TIP3    H2 6000   7.837   1.090   1.890
 2015TIP3   OH2 6001   2.024   2.658   5.719
 2015TIP3    H1 6002   2.029   2.618   5.806
 2015TIP3    H2 6003   2.047   2.750   5.733
 2016TIP3   OH2 6004   6.713   4.969   4.892
 2016TIP3    H1 6005   6.790   4.925   4.856
 2016TIP3    H2 6006   6.639   4.918   4.861
 2017TIP3   OH2 6007   6.340   1.678   5.702
 2017TIP3    H1 6008   6.345   1.770   5.675
 2017TIP3    H2 6009   6.254   1.650   5.673
 2018TIP3   OH2 6010   5.160   4.827   3.115
 2018TIP3    H1 6011   5.092   4.894   3.112
 2018TIP3    H2 6012   5.241   4.874   3.096
 2019TIP3   OH2 6013   5.026   4.573   3.888
 2019TIP3    H1 6014   5.065   4.517   3.821
 2019TIP3    H2 6015   4.996   4.511   3.955
 2020TIP3   OH2 6016   4.891   2.306   4.465
 2020TIP3    H1 6017   4.982   2.313   4.494
 2020TIP3    H2 6018   4.856   2.231   4.512
 2021TIP3   OH2 6019   1.236   5.115   2.003
 2021TIP3    H1 6020   1.206   5.178   2.068
 2021TIP3    H2 6021   1.326   5.095   2.028
 2022TIP3   OH2 6022   4.958   1.044   5.143
 2022TIP3    H1 6023   5.039   1.073   5.101
 2022TIP3    H2 6024   4.987   0.989   5.216
 2023TIP3   OH2 6025   4.511   2.796   1.963
 2023TIP3    H1 6026   4.465   2.848   1.897
 2023TIP3    H2 6027   4.445   2.737   1.998
 2024TIP3   OH2 6028   2.918   2.016   5.104
 2024TIP3    H1 6029   3.004   2.045   5.075
 2024TIP3    H2 6030   2.883   1.968   5.029
 2025TIP3   OH2 6031   2.756   3.564   1.823
 2025TIP3    H1 6032   2.749   3.659   1.817
 2025TIP3    H2 6033   2.822   3.548   1.891
 2026TIP3   OH2 6034   2.976   0.646   1.978
 2026TIP3    H1 6035   3.026   0.578   2.023
 2026TIP3    H2 6036   3.041   0.696   1.929
 2027TIP3   OH2 6037   6.234   2.180   3.318
 2027TIP3    H1 6038   6.227   2.251   3.383
 2027TIP3    H2 6039   6.327   2.174   3.298
 2028TIP3   OH2 6040   3.966   2.273   3.300
 2028TIP3    H1 6041   3.914   2.200   3.334
 2028TIP3    H2 6042   3.928   2.292   3.215
 2029TIP3   OH2 6043   3.160   2.445   1.525
 2029TIP3    H1 6044   3.175   2.351   1.522
 2029TIP3    H2 6045   3.220   2.482   1.460
 2030TIP3   OH2 6046   4.567   3.406   2.073
 2030TIP3    H1 6047   4.596   3.391   2.163
 2030TIP3    H2 6048   4.643   3.388   2.019
 2031TIP3   OH2 6049   6.324   4.639   3.987
 2031TIP3    H1 6050   6.351   4.575   3.921
 2031TIP3    H2 6051   6.261   4.695   3.942
 2032TIP3   OH2 6052   7.353   1.866   3.276
 2032TIP3    H1 6053   7.366   1.771   3.285
 2032TIP3    H2 6054   7.303   1.890   3.354
 2033TIP3   OH2 6055   2.923   7.488   4.623
 2033TIP3    H1 6056   2.945   7.562   4.567
 2033TIP3    H2 6057   2.907   7.415   4.563
 2034TIP3   OH2 6058   4.894   0.734   0.453
 2034TIP3    H1 6059   4.985   0.756   0.437
 2034TIP3    H2 6060   4.864   0.800   0.516
 2035TIP3   OH2 6061   4.339   5.644   0.350
 2035TIP3    H1 6062   4.354   5.579   0.281
 2035TIP3    H2 6063   4.359   5.598   0.432
 2036TIP3   OH2 6064   3.448   5.821   2.478
 2036TIP3    H1 6065   3.493   5.780   2.551
 2036TIP3    H2 6066   3.464   5.915   2.489
 2037TIP3   OH2 6067   4.582   4.237   6.190
 2037TIP3    H1 6068   4.523   4.312   6.197
 2037TIP3    H2 6069   4.646   4.263   6.123
 2038TIP3   OH2 6070   0.892   0.286   4.604
 2038TIP3    H1 6071   0.950   0.361   4.617
 2038TIP3    H2 6072   0.926   0.243   4.525
 2039TIP3   OH2 6073   1.937   7.220   4.737
 2039TIP3    H1 6074   2.002   7.252   4.800
 2039TIP3    H2 6075   1.859   7.201   4.791
 2040TIP3   OH2 6076   0.090   0.811   0.395
 2040TIP3    H1 6077   0.083   0.900   0.360
 2040TIP3    H2 6078   0.049   0.755   0.330
 2041TIP3   OH2 6079   2.250   0.542   1.429
 2041TIP3    H1 6080   2.243   0.519   1.336
 2041TIP3    H2 6081   2.329   0.596   1.434
 2042TIP3   OH2 6082   4.246   2.088   3.010
 2042TIP3    H1 6083   4.230   2.117   3.100
 2042TIP3    H2 6084   4.334   2.051   3.013
 2043TIP3   OH2 6085   7.250   7.676   0.579
 2043TIP3    H1 6086   7.192   7.679   0.655
 2043TIP3    H2 6087   7.270   7.767   0.560
 2044TIP3   OH2 6088   4.326   0.652   6.313
 2044TIP3    H1 6089   4.292   0.669   6.225
 2044TIP3    H2 6090   4.278   0.712   6.369
 2045TIP3   OH2 6091   6.506   1.674   3.312
 2045TIP3    H1 6092   6.490   1.707   3.400
 2045TIP3    H2 6093   6.434   1.613   3.295
 2046TIP3   OH2 6094   2.559   5.937   0.494
 2046TIP3    H1 6095   2.548   6.009   0.557
 2046TIP3    H2 6096   2.653   5.925   0.488
 2047TIP3   OH2 6097   1.523   4.699   0.393
 2047TIP3    H1 6098   1.612   4.696   0.357
 2047TIP3    H2 6099   1.487   4.613   0.373
 2048TIP3   OH2 6100   6.414   4.824   2.401
 2048TIP3    H1 6101   6.319   4.823   2.411
 2048TIP3    H2 6102   6.436   4.734   2.380
 2049TIP3   OH2 6103   3.045   0.071   2.070
 2049TIP3    H1 6104   3.131   0.065   2.029
 2049TIP3    H2 6105   2.984   0.086   1.998
 2050TIP3   OH2 6106   7.949   5.286   6.481
 2050TIP3    H1 6107   7.952   5.358   6.418
 2050TIP3    H2 6108   7.894   5.220   6.439
 2051TIP3   OH2 6109   7.293   1.133   1.058
 2051TIP3    H1 6110   7.293   1.132   0.962
 2051TIP3    H2 6111   7.232   1.202   1.082
 2052TIP3   OH2 6112   5.320   6.401   3.664
 2052TIP3    H1 6113   5.358   6.393   3.577
 2052TIP3    H2 6114   5.286   6.314   3.685
 2053TIP3   OH2 6115   7.110   3.342   0.467
 2053TIP3    H1 6116   7.183   3.290   0.434
 2053TIP3    H2 6117   7.055   3.279   0.514
 2054TIP3   OH2 6118   4.273   7.783   5.800
 2054TIP3    H1 6119   4.292   7.787   5.894
 2054TIP3    H2 6120   4.343   7.835   5.760
 2055TIP3   OH2 6121   8.138   5.066   5.665
 2055TIP3    H1 6122   8.105   4.982   5.633
 2055TIP3    H2 6123   8.080   5.131   5.624
 2056TIP3   OH2 6124   0.623   0.523   4.246
 2056TIP3    H1 6125   0.534   0.508   4.214
 2056TIP3    H2 6126   0.653   0.436   4.273
 2057TIP3   OH2 6127   4.362   7.705   2.286
 2057TIP3    H1 6128   4.398   7.779   2.335
 2057TIP3    H2 6129   4.426   7.635   2.298
 2058TIP3   OH2 6130   6.627   6.945   5.668
 2058TIP3    H1 6131   6.605   6.921   5.758
 2058TIP3    H2 6132   6.689   6.878   5.640
 2059TIP3   OH2 6133   3.702   3.876   2.496
 2059TIP3    H1 6134   3.730   3.785   2.497
 2059TIP3    H2 6135   3.782   3.926   2.478
 2060TIP3   OH2 6136   2.115   0.238   3.289
 2060TIP3    H1 6137   2.104   0.149   3.255
 2060TIP3    H2 6138   2.204   0.263   3.263
 2061TIP3   OH2 6139   6.756   3.018   1.747
 2061TIP3    H1 6140   6.815   3.087   1.717
 2061TIP3    H2 6141   6.693   3.063   1.803
 2062TIP3   OH2 6142   6.311   7.324   5.878
 2062TIP3    H1 6143   6.246   7.376   5.924
 2062TIP3    H2 6144   6.369   7.292   5.947
 2063TIP3   OH2 6145   6.148   1.834   3.408
 2063TIP3    H1 6146   6.222   1.889   3.432
 2063TIP3    H2 6147   6.108   1.810   3.492
 2064TIP3   OH2 6148   8.072   4.728   6.287
 2064TIP3    H1 6149   8.018   4.802   6.259
 2064TIP3    H2 6150   8.121   4.703   6.209
 2065TIP3   OH2 6151   7.371   1.980   2.813
 2065TIP3    H1 6152   7.419   1.966   2.895
 2065TIP3    H2 6153   7.282   1.952   2.833
 2066TIP3   OH2 6154   8.170   6.894   4.628
 2066TIP3    H1 6155   8.222   6.968   4.595
 2066TIP3    H2 6156   8.215   6.867   4.708
 2067TIP3   OH2 6157   1.761   5.645   4.180
 2067TIP3    H1 6158   1.829   5.583   4.152
 2067TIP3    H2 6159   1.800   5.690   4.255
 2068TIP3   OH2 6160   2.860   4.316   0.416
 2068TIP3    H1 6161   2.789   4.276   0.467
 2068TIP3    H2 6162   2.871   4.258   0.341
 2069TIP3   OH2 6163   4.187   4.184   5.376
 2069TIP3    H1 6164   4.262   4.205   5.319
 2069TIP3    H2 6165   4.191   4.089   5.386
 2070TIP3   OH2 6166   2.490   2.641   0.268
 2070TIP3    H1 6167   2.436   2.689   0.330
 2070TIP3    H2 6168   2.530   2.708   0.214
 2071TIP3   OH2 6169   2.562   3.326   2.940
 2071TIP3    H1 6170   2.533   3.342   3.030
 2071TIP3    H2 6171   2.487   3.284   2.898
 2072TIP3   OH2 6172   1.871   4.158   6.581
 2072TIP3    H1 6173   1.877   4.164   6.677
 2072TIP3    H2 6174   1.884   4.248   6.551
 2073TIP3   OH2 6175   7.443   0.922   1.105
 2073TIP3    H1 6176   7.398   1.005   1.088
 2073TIP3    H2 6177   7.402   0.859   1.046
 2074TIP3   OH2 6178   0.585   2.674   0.657
 2074TIP3    H1 6179   0.522   2.715   0.599
 2074TIP3    H2 6180   0.580   2.581   0.635
 2075TIP3   OH2 6181   3.504   5.300   0.410
 2075TIP3    H1 6182   3.428   5.277   0.356
 2075TIP3    H2 6183   3.570   5.234   0.389
 2076TIP3   OH2 6184   3.852   6.848   2.994
 2076TIP3    H1 6185   3.796   6.782   3.033
 2076TIP3    H2 6186   3.880   6.903   3.067
 2077TIP3   OH2 6187   3.915   7.331   0.557
 2077TIP3    H1 6188   3.965   7.412   0.565
 2077TIP3    H2 6189   3.844   7.341   0.621
 2078TIP3   OH2 6190   4.321   2.011   6.320
 2078TIP3    H1 6191   4.291   1.935   6.271
 2078TIP3    H2 6192   4.365   1.975   6.397
 2079TIP3   OH2 6193   5.589   4.327   6.743
 2079TIP3    H1 6194   5.650   4.266   6.701
 2079TIP3    H2 6195   5.626   4.414   6.726
 2080TIP3   OH2 6196   1.104   0.223   1.731
 2080TIP3    H1 6197   1.074   0.251   1.818
 2080TIP3    H2 6198   1.028   0.180   1.692
 2081TIP3   OH2 6199   7.609   0.110   2.354
 2081TIP3    H1 6200   7.568   0.167   2.290
 2081TIP3    H2 6201   7.543   0.042   2.371
 2082TIP3   OH2 6202   6.737   0.290   6.685
 2082TIP3    H1 6203   6.686   0.371   6.681
 2082TIP3    H2 6204   6.674   0.223   6.712
 2083TIP3   OH2 6205   1.171   7.077   4.772
 2083TIP3    H1 6206   1.224   7.015   4.720
 2083TIP3    H2 6207   1.109   7.021   4.819
 2084TIP3   OH2 6208   4.756   3.226   3.619
 2084TIP3    H1 6209   4.712   3.253   3.700
 2084TIP3    H2 6210   4.720   3.139   3.601
 2085TIP3   OH2 6211   2.815   5.724   0.398
 2085TIP3    H1 6212   2.734   5.684   0.367
 2085TIP3    H2 6213   2.872   5.727   0.320
 2086TIP3   OH2 6214   5.054   5.048   1.929
 2086TIP3    H1 6215   5.000   5.124   1.947
 2086TIP3    H2 6216   5.005   4.974   1.964
 2087TIP3   OH2 6217   4.430   6.008   1.396
 2087TIP3    H1 6218   4.503   6.055   1.357
 2087TIP3    H2 6219   4.363   6.074   1.411
 2088TIP3   OH2 6220   3.277   0.261   6.318
 2088TIP3    H1 6221   3.247   0.173   6.342
 2088TIP3    H2 6222   3.198   0.308   6.294
 2089TIP3   OH2 6223   0.473   3.526   5.653
 2089TIP3    H1 6224   0.497   3.611   5.617
 2089TIP3    H2 6225   0.557   3.485   5.677
 2090TIP3   OH2 6226   4.159   1.633   0.372
 2090TIP3    H1 6227   4.217   1.617   0.298
 2090TIP3    H2 6228   4.148   1.729   0.374
 2091TIP3   OH2 6229   7.799   7.341   1.368
 2091TIP3    H1 6230   7.777   7.315   1.278
 2091TIP3    H2 6231   7.726   7.395   1.396
 2092TIP3   OH2 6232   6.773   2.569   2.560
 2092TIP3    H1 6233   6.677   2.562   2.566
 2092TIP3    H2 6234   6.794   2.530   2.475
 2093TIP3   OH2 6235   6.136   4.718   5.548
 2093TIP3    H1 6236   6.154   4.672   5.630
 2093TIP3    H2 6237   6.057   4.768   5.566
 2094TIP3   OH2 6238   1.086   1.739   2.963
 2094TIP3    H1 6239   1.166   1.722   2.914
 2094TIP3    H2 6240   1.029   1.786   2.901
 2095TIP3   OH2 6241   4.777   2.837   4.318
 2095TIP3    H1 6242   4.709   2.861   4.255
 2095TIP3    H2 6243   4.753   2.748   4.346
 2096TIP3   OH2 6244   1.045   2.155   4.394
 2096TIP3    H1 6245   1.082   2.070   4.416
 2096TIP3    H2 6246   1.120   2.213   4.385
 2097TIP3   OH2 6247   3.320   7.214   6.536
 2097TIP3    H1 6248   3.344   7.137   6.586
 2097TIP3    H2 6249   3.310   7.183   6.446
 2098TIP3   OH2 6250   7.868   6.903   5.622
 2098TIP3    H1 6251   7.928   6.976   5.604
 2098TIP3    H2 6252   7.819   6.931   5.699
 2099TIP3   OH2 6253   2.274   6.732   2.337
 2099TIP3    H1 6254   2.340   6.705   2.273
 2099TIP3    H2 6255   2.209   6.780   2.285
 2100TIP3   OH2 6256   1.338   6.254   4.407
 2100TIP3    H1 6257   1.310   6.343   4.384
 2100TIP3    H2 6258   1.403   6.266   4.476
 2101TIP3   OH2 6259   3.400   4.069   4.937
 2101TIP3    H1 6260   3.469   4.117   4.891
 2101TIP3    H2 6261   3.325   4.129   4.936
 2102TIP3   OH2 6262   6.575   2.652   1.533
 2102TIP3    H1 6263   6.590   2.649   1.628
 2102TIP3    H2 6264   6.663   2.663   1.496
 2103TIP3   OH2 6265   0.620   1.126   1.729
 2103TIP3    H1 6266   0.629   1.036   1.697
 2103TIP3    H2 6267   0.560   1.168   1.667
 2104TIP3   OH2 6268   3.608   0.623   3.971
 2104TIP3    H1 6269   3.531   0.651   3.921
 2104TIP3    H2 6270   3.672   0.599   3.903
 2105TIP3   OH2 6271   7.625   4.337   0.674
 2105TIP3    H1 6272   7.536   4.307   0.691
 2105TIP3    H2 6273   7.636   4.329   0.579
 2106TIP3   OH2 6274   6.371   2.569   6.328
 2106TIP3    H1 6275   6.293   2.588   6.276
 2106TIP3    H2 6276   6.366   2.630   6.402
 2107TIP3   OH2 6277   3.731   4.206   6.087
 2107TIP3    H1 6278   3.811   4.230   6.133
 2107TIP3    H2 6279   3.709   4.119   6.120
 2108TIP3   OH2 6280   5.720   1.050   1.842
 2108TIP3    H1 6281   5.785   1.102   1.795
 2108TIP3    H2 6282   5.702   1.100   1.922
 2109TIP3   OH2 6283   8.141   6.873   5.211
 2109TIP3    H1 6284   8.219   6.846   5.162
 2109TIP3    H2 6285   8.103   6.791   5.243
 2110TIP3   OH2 6286   4.257   3.587   3.124
 2110TIP3    H1 6287   4.271   3.606   3.032
 2110TIP3    H2 6288   4.272   3.670   3.168
 2111TIP3   OH2 6289   4.635   4.054   3.437
 2111TIP3    H1 6290   4.627   4.126   3.499
 2111TIP3    H2 6291   4.567   4.072   3.371
 2112TIP3   OH2 6292   0.677   0.886   4.553
 2112TIP3    H1 6293   0.743   0.846   4.496
 2112TIP3    H2 6294   0.640   0.813   4.602
 2113TIP3   OH2 6295   7.636   5.732   4.222
 2113TIP3    H1 6296   7.620   5.763   4.133
 2113TIP3    H2 6297   7.701   5.662   4.212
 2114TIP3   OH2 6298   7.549   0.705   6.156
 2114TIP3    H1 6299   7.605   0.771   6.196
 2114TIP3    H2 6300   7.474   0.698   6.215
 2115TIP3   OH2 6301   7.294   2.950   5.864
 2115TIP3    H1 6302   7.333   3.013   5.924
 2115TIP3    H2 6303   7.206   2.985   5.847
 2116TIP3   OH2 6304   4.400   3.222   6.126
 2116TIP3    H1 6305   4.407   3.204   6.220
 2116TIP3    H2 6306   4.327   3.168   6.096
 2117TIP3   OH2 6307   5.686   3.124   3.461
 2117TIP3    H1 6308   5.677   3.218   3.473
 2117TIP3    H2 6309   5.612   3.100   3.406
 2118TIP3   OH2 6310   3.330   5.897   3.956
 2118TIP3    H1 6311   3.282   5.935   3.881
 2118TIP3    H2 6312   3.415   5.940   3.953
 2119TIP3   OH2 6313   1.177   0.035   6.672
 2119TIP3    H1 6314   1.137   0.110   6.717
 2119TIP3    H2 6315   1.201   0.069   6.586
 2120TIP3   OH2 6316   4.838   2.777   2.875
 2120TIP3    H1 6317   4.744   2.758   2.871
 2120TIP3    H2 6318   4.879   2.705   2.826
 2121TIP3   OH2 6319   1.555   5.780   2.720
 2121TIP3    H1 6320   1.596   5.718   2.780
 2121TIP3    H2 6321   1.598   5.765   2.636
 2122TIP3   OH2 6322   3.648   6.997   6.365
 2122TIP3    H1 6323   3.593   6.964   6.294
 2122TIP3    H2 6324   3.650   6.925   6.428
 2123TIP3   OH2 6325   7.263   7.473   2.582
 2123TIP3    H1 6326   7.270   7.555   2.630
 2123TIP3    H2 6327   7.238   7.499   2.494
 2124TIP3   OH2 6328   6.042   4.580   1.859
 2124TIP3    H1 6329   6.098   4.641   1.908
 2124TIP3    H2 6330   5.963   4.629   1.841
 2125TIP3   OH2 6331   4.736   1.355   5.215
 2125TIP3    H1 6332   4.759   1.372   5.306
 2125TIP3    H2 6333   4.810   1.388   5.165
 2126TIP3   OH2 6334   1.524   3.783   0.453
 2126TIP3    H1 6335   1.491   3.873   0.454
 2126TIP3    H2 6336   1.486   3.745   0.374
 2127TIP3   OH2 6337   0.692   7.668   1.760
 2127TIP3    H1 6338   0.767   7.706   1.807
 2127TIP3    H2 6339   0.730   7.628   1.682
 2128TIP3   OH2 6340   3.714   0.098   3.369
 2128TIP3    H1 6341   3.776   0.134   3.306
 2128TIP3    H2 6342   3.708   0.165   3.438
 2129TIP3   OH2 6343   8.112   0.639   2.273
 2129TIP3    H1 6344   8.070   0.693   2.206
 2129TIP3    H2 6345   8.051   0.640   2.346
 2130TIP3   OH2 6346   4.668   5.759   4.505
 2130TIP3    H1 6347   4.622   5.735   4.424
 2130TIP3    H2 6348   4.612   5.826   4.545
 2131TIP3   OH2 6349   5.361   2.253   0.682
 2131TIP3    H1 6350   5.292   2.283   0.741
 2131TIP3    H2 6351   5.325   2.174   0.642
 2132TIP3   OH2 6352   0.396   1.591   2.480
 2132TIP3    H1 6353   0.473   1.547   2.443
 2132TIP3    H2 6354   0.388   1.555   2.568
 2133TIP3   OH2 6355   0.048   6.490   0.730
 2133TIP3    H1 6356   0.112   6.456   0.668
 2133TIP3    H2 6357  -0.015   6.419   0.741
 2134TIP3   OH2 6358  -0.009   4.416   4.569
 2134TIP3    H1 6359  -0.070   4.345   4.545
 2134TIP3    H2 6360   0.069   4.370   4.599
 2135TIP3   OH2 6361   6.194   1.771   1.158
 2135TIP3    H1 6362   6.248   1.736   1.229
 2135TIP3    H2 6363   6.115   1.718   1.159
 2136TIP3   OH2 6364   2.676   6.789   3.820
 2136TIP3    H1 6365   2.642   6.870   3.781
 2136TIP3    H2 6366   2.740   6.757   3.757
 2137TIP3   OH2 6367   0.250   5.110   0.255
 2137TIP3    H1 6368   0.172   5.111   0.201
 2137TIP3    H2 6369   0.250   5.024   0.297
 2138TIP3   OH2 6370   2.147   0.544   3.585
 2138TIP3    H1 6371   2.151   0.620   3.528
 2138TIP3    H2 6372   2.232   0.501   3.574
 2139TIP3   OH2 6373   6.473   0.245   2.910
 2139TIP3    H1 6374   6.489   0.177   2.845
 2139TIP3    H2 6375   6.541   0.232   2.976
 2140TIP3   OH2 6376   6.258   0.169   1.728
 2140TIP3    H1 6377   6.208   0.119   1.792
 2140TIP3    H2 6378   6.349   0.147   1.746
 2141TIP3   OH2 6379   0.825   2.062   4.254
 2141TIP3    H1 6380   0.833   2.098   4.166
 2141TIP3    H2 6381   0.898   2.102   4.303
 2142TIP3   OH2 6382   7.706   7.404   6.559
 2142TIP3    H1 6383   7.666   7.477   6.607
 2142TIP3    H2 6384   7.771   7.446   6.503
 2143TIP3   OH2 6385   1.069   4.002   2.354
 2143TIP3    H1 6386   1.154   4.000   2.310
 2143TIP3    H2 6387   1.008   3.962   2.292
 2144TIP3   OH2 6388   4.662   0.749   6.770
 2144TIP3    H1 6389   4.734   0.692   6.744
 2144TIP3    H2 6390   4.648   0.808   6.695
 2145TIP3   OH2 6391   6.150   0.936   1.704
 2145TIP3    H1 6392   6.180   0.988   1.630
 2145TIP3    H2 6393   6.226   0.883   1.730
 2146TIP3   OH2 6394   2.629   7.179   5.070
 2146TIP3    H1 6395   2.709   7.170   5.018
 2146TIP3    H2 6396   2.637   7.111   5.137
 2147TIP3   OH2 6397   1.370   7.742   1.418
 2147TIP3    H1 6398   1.410   7.828   1.429
 2147TIP3    H2 6399   1.403   7.691   1.492
 2148TIP3   OH2 6400   5.378   1.357   3.500
 2148TIP3    H1 6401   5.295   1.311   3.483
 2148TIP3    H2 6402   5.385   1.359   3.595
 2149TIP3   OH2 6403   4.795   1.528   2.057
 2149TIP3    H1 6404   4.843   1.454   2.094
 2149TIP3    H2 6405   4.704   1.500   2.058
 2150TIP3   OH2 6406   2.046   4.459   5.818
 2150TIP3    H1 6407   1.962   4.499   5.841
 2150TIP3    H2 6408   2.026   4.365   5.811
 2151TIP3   OH2 6409   0.139   0.380   6.661
 2151TIP3    H1 6410   0.183   0.315   6.715
 2151TIP3    H2 6411   0.188   0.461   6.676
 2152TIP3   OH2 6412   4.715   1.761   6.507
 2152TIP3    H1 6413   4.754   1.676   6.486
 2152TIP3    H2 6414   4.639   1.767   6.449
 2153TIP3   OH2 6415   3.370   6.639   2.606
 2153TIP3    H1 6416   3.336   6.675   2.524
 2153TIP3    H2 6417   3.293   6.627   2.661
 2154TIP3   OH2 6418   6.780   1.902   2.815
 2154TIP3    H1 6419   6.872   1.914   2.790
 2154TIP3    H2 6420   6.781   1.909   2.911
 2155TIP3   OH2 6421   7.942   2.340   2.199
 2155TIP3    H1 6422   7.922   2.385   2.281
 2155TIP3    H2 6423   7.932   2.406   2.131
 2156TIP3   OH2 6424   2.885   6.454   4.602
 2156TIP3    H1 6425   2.974   6.421   4.609
 2156TIP3    H2 6426   2.880   6.493   4.515
 2157TIP3   OH2 6427   6.487   3.933   1.933
 2157TIP3    H1 6428   6.564   3.990   1.932
 2157TIP3    H2 6429   6.449   3.942   1.846
 2158TIP3   OH2 6430   2.972   0.844   2.588
 2158TIP3    H1 6431   2.986   0.938   2.578
 2158TIP3    H2 6432   3.007   0.823   2.674
 2159TIP3   OH2 6433   7.815   7.413   2.279
 2159TIP3    H1 6434   7.807   7.328   2.324
 2159TIP3    H2 6435   7.736   7.419   2.226
 2160TIP3   OH2 6436   2.786   4.761   2.019
 2160TIP3    H1 6437   2.699   4.769   2.058
 2160TIP3    H2 6438   2.770   4.747   1.926
 2161TIP3   OH2 6439   6.487   0.519   5.283
 2161TIP3    H1 6440   6.576   0.500   5.313
 2161TIP3    H2 6441   6.442   0.551   5.362
 2162TIP3   OH2 6442   0.353   7.547   5.740
 2162TIP3    H1 6443   0.316   7.625   5.781
 2162TIP3    H2 6444   0.283   7.482   5.743
 2163TIP3   OH2 6445   7.820   1.437   5.074
 2163TIP3    H1 6446   7.891   1.500   5.061
 2163TIP3    H2 6447   7.791   1.415   4.985
 2164TIP3   OH2 6448   6.972   1.299   2.471
 2164TIP3    H1 6449   6.979   1.205   2.458
 2164TIP3    H2 6450   7.063   1.330   2.472
 2165TIP3   OH2 6451   3.178   2.720   2.787
 2165TIP3    H1 6452   3.208   2.679   2.869
 2165TIP3    H2 6453   3.083   2.724   2.796
 2166TIP3   OH2 6454   0.198   6.329   0.950
 2166TIP3    H1 6455   0.238   6.357   0.867
 2166TIP3    H2 6456   0.104   6.340   0.936
 2167TIP3   OH2 6457   2.905   2.035   1.094
 2167TIP3    H1 6458   2.855   1.957   1.120
 2167TIP3    H2 6459   2.969   2.003   1.030
 2168TIP3   OH2 6460   6.343   7.041   5.842
 2168TIP3    H1 6461   6.308   7.129   5.855
 2168TIP3    H2 6462   6.347   7.002   5.929
 2169TIP3   OH2 6463   7.146   7.413   3.588
 2169TIP3    H1 6464   7.230   7.443   3.555
 2169TIP3    H2 6465   7.082   7.472   3.547
 2170TIP3   OH2 6466   3.041   7.225   4.481
 2170TIP3    H1 6467   2.990   7.168   4.538
 2170TIP3    H2 6468   3.117   7.250   4.533
 2171TIP3   OH2 6469   6.714   5.248   5.991
 2171TIP3    H1 6470   6.680   5.231   6.079
 2171TIP3    H2 6471   6.779   5.179   5.977
 2172TIP3   OH2 6472   0.671   7.166   6.737
 2172TIP3    H1 6473   0.704   7.157   6.648
 2172TIP3    H2 6474   0.720   7.100   6.787
 2173TIP3   OH2 6475   5.435   0.817   6.570
 2173TIP3    H1 6476   5.361   0.812   6.510
 2173TIP3    H2 6477   5.500   0.870   6.524
 2174TIP3   OH2 6478   6.424   0.975   4.908
 2174TIP3    H1 6479   6.510   0.988   4.948
 2174TIP3    H2 6480   6.433   0.894   4.857
 2175TIP3   OH2 6481   5.180   7.736   2.117
 2175TIP3    H1 6482   5.167   7.802   2.185
 2175TIP3    H2 6483   5.244   7.775   2.058
 2176TIP3   OH2 6484   4.910   5.144   6.261
 2176TIP3    H1 6485   4.994   5.189   6.252
 2176TIP3    H2 6486   4.934   5.051   6.260
 2177TIP3   OH2 6487   4.635   5.836   1.481
 2177TIP3    H1 6488   4.686   5.847   1.401
 2177TIP3    H2 6489   4.580   5.914   1.485
 2178TIP3   OH2 6490   0.964   4.352   6.152
 2178TIP3    H1 6491   1.033   4.328   6.214
 2178TIP3    H2 6492   1.011   4.374   6.071
 2179TIP3   OH2 6493   3.131   6.878   2.110
 2179TIP3    H1 6494   3.211   6.827   2.106
 2179TIP3    H2 6495   3.160   6.969   2.104
 2180TIP3   OH2 6496   1.127   1.811   4.736
 2180TIP3    H1 6497   1.120   1.737   4.796
 2180TIP3    H2 6498   1.053   1.868   4.760
 2181TIP3   OH2 6499   7.252   0.547   0.051
 2181TIP3    H1 6500   7.215   0.569  -0.034
 2181TIP3    H2 6501   7.344   0.573   0.045
 2182TIP3   OH2 6502   5.515   0.045   6.586
 2182TIP3    H1 6503   5.430   0.045   6.631
 2182TIP3    H2 6504   5.514   0.124   6.532
 2183TIP3   OH2 6505   7.341   0.910   6.223
 2183TIP3    H1 6506   7.353   0.992   6.272
 2183TIP3    H2 6507   7.371   0.931   6.134
 2184TIP3   OH2 6508   5.599   7.114   4.720
 2184TIP3    H1 6509   5.592   7.019   4.722
 2184TIP3    H2 6510   5.609   7.136   4.627
 2185TIP3   OH2 6511   6.105   1.274   6.771
 2185TIP3    H1 6512   6.048   1.197   6.769
 2185TIP3    H2 6513   6.193   1.240   6.760
 2186TIP3   OH2 6514   1.091   0.481   3.303
 2186TIP3    H1 6515   1.180   0.446   3.304
 2186TIP3    H2 6516   1.097   0.567   3.345
 2187TIP3   OH2 6517   1.891   6.908   4.989
 2187TIP3    H1 6518   1.861   6.904   4.898
 2187TIP3    H2 6519   1.841   6.840   5.034
 2188TIP3   OH2 6520   2.874   7.348   2.972
 2188TIP3    H1 6521   2.962   7.354   2.935
 2188TIP3    H2 6522   2.858   7.435   3.009
 2189TIP3   OH2 6523   0.131   2.014   5.866
 2189TIP3    H1 6524   0.079   1.949   5.914
 2189TIP3    H2 6525   0.082   2.030   5.785
 2190TIP3   OH2 6526   2.534   5.909   1.064
 2190TIP3    H1 6527   2.568   5.887   0.977
 2190TIP3    H2 6528   2.590   5.980   1.094
 2191TIP3   OH2 6529   2.012   4.204   1.218
 2191TIP3    H1 6530   1.973   4.248   1.293
 2191TIP3    H2 6531   1.938   4.165   1.172
 2192TIP3   OH2 6532   2.113   1.769   4.480
 2192TIP3    H1 6533   2.143   1.748   4.391
 2192TIP3    H2 6534   2.025   1.804   4.467
 2193TIP3   OH2 6535   4.992   4.363   5.771
 2193TIP3    H1 6536   5.063   4.300   5.785
 2193TIP3    H2 6537   4.994   4.420   5.847
 2194TIP3   OH2 6538   3.168   3.837   2.154
 2194TIP3    H1 6539   3.091   3.891   2.175
 2194TIP3    H2 6540   3.137   3.747   2.163
 2195TIP3   OH2 6541   5.991   1.444   6.570
 2195TIP3    H1 6542   6.012   1.375   6.633
 2195TIP3    H2 6543   6.001   1.525   6.620
 2196TIP3   OH2 6544   2.800   1.357   2.080
 2196TIP3    H1 6545   2.876   1.336   2.026
 2196TIP3    H2 6546   2.725   1.333   2.025
 2197TIP3   OH2 6547   7.792   6.159   6.257
 2197TIP3    H1 6548   7.863   6.184   6.316
 2197TIP3    H2 6549   7.830   6.093   6.199
 2198TIP3   OH2 6550   2.203   2.608   1.583
 2198TIP3    H1 6551   2.114   2.612   1.549
 2198TIP3    H2 6552   2.252   2.671   1.530
 2199TIP3   OH2 6553   3.677   3.587   0.497
 2199TIP3    H1 6554   3.740   3.573   0.426
 2199TIP3    H2 6555   3.621   3.657   0.465
 2200TIP3   OH2 6556   0.488   1.228   4.250
 2200TIP3    H1 6557   0.509   1.196   4.338
 2200TIP3    H2 6558   0.450   1.152   4.206
 2201TIP3   OH2 6559   7.748   1.545   6.030
 2201TIP3    H1 6560   7.666   1.593   6.042
 2201TIP3    H2 6561   7.768   1.554   5.937
 2202TIP3   OH2 6562   8.052   2.413   5.287
 2202TIP3    H1 6563   8.075   2.425   5.195
 2202TIP3    H2 6564   8.084   2.493   5.330
 2203TIP3   OH2 6565   0.607   3.905   1.764
 2203TIP3    H1 6566   0.609   3.830   1.823
 2203TIP3    H2 6567   0.556   3.971   1.811
 2204TIP3   OH2 6568   3.202   2.290   0.385
 2204TIP3    H1 6569   3.289   2.267   0.354
 2204TIP3    H2 6570   3.174   2.363   0.329
 2205TIP3   OH2 6571   3.711   0.331   3.496
 2205TIP3    H1 6572   3.774   0.400   3.473
 2205TIP3    H2 6573   3.710   0.332   3.592
 2206TIP3   OH2 6574   1.887   1.098   1.961
 2206TIP3    H1 6575   1.904   1.153   1.885
 2206TIP3    H2 6576   1.946   1.024   1.952
 2207TIP3   OH2 6577   0.877   1.990   3.523
 2207TIP3    H1 6578   0.808   1.954   3.467
 2207TIP3    H2 6579   0.873   1.938   3.603
 2208TIP3   OH2 6580   4.397   2.610   2.431
 2208TIP3    H1 6581   4.376   2.523   2.396
 2208TIP3    H2 6582   4.452   2.650   2.364
 2209TIP3   OH2 6583   5.086   2.620   0.363
 2209TIP3    H1 6584   5.110   2.691   0.304
 2209TIP3    H2 6585   5.022   2.569   0.314
 2210TIP3   OH2 6586   0.478   3.100   4.591
 2210TIP3    H1 6587   0.518   3.128   4.509
 2210TIP3    H2 6588   0.422   3.026   4.567
 2211TIP3   OH2 6589   6.986   6.546   0.034
 2211TIP3    H1 6590   7.000   6.639   0.014
 2211TIP3    H2 6591   6.949   6.546   0.122
 2212TIP3   OH2 6592   3.872   7.057   5.506
 2212TIP3    H1 6593   3.871   6.961   5.500
 2212TIP3    H2 6594   3.849   7.087   5.418
 2213TIP3   OH2 6595   0.793   1.624   0.754
 2213TIP3    H1 6596   0.801   1.664   0.667
 2213TIP3    H2 6597   0.717   1.566   0.747
 2214TIP3   OH2 6598   5.417   0.574   5.276
 2214TIP3    H1 6599   5.424   0.480   5.295
 2214TIP3    H2 6600   5.378   0.577   5.188
 2215TIP3   OH2 6601   5.398   1.078   6.470
 2215TIP3    H1 6602   5.322   1.061   6.526
 2215TIP3    H2 6603   5.427   1.166   6.495
 2216TIP3   OH2 6604   4.432   7.496   4.694
 2216TIP3    H1 6605   4.376   7.568   4.666
 2216TIP3    H2 6606   4.388   7.417   4.662
 2217TIP3   OH2 6607   4.746   3.430   4.216
 2217TIP3    H1 6608   4.793   3.348   4.225
 2217TIP3    H2 6609   4.799   3.495   4.263
 2218TIP3   OH2 6610   8.294   3.410   6.189
 2218TIP3    H1 6611   8.264   3.368   6.108
 2218TIP3    H2 6612   8.305   3.502   6.165
 2219TIP3   OH2 6613   7.641   0.430   4.341
 2219TIP3    H1 6614   7.609   0.357   4.288
 2219TIP3    H2 6615   7.729   0.447   4.309
 2220TIP3   OH2 6616   4.619   7.005   5.000
 2220TIP3    H1 6617   4.563   7.082   5.007
 2220TIP3    H2 6618   4.595   6.952   5.076
 2221TIP3   OH2 6619   3.511   1.374   1.085
 2221TIP3    H1 6620   3.575   1.368   1.156
 2221TIP3    H2 6621   3.485   1.283   1.070
 2222TIP3   OH2 6622   5.183   3.822   3.817
 2222TIP3    H1 6623   5.167   3.751   3.754
 2222TIP3    H2 6624   5.265   3.862   3.788
 2223TIP3   OH2 6625   7.410   3.363   0.566
 2223TIP3    H1 6626   7.365   3.406   0.638
 2223TIP3    H2 6627   7.470   3.301   0.607
 2224TIP3   OH2 6628   2.122   6.246   3.280
 2224TIP3    H1 6629   2.080   6.241   3.195
 2224TIP3    H2 6630   2.179   6.323   3.275
 2225TIP3   OH2 6631   0.166   2.247   0.795
 2225TIP3    H1 6632   0.159   2.305   0.871
 2225TIP3    H2 6633   0.241   2.191   0.815
 2226TIP3   OH2 6634   3.048   0.641   2.393
 2226TIP3    H1 6635   3.097   0.631   2.475
 2226TIP3    H2 6636   2.970   0.691   2.417
 2227TIP3   OH2 6637   5.576   2.702   3.271
 2227TIP3    H1 6638   5.514   2.754   3.324
 2227TIP3    H2 6639   5.594   2.757   3.195
 2228TIP3   OH2 6640   0.306   7.844   2.970
 2228TIP3    H1 6641   0.296   7.939   2.971
 2228TIP3    H2 6642   0.220   7.810   2.994
 2229TIP3   OH2 6643   6.083   0.679   5.367
 2229TIP3    H1 6644   6.174   0.701   5.347
 2229TIP3    H2 6645   6.044   0.761   5.393
 2230TIP3   OH2 6646   2.607   1.662   0.379
 2230TIP3    H1 6647   2.693   1.674   0.337
 2230TIP3    H2 6648   2.570   1.749   0.382
 2231TIP3   OH2 6649   7.429   7.372   4.927
 2231TIP3    H1 6650   7.496   7.324   4.879
 2231TIP3    H2 6651   7.370   7.406   4.860
 2232TIP3   OH2 6652   2.983   1.521   3.594
 2232TIP3    H1 6653   2.931   1.514   3.513
 2232TIP3    H2 6654   3.054   1.458   3.582
 2233TIP3   OH2 6655   6.008   0.317   3.961
 2233TIP3    H1 6656   6.047   0.231   3.971
 2233TIP3    H2 6657   6.003   0.352   4.050
 2234TIP3   OH2 6658   1.169   0.900   2.926
 2234TIP3    H1 6659   1.139   0.862   2.844
 2234TIP3    H2 6660   1.250   0.852   2.947
 2235TIP3   OH2 6661   7.337   6.066   5.375
 2235TIP3    H1 6662   7.295   5.981   5.383
 2235TIP3    H2 6663   7.431   6.047   5.376
 2236TIP3   OH2 6664   0.557   5.559   2.552
 2236TIP3    H1 6665   0.514   5.555   2.637
 2236TIP3    H2 6666   0.517   5.633   2.508
 2237TIP3   OH2 6667   7.701   2.354   3.336
 2237TIP3    H1 6668   7.622   2.348   3.391
 2237TIP3    H2 6669   7.733   2.264   3.331
 2238TIP3   OH2 6670   0.080   0.011   1.300
 2238TIP3    H1 6671   0.147   0.058   1.250
 2238TIP3    H2 6672   0.009   0.074   1.309
 2239TIP3   OH2 6673   1.825   7.525   2.637
 2239TIP3    H1 6674   1.730   7.510   2.640
 2239TIP3    H2 6675   1.843   7.578   2.715
 2240TIP3   OH2 6676   1.748   4.295   4.302
 2240TIP3    H1 6677   1.745   4.201   4.285
 2240TIP3    H2 6678   1.658   4.319   4.321
 2241TIP3   OH2 6679   8.087   5.209   6.132
 2241TIP3    H1 6680   8.108   5.137   6.072
 2241TIP3    H2 6681   8.105   5.172   6.219
 2242TIP3   OH2 6682   3.400   1.649   5.321
 2242TIP3    H1 6683   3.416   1.567   5.368
 2242TIP3    H2 6684   3.389   1.714   5.390
 2243TIP3   OH2 6685   5.791   5.334   1.582
 2243TIP3    H1 6686   5.716   5.393   1.594
 2243TIP3    H2 6687   5.771   5.287   1.501
 2244TIP3   OH2 6688   0.288   2.731   4.760
 2244TIP3    H1 6689   0.330   2.663   4.707
 2244TIP3    H2 6690   0.335   2.729   4.844
 2245TIP3   OH2 6691   4.737   0.227   5.459
 2245TIP3    H1 6692   4.790   0.196   5.385
 2245TIP3    H2 6693   4.767   0.176   5.534
 2246TIP3   OH2 6694   1.452   1.744   5.375
 2246TIP3    H1 6695   1.478   1.756   5.466
 2246TIP3    H2 6696   1.457   1.832   5.336
 2247TIP3   OH2 6697   6.020   4.491   5.972
 2247TIP3    H1 6698   5.933   4.463   6.002
 2247TIP3    H2 6699   6.075   4.414   5.983
 2248TIP3   OH2 6700   3.906   5.880   6.402
 2248TIP3    H1 6701   3.986   5.932   6.399
 2248TIP3    H2 6702   3.894   5.860   6.495
 2249TIP3   OH2 6703   0.421   0.786   1.471
 2249TIP3    H1 6704   0.419   0.701   1.514
 2249TIP3    H2 6705   0.334   0.822   1.484
 2250TIP3   OH2 6706   0.568   4.264   6.186
 2250TIP3    H1 6707   0.499   4.328   6.169
 2250TIP3    H2 6708   0.524   4.193   6.232
 2251TIP3   OH2 6709   1.665   3.455   4.605
 2251TIP3    H1 6710   1.612   3.383   4.569
 2251TIP3    H2 6711   1.600   3.518   4.637
 2252TIP3   OH2 6712  -0.002   2.700   2.697
 2252TIP3    H1 6713   0.031   2.645   2.768
 2252TIP3    H2 6714  -0.022   2.784   2.738
 2253TIP3   OH2 6715   1.065   4.307   2.132
 2253TIP3    H1 6716   1.095   4.352   2.211
 2253TIP3    H2 6717   1.056   4.377   2.067
 2254TIP3   OH2 6718   7.987   6.935   0.952
 2254TIP3    H1 6719   7.977   6.855   1.004
 2254TIP3    H2 6720   7.933   6.919   0.874
 2255TIP3   OH2 6721   1.963   2.345   3.728
 2255TIP3    H1 6722   1.921   2.403   3.665
 2255TIP3    H2 6723   1.896   2.331   3.796
 2256TIP3   OH2 6724   7.369   2.450   5.925
 2256TIP3    H1 6725   7.395   2.445   6.017
 2256TIP3    H2 6726   7.282   2.491   5.927
 2257TIP3   OH2 6727   2.414   1.582   3.219
 2257TIP3    H1 6728   2.336   1.618   3.176
 2257TIP3    H2 6729   2.452   1.656   3.266
 2258TIP3   OH2 6730   7.814   6.147   2.323
 2258TIP3    H1 6731   7.723   6.120   2.312
 2258TIP3    H2 6732   7.863   6.065   2.330
 2259TIP3   OH2 6733   1.328   7.807   2.555
 2259TIP3    H1 6734   1.263   7.743   2.583
 2259TIP3    H2 6735   1.301   7.889   2.597
 2260TIP3   OH2 6736   8.047   3.619   0.843
 2260TIP3    H1 6737   8.141   3.609   0.826
 2260TIP3    H2 6738   8.005   3.561   0.779
 2261TIP3   OH2 6739   0.726   1.228   5.609
 2261TIP3    H1 6740   0.759   1.264   5.527
 2261TIP3    H2 6741   0.648   1.178   5.584
 2262TIP3   OH2 6742   0.031   0.482   1.170
 2262TIP3    H1 6743  -0.007   0.544   1.233
 2262TIP3    H2 6744   0.122   0.509   1.162
 2263TIP3   OH2 6745   5.792   4.348   4.173
 2263TIP3    H1 6746   5.854   4.323   4.241
 2263TIP3    H2 6747   5.740   4.419   4.212
 2264TIP3   OH2 6748   2.977   6.452   0.399
 2264TIP3    H1 6749   3.023   6.379   0.440
 2264TIP3    H2 6750   2.896   6.461   0.449
 2265TIP3   OH2 6751   5.200   5.048   2.786
 2265TIP3    H1 6752   5.247   4.970   2.755
 2265TIP3    H2 6753   5.226   5.056   2.878
 2266TIP3   OH2 6754   0.655   3.116   0.505
 2266TIP3    H1 6755   0.637   3.093   0.597
 2266TIP3    H2 6756   0.681   3.208   0.508
 2267TIP3   OH2 6757   2.279   0.074   0.685
 2267TIP3    H1 6758   2.294   0.152   0.631
 2267TIP3    H2 6759   2.317   0.096   0.770
 2268TIP3   OH2 6760   6.930   7.217   2.381
 2268TIP3    H1 6761   6.969   7.304   2.372
 2268TIP3    H2 6762   6.995   7.168   2.432
 2269TIP3   OH2 6763   3.577   6.759   2.794
 2269TIP3    H1 6764   3.661   6.712   2.792
 2269TIP3    H2 6765   3.522   6.711   2.732
 2270TIP3   OH2 6766   6.184   7.376   3.668
 2270TIP3    H1 6767   6.168   7.314   3.597
 2270TIP3    H2 6768   6.135   7.341   3.742
 2271TIP3   OH2 6769   7.300   0.436   3.614
 2271TIP3    H1 6770   7.329   0.461   3.526
 2271TIP3    H2 6771   7.205   0.440   3.610
 2272TIP3   OH2 6772   2.399   3.044   5.342
 2272TIP3    H1 6773   2.462   2.993   5.394
 2272TIP3    H2 6774   2.339   3.081   5.406
 2273TIP3   OH2 6775   6.629   1.803   5.572
 2273TIP3    H1 6776   6.562   1.864   5.603
 2273TIP3    H2 6777   6.654   1.754   5.651
 2274TIP3   OH2 6778   0.288   6.966   6.137
 2274TIP3    H1 6779   0.265   6.903   6.069
 2274TIP3    H2 6780   0.275   6.918   6.219
 2275TIP3   OH2 6781   3.507   0.977   2.012
 2275TIP3    H1 6782   3.447   1.016   2.076
 2275TIP3    H2 6783   3.455   0.970   1.932
 2276TIP3   OH2 6784   4.484   5.850   0.571
 2276TIP3    H1 6785   4.400   5.810   0.593
 2276TIP3    H2 6786   4.473   5.882   0.482
 2277TIP3   OH2 6787   4.805   0.869   3.714
 2277TIP3    H1 6788   4.896   0.841   3.717
 2277TIP3    H2 6789   4.770   0.845   3.799
 2278TIP3   OH2 6790   4.665   6.998   5.987
 2278TIP3    H1 6791   4.685   7.044   6.069
 2278TIP3    H2 6792   4.629   7.066   5.930
 2279TIP3   OH2 6793   1.212   5.876   5.825
 2279TIP3    H1 6794   1.117   5.864   5.826
 2279TIP3    H2 6795   1.245   5.801   5.775
 2280TIP3   OH2 6796   0.346   2.623   4.253
 2280TIP3    H1 6797   0.412   2.667   4.199
 2280TIP3    H2 6798   0.304   2.694   4.303
 2281TIP3   OH2 6799   3.818   4.735   4.368
 2281TIP3    H1 6800   3.772   4.721   4.285
 2281TIP3    H2 6801   3.844   4.648   4.396
 2282TIP3   OH2 6802   2.670   5.970   0.002
 2282TIP3    H1 6803   2.617   5.944   0.077
 2282TIP3    H2 6804   2.732   6.033   0.038
 2283TIP3   OH2 6805   7.976   4.316   0.378
 2283TIP3    H1 6806   7.992   4.257   0.452
 2283TIP3    H2 6807   7.960   4.258   0.304
 2284TIP3   OH2 6808   3.427   0.663   2.909
 2284TIP3    H1 6809   3.435   0.700   2.821
 2284TIP3    H2 6810   3.352   0.709   2.948
 2285TIP3   OH2 6811   6.298   3.712   4.615
 2285TIP3    H1 6812   6.309   3.803   4.641
 2285TIP3    H2 6813   6.334   3.708   4.526
 2286TIP3   OH2 6814   4.249   5.318   2.937
 2286TIP3    H1 6815   4.283   5.267   3.010
 2286TIP3    H2 6816   4.179   5.371   2.975
 2287TIP3   OH2 6817   6.319   5.547   0.087
 2287TIP3    H1 6818   6.269   5.587   0.158
 2287TIP3    H2 6819   6.405   5.529   0.125
 2288TIP3   OH2 6820   6.966   2.368   5.481
 2288TIP3    H1 6821   6.889   2.313   5.497
 2288TIP3    H2 6822   6.948   2.412   5.398
 2289TIP3   OH2 6823   5.499   6.680   6.296
 2289TIP3    H1 6824   5.498   6.621   6.371
 2289TIP3    H2 6825   5.419   6.732   6.305
 2290TIP3   OH2 6826   6.291   0.557   0.892
 2290TIP3    H1 6827   6.206   0.569   0.935
 2290TIP3    H2 6828   6.353   0.600   0.951
 2291TIP3   OH2 6829   5.184   2.997   0.443
 2291TIP3    H1 6830   5.225   3.043   0.370
 2291TIP3    H2 6831   5.136   2.925   0.403
 2292TIP3   OH2 6832   5.070   6.174   0.740
 2292TIP3    H1 6833   5.107   6.100   0.788
 2292TIP3    H2 6834   4.997   6.138   0.690
 2293TIP3   OH2 6835   3.701   6.492   3.843
 2293TIP3    H1 6836   3.771   6.499   3.777
 2293TIP3    H2 6837   3.713   6.568   3.899
 2294TIP3   OH2 6838   2.750   7.679   1.647
 2294TIP3    H1 6839   2.828   7.630   1.673
 2294TIP3    H2 6840   2.777   7.771   1.650
 2295TIP3   OH2 6841   2.199   4.064   2.879
 2295TIP3    H1 6842   2.236   4.147   2.908
 2295TIP3    H2 6843   2.250   4.040   2.802
 2296TIP3   OH2 6844   2.627   4.676   5.825
 2296TIP3    H1 6845   2.627   4.670   5.729
 2296TIP3    H2 6846   2.583   4.759   5.843
 2297TIP3   OH2 6847   2.371   7.033   5.374
 2297TIP3    H1 6848   2.420   7.005   5.297
 2297TIP3    H2 6849   2.432   7.019   5.447
 2298TIP3   OH2 6850   7.661   6.590   6.703
 2298TIP3    H1 6851   7.675   6.680   6.731
 2298TIP3    H2 6852   7.622   6.598   6.616
 2299TIP3   OH2 6853   7.603   7.243   0.054
 2299TIP3    H1 6854   7.540   7.250  -0.018
 2299TIP3    H2 6855   7.593   7.325   0.103
 2300TIP3   OH2 6856   5.734   5.232   0.832
 2300TIP3    H1 6857   5.767   5.322   0.824
 2300TIP3    H2 6858   5.777   5.184   0.761
 2301TIP3   OH2 6859   4.526   2.876   5.200
 2301TIP3    H1 6860   4.478   2.802   5.237
 2301TIP3    H2 6861   4.496   2.880   5.109
 2302TIP3   OH2 6862   6.011   4.067   4.213
 2302TIP3    H1 6863   5.930   4.022   4.238
 2302TIP3    H2 6864   6.079   4.001   4.222
 2303TIP3   OH2 6865   2.792   1.814   5.985
 2303TIP3    H1 6866   2.760   1.781   6.068
 2303TIP3    H2 6867   2.846   1.743   5.950
 2304TIP3   OH2 6868   5.632   2.200   4.672
 2304TIP3    H1 6869   5.694   2.156   4.730
 2304TIP3    H2 6870   5.678   2.278   4.641
 2305TIP3   OH2 6871   1.965   5.729   6.458
 2305TIP3    H1 6872   2.049   5.748   6.415
 2305TIP3    H2 6873   1.899   5.765   6.399
 2306TIP3   OH2 6874   6.811   7.822   0.262
 2306TIP3    H1 6875   6.904   7.811   0.284
 2306TIP3    H2 6876   6.771   7.856   0.342
 2307TIP3   OH2 6877   5.719   0.685   3.076
 2307TIP3    H1 6878   5.740   0.614   3.137
 2307TIP3    H2 6879   5.623   0.684   3.071
 2308TIP3   OH2 6880   8.238   0.936   5.740
 2308TIP3    H1 6881   8.227   0.965   5.650
 2308TIP3    H2 6882   8.228   0.841   5.737
 2309TIP3   OH2 6883   7.911   0.425   3.974
 2309TIP3    H1 6884   7.887   0.489   4.041
 2309TIP3    H2 6885   7.931   0.477   3.896
 2310TIP3   OH2 6886   4.089   4.777   3.408
 2310TIP3    H1 6887   4.043   4.773   3.492
 2310TIP3    H2 6888   4.102   4.870   3.392
 2311TIP3   OH2 6889   7.440   2.095   4.839
 2311TIP3    H1 6890   7.495   2.169   4.812
 2311TIP3    H2 6891   7.374   2.088   4.770
 2312TIP3   OH2 6892   7.001   1.685   6.782
 2312TIP3    H1 6893   7.080   1.696   6.729
 2312TIP3    H2 6894   6.981   1.591   6.776
 2313TIP3   OH2 6895   4.187   6.735   1.004
 2313TIP3    H1 6896   4.112   6.689   1.042
 2313TIP3    H2 6897   4.251   6.667   0.986
 2314TIP3   OH2 6898   0.814   3.668   4.254
 2314TIP3    H1 6899   0.811   3.649   4.160
 2314TIP3    H2 6900   0.894   3.719   4.266
 2315TIP3   OH2 6901   1.540   0.420   1.485
 2315TIP3    H1 6902   1.515   0.390   1.398
 2315TIP3    H2 6903   1.470   0.388   1.543
 2316TIP3   OH2 6904   4.242   5.445   5.582
 2316TIP3    H1 6905   4.228   5.490   5.498
 2316TIP3    H2 6906   4.262   5.516   5.643
 2317TIP3   OH2 6907   3.491   2.836   5.876
 2317TIP3    H1 6908   3.428   2.764   5.875
 2317TIP3    H2 6909   3.482   2.876   5.789
 2318TIP3   OH2 6910   2.309   4.267   0.401
 2318TIP3    H1 6911   2.366   4.341   0.380
 2318TIP3    H2 6912   2.357   4.190   0.370
 2319TIP3   OH2 6913   0.563   3.942   5.257
 2319TIP3    H1 6914   0.647   3.947   5.301
 2319TIP3    H2 6915   0.578   3.885   5.181
 2320TIP3   OH2 6916   1.044   2.469   4.863
 2320TIP3    H1 6917   0.961   2.423   4.863
 2320TIP3    H2 6918   1.019   2.562   4.872
 2321TIP3   OH2 6919   2.348   3.835   6.502
 2321TIP3    H1 6920   2.295   3.803   6.429
 2321TIP3    H2 6921   2.313   3.921   6.521
 2322TIP3   OH2 6922   4.249   3.142   3.366
 2322TIP3    H1 6923   4.176   3.186   3.322
 2322TIP3    H2 6924   4.235   3.049   3.348
 2323TIP3   OH2 6925   7.366   0.040   4.626
 2323TIP3    H1 6926   7.282   0.031   4.671
 2323TIP3    H2 6927   7.420   0.090   4.686
 2324TIP3   OH2 6928   1.335   3.543   6.669
 2324TIP3    H1 6929   1.293   3.526   6.753
 2324TIP3    H2 6930   1.429   3.544   6.689
 2325TIP3   OH2 6931   1.490   7.549   4.539
 2325TIP3    H1 6932   1.464   7.610   4.608
 2325TIP3    H2 6933   1.484   7.463   4.580
 2326TIP3   OH2 6934   4.797   3.819   6.378
 2326TIP3    H1 6935   4.747   3.860   6.307
 2326TIP3    H2 6936   4.754   3.851   6.458
 2327TIP3   OH2 6937   3.069   3.231   0.789
 2327TIP3    H1 6938   2.993   3.212   0.734
 2327TIP3    H2 6939   3.135   3.266   0.729
 2328TIP3   OH2 6940   7.647   4.441   5.477
 2328TIP3    H1 6941   7.690   4.483   5.402
 2328TIP3    H2 6942   7.717   4.431   5.542
 2329TIP3   OH2 6943   5.139   5.029   6.777
 2329TIP3    H1 6944   5.066   5.073   6.820
 2329TIP3    H2 6945   5.126   5.047   6.684
 2330TIP3   OH2 6946   6.153   6.724   3.777
 2330TIP3    H1 6947   6.243   6.703   3.805
 2330TIP3    H2 6948   6.138   6.667   3.702
 2331TIP3   OH2 6949   2.797   3.113   5.368
 2331TIP3    H1 6950   2.752   3.071   5.295
 2331TIP3    H2 6951   2.752   3.081   5.446
 2332TIP3   OH2 6952   7.814   7.135   3.038
 2332TIP3    H1 6953   7.758   7.164   2.966
 2332TIP3    H2 6954   7.900   7.171   3.017
 2333TIP3   OH2 6955   3.883   5.211   2.698
 2333TIP3    H1 6956   3.894   5.304   2.717
 2333TIP3    H2 6957   3.831   5.177   2.771
 2334TIP3   OH2 6958   2.257   3.495   2.442
 2334TIP3    H1 6959   2.230   3.403   2.451
 2334TIP3    H2 6960   2.179   3.545   2.463
 2335TIP3   OH2 6961   8.143   3.316   2.899
 2335TIP3    H1 6962   8.101   3.400   2.881
 2335TIP3    H2 6963   8.236   3.335   2.904
 2336TIP3   OH2 6964   0.864   5.574   6.329
 2336TIP3    H1 6965   0.800   5.516   6.369
 2336TIP3    H2 6966   0.917   5.517   6.272
 2337TIP3   OH2 6967   2.479   4.944   3.303
 2337TIP3    H1 6968   2.537   4.873   3.275
 2337TIP3    H2 6969   2.391   4.910   3.289
 2338TIP3   OH2 6970   7.637   7.096   0.953
 2338TIP3    H1 6971   7.666   7.094   0.862
 2338TIP3    H2 6972   7.650   7.007   0.985
 2339TIP3   OH2 6973   4.593   3.169   0.653
 2339TIP3    H1 6974   4.531   3.096   0.646
 2339TIP3    H2 6975   4.657   3.140   0.718
 2340TIP3   OH2 6976   5.465   3.101   5.682
 2340TIP3    H1 6977   5.411   3.157   5.626
 2340TIP3    H2 6978   5.429   3.013   5.670
 2341TIP3   OH2 6979   0.222   3.682   0.488
 2341TIP3    H1 6980   0.149   3.668   0.549
 2341TIP3    H2 6981   0.299   3.690   0.544
 2342TIP3   OH2 6982   6.779   6.856   2.067
 2342TIP3    H1 6983   6.780   6.923   2.135
 2342TIP3    H2 6984   6.866   6.861   2.027
 2343TIP3   OH2 6985   6.591   5.003   2.307
 2343TIP3    H1 6986   6.602   4.979   2.215
 2343TIP3    H2 6987   6.532   4.936   2.342
 2344TIP3   OH2 6988   0.165   5.221   3.323
 2344TIP3    H1 6989   0.158   5.274   3.402
 2344TIP3    H2 6990   0.256   5.230   3.296
 2345TIP3   OH2 6991   4.363   4.870   3.793
 2345TIP3    H1 6992   4.424   4.934   3.833
 2345TIP3    H2 6993   4.312   4.837   3.867
 2346TIP3   OH2 6994   6.335   5.568   5.169
 2346TIP3    H1 6995   6.359   5.476   5.174
 2346TIP3    H2 6996   6.315   5.593   5.259
 2347TIP3   OH2 6997   5.014   6.231   3.832
 2347TIP3    H1 6998   5.046   6.250   3.920
 2347TIP3    H2 6999   5.090   6.194   3.786
 2348TIP3   OH2 7000   1.753   0.438   3.533
 2348TIP3    H1 7001   1.838   0.451   3.574
 2348TIP3    H2 7002   1.714   0.365   3.581
 2349TIP3   OH2 7003   1.180   1.970   2.641
 2349TIP3    H1 7004   1.157   2.019   2.562
 2349TIP3    H2 7005   1.097   1.936   2.673
 2350TIP3   OH2 7006   4.989   4.175   6.210
 2350TIP3    H1 7007   4.942   4.092   6.205
 2350TIP3    H2 7008   4.920   4.241   6.218
 2351TIP3   OH2 7009   0.681   6.324   2.778
 2351TIP3    H1 7010   0.596   6.281   2.792
 2351TIP3    H2 7011   0.705   6.301   2.689
 2352TIP3   OH2 7012   1.733   5.049   5.895
 2352TIP3    H1 7013   1.686   4.990   5.954
 2352TIP3    H2 7014   1.800   4.995   5.854
 2353TIP3   OH2 7015   3.128   4.863   0.501
 2353TIP3    H1 7016   3.159   4.786   0.549
 2353TIP3    H2 7017   3.059   4.829   0.443
 2354TIP3   OH2 7018   2.865   0.685   0.016
 2354TIP3    H1 7019   2.849   0.779   0.019
 2354TIP3    H2 7020   2.826   0.652   0.097
 2355TIP3   OH2 7021   2.734   7.185   2.801
 2355TIP3    H1 7022   2.666   7.229   2.750
 2355TIP3    H2 7023   2.773   7.254   2.855
 2356TIP3   OH2 7024   6.493   5.326   4.717
 2356TIP3    H1 7025   6.539   5.356   4.639
 2356TIP3    H2 7026   6.438   5.254   4.686
 2357TIP3   OH2 7027   3.592   7.024   0.664
 2357TIP3    H1 7028   3.562   7.008   0.753
 2357TIP3    H2 7029   3.640   6.945   0.640
 2358TIP3   OH2 7030   1.134   0.459   1.334
 2358TIP3    H1 7031   1.142   0.550   1.365
 2358TIP3    H2 7032   1.194   0.409   1.390
 2359TIP3   OH2 7033   5.407   5.388   0.385
 2359TIP3    H1 7034   5.336   5.372   0.446
 2359TIP3    H2 7035   5.423   5.482   0.390
 2360TIP3   OH2 7036   7.380   7.484   3.062
 2360TIP3    H1 7037   7.383   7.406   3.005
 2360TIP3    H2 7038   7.316   7.541   3.020
 2361TIP3   OH2 7039   7.281   7.184   6.462
 2361TIP3    H1 7040   7.312   7.160   6.550
 2361TIP3    H2 7041   7.287   7.104   6.411
 2362TIP3   OH2 7042   1.617   4.736   0.911
 2362TIP3    H1 7043   1.678   4.720   0.840
 2362TIP3    H2 7044   1.552   4.796   0.873
 2363TIP3   OH2 7045   1.724   4.439   5.681
 2363TIP3    H1 7046   1.630   4.447   5.664
 2363TIP3    H2 7047   1.742   4.345   5.671
 2364TIP3   OH2 7048   6.748   0.780   0.787
 2364TIP3    H1 7049   6.672   0.776   0.845
 2364TIP3    H2 7050   6.803   0.848   0.825
 2365TIP3   OH2 7051   1.694   7.639   1.390
 2365TIP3    H1 7052   1.757   7.615   1.458
 2365TIP3    H2 7053   1.611   7.602   1.420
 2366TIP3   OH2 7054   2.348   6.383   2.718
 2366TIP3    H1 7055   2.415   6.450   2.734
 2366TIP3    H2 7056   2.308   6.409   2.636
 2367TIP3   OH2 7057   3.663   5.989   5.361
 2367TIP3    H1 7058   3.581   6.017   5.320
 2367TIP3    H2 7059   3.636   5.947   5.442
 2368TIP3   OH2 7060   2.180   6.837   5.359
 2368TIP3    H1 7061   2.244   6.907   5.345
 2368TIP3    H2 7062   2.097   6.874   5.331
 2369TIP3   OH2 7063   1.367   5.954   5.319
 2369TIP3    H1 7064   1.330   6.033   5.278
 2369TIP3    H2 7065   1.445   5.935   5.268
 2370TIP3   OH2 7066   5.412   5.610   4.601
 2370TIP3    H1 7067   5.348   5.663   4.553
 2370TIP3    H2 7068   5.495   5.657   4.591
 2371TIP3   OH2 7069   8.141   6.391   1.733
 2371TIP3    H1 7070   8.215   6.335   1.756
 2371TIP3    H2 7071   8.179   6.461   1.680
 2372TIP3   OH2 7072   1.397   1.334   0.107
 2372TIP3    H1 7073   1.371   1.414   0.152
 2372TIP3    H2 7074   1.388   1.354   0.014
 2373TIP3   OH2 7075   3.247   2.065   2.312
 2373TIP3    H1 7076   3.277   2.073   2.221
 2373TIP3    H2 7077   3.196   1.984   2.313
 2374TIP3   OH2 7078   7.156   3.125   4.610
 2374TIP3    H1 7079   7.225   3.191   4.615
 2374TIP3    H2 7080   7.202   3.043   4.590
 2375TIP3   OH2 7081   4.691   4.161   5.651
 2375TIP3    H1 7082   4.654   4.220   5.716
 2375TIP3    H2 7083   4.626   4.156   5.581
 2376TIP3   OH2 7084   2.003   1.734   2.205
 2376TIP3    H1 7085   2.084   1.784   2.192
 2376TIP3    H2 7086   1.967   1.768   2.287
 2377TIP3   OH2 7087   5.412   5.611   4.860
 2377TIP3    H1 7088   5.425   5.520   4.888
 2377TIP3    H2 7089   5.401   5.606   4.765
 2378TIP3   OH2 7090   6.199   6.275   3.968
 2378TIP3    H1 7091   6.123   6.233   3.927
 2378TIP3    H2 7092   6.185   6.262   4.062
 2379TIP3   OH2 7093   7.405   3.972   5.916
 2379TIP3    H1 7094   7.416   3.883   5.949
 2379TIP3    H2 7095   7.321   3.970   5.869
 2380TIP3   OH2 7096   3.719   3.936   3.538
 2380TIP3    H1 7097   3.661   3.866   3.570
 2380TIP3    H2 7098   3.672   3.976   3.466
 2381TIP3   OH2 7099   5.024   1.116   2.729
 2381TIP3    H1 7100   5.011   1.022   2.732
 2381TIP3    H2 7101   4.999   1.146   2.817
 2382TIP3   OH2 7102   0.038   4.107   2.662
 2382TIP3    H1 7103   0.062   4.147   2.745
 2382TIP3    H2 7104  -0.032   4.163   2.627
 2383TIP3   OH2 7105   5.478   2.292   1.722
 2383TIP3    H1 7106   5.397   2.241   1.726
 2383TIP3    H2 7107   5.508   2.297   1.812
 2384TIP3   OH2 7108   8.008   2.194   1.147
 2384TIP3    H1 7109   8.037   2.112   1.108
 2384TIP3    H2 7110   8.028   2.260   1.080
 2385TIP3   OH2 7111   5.170   4.758   2.124
 2385TIP3    H1 7112   5.094   4.811   2.103
 2385TIP3    H2 7113   5.135   4.685   2.176
 2386TIP3   OH2 7114   3.083   6.852   1.383
 2386TIP3    H1 7115   3.095   6.783   1.317
 2386TIP3    H2 7116   2.989   6.869   1.384
 2387TIP3   OH2 7117   0.089   3.379   2.923
 2387TIP3    H1 7118   0.110   3.415   2.836
 2387TIP3    H2 7119   0.174   3.362   2.963
 2388TIP3   OH2 7120   7.965   2.791   3.118
 2388TIP3    H1 7121   7.888   2.742   3.089
 2388TIP3    H2 7122   8.021   2.725   3.160
 2389TIP3   OH2 7123   7.285   5.162   5.691
 2389TIP3    H1 7124   7.300   5.103   5.617
 2389TIP3    H2 7125   7.191   5.183   5.686
 2390TIP3   OH2 7126   7.017   4.006   0.752
 2390TIP3    H1 7127   7.049   3.917   0.762
 2390TIP3    H2 7128   6.942   3.998   0.692
 2391TIP3   OH2 7129   2.432   1.011   3.033
 2391TIP3    H1 7130   2.364   0.947   3.011
 2391TIP3    H2 7131   2.481   1.022   2.952
 2392TIP3   OH2 7132   5.518   1.933   4.932
 2392TIP3    H1 7133   5.534   1.839   4.919
 2392TIP3    H2 7134   5.583   1.977   4.878
 2393TIP3   OH2 7135   5.536   3.210   2.732
 2393TIP3    H1 7136   5.561   3.121   2.759
 2393TIP3    H2 7137   5.588   3.228   2.655
 2394TIP3   OH2 7138   0.254   2.236   6.283
 2394TIP3    H1 7139   0.280   2.327   6.266
 2394TIP3    H2 7140   0.159   2.236   6.271
 2395TIP3   OH2 7141   5.550   6.977   5.548
 2395TIP3    H1 7142   5.604   6.989   5.626
 2395TIP3    H2 7143   5.576   6.891   5.515
 2396TIP3   OH2 7144   5.902   4.332   2.827
 2396TIP3    H1 7145   5.905   4.343   2.922
 2396TIP3    H2 7146   5.843   4.258   2.814
 2397TIP3   OH2 7147   0.394   1.204   5.740
 2397TIP3    H1 7148   0.339   1.140   5.786
 2397TIP3    H2 7149   0.476   1.205   5.790
 2398TIP3   OH2 7150   5.363   4.543   5.513
 2398TIP3    H1 7151   5.387   4.581   5.598
 2398TIP3    H2 7152   5.414   4.463   5.507
 2399TIP3   OH2 7153   5.967   4.308   4.365
 2399TIP3    H1 7154   6.002   4.298   4.453
 2399TIP3    H2 7155   5.985   4.224   4.322
 2400TIP3   OH2 7156   2.567   7.457   3.101
 2400TIP3    H1 7157   2.527   7.541   3.122
 2400TIP3    H2 7158   2.497   7.393   3.116
 2401TIP3   OH2 7159   5.843   4.021   5.703
 2401TIP3    H1 7160   5.780   4.079   5.746
 2401TIP3    H2 7161   5.911   4.080   5.672
 2402TIP3   OH2 7162   5.807   5.319   4.067
 2402TIP3    H1 7163   5.765   5.244   4.024
 2402TIP3    H2 7164   5.740   5.353   4.126
 2403TIP3   OH2 7165   1.960   4.928   2.206
 2403TIP3    H1 7166   1.908   4.918   2.126
 2403TIP3    H2 7167   2.024   4.996   2.185
 2404TIP3   OH2 7168   2.469   2.259   5.291
 2404TIP3    H1 7169   2.532   2.223   5.228
 2404TIP3    H2 7170   2.514   2.254   5.375
 2405TIP3   OH2 7171   6.962   4.699   6.059
 2405TIP3    H1 7172   6.906   4.758   6.008
 2405TIP3    H2 7173   7.051   4.735   6.048
 2406TIP3   OH2 7174   7.391   5.034   1.209
 2406TIP3    H1 7175   7.419   4.990   1.129
 2406TIP3    H2 7176   7.442   5.115   1.211
 2407TIP3   OH2 7177   6.453   1.565   0.394
 2407TIP3    H1 7178   6.445   1.582   0.488
 2407TIP3    H2 7179   6.434   1.471   0.385
 2408TIP3   OH2 7180   0.439   3.663   0.860
 2408TIP3    H1 7181   0.431   3.588   0.919
 2408TIP3    H2 7182   0.489   3.728   0.910
 2409TIP3   OH2 7183   4.450   6.048   6.144
 2409TIP3    H1 7184   4.451   6.094   6.227
 2409TIP3    H2 7185   4.533   6.000   6.141
 2410TIP3   OH2 7186   2.112   6.991   3.171
 2410TIP3    H1 7187   2.164   6.993   3.251
 2410TIP3    H2 7188   2.172   6.955   3.105
 2411TIP3   OH2 7189   7.096   4.258   0.653
 2411TIP3    H1 7190   7.075   4.165   0.663
 2411TIP3    H2 7191   7.126   4.266   0.562
 2412TIP3   OH2 7192   8.136   1.711   6.207
 2412TIP3    H1 7193   8.200   1.781   6.216
 2412TIP3    H2 7194   8.063   1.751   6.160
 2413TIP3   OH2 7195   7.294   5.002   3.408
 2413TIP3    H1 7196   7.320   5.014   3.317
 2413TIP3    H2 7197   7.304   5.088   3.448
 2414TIP3   OH2 7198   6.241   5.250   1.570
 2414TIP3    H1 7199   6.296   5.299   1.510
 2414TIP3    H2 7200   6.294   5.243   1.650
 2415TIP3   OH2 7201   8.063   4.677   1.510
 2415TIP3    H1 7202   8.031   4.763   1.538
 2415TIP3    H2 7203   7.990   4.639   1.461
 2416TIP3   OH2 7204   5.022   1.375   5.766
 2416TIP3    H1 7205   5.039   1.379   5.672
 2416TIP3    H2 7206   4.927   1.382   5.773
 2417TIP3   OH2 7207   1.493   2.170   3.276
 2417TIP3    H1 7208   1.411   2.125   3.259
 2417TIP3    H2 7209   1.503   2.166   3.371
 2418TIP3   OH2 7210   8.105   5.412   1.881
 2418TIP3    H1 7211   8.135   5.473   1.948
 2418TIP3    H2 7212   8.162   5.336   1.891
 2419TIP3   OH2 7213   3.414   5.490   5.631
 2419TIP3    H1 7214   3.483   5.472   5.695
 2419TIP3    H2 7215   3.458   5.540   5.562
 2420TIP3   OH2 7216   6.405   3.974   6.233
 2420TIP3    H1 7217   6.440   4.057   6.265
 2420TIP3    H2 7218   6.440   3.909   6.293
 2421TIP3   OH2 7219   0.595   5.946   0.517
 2421TIP3    H1 7220   0.543   5.866   0.515
 2421TIP3    H2 7221   0.660   5.932   0.586
 2422TIP3   OH2 7222   0.113   5.609   3.512
 2422TIP3    H1 7223   0.166   5.660   3.573
 2422TIP3    H2 7224   0.076   5.539   3.565
 2423TIP3   OH2 7225   3.162   2.709   4.081
 2423TIP3    H1 7226   3.189   2.659   4.157
 2423TIP3    H2 7227   3.173   2.801   4.106
 2424TIP3   OH2 7228   2.824   7.201   1.833
 2424TIP3    H1 7229   2.759   7.165   1.774
 2424TIP3    H2 7230   2.907   7.190   1.787
 2425TIP3   OH2 7231   3.955   5.477   6.691
 2425TIP3    H1 7232   3.951   5.388   6.656
 2425TIP3    H2 7233   3.945   5.466   6.786
 2426TIP3   OH2 7234   4.065   1.263   2.549
 2426TIP3    H1 7235   4.109   1.283   2.632
 2426TIP3    H2 7236   3.995   1.328   2.544
 2427TIP3   OH2 7237   6.458   3.011   2.995
 2427TIP3    H1 7238   6.485   2.924   2.965
 2427TIP3    H2 7239   6.386   3.035   2.938
 2428TIP3   OH2 7240   2.149   4.381   6.460
 2428TIP3    H1 7241   2.226   4.325   6.475
 2428TIP3    H2 7242   2.134   4.376   6.366
 2429TIP3   OH2 7243   4.744   5.991   2.028
 2429TIP3    H1 7244   4.797   5.950   2.097
 2429TIP3    H2 7245   4.690   5.920   1.993
 2430TIP3   OH2 7246   3.189   4.910   2.677
 2430TIP3    H1 7247   3.269   4.867   2.708
 2430TIP3    H2 7248   3.176   4.982   2.739
 2431TIP3   OH2 7249   3.964   6.775   5.172
 2431TIP3    H1 7250   4.052   6.778   5.208
 2431TIP3    H2 7251   3.967   6.707   5.105
 2432TIP3   OH2 7252   1.541   3.454   6.006
 2432TIP3    H1 7253   1.594   3.381   5.975
 2432TIP3    H2 7254   1.453   3.437   5.973
 2433TIP3   OH2 7255   5.647   6.106   2.733
 2433TIP3    H1 7256   5.586   6.135   2.666
 2433TIP3    H2 7257   5.663   6.014   2.712
 2434TIP3   OH2 7258   8.196   5.843   2.133
 2434TIP3    H1 7259   8.180   5.879   2.046
 2434TIP3    H2 7260   8.259   5.904   2.173
 2435TIP3   OH2 7261   1.698   1.058   3.110
 2435TIP3    H1 7262   1.678   1.069   3.203
 2435TIP3    H2 7263   1.784   1.100   3.099
 2436TIP3   OH2 7264   3.086   4.567   1.885
 2436TIP3    H1 7265   3.169   4.576   1.837
 2436TIP3    H2 7266   3.030   4.516   1.825
 2437TIP3   OH2 7267   1.050   1.823   5.158
 2437TIP3    H1 7268   0.966   1.860   5.132
 2437TIP3    H2 7269   1.108   1.899   5.165
 2438TIP3   OH2 7270   1.320   5.422   4.879
 2438TIP3    H1 7271   1.309   5.485   4.808
 2438TIP3    H2 7272   1.392   5.457   4.931
 2439TIP3   OH2 7273   4.181   2.374   2.368
 2439TIP3    H1 7274   4.099   2.424   2.359
 2439TIP3    H2 7275   4.199   2.344   2.279
 2440TIP3   OH2 7276   4.823   5.076   0.586
 2440TIP3    H1 7277   4.837   5.008   0.652
 2440TIP3    H2 7278   4.865   5.041   0.507
 2441TIP3   OH2 7279   1.807   4.576   5.900
 2441TIP3    H1 7280   1.778   4.534   5.981
 2441TIP3    H2 7281   1.749   4.542   5.833
 2442TIP3   OH2 7282   2.956   5.946   4.578
 2442TIP3    H1 7283   2.896   5.924   4.650
 2442TIP3    H2 7284   2.911   6.017   4.532
 2443TIP3   OH2 7285   3.613   0.756   5.130
 2443TIP3    H1 7286   3.702   0.744   5.097
 2443TIP3    H2 7287   3.561   0.690   5.085
 2444TIP3   OH2 7288   3.244   6.128   6.404
 2444TIP3    H1 7289   3.295   6.069   6.349
 2444TIP3    H2 7290   3.264   6.216   6.369
 2445TIP3   OH2 7291   5.194   3.423   1.449
 2445TIP3    H1 7292   5.201   3.360   1.520
 2445TIP3    H2 7293   5.165   3.372   1.374
 2446TIP3   OH2 7294   0.413   4.133   1.777
 2446TIP3    H1 7295   0.492   4.141   1.831
 2446TIP3    H2 7296   0.371   4.219   1.784
 2447TIP3   OH2 7297   2.862   5.226   3.201
 2447TIP3    H1 7298   2.926   5.202   3.268
 2447TIP3    H2 7299   2.820   5.144   3.176
 2448TIP3   OH2 7300   1.431   2.056   3.536
 2448TIP3    H1 7301   1.435   2.041   3.630
 2448TIP3    H2 7302   1.357   2.115   3.523
 2449TIP3   OH2 7303   2.051   0.410   5.121
 2449TIP3    H1 7304   2.079   0.481   5.179
 2449TIP3    H2 7305   2.121   0.402   5.056
 2450TIP3   OH2 7306   5.616   7.347   0.860
 2450TIP3    H1 7307   5.700   7.309   0.885
 2450TIP3    H2 7308   5.582   7.386   0.940
 2451TIP3   OH2 7309   0.552   0.110   6.324
 2451TIP3    H1 7310   0.569   0.166   6.399
 2451TIP3    H2 7311   0.479   0.151   6.279
 2452TIP3   OH2 7312   0.405   1.773   3.559
 2452TIP3    H1 7313   0.316   1.799   3.534
 2452TIP3    H2 7314   0.402   1.678   3.564
 2453TIP3   OH2 7315   4.606   2.687   3.764
 2453TIP3    H1 7316   4.657   2.761   3.797
 2453TIP3    H2 7317   4.657   2.610   3.787
 2454TIP3   OH2 7318   4.301   0.362   5.308
 2454TIP3    H1 7319   4.252   0.400   5.381
 2454TIP3    H2 7320   4.388   0.346   5.345
 2455TIP3   OH2 7321   4.520   7.254   1.864
 2455TIP3    H1 7322   4.483   7.193   1.928
 2455TIP3    H2 7323   4.607   7.274   1.897
 2456TIP3   OH2 7324   5.720   4.560   0.984
 2456TIP3    H1 7325   5.748   4.472   0.960
 2456TIP3    H2 7326   5.677   4.549   1.069
 2457TIP3   OH2 7327   3.188   2.655   1.889
 2457TIP3    H1 7328   3.276   2.638   1.855
 2457TIP3    H2 7329   3.130   2.610   1.827
 2458TIP3   OH2 7330   5.096   0.686   2.464
 2458TIP3    H1 7331   5.144   0.606   2.489
 2458TIP3    H2 7332   5.046   0.661   2.387
 2459TIP3   OH2 7333   2.230   2.292   5.776
 2459TIP3    H1 7334   2.272   2.258   5.697
 2459TIP3    H2 7335   2.148   2.329   5.746
 2460TIP3   OH2 7336   2.016   0.330   3.000
 2460TIP3    H1 7337   1.971   0.413   3.018
 2460TIP3    H2 7338   2.038   0.295   3.086
 2461TIP3   OH2 7339   2.092   1.575   5.058
 2461TIP3    H1 7340   2.184   1.600   5.064
 2461TIP3    H2 7341   2.047   1.635   5.118
 2462TIP3   OH2 7342   7.183   2.218   3.647
 2462TIP3    H1 7343   7.231   2.300   3.656
 2462TIP3    H2 7344   7.225   2.159   3.710
 2463TIP3   OH2 7345   4.085   2.121   6.444
 2463TIP3    H1 7346   4.120   2.123   6.355
 2463TIP3    H2 7347   3.995   2.092   6.434
 2464TIP3   OH2 7348   5.570   0.435   2.509
 2464TIP3    H1 7349   5.635   0.366   2.494
 2464TIP3    H2 7350   5.486   0.394   2.491
 2465TIP3   OH2 7351   5.574   0.490   1.543
 2465TIP3    H1 7352   5.599   0.419   1.483
 2465TIP3    H2 7353   5.651   0.504   1.597
 2466TIP3   OH2 7354   4.896   3.024   4.549
 2466TIP3    H1 7355   4.836   3.097   4.564
 2466TIP3    H2 7356   4.851   2.970   4.483
 2467TIP3   OH2 7357   0.873   6.849   4.724
 2467TIP3    H1 7358   0.787   6.885   4.747
 2467TIP3    H2 7359   0.881   6.865   4.630
 2468TIP3   OH2 7360   0.772   5.888   0.764
 2468TIP3    H1 7361   0.786   5.980   0.787
 2468TIP3    H2 7362   0.780   5.841   0.847
 2469TIP3   OH2 7363   7.990   5.815   4.674
 2469TIP3    H1 7364   7.997   5.731   4.629
 2469TIP3    H2 7365   7.944   5.795   4.756
 2470TIP3   OH2 7366   6.365   0.385   5.872
 2470TIP3    H1 7367   6.439   0.326   5.868
 2470TIP3    H2 7368   6.399   0.463   5.916
 2471TIP3   OH2 7369   5.137   0.124   0.515
 2471TIP3    H1 7370   5.122   0.195   0.453
 2471TIP3    H2 7371   5.232   0.111   0.514
 2472TIP3   OH2 7372   5.601   2.800   3.547
 2472TIP3    H1 7373   5.684   2.844   3.565
 2472TIP3    H2 7374   5.547   2.867   3.504
 2473TIP3   OH2 7375   6.587   5.927   1.540
 2473TIP3    H1 7376   6.504   5.925   1.587
 2473TIP3    H2 7377   6.594   5.842   1.498
 2474TIP3   OH2 7378   1.743   1.887   0.076
 2474TIP3    H1 7379   1.752   1.983   0.071
 2474TIP3    H2 7380   1.806   1.861   0.143
 2475TIP3   OH2 7381   7.261   5.242   0.136
 2475TIP3    H1 7382   7.325   5.176   0.111
 2475TIP3    H2 7383   7.312   5.310   0.180
 2476TIP3   OH2 7384   1.997   5.206   3.362
 2476TIP3    H1 7385   1.999   5.199   3.457
 2476TIP3    H2 7386   1.932   5.274   3.344
 2477TIP3   OH2 7387   5.465   7.146   1.209
 2477TIP3    H1 7388   5.548   7.194   1.210
 2477TIP3    H2 7389   5.447   7.130   1.116
 2478TIP3   OH2 7390   4.582   1.056   3.999
 2478TIP3    H1 7391   4.518   1.001   3.953
 2478TIP3    H2 7392   4.582   1.138   3.950
 2479TIP3   OH2 7393   3.978   7.304   6.145
 2479TIP3    H1 7394   4.059   7.253   6.148
 2479TIP3    H2 7395   3.909   7.238   6.138
 2480TIP3   OH2 7396   4.722   7.510   4.340
 2480TIP3    H1 7397   4.648   7.548   4.292
 2480TIP3    H2 7398   4.701   7.524   4.432
 2481TIP3   OH2 7399   1.233   5.882   6.585
 2481TIP3    H1 7400   1.318   5.925   6.576
 2481TIP3    H2 7401   1.224   5.829   6.506
 2482TIP3   OH2 7402   1.557   5.804   4.539
 2482TIP3    H1 7403   1.567   5.774   4.629
 2482TIP3    H2 7404   1.626   5.870   4.527
 2483TIP3   OH2 7405   4.947   5.899   2.512
 2483TIP3    H1 7406   4.909   5.969   2.565
 2483TIP3    H2 7407   4.927   5.818   2.560
 2484TIP3   OH2 7408   0.713   2.883   1.754
 2484TIP3    H1 7409   0.794   2.931   1.770
 2484TIP3    H2 7410   0.715   2.862   1.660
 2485TIP3   OH2 7411   6.127   4.209   6.603
 2485TIP3    H1 7412   6.131   4.240   6.513
 2485TIP3    H2 7413   6.216   4.183   6.625
 2486TIP3   OH2 7414   7.262   3.459   0.792
 2486TIP3    H1 7415   7.302   3.500   0.870
 2486TIP3    H2 7416   7.180   3.421   0.825
 2487TIP3   OH2 7417   1.870   6.660   0.044
 2487TIP3    H1 7418   1.865   6.565   0.046
 2487TIP3    H2 7419   1.794   6.689   0.094
 2488TIP3   OH2 7420   2.049   6.580   2.168
 2488TIP3    H1 7421   2.106   6.524   2.221
 2488TIP3    H2 7422   1.975   6.524   2.146
 2489TIP3   OH2 7423   3.263   3.719   0.498
 2489TIP3    H1 7424   3.275   3.811   0.521
 2489TIP3    H2 7425   3.213   3.682   0.571
 2490TIP3   OH2 7426   3.959   3.782   0.582
 2490TIP3    H1 7427   3.898   3.716   0.550
 2490TIP3    H2 7428   3.998   3.743   0.660
 2491TIP3   OH2 7429   6.368   7.630   5.347
 2491TIP3    H1 7430   6.420   7.710   5.349
 2491TIP3    H2 7431   6.297   7.646   5.410
 2492TIP3   OH2 7432   2.643   0.746   0.649
 2492TIP3    H1 7433   2.734   0.721   0.663
 2492TIP3    H2 7434   2.594   0.664   0.658
 2493TIP3   OH2 7435   5.133   0.750   1.469
 2493TIP3    H1 7436   5.139   0.845   1.459
 2493TIP3    H2 7437   5.184   0.730   1.547
 2494TIP3   OH2 7438   1.358   1.353   5.868
 2494TIP3    H1 7439   1.276   1.311   5.892
 2494TIP3    H2 7440   1.387   1.307   5.789
 2495TIP3   OH2 7441   4.167   5.025   2.100
 2495TIP3    H1 7442   4.255   5.029   2.062
 2495TIP3    H2 7443   4.134   4.938   2.075
 2496TIP3   OH2 7444   2.560   5.048   0.826
 2496TIP3    H1 7445   2.500   4.980   0.855
 2496TIP3    H2 7446   2.547   5.054   0.732
 2497TIP3   OH2 7447   4.989   0.501   4.302
 2497TIP3    H1 7448   5.079   0.466   4.300
 2497TIP3    H2 7449   4.936   0.428   4.334
 2498TIP3   OH2 7450   7.034  -0.027   3.707
 2498TIP3    H1 7451   7.121  -0.022   3.747
 2498TIP3    H2 7452   7.045   0.013   3.621
 2499TIP3   OH2 7453   4.728   0.962   0.810
 2499TIP3    H1 7454   4.671   1.039   0.813
 2499TIP3    H2 7455   4.747   0.942   0.902
 2500TIP3   OH2 7456   4.992   2.859   3.841
 2500TIP3    H1 7457   4.992   2.847   3.936
 2500TIP3    H2 7458   4.900   2.860   3.817
 2501TIP3   OH2 7459   7.292   2.101   5.107
 2501TIP3    H1 7460   7.291   2.197   5.115
 2501TIP3    H2 7461   7.329   2.085   5.021
 2502TIP3   OH2 7462   7.966   7.236   6.497
 2502TIP3    H1 7463   7.881   7.252   6.539
 2502TIP3    H2 7464   7.994   7.323   6.467
 2503TIP3   OH2 7465   5.911   5.910   6.592
 2503TIP3    H1 7466   5.847   5.872   6.652
 2503TIP3    H2 7467   5.976   5.840   6.578
 2504TIP3   OH2 7468  -0.005   3.647   6.070
 2504TIP3    H1 7469   0.089   3.666   6.074
 2504TIP3    H2 7470  -0.025   3.647   5.977
 2505TIP3   OH2 7471   3.708   0.767   0.427
 2505TIP3    H1 7472   3.671   0.813   0.503
 2505TIP3    H2 7473   3.688   0.675   0.443
 2506TIP3   OH2 7474   7.440   6.689   2.133
 2506TIP3    H1 7475   7.390   6.762   2.098
 2506TIP3    H2 7476   7.393   6.663   2.212
 2507TIP3   OH2 7477   6.628   7.791   0.949
 2507TIP3    H1 7478   6.569   7.828   1.015
 2507TIP3    H2 7479   6.570   7.743   0.889
 2508TIP3   OH2 7480   0.860   2.152   5.777
 2508TIP3    H1 7481   0.950   2.184   5.773
 2508TIP3    H2 7482   0.832   2.174   5.866
 2509TIP3   OH2 7483   5.954   1.317   4.187
 2509TIP3    H1 7484   5.963   1.222   4.194
 2509TIP3    H2 7485   5.868   1.336   4.222
 2510TIP3   OH2 7486   0.140   0.576   4.245
 2510TIP3    H1 7487   0.115   0.629   4.170
 2510TIP3    H2 7488   0.221   0.617   4.278
 2511TIP3   OH2 7489   2.151   7.623   2.748
 2511TIP3    H1 7490   2.199   7.561   2.802
 2511TIP3    H2 7491   2.069   7.638   2.794
 2512TIP3   OH2 7492   5.479   1.667   4.789
 2512TIP3    H1 7493   5.395   1.623   4.806
 2512TIP3    H2 7494   5.520   1.614   4.721
 2513TIP3   OH2 7495   6.729   4.995   5.735
 2513TIP3    H1 7496   6.688   5.004   5.650
 2513TIP3    H2 7497   6.800   4.932   5.722
 2514TIP3   OH2 7498   0.852   3.064   4.421
 2514TIP3    H1 7499   0.924   3.127   4.418
 2514TIP3    H2 7500   0.775   3.115   4.395
 2515TIP3   OH2 7501   3.454   0.918   2.443
 2515TIP3    H1 7502   3.401   0.991   2.474
 2515TIP3    H2 7503   3.473   0.939   2.351
 2516TIP3   OH2 7504   3.282   2.029   3.474
 2516TIP3    H1 7505   3.236   2.107   3.443
 2516TIP3    H2 7506   3.212   1.970   3.502
 2517TIP3   OH2 7507   2.019   6.557   4.912
 2517TIP3    H1 7508   2.085   6.517   4.968
 2517TIP3    H2 7509   2.048   6.536   4.823
 2518TIP3   OH2 7510   2.061   6.123   5.634
 2518TIP3    H1 7511   2.143   6.146   5.677
 2518TIP3    H2 7512   1.999   6.190   5.661
 2519TIP3   OH2 7513   6.668   2.538   6.324
 2519TIP3    H1 7514   6.592   2.573   6.371
 2519TIP3    H2 7515   6.638   2.527   6.234
 2520TIP3   OH2 7516   6.777   1.305   2.290
 2520TIP3    H1 7517   6.753   1.397   2.275
 2520TIP3    H2 7518   6.848   1.309   2.355
 2521TIP3   OH2 7519   1.278   6.511   4.323
 2521TIP3    H1 7520   1.370   6.519   4.347
 2521TIP3    H2 7521   1.243   6.599   4.332
 2522TIP3   OH2 7522   2.216   2.633   1.853
 2522TIP3    H1 7523   2.302   2.591   1.852
 2522TIP3    H2 7524   2.187   2.629   1.762
 2523TIP3   OH2 7525   7.416   1.144   4.530
 2523TIP3    H1 7526   7.327   1.114   4.553
 2523TIP3    H2 7527   7.474   1.082   4.574
 2524TIP3   OH2 7528   7.571   5.877   5.256
 2524TIP3    H1 7529   7.641   5.851   5.196
 2524TIP3    H2 7530   7.600   5.846   5.342
 2525TIP3   OH2 7531   0.089   0.599   2.212
 2525TIP3    H1 7532  -0.004   0.582   2.228
 2525TIP3    H2 7533   0.104   0.568   2.123
 2526TIP3   OH2 7534   7.312   4.512   4.817
 2526TIP3    H1 7535   7.274   4.478   4.736
 2526TIP3    H2 7536   7.387   4.564   4.789
 2527TIP3   OH2 7537   4.649   0.479   1.499
 2527TIP3    H1 7538   4.576   0.422   1.474
 2527TIP3    H2 7539   4.609   0.549   1.550
 2528TIP3   OH2 7540   4.748   1.323   0.686
 2528TIP3    H1 7541   4.744   1.368   0.602
 2528TIP3    H2 7542   4.677   1.259   0.682
 2529TIP3   OH2 7543   3.733   3.333   6.685
 2529TIP3    H1 7544   3.675   3.294   6.620
 2529TIP3    H2 7545   3.674   3.376   6.747
 2530TIP3   OH2 7546   1.728   0.229   4.449
 2530TIP3    H1 7547   1.639   0.245   4.479
 2530TIP3    H2 7548   1.772   0.314   4.458
 2531TIP3   OH2 7549   7.481   2.792   4.127
 2531TIP3    H1 7550   7.544   2.800   4.056
 2531TIP3    H2 7551   7.474   2.880   4.164
 2532TIP3   OH2 7552   4.191   2.819   2.519
 2532TIP3    H1 7553   4.118   2.802   2.459
 2532TIP3    H2 7554   4.251   2.746   2.504
 2533TIP3   OH2 7555   2.648   1.419   2.685
 2533TIP3    H1 7556   2.567   1.468   2.668
 2533TIP3    H2 7557   2.656   1.361   2.609
 2534TIP3   OH2 7558   5.925   4.124   0.389
 2534TIP3    H1 7559   5.946   4.090   0.476
 2534TIP3    H2 7560   5.996   4.185   0.370
 2535TIP3   OH2 7561   5.981   7.167   2.768
 2535TIP3    H1 7562   5.973   7.194   2.677
 2535TIP3    H2 7563   6.068   7.198   2.795
 2536TIP3   OH2 7564   5.977   6.996   1.168
 2536TIP3    H1 7565   5.993   7.080   1.211
 2536TIP3    H2 7566   5.987   6.931   1.237
 2537TIP3   OH2 7567   6.659   2.678   4.398
 2537TIP3    H1 7568   6.718   2.684   4.473
 2537TIP3    H2 7569   6.694   2.741   4.335
 2538TIP3   OH2 7570   1.554   4.525   1.655
 2538TIP3    H1 7571   1.524   4.616   1.659
 2538TIP3    H2 7572   1.566   4.508   1.561
 2539TIP3   OH2 7573   1.268   3.714   4.568
 2539TIP3    H1 7574   1.339   3.686   4.626
 2539TIP3    H2 7575   1.203   3.754   4.626
 2540TIP3   OH2 7576   6.427   6.485   4.299
 2540TIP3    H1 7577   6.417   6.539   4.377
 2540TIP3    H2 7578   6.504   6.431   4.317
 2541TIP3   OH2 7579   4.435   5.231   5.657
 2541TIP3    H1 7580   4.346   5.265   5.671
 2541TIP3    H2 7581   4.488   5.309   5.642
 2542TIP3   OH2 7582   0.915   0.301   2.910
 2542TIP3    H1 7583   0.920   0.328   2.819
 2542TIP3    H2 7584   1.004   0.273   2.932
 2543TIP3   OH2 7585   3.619   6.011   6.511
 2543TIP3    H1 7586   3.640   5.950   6.440
 2543TIP3    H2 7587   3.659   6.094   6.483
 2544TIP3   OH2 7588   1.819   6.637   1.082
 2544TIP3    H1 7589   1.890   6.676   1.133
 2544TIP3    H2 7590   1.740   6.677   1.117
 2545TIP3   OH2 7591   2.120   0.652   2.837
 2545TIP3    H1 7592   2.087   0.632   2.749
 2545TIP3    H2 7593   2.046   0.634   2.895
 2546TIP3   OH2 7594   0.280   3.864   1.693
 2546TIP3    H1 7595   0.281   3.959   1.710
 2546TIP3    H2 7596   0.365   3.833   1.726
 2547TIP3   OH2 7597   4.383   2.861   2.748
 2547TIP3    H1 7598   4.320   2.933   2.747
 2547TIP3    H2 7599   4.330   2.782   2.751
 2548TIP3   OH2 7600   0.162   1.440   2.382
 2548TIP3    H1 7601   0.222   1.479   2.446
 2548TIP3    H2 7602   0.184   1.483   2.299
 2549TIP3   OH2 7603   1.634   4.711   5.638
 2549TIP3    H1 7604   1.550   4.668   5.627
 2549TIP3    H2 7605   1.613   4.804   5.639
 2550TIP3   OH2 7606   6.817   4.154   3.834
 2550TIP3    H1 7607   6.800   4.131   3.742
 2550TIP3    H2 7608   6.859   4.240   3.830
 2551TIP3   OH2 7609   1.197   6.828   6.156
 2551TIP3    H1 7610   1.244   6.884   6.094
 2551TIP3    H2 7611   1.224   6.739   6.132
 2552TIP3   OH2 7612   2.892   3.485   0.559
 2552TIP3    H1 7613   2.880   3.503   0.652
 2552TIP3    H2 7614   2.916   3.393   0.554
 2553TIP3   OH2 7615   4.153   2.472   3.114
 2553TIP3    H1 7616   4.137   2.456   3.207
 2553TIP3    H2 7617   4.248   2.482   3.107
 2554TIP3   OH2 7618   0.718   6.273   5.707
 2554TIP3    H1 7619   0.720   6.324   5.626
 2554TIP3    H2 7620   0.722   6.339   5.777
 2555TIP3   OH2 7621   6.567   2.645   4.132
 2555TIP3    H1 7622   6.570   2.643   4.227
 2555TIP3    H2 7623   6.590   2.556   4.105
 2556TIP3   OH2 7624   1.208   2.817   0.983
 2556TIP3    H1 7625   1.113   2.807   0.990
 2556TIP3    H2 7626   1.243   2.731   1.004
 2557TIP3   OH2 7627   6.477   4.773   3.734
 2557TIP3    H1 7628   6.433   4.696   3.698
 2557TIP3    H2 7629   6.409   4.840   3.739
 2558TIP3   OH2 7630   0.950   1.097   1.220
 2558TIP3    H1 7631   0.936   1.185   1.183
 2558TIP3    H2 7632   1.041   1.097   1.250
 2559TIP3   OH2 7633   7.830   4.405   4.685
 2559TIP3    H1 7634   7.852   4.473   4.750
 2559TIP3    H2 7635   7.902   4.343   4.692
 2560TIP3   OH2 7636   3.414   3.841   2.285
 2560TIP3    H1 7637   3.333   3.866   2.242
 2560TIP3    H2 7638   3.388   3.777   2.351
 2561TIP3   OH2 7639   1.575   4.996   5.052
 2561TIP3    H1 7640   1.583   4.973   4.959
 2561TIP3    H2 7641   1.598   5.089   5.056
 2562TIP3   OH2 7642   7.292   5.977   0.336
 2562TIP3    H1 7643   7.297   5.881   0.341
 2562TIP3    H2 7644   7.341   6.007   0.412
 2563TIP3   OH2 7645   7.035   3.129   2.130
 2563TIP3    H1 7646   7.095   3.076   2.077
 2563TIP3    H2 7647   7.092   3.183   2.184
 2564TIP3   OH2 7648   1.132   1.561   4.851
 2564TIP3    H1 7649   1.199   1.506   4.812
 2564TIP3    H2 7650   1.052   1.508   4.848
 2565TIP3   OH2 7651   4.176   4.108   3.376
 2565TIP3    H1 7652   4.232   4.183   3.395
 2565TIP3    H2 7653   4.150   4.075   3.462
 2566TIP3   OH2 7654   4.008   1.429   1.665
 2566TIP3    H1 7655   3.994   1.413   1.758
 2566TIP3    H2 7656   4.023   1.524   1.659
 2567TIP3   OH2 7657   4.515   3.077   1.876
 2567TIP3    H1 7658   4.465   3.149   1.915
 2567TIP3    H2 7659   4.580   3.120   1.821
 2568TIP3   OH2 7660   4.394   4.464   5.421
 2568TIP3    H1 7661   4.327   4.524   5.389
 2568TIP3    H2 7662   4.439   4.512   5.490
 2569TIP3   OH2 7663   0.794   5.519   4.832
 2569TIP3    H1 7664   0.811   5.510   4.926
 2569TIP3    H2 7665   0.748   5.438   4.808
 2570TIP3   OH2 7666   3.837   4.860   0.408
 2570TIP3    H1 7667   3.906   4.844   0.472
 2570TIP3    H2 7668   3.790   4.777   0.402
 2571TIP3   OH2 7669   7.630   3.910   1.096
 2571TIP3    H1 7670   7.573   3.892   1.021
 2571TIP3    H2 7671   7.716   3.924   1.057
 2572TIP3   OH2 7672   0.391   0.747   1.789
 2572TIP3    H1 7673   0.403   0.817   1.853
 2572TIP3    H2 7674   0.478   0.711   1.775
 2573TIP3   OH2 7675   0.114   0.005   4.395
 2573TIP3    H1 7676   0.096   0.075   4.332
 2573TIP3    H2 7677   0.027  -0.024   4.424
 2574TIP3   OH2 7678   2.188   3.972   0.270
 2574TIP3    H1 7679   2.256   4.028   0.307
 2574TIP3    H2 7680   2.224   3.941   0.187
 2575TIP3   OH2 7681   2.247   2.241   2.332
 2575TIP3    H1 7682   2.265   2.324   2.288
 2575TIP3    H2 7683   2.319   2.232   2.394
 2576TIP3   OH2 7684   8.093   1.602   5.849
 2576TIP3    H1 7685   8.183   1.623   5.825
 2576TIP3    H2 7686   8.067   1.534   5.786
 2577TIP3   OH2 7687   3.243   6.819   0.702
 2577TIP3    H1 7688   3.213   6.759   0.771
 2577TIP3    H2 7689   3.200   6.902   0.722
 2578TIP3   OH2 7690   6.899   2.783   5.292
 2578TIP3    H1 7691   6.967   2.761   5.356
 2578TIP3    H2 7692   6.817   2.776   5.341
 2579TIP3   OH2 7693   1.351   2.669   5.041
 2579TIP3    H1 7694   1.324   2.589   4.995
 2579TIP3    H2 7695   1.447   2.664   5.043
 2580TIP3   OH2 7696   0.777   5.816   3.408
 2580TIP3    H1 7697   0.756   5.766   3.329
 2580TIP3    H2 7698   0.872   5.804   3.418
 2581TIP3   OH2 7699   8.168   7.200   5.680
 2581TIP3    H1 7700   8.083   7.190   5.722
 2581TIP3    H2 7701   8.218   7.124   5.709
 2582TIP3   OH2 7702   1.544   5.938   5.876
 2582TIP3    H1 7703   1.612   5.938   5.943
 2582TIP3    H2 7704   1.544   5.849   5.841
 2583TIP3   OH2 7705   8.277   0.669   4.995
 2583TIP3    H1 7706   8.278   0.580   4.961
 2583TIP3    H2 7707   8.186   0.698   4.985
 2584TIP3   OH2 7708   0.811   4.391   6.814
 2584TIP3    H1 7709   0.818   4.421   6.904
 2584TIP3    H2 7710   0.721   4.360   6.805
 2585TIP3   OH2 7711   0.071   5.589   1.070
 2585TIP3    H1 7712   0.150   5.615   1.118
 2585TIP3    H2 7713   0.008   5.567   1.139
 2586TIP3   OH2 7714   6.781   4.567   5.251
 2586TIP3    H1 7715   6.861   4.517   5.234
 2586TIP3    H2 7716   6.799   4.653   5.213
 2587TIP3   OH2 7717   6.716   7.051   2.354
 2587TIP3    H1 7718   6.801   7.089   2.378
 2587TIP3    H2 7719   6.654   7.091   2.416
 2588TIP3   OH2 7720   1.330   6.425   5.435
 2588TIP3    H1 7721   1.240   6.396   5.449
 2588TIP3    H2 7722   1.325   6.521   5.438
 2589TIP3   OH2 7723   5.707   4.228   3.814
 2589TIP3    H1 7724   5.743   4.164   3.875
 2589TIP3    H2 7725   5.627   4.259   3.857
 2590TIP3   OH2 7726   3.193   1.831   3.778
 2590TIP3    H1 7727   3.167   1.802   3.690
 2590TIP3    H2 7728   3.285   1.806   3.785
 2591TIP3   OH2 7729   6.942   4.844   5.782
 2591TIP3    H1 7730   7.012   4.820   5.721
 2591TIP3    H2 7731   6.887   4.766   5.786
 2592TIP3   OH2 7732   5.485   1.668   5.869
 2592TIP3    H1 7733   5.547   1.601   5.897
 2592TIP3    H2 7734   5.399   1.625   5.873
 2593TIP3   OH2 7735   1.516   1.847   3.103
 2593TIP3    H1 7736   1.464   1.768   3.117
 2593TIP3    H2 7737   1.483   1.909   3.169
 2594TIP3   OH2 7738   7.028   0.378   3.612
 2594TIP3    H1 7739   6.963   0.430   3.565
 2594TIP3    H2 7740   6.981   0.349   3.691
 2595TIP3   OH2 7741   4.321   6.526   2.053
 2595TIP3    H1 7742   4.357   6.614   2.041
 2595TIP3    H2 7743   4.331   6.510   2.147
 2596TIP3   OH2 7744   0.207   5.652   4.180
 2596TIP3    H1 7745   0.295   5.674   4.210
 2596TIP3    H2 7746   0.154   5.652   4.260
 2597TIP3   OH2 7747   6.388   3.306   3.905
 2597TIP3    H1 7748   6.431   3.322   3.989
 2597TIP3    H2 7749   6.411   3.381   3.851
 2598TIP3   OH2 7750   3.597   3.178   3.101
 2598TIP3    H1 7751   3.563   3.226   3.176
 2598TIP3    H2 7752   3.595   3.086   3.129
 2599TIP3   OH2 7753   6.596   1.934   0.018
 2599TIP3    H1 7754   6.642   1.855   0.048
 2599TIP3    H2 7755   6.659   1.978  -0.039
 2600TIP3   OH2 7756   7.292   4.291   3.315
 2600TIP3    H1 7757   7.308   4.353   3.386
 2600TIP3    H2 7758   7.212   4.246   3.340
 2601TIP3   OH2 7759   0.797   7.351   0.983
 2601TIP3    H1 7760   0.858   7.414   1.022
 2601TIP3    H2 7761   0.791   7.281   1.048
 2602TIP3   OH2 7762   4.672   5.165   5.264
 2602TIP3    H1 7763   4.692   5.075   5.287
 2602TIP3    H2 7764   4.686   5.215   5.345
 2603TIP3   OH2 7765   5.905   3.753   3.040
 2603TIP3    H1 7766   5.936   3.700   3.114
 2603TIP3    H2 7767   5.940   3.841   3.058
 2604TIP3   OH2 7768   7.265   1.367   0.402
 2604TIP3    H1 7769   7.349   1.383   0.445
 2604TIP3    H2 7770   7.201   1.412   0.456
 2605TIP3   OH2 7771   5.642   1.228   6.053
 2605TIP3    H1 7772   5.732   1.204   6.032
 2605TIP3    H2 7773   5.646   1.262   6.142
 2606TIP3   OH2 7774   6.629   0.201   4.698
 2606TIP3    H1 7775   6.550   0.254   4.708
 2606TIP3    H2 7776   6.608   0.140   4.628
 2607TIP3   OH2 7777   3.289   5.154   1.090
 2607TIP3    H1 7778   3.355   5.108   1.039
 2607TIP3    H2 7779   3.326   5.242   1.104
 2608TIP3   OH2 7780   1.326   3.585   5.515
 2608TIP3    H1 7781   1.352   3.677   5.512
 2608TIP3    H2 7782   1.236   3.587   5.548
 2609TIP3   OH2 7783   6.981   3.155   4.373
 2609TIP3    H1 7784   7.045   3.112   4.316
 2609TIP3    H2 7785   7.025   3.160   4.458
 2610TIP3   OH2 7786   7.382   2.743   5.666
 2610TIP3    H1 7787   7.449   2.791   5.617
 2610TIP3    H2 7788   7.342   2.810   5.723
 2611TIP3   OH2 7789   4.326   1.922   0.292
 2611TIP3    H1 7790   4.355   1.975   0.367
 2611TIP3    H2 7791   4.235   1.902   0.312
 2612TIP3   OH2 7792   5.690   6.470   1.100
 2612TIP3    H1 7793   5.605   6.438   1.128
 2612TIP3    H2 7794   5.708   6.422   1.019
 2613TIP3   OH2 7795   6.075   1.765   2.768
 2613TIP3    H1 7796   6.053   1.711   2.844
 2613TIP3    H2 7797   6.167   1.789   2.781
 2614TIP3   OH2 7798   1.693   3.790   2.398
 2614TIP3    H1 7799   1.623   3.836   2.444
 2614TIP3    H2 7800   1.732   3.732   2.463
 2615TIP3   OH2 7801   4.025   4.669   5.626
 2615TIP3    H1 7802   4.009   4.715   5.543
 2615TIP3    H2 7803   4.081   4.595   5.602
 2616TIP3   OH2 7804   1.828   7.650   5.663
 2616TIP3    H1 7805   1.772   7.632   5.738
 2616TIP3    H2 7806   1.908   7.601   5.681
 2617TIP3   OH2 7807   4.988   2.321   5.154
 2617TIP3    H1 7808   4.997   2.413   5.129
 2617TIP3    H2 7809   4.894   2.311   5.173
 2618TIP3   OH2 7810   8.248   5.004   1.476
 2618TIP3    H1 7811   8.180   5.070   1.462
 2618TIP3    H2 7812   8.308   5.015   1.402
 2619TIP3   OH2 7813   4.502   6.000   3.806
 2619TIP3    H1 7814   4.418   5.954   3.797
 2619TIP3    H2 7815   4.489   6.058   3.881
 2620TIP3   OH2 7816   8.183   1.478   2.247
 2620TIP3    H1 7817   8.230   1.416   2.302
 2620TIP3    H2 7818   8.102   1.496   2.294
 2621TIP3   OH2 7819   0.940   7.743   6.329
 2621TIP3    H1 7820   0.996   7.710   6.399
 2621TIP3    H2 7821   1.001   7.780   6.265
 2622TIP3   OH2 7822   6.454   7.323   4.137
 2622TIP3    H1 7823   6.423   7.253   4.079
 2622TIP3    H2 7824   6.374   7.362   4.173
 2623TIP3   OH2 7825   6.846   6.760   5.619
 2623TIP3    H1 7826   6.872   6.696   5.553
 2623TIP3    H2 7827   6.804   6.708   5.687
 2624TIP3   OH2 7828   2.420   0.265   6.214
 2624TIP3    H1 7829   2.370   0.340   6.183
 2624TIP3    H2 7830   2.459   0.294   6.297
 2625TIP3   OH2 7831   6.509   1.288   5.615
 2625TIP3    H1 7832   6.547   1.207   5.580
 2625TIP3    H2 7833   6.476   1.334   5.538
 2626TIP3   OH2 7834   0.745   2.055   0.678
 2626TIP3    H1 7835   0.840   2.071   0.682
 2626TIP3    H2 7836   0.728   1.996   0.751
 2627TIP3   OH2 7837   3.956   2.367   2.018
 2627TIP3    H1 7838   3.949   2.272   2.005
 2627TIP3    H2 7839   3.951   2.403   1.929
 2628TIP3   OH2 7840   0.486   5.541   4.245
 2628TIP3    H1 7841   0.546   5.614   4.232
 2628TIP3    H2 7842   0.511   5.504   4.330
 2629TIP3   OH2 7843   5.458   4.194   4.664
 2629TIP3    H1 7844   5.522   4.161   4.601
 2629TIP3    H2 7845   5.392   4.125   4.670
 2630TIP3   OH2 7846   2.020   3.297   1.146
 2630TIP3    H1 7847   2.046   3.283   1.055
 2630TIP3    H2 7848   1.993   3.389   1.150
 2631TIP3   OH2 7849   3.131   4.496   5.843
 2631TIP3    H1 7850   3.222   4.471   5.828
 2631TIP3    H2 7851   3.094   4.423   5.893
 2632TIP3   OH2 7852   2.386   6.907   0.164
 2632TIP3    H1 7853   2.418   6.926   0.076
 2632TIP3    H2 7854   2.348   6.990   0.194
 2633TIP3   OH2 7855   1.198   2.298   1.929
 2633TIP3    H1 7856   1.136   2.229   1.907
 2633TIP3    H2 7857   1.203   2.295   2.025
 2634TIP3   OH2 7858   2.220   5.788   6.300
 2634TIP3    H1 7859   2.174   5.868   6.272
 2634TIP3    H2 7860   2.257   5.752   6.220
 2635TIP3   OH2 7861   4.566   6.621   5.189
 2635TIP3    H1 7862   4.479   6.624   5.147
 2635TIP3    H2 7863   4.579   6.529   5.210
 2636TIP3   OH2 7864   7.223   0.676   5.078
 2636TIP3    H1 7865   7.302   0.731   5.080
 2636TIP3    H2 7866   7.211   0.648   5.168
 2637TIP3   OH2 7867   2.966   0.896   4.465
 2637TIP3    H1 7868   2.946   0.922   4.555
 2637TIP3    H2 7869   3.040   0.835   4.474
 2638TIP3   OH2 7870   1.168   3.138   2.617
 2638TIP3    H1 7871   1.075   3.118   2.611
 2638TIP3    H2 7872   1.171   3.233   2.625
 2639TIP3   OH2 7873   0.428   5.921   4.163
 2639TIP3    H1 7874   0.348   5.877   4.135
 2639TIP3    H2 7875   0.404   6.014   4.166
 2640TIP3   OH2 7876   4.284   4.921   0.213
 2640TIP3    H1 7877   4.341   4.895   0.286
 2640TIP3    H2 7878   4.305   4.859   0.143
 2641TIP3   OH2 7879   2.571   1.304   1.935
 2641TIP3    H1 7880   2.536   1.354   1.860
 2641TIP3    H2 7881   2.602   1.222   1.897
 2642TIP3   OH2 7882   6.233   1.648   4.915
 2642TIP3    H1 7883   6.156   1.673   4.965
 2642TIP3    H2 7884   6.295   1.615   4.980
 2643TIP3   OH2 7885   3.373   7.164   6.220
 2643TIP3    H1 7886   3.326   7.175   6.137
 2643TIP3    H2 7887   3.426   7.085   6.207
 2644TIP3   OH2 7888   3.010   7.379   0.633
 2644TIP3    H1 7889   2.931   7.423   0.665
 2644TIP3    H2 7890   3.067   7.374   0.710
 2645TIP3   OH2 7891   0.690   6.585   3.981
 2645TIP3    H1 7892   0.783   6.580   3.957
 2645TIP3    H2 7893   0.643   6.569   3.900
 2646TIP3   OH2 7894   2.058   4.633   2.026
 2646TIP3    H1 7895   1.993   4.629   1.955
 2646TIP3    H2 7896   2.007   4.651   2.105
 2647TIP3   OH2 7897   1.441   0.838   6.624
 2647TIP3    H1 7898   1.416   0.921   6.582
 2647TIP3    H2 7899   1.484   0.865   6.705
 2648TIP3   OH2 7900   4.232   5.511   6.505
 2648TIP3    H1 7901   4.182   5.448   6.557
 2648TIP3    H2 7902   4.166   5.561   6.457
 2649TIP3   OH2 7903   8.145   0.216   6.401
 2649TIP3    H1 7904   8.130   0.126   6.430
 2649TIP3    H2 7905   8.111   0.218   6.311
 2650TIP3   OH2 7906   3.857   0.537   3.402
 2650TIP3    H1 7907   3.849   0.528   3.308
 2650TIP3    H2 7908   3.938   0.586   3.414
 2651TIP3   OH2 7909   3.521   2.508   4.884
 2651TIP3    H1 7910   3.512   2.460   4.802
 2651TIP3    H2 7911   3.525   2.441   4.952
 2652TIP3   OH2 7912   1.687   6.396   1.652
 2652TIP3    H1 7913   1.757   6.403   1.587
 2652TIP3    H2 7914   1.721   6.336   1.718
 2653TIP3   OH2 7915   5.118   1.613   3.314
 2653TIP3    H1 7916   5.060   1.638   3.386
 2653TIP3    H2 7917   5.196   1.577   3.357
 2654TIP3   OH2 7918   2.545   4.777   2.159
 2654TIP3    H1 7919   2.515   4.762   2.248
 2654TIP3    H2 7920   2.479   4.737   2.103
 2655TIP3   OH2 7921   2.250   5.686   0.256
 2655TIP3    H1 7922   2.187   5.622   0.289
 2655TIP3    H2 7923   2.211   5.718   0.175
 2656TIP3   OH2 7924   8.055   4.280   4.740
 2656TIP3    H1 7925   8.036   4.250   4.828
 2656TIP3    H2 7926   8.057   4.200   4.687
 2657TIP3   OH2 7927   2.583   0.326   5.822
 2657TIP3    H1 7928   2.494   0.290   5.824
 2657TIP3    H2 7929   2.572   0.419   5.838
 2658TIP3   OH2 7930   3.696   7.375   2.832
 2658TIP3    H1 7931   3.635   7.336   2.895
 2658TIP3    H2 7932   3.781   7.337   2.853
 2659TIP3   OH2 7933   6.219   1.333   0.883
 2659TIP3    H1 7934   6.210   1.333   0.788
 2659TIP3    H2 7935   6.228   1.426   0.906
 2660TIP3   OH2 7936   4.382   3.784   2.587
 2660TIP3    H1 7937   4.447   3.833   2.538
 2660TIP3    H2 7938   4.413   3.693   2.584
 2661TIP3   OH2 7939   7.558   3.407   3.427
 2661TIP3    H1 7940   7.596   3.463   3.360
 2661TIP3    H2 7941   7.530   3.328   3.381
 2662TIP3   OH2 7942   7.087   6.295   4.791
 2662TIP3    H1 7943   7.072   6.205   4.763
 2662TIP3    H2 7944   7.099   6.344   4.710
 2663TIP3   OH2 7945   0.218   4.819   6.309
 2663TIP3    H1 7946   0.141   4.791   6.358
 2663TIP3    H2 7947   0.280   4.747   6.321
 2664TIP3   OH2 7948   7.366   1.342   3.445
 2664TIP3    H1 7949   7.275   1.345   3.416
 2664TIP3    H2 7950   7.412   1.296   3.375
 2665TIP3   OH2 7951   4.960   4.242   6.596
 2665TIP3    H1 7952   4.886   4.296   6.567
 2665TIP3    H2 7953   4.921   4.157   6.614
 2666TIP3   OH2 7954   1.244   7.404   1.206
 2666TIP3    H1 7955   1.272   7.355   1.129
 2666TIP3    H2 7956   1.314   7.468   1.220
 2667TIP3   OH2 7957   7.009   6.639   6.327
 2667TIP3    H1 7958   6.977   6.672   6.411
 2667TIP3    H2 7959   7.006   6.714   6.268
 2668TIP3   OH2 7960   2.887   3.279   5.158
 2668TIP3    H1 7961   2.837   3.246   5.084
 2668TIP3    H2 7962   2.854   3.230   5.233
 2669TIP3   OH2 7963   4.271   1.014   6.744
 2669TIP3    H1 7964   4.182   0.985   6.766
 2669TIP3    H2 7965   4.319   1.010   6.826
 2670TIP3   OH2 7966   5.046   0.879   4.921
 2670TIP3    H1 7967   4.957   0.914   4.920
 2670TIP3    H2 7968   5.102   0.954   4.941
 2671TIP3   OH2 7969   1.561   3.062   0.962
 2671TIP3    H1 7970   1.565   2.967   0.974
 2671TIP3    H2 7971   1.500   3.092   1.030
 2672TIP3   OH2 7972   2.104   6.665   4.022
 2672TIP3    H1 7973   2.159   6.649   4.099
 2672TIP3    H2 7974   2.147   6.618   3.951
 2673TIP3   OH2 7975   3.943   5.115   1.705
 2673TIP3    H1 7976   4.031   5.099   1.671
 2673TIP3    H2 7977   3.947   5.203   1.742
 2674TIP3   OH2 7978   3.642   3.041   3.446
 2674TIP3    H1 7979   3.602   3.069   3.528
 2674TIP3    H2 7980   3.668   2.950   3.462
 2675TIP3   OH2 7981   2.766   6.939   0.261
 2675TIP3    H1 7982   2.739   6.878   0.192
 2675TIP3    H2 7983   2.707   7.014   0.250
 2676TIP3   OH2 7984   3.687   0.788   3.423
 2676TIP3    H1 7985   3.746   0.769   3.350
 2676TIP3    H2 7986   3.706   0.721   3.488
 2677TIP3   OH2 7987   6.787   0.847   6.464
 2677TIP3    H1 7988   6.875   0.884   6.458
 2677TIP3    H2 7989   6.800   0.754   6.482
 2678TIP3   OH2 7990   6.019   2.500   1.284
 2678TIP3    H1 7991   6.000   2.459   1.199
 2678TIP3    H2 7992   5.938   2.546   1.306
 2679TIP3   OH2 7993   1.368   6.705   0.192
 2679TIP3    H1 7994   1.355   6.713   0.097
 2679TIP3    H2 7995   1.309   6.770   0.230
 2680TIP3   OH2 7996   5.181   5.542   1.061
 2680TIP3    H1 7997   5.122   5.577   1.128
 2680TIP3    H2 7998   5.268   5.556   1.097
 2681TIP3   OH2 7999   4.933   0.509   1.812
 2681TIP3    H1 8000   4.934   0.516   1.717
 2681TIP3    H2 8001   4.973   0.591   1.842
 2682TIP3   OH2 8002   3.614   6.680   5.103
 2682TIP3    H1 8003   3.589   6.666   5.012
 2682TIP3    H2 8004   3.698   6.635   5.112
 2683TIP3   OH2 8005   3.239   7.481   3.503
 2683TIP3    H1 8006   3.183   7.406   3.484
 2683TIP3    H2 8007   3.322   7.442   3.532
 2684TIP3   OH2 8008   6.812   4.325   0.357
 2684TIP3    H1 8009   6.796   4.419   0.347
 2684TIP3    H2 8010   6.769   4.302   0.439
 2685TIP3   OH2 8011   2.955   1.252   2.294
 2685TIP3    H1 8012   2.898   1.273   2.220
 2685TIP3    H2 8013   2.996   1.168   2.269
 2686TIP3   OH2 8014   5.167   6.226   5.939
 2686TIP3    H1 8015   5.169   6.188   5.852
 2686TIP3    H2 8016   5.105   6.172   5.988
 2687TIP3   OH2 8017   6.409   2.759   4.500
 2687TIP3    H1 8018   6.342   2.768   4.432
 2687TIP3    H2 8019   6.484   2.720   4.455
 2688TIP3   OH2 8020   1.037   5.256   3.832
 2688TIP3    H1 8021   0.951   5.220   3.851
 2688TIP3    H2 8022   1.097   5.182   3.843
 2689TIP3   OH2 8023   7.783   0.768   5.743
 2689TIP3    H1 8024   7.822   0.844   5.699
 2689TIP3    H2 8025   7.689   0.776   5.728
 2690TIP3   OH2 8026   6.160   4.167   1.704
 2690TIP3    H1 8027   6.155   4.262   1.698
 2690TIP3    H2 8028   6.121   4.146   1.788
 2691TIP3   OH2 8029   0.393   3.556   2.163
 2691TIP3    H1 8030   0.452   3.630   2.175
 2691TIP3    H2 8031   0.328   3.566   2.233
 2692TIP3   OH2 8032   0.465   4.771   2.143
 2692TIP3    H1 8033   0.442   4.837   2.207
 2692TIP3    H2 8034   0.435   4.688   2.181
 2693TIP3   OH2 8035   2.621   2.466   0.561
 2693TIP3    H1 8036   2.570   2.480   0.481
 2693TIP3    H2 8037   2.709   2.444   0.530
 2694TIP3   OH2 8038   2.902   1.769   6.444
 2694TIP3    H1 8039   2.918   1.698   6.507
 2694TIP3    H2 8040   2.853   1.728   6.373
 2695TIP3   OH2 8041   2.309   6.812   3.819
 2695TIP3    H1 8042   2.370   6.788   3.888
 2695TIP3    H2 8043   2.275   6.729   3.786
 2696TIP3   OH2 8044   6.754   1.069   0.060
 2696TIP3    H1 8045   6.810   1.127   0.112
 2696TIP3    H2 8046   6.815   1.024   0.002
 2697TIP3   OH2 8047   3.739   1.895   0.399
 2697TIP3    H1 8048   3.739   1.832   0.327
 2697TIP3    H2 8049   3.768   1.844   0.475
 2698TIP3   OH2 8050   2.530   6.133   3.025
 2698TIP3    H1 8051   2.470   6.195   3.066
 2698TIP3    H2 8052   2.496   6.047   3.050
 2699TIP3   OH2 8053   0.462   7.389   5.516
 2699TIP3    H1 8054   0.506   7.424   5.593
 2699TIP3    H2 8055   0.519   7.412   5.443
 2700TIP3   OH2 8056   7.279   6.215   2.896
 2700TIP3    H1 8057   7.222   6.200   2.821
 2700TIP3    H2 8058   7.244   6.293   2.938
 2701TIP3   OH2 8059   1.102   2.700   6.049
 2701TIP3    H1 8060   1.117   2.654   5.967
 2701TIP3    H2 8061   1.015   2.737   6.041
 2702TIP3   OH2 8062   7.162   3.988   5.319
 2702TIP3    H1 8063   7.256   3.993   5.340
 2702TIP3    H2 8064   7.160   3.956   5.228
 2703TIP3   OH2 8065   4.013   7.600   2.267
 2703TIP3    H1 8066   4.079   7.558   2.322
 2703TIP3    H2 8067   3.939   7.616   2.326
 2704TIP3   OH2 8068   5.206   0.585   1.055
 2704TIP3    H1 8069   5.227   0.518   1.120
 2704TIP3    H2 8070   5.127   0.553   1.011
 2705TIP3   OH2 8071   6.019   3.272   3.947
 2705TIP3    H1 8072   5.937   3.314   3.922
 2705TIP3    H2 8073   6.029   3.293   4.040
 2706TIP3   OH2 8074   1.628   3.243   1.315
 2706TIP3    H1 8075   1.654   3.297   1.240
 2706TIP3    H2 8076   1.624   3.303   1.389
 2707TIP3   OH2 8077   2.965   6.405   5.780
 2707TIP3    H1 8078   2.887   6.440   5.822
 2707TIP3    H2 8079   2.976   6.317   5.817
 2708TIP3   OH2 8080   7.367   2.155   1.002
 2708TIP3    H1 8081   7.440   2.176   1.061
 2708TIP3    H2 8082   7.309   2.230   1.007
 2709TIP3   OH2 8083   4.575   5.014   2.760
 2709TIP3    H1 8084   4.648   4.962   2.793
 2709TIP3    H2 8085   4.497   4.971   2.793
 2710TIP3   OH2 8086   3.330   3.678   6.520
 2710TIP3    H1 8087   3.284   3.608   6.474
 2710TIP3    H2 8088   3.422   3.651   6.519
 2711TIP3   OH2 8089   7.654   5.020   3.224
 2711TIP3    H1 8090   7.569   5.063   3.214
 2711TIP3    H2 8091   7.686   5.049   3.310
 2712TIP3   OH2 8092   1.508   5.068   0.076
 2712TIP3    H1 8093   1.496   4.996   0.139
 2712TIP3    H2 8094   1.587   5.043   0.026
 2713TIP3   OH2 8095   0.725   0.907  -0.018
 2713TIP3    H1 8096   0.663   0.844  -0.052
 2713TIP3    H2 8097   0.693   0.928   0.070
 2714TIP3   OH2 8098   6.661   2.653   1.803
 2714TIP3    H1 8099   6.755   2.666   1.816
 2714TIP3    H2 8100   6.649   2.559   1.813
 2715TIP3   OH2 8101   3.545   5.513   4.611
 2715TIP3    H1 8102   3.579   5.578   4.550
 2715TIP3    H2 8103   3.607   5.440   4.605
 2716TIP3   OH2 8104   2.553   4.992   2.956
 2716TIP3    H1 8105   2.596   5.016   3.038
 2716TIP3    H2 8106   2.581   4.902   2.940
 2717TIP3   OH2 8107   3.578   4.155   5.770
 2717TIP3    H1 8108   3.651   4.210   5.795
 2717TIP3    H2 8109   3.609   4.106   5.695
 2718TIP3   OH2 8110   0.654   4.646   4.873
 2718TIP3    H1 8111   0.707   4.662   4.795
 2718TIP3    H2 8112   0.566   4.672   4.848
 2719TIP3   OH2 8113   6.571   7.693   3.418
 2719TIP3    H1 8114   6.548   7.630   3.487
 2719TIP3    H2 8115   6.636   7.750   3.458
 2720TIP3   OH2 8116   2.415   1.221   4.532
 2720TIP3    H1 8117   2.368   1.282   4.475
 2720TIP3    H2 8118   2.498   1.207   4.487
 2721TIP3   OH2 8119   6.003   1.472   0.295
 2721TIP3    H1 8120   6.028   1.558   0.262
 2721TIP3    H2 8121   6.038   1.411   0.230
 2722TIP3   OH2 8122   4.797   1.888   2.063
 2722TIP3    H1 8123   4.759   1.868   1.977
 2722TIP3    H2 8124   4.824   1.980   2.057
 2723TIP3   OH2 8125   3.773   0.224   1.187
 2723TIP3    H1 8126   3.798   0.230   1.095
 2723TIP3    H2 8127   3.831   0.158   1.224
 2724TIP3   OH2 8128   1.927   6.064   5.968
 2724TIP3    H1 8129   1.885   6.148   5.986
 2724TIP3    H2 8130   1.910   6.048   5.875
 2725TIP3   OH2 8131   2.987   5.652   6.505
 2725TIP3    H1 8132   3.081   5.670   6.501
 2725TIP3    H2 8133   2.947   5.738   6.515
 2726TIP3   OH2 8134   4.096   4.939   1.543
 2726TIP3    H1 8135   4.157   4.866   1.535
 2726TIP3    H2 8136   4.009   4.901   1.529
 2727TIP3   OH2 8137   7.940   0.258   5.475
 2727TIP3    H1 8138   7.981   0.192   5.419
 2727TIP3    H2 8139   7.869   0.294   5.422
 2728TIP3   OH2 8140   3.361   4.943   2.453
 2728TIP3    H1 8141   3.307   4.916   2.379
 2728TIP3    H2 8142   3.298   4.964   2.522
 2729TIP3   OH2 8143   0.076   2.769   2.090
 2729TIP3    H1 8144   0.158   2.805   2.057
 2729TIP3    H2 8145   0.102   2.717   2.166
 2730TIP3   OH2 8146   6.211   6.575   1.623
 2730TIP3    H1 8147   6.190   6.572   1.716
 2730TIP3    H2 8148   6.126   6.573   1.579
 2731TIP3   OH2 8149   8.000   6.330   4.219
 2731TIP3    H1 8150   7.947   6.269   4.168
 2731TIP3    H2 8151   8.083   6.285   4.233
 2732TIP3   OH2 8152   7.216   5.266   3.057
 2732TIP3    H1 8153   7.237   5.342   3.003
 2732TIP3    H2 8154   7.168   5.208   2.998
 2733TIP3   OH2 8155   4.561   5.711   0.159
 2733TIP3    H1 8156   4.576   5.718   0.253
 2733TIP3    H2 8157   4.641   5.672   0.124
 2734TIP3   OH2 8158   6.933   1.267   1.311
 2734TIP3    H1 8159   6.925   1.338   1.374
 2734TIP3    H2 8160   6.945   1.188   1.364
 2735TIP3   OH2 8161   5.779   5.188   0.092
 2735TIP3    H1 8162   5.873   5.204   0.079
 2735TIP3    H2 8163   5.738   5.272   0.070
 2736TIP3   OH2 8164   2.495   5.696   3.522
 2736TIP3    H1 8165   2.566   5.711   3.460
 2736TIP3    H2 8166   2.529   5.631   3.583
 2737TIP3   OH2 8167   5.246   6.651   2.785
 2737TIP3    H1 8168   5.333   6.689   2.796
 2737TIP3    H2 8169   5.191   6.724   2.758
 2738TIP3   OH2 8170   6.765   7.714   1.706
 2738TIP3    H1 8171   6.673   7.701   1.729
 2738TIP3    H2 8172   6.798   7.774   1.772
 2739TIP3   OH2 8173   6.932   4.571   0.270
 2739TIP3    H1 8174   6.937   4.660   0.304
 2739TIP3    H2 8175   7.015   4.530   0.295
 2740TIP3   OH2 8176   4.525   0.214   0.985
 2740TIP3    H1 8177   4.455   0.156   1.017
 2740TIP3    H2 8178   4.529   0.197   0.891
 2741TIP3   OH2 8179   0.463   5.711   3.434
 2741TIP3    H1 8180   0.501   5.660   3.362
 2741TIP3    H2 8181   0.395   5.653   3.471
 2742TIP3   OH2 8182   1.987   4.619   5.205
 2742TIP3    H1 8183   1.996   4.525   5.191
 2742TIP3    H2 8184   1.940   4.627   5.287
 2743TIP3   OH2 8185   3.088   0.921   6.682
 2743TIP3    H1 8186   3.156   0.939   6.746
 2743TIP3    H2 8187   3.041   1.004   6.673
 2744TIP3   OH2 8188   4.901   4.805   0.660
 2744TIP3    H1 8189   4.967   4.756   0.611
 2744TIP3    H2 8190   4.847   4.738   0.703
 2745TIP3   OH2 8191   5.024   5.062   3.106
 2745TIP3    H1 8192   5.114   5.087   3.087
 2745TIP3    H2 8193   5.005   5.101   3.191
 2746TIP3   OH2 8194   2.846   0.073   0.808
 2746TIP3    H1 8195   2.911   0.054   0.876
 2746TIP3    H2 8196   2.874   0.020   0.733
 2747TIP3   OH2 8197   5.276   0.378   1.251
 2747TIP3    H1 8198   5.302   0.299   1.203
 2747TIP3    H2 8199   5.359   0.413   1.284
 2748TIP3   OH2 8200   5.493   5.801   5.232
 2748TIP3    H1 8201   5.467   5.875   5.286
 2748TIP3    H2 8202   5.558   5.755   5.284
 2749TIP3   OH2 8203   1.844   7.318   3.472
 2749TIP3    H1 8204   1.782   7.247   3.456
 2749TIP3    H2 8205   1.789   7.390   3.505
 2750TIP3   OH2 8206   7.820   1.711   3.827
 2750TIP3    H1 8207   7.850   1.800   3.845
 2750TIP3    H2 8208   7.786   1.714   3.738
 2751TIP3   OH2 8209   0.645   7.380   2.086
 2751TIP3    H1 8210   0.685   7.406   2.169
 2751TIP3    H2 8211   0.591   7.455   2.061
 2752TIP3   OH2 8212   8.222   2.509   2.960
 2752TIP3    H1 8213   8.283   2.574   2.995
 2752TIP3    H2 8214   8.273   2.429   2.953
 2753TIP3   OH2 8215   3.267   7.369   4.929
 2753TIP3    H1 8216   3.175   7.391   4.917
 2753TIP3    H2 8217   3.274   7.345   5.021
 2754TIP3   OH2 8218   7.803   3.179   6.054
 2754TIP3    H1 8219   7.707   3.181   6.056
 2754TIP3    H2 8220   7.826   3.220   5.971
 2755TIP3   OH2 8221   5.016   6.648   2.996
 2755TIP3    H1 8222   5.083   6.636   2.928
 2755TIP3    H2 8223   4.933   6.640   2.949
 2756TIP3   OH2 8224   6.702   4.488   2.585
 2756TIP3    H1 8225   6.688   4.403   2.543
 2756TIP3    H2 8226   6.781   4.475   2.638
 2757TIP3   OH2 8227   5.858   3.319   2.118
 2757TIP3    H1 8228   5.915   3.301   2.193
 2757TIP3    H2 8229   5.813   3.236   2.101
 2758TIP3   OH2 8230   6.697   5.425   1.674
 2758TIP3    H1 8231   6.790   5.404   1.676
 2758TIP3    H2 8232   6.683   5.481   1.750
 2759TIP3   OH2 8233   7.050   1.297   0.265
 2759TIP3    H1 8234   7.104   1.349   0.325
 2759TIP3    H2 8235   7.031   1.356   0.192
 2760TIP3   OH2 8236   1.175   0.794   6.739
 2760TIP3    H1 8237   1.259   0.813   6.698
 2760TIP3    H2 8238   1.131   0.735   6.677
 2761TIP3   OH2 8239   2.125   5.162   3.111
 2761TIP3    H1 8240   2.154   5.235   3.056
 2761TIP3    H2 8241   2.094   5.203   3.191
 2762TIP3   OH2 8242   5.734   1.212   6.304
 2762TIP3    H1 8243   5.695   1.296   6.330
 2762TIP3    H2 8244   5.824   1.235   6.277
 2763TIP3   OH2 8245   2.217   6.781   0.783
 2763TIP3    H1 8246   2.264   6.846   0.731
 2763TIP3    H2 8247   2.177   6.723   0.718
 2764TIP3   OH2 8248   7.465   2.356   1.750
 2764TIP3    H1 8249   7.437   2.447   1.764
 2764TIP3    H2 8250   7.537   2.343   1.812
 2765TIP3   OH2 8251   7.539   6.609   6.466
 2765TIP3    H1 8252   7.557   6.650   6.381
 2765TIP3    H2 8253   7.461   6.555   6.450
 2766TIP3   OH2 8254   2.199   3.206   1.989
 2766TIP3    H1 8255   2.161   3.120   2.008
 2766TIP3    H2 8256   2.176   3.222   1.897
 2767TIP3   OH2 8257   6.888   2.234   1.280
 2767TIP3    H1 8258   6.860   2.228   1.189
 2767TIP3    H2 8259   6.807   2.246   1.330
 2768TIP3   OH2 8260   6.126   1.973   3.103
 2768TIP3    H1 8261   6.057   1.914   3.136
 2768TIP3    H2 8262   6.180   1.991   3.180
 2769TIP3   OH2 8263   3.663   6.902   4.656
 2769TIP3    H1 8264   3.663   6.808   4.673
 2769TIP3    H2 8265   3.655   6.910   4.561
 2770TIP3   OH2 8266   0.016   4.260   1.727
 2770TIP3    H1 8267   0.018   4.325   1.797
 2770TIP3    H2 8268  -0.074   4.263   1.694
 2771TIP3   OH2 8269   4.265   3.709   0.403
 2771TIP3    H1 8270   4.326   3.719   0.476
 2771TIP3    H2 8271   4.207   3.637   0.431
 2772TIP3   OH2 8272   8.291   6.062   1.723
 2772TIP3    H1 8273   8.315   6.104   1.640
 2772TIP3    H2 8274   8.203   6.026   1.707
 2773TIP3   OH2 8275   2.643   7.406   5.564
 2773TIP3    H1 8276   2.700   7.477   5.532
 2773TIP3    H2 8277   2.660   7.333   5.505
 2774TIP3   OH2 8278   7.746   4.707   2.159
 2774TIP3    H1 8279   7.780   4.634   2.209
 2774TIP3    H2 8280   7.809   4.778   2.174
 2775TIP3   OH2 8281   6.133   2.217   6.599
 2775TIP3    H1 8282   6.203   2.282   6.590
 2775TIP3    H2 8283   6.062   2.250   6.545
 2776TIP3   OH2 8284   5.487   4.765   6.408
 2776TIP3    H1 8285   5.504   4.857   6.388
 2776TIP3    H2 8286   5.542   4.717   6.346
 2777TIP3   OH2 8287   5.535   4.653   1.623
 2777TIP3    H1 8288   5.560   4.648   1.715
 2777TIP3    H2 8289   5.466   4.718   1.619
 2778TIP3   OH2 8290   6.299   6.971   6.609
 2778TIP3    H1 8291   6.334   7.023   6.682
 2778TIP3    H2 8292   6.354   6.893   6.608
 2779TIP3   OH2 8293   0.758   4.202   5.973
 2779TIP3    H1 8294   0.693   4.226   6.039
 2779TIP3    H2 8295   0.836   4.251   5.997
 2780TIP3   OH2 8296   4.110   5.059   3.293
 2780TIP3    H1 8297   4.026   5.102   3.307
 2780TIP3    H2 8298   4.118   5.049   3.198
 2781TIP3   OH2 8299   7.717   6.355   3.914
 2781TIP3    H1 8300   7.764   6.360   3.830
 2781TIP3    H2 8301   7.763   6.287   3.963
 2782TIP3   OH2 8302   4.373   0.890   5.701
 2782TIP3    H1 8303   4.320   0.881   5.622
 2782TIP3    H2 8304   4.463   0.871   5.672
 2783TIP3   OH2 8305   7.754   7.801   5.674
 2783TIP3    H1 8306   7.675   7.825   5.723
 2783TIP3    H2 8307   7.784   7.720   5.716
 2784TIP3   OH2 8308   2.248   0.148   5.332
 2784TIP3    H1 8309   2.206   0.064   5.348
 2784TIP3    H2 8310   2.238   0.164   5.239
 2785TIP3   OH2 8311   1.678   7.290   5.591
 2785TIP3    H1 8312   1.625   7.369   5.597
 2785TIP3    H2 8313   1.761   7.319   5.553
 2786TIP3   OH2 8314   3.549   6.327   5.052
 2786TIP3    H1 8315   3.505   6.277   5.120
 2786TIP3    H2 8316   3.479   6.376   5.009
 2787TIP3   OH2 8317   3.515   0.455   3.283
 2787TIP3    H1 8318   3.580   0.415   3.340
 2787TIP3    H2 8319   3.461   0.382   3.252
 2788TIP3   OH2 8320   4.967   5.803   4.483
 2788TIP3    H1 8321   4.944   5.802   4.390
 2788TIP3    H2 8322   4.882   5.801   4.528
 2789TIP3   OH2 8323   7.915   0.988   5.665
 2789TIP3    H1 8324   7.953   0.994   5.752
 2789TIP3    H2 8325   7.990   0.987   5.606
 2790TIP3   OH2 8326   5.067   5.606   1.619
 2790TIP3    H1 8327   5.002   5.658   1.666
 2790TIP3    H2 8328   5.015   5.546   1.566
 2791TIP3   OH2 8329   0.797   4.129   1.647
 2791TIP3    H1 8330   0.716   4.091   1.612
 2791TIP3    H2 8331   0.823   4.070   1.717
 2792TIP3   OH2 8332   3.351   1.618   2.633
 2792TIP3    H1 8333   3.306   1.629   2.549
 2792TIP3    H2 8334   3.337   1.526   2.656
 2793TIP3   OH2 8335   6.898   5.674   3.838
 2793TIP3    H1 8336   6.958   5.734   3.881
 2793TIP3    H2 8337   6.831   5.732   3.799
 2794TIP3   OH2 8338   4.358   7.543   1.496
 2794TIP3    H1 8339   4.434   7.565   1.442
 2794TIP3    H2 8340   4.366   7.448   1.510
 2795TIP3   OH2 8341   8.004   2.191   6.615
 2795TIP3    H1 8342   7.968   2.213   6.701
 2795TIP3    H2 8343   8.093   2.159   6.634
 2796TIP3   OH2 8344   2.306   0.244   0.142
 2796TIP3    H1 8345   2.260   0.328   0.141
 2796TIP3    H2 8346   2.236   0.179   0.147
 2797TIP3   OH2 8347   1.764   2.688   4.859
 2797TIP3    H1 8348   1.723   2.652   4.937
 2797TIP3    H2 8349   1.847   2.640   4.851
 2798TIP3   OH2 8350   3.362   2.589   4.356
 2798TIP3    H1 8351   3.438   2.589   4.299
 2798TIP3    H2 8352   3.363   2.503   4.398
 2799TIP3   OH2 8353   5.399   1.989   0.512
 2799TIP3    H1 8354   5.408   1.919   0.447
 2799TIP3    H2 8355   5.426   2.069   0.466
 2800TIP3   OH2 8356   2.293   4.563   4.767
 2800TIP3    H1 8357   2.339   4.612   4.698
 2800TIP3    H2 8358   2.349   4.572   4.844
 2801TIP3   OH2 8359   8.264   7.217   1.411
 2801TIP3    H1 8360   8.344   7.216   1.358
 2801TIP3    H2 8361   8.212   7.288   1.373
 2802TIP3   OH2 8362   6.742   3.384   0.502
 2802TIP3    H1 8363   6.749   3.297   0.463
 2802TIP3    H2 8364   6.809   3.436   0.457
 2803TIP3   OH2 8365   1.654   3.356   2.276
 2803TIP3    H1 8366   1.699   3.424   2.324
 2803TIP3    H2 8367   1.717   3.326   2.210
 2804TIP3   OH2 8368   6.790   1.740   3.959
 2804TIP3    H1 8369   6.763   1.785   3.879
 2804TIP3    H2 8370   6.800   1.648   3.932
 2805TIP3   OH2 8371   0.974   4.166   1.179
 2805TIP3    H1 8372   0.906   4.195   1.239
 2805TIP3    H2 8373   1.027   4.245   1.164
 2806TIP3   OH2 8374   8.257   2.528   0.321
 2806TIP3    H1 8375   8.273   2.516   0.227
 2806TIP3    H2 8376   8.274   2.442   0.360
 2807TIP3   OH2 8377   3.605   6.732   1.993
 2807TIP3    H1 8378   3.638   6.819   2.015
 2807TIP3    H2 8379   3.510   6.739   2.000
 2808TIP3   OH2 8380   2.044   6.707   3.262
 2808TIP3    H1 8381   2.035   6.642   3.192
 2808TIP3    H2 8382   2.041   6.792   3.217
 2809TIP3   OH2 8383   2.042   6.156   5.344
 2809TIP3    H1 8384   1.956   6.193   5.365
 2809TIP3    H2 8385   2.067   6.107   5.423
 2810TIP3   OH2 8386   5.539   6.181   5.124
 2810TIP3    H1 8387   5.500   6.142   5.046
 2810TIP3    H2 8388   5.590   6.255   5.092
 2811TIP3   OH2 8389   7.451   6.874   5.365
 2811TIP3    H1 8390   7.533   6.919   5.383
 2811TIP3    H2 8391   7.431   6.827   5.446
 2812TIP3   OH2 8392   0.849   6.135   3.356
 2812TIP3    H1 8393   0.887   6.221   3.375
 2812TIP3    H2 8394   0.843   6.092   3.442
 2813TIP3   OH2 8395   0.972   6.373   3.396
 2813TIP3    H1 8396   1.010   6.426   3.465
 2813TIP3    H2 8397   1.047   6.342   3.345
 2814TIP3   OH2 8398   7.955   4.007   6.080
 2814TIP3    H1 8399   8.004   3.943   6.131
 2814TIP3    H2 8400   7.864   3.991   6.102
 2815TIP3   OH2 8401   3.275   6.105   5.572
 2815TIP3    H1 8402   3.224   6.102   5.491
 2815TIP3    H2 8403   3.234   6.040   5.629
 2816TIP3   OH2 8404   3.445   3.830   4.789
 2816TIP3    H1 8405   3.447   3.814   4.883
 2816TIP3    H2 8406   3.453   3.925   4.780
 2817TIP3   OH2 8407   6.580   6.629   1.903
 2817TIP3    H1 8408   6.523   6.607   1.977
 2817TIP3    H2 8409   6.523   6.677   1.843
 2818TIP3   OH2 8410   5.500   3.973   5.665
 2818TIP3    H1 8411   5.466   3.921   5.738
 2818TIP3    H2 8412   5.446   4.052   5.665
 2819TIP3   OH2 8413   6.908   1.781   3.523
 2819TIP3    H1 8414   6.909   1.871   3.555
 2819TIP3    H2 8415   6.890   1.728   3.601
 2820TIP3   OH2 8416   3.699   5.685   6.668
 2820TIP3    H1 8417   3.775   5.629   6.650
 2820TIP3    H2 8418   3.625   5.640   6.627
 2821TIP3   OH2 8419   0.792   3.293   5.006
 2821TIP3    H1 8420   0.876   3.330   4.980
 2821TIP3    H2 8421   0.745   3.278   4.923
 2822TIP3   OH2 8422   3.608   6.724   4.465
 2822TIP3    H1 8423   3.640   6.651   4.413
 2822TIP3    H2 8424   3.525   6.694   4.501
 2823TIP3   OH2 8425   6.532   7.325   0.524
 2823TIP3    H1 8426   6.459   7.348   0.466
 2823TIP3    H2 8427   6.526   7.388   0.596
 2824TIP3   OH2 8428   5.623   1.622   1.891
 2824TIP3    H1 8429   5.560   1.672   1.839
 2824TIP3    H2 8430   5.677   1.577   1.826
 2825TIP3   OH2 8431   4.286   4.459   5.946
 2825TIP3    H1 8432   4.350   4.424   6.007
 2825TIP3    H2 8433   4.207   4.408   5.962
 2826TIP3   OH2 8434   1.307   1.996   0.487
 2826TIP3    H1 8435   1.271   2.078   0.453
 2826TIP3    H2 8436   1.338   2.018   0.574
 2827TIP3   OH2 8437   6.470   4.856   4.497
 2827TIP3    H1 8438   6.534   4.785   4.498
 2827TIP3    H2 8439   6.426   4.850   4.581
 2828TIP3   OH2 8440   3.679   3.479   3.721
 2828TIP3    H1 8441   3.593   3.460   3.759
 2828TIP3    H2 8442   3.732   3.402   3.741
 2829TIP3   OH2 8443   1.430   6.742   2.185
 2829TIP3    H1 8444   1.445   6.655   2.221
 2829TIP3    H2 8445   1.397   6.727   2.097
 2830TIP3   OH2 8446   4.967   2.886   1.033
 2830TIP3    H1 8447   4.887   2.835   1.027
 2830TIP3    H2 8448   4.949   2.952   1.100
 2831TIP3   OH2 8449   1.518   5.056   1.979
 2831TIP3    H1 8450   1.579   5.061   2.052
 2831TIP3    H2 8451   1.574   5.061   1.901
 2832TIP3   OH2 8452   3.961   0.177   5.564
 2832TIP3    H1 8453   3.991   0.136   5.482
 2832TIP3    H2 8454   3.886   0.124   5.591
 2833TIP3   OH2 8455   2.277   5.315   0.764
 2833TIP3    H1 8456   2.245   5.271   0.685
 2833TIP3    H2 8457   2.282   5.407   0.740
 2834TIP3   OH2 8458   6.701   7.584   4.370
 2834TIP3    H1 8459   6.622   7.552   4.414
 2834TIP3    H2 8460   6.690   7.679   4.367
 2835TIP3   OH2 8461   7.394   3.460   1.659
 2835TIP3    H1 8462   7.373   3.553   1.662
 2835TIP3    H2 8463   7.489   3.457   1.662
 2836TIP3   OH2 8464   2.380   1.942   2.916
 2836TIP3    H1 8465   2.332   1.873   2.869
 2836TIP3    H2 8466   2.452   1.896   2.958
 2837TIP3   OH2 8467   0.192   6.691   5.410
 2837TIP3    H1 8468   0.166   6.776   5.445
 2837TIP3    H2 8469   0.110   6.641   5.406
 2838TIP3   OH2 8470   6.666   1.425   4.225
 2838TIP3    H1 8471   6.684   1.497   4.164
 2838TIP3    H2 8472   6.749   1.410   4.270
 2839TIP3   OH2 8473   1.868   2.505   6.161
 2839TIP3    H1 8474   1.789   2.552   6.189
 2839TIP3    H2 8475   1.836   2.434   6.105
 2840TIP3   OH2 8476   5.591   2.189   2.621
 2840TIP3    H1 8477   5.577   2.169   2.529
 2840TIP3    H2 8478   5.686   2.181   2.633
 2841TIP3   OH2 8479   2.539   6.986   3.688
 2841TIP3    H1 8480   2.506   6.941   3.610
 2841TIP3    H2 8481   2.467   7.044   3.714
 2842TIP3   OH2 8482   2.793   3.719   0.466
 2842TIP3    H1 8483   2.823   3.643   0.515
 2842TIP3    H2 8484   2.747   3.683   0.390
 2843TIP3   OH2 8485   0.112   7.653   5.251
 2843TIP3    H1 8486   0.180   7.671   5.316
 2843TIP3    H2 8487   0.062   7.581   5.288
 2844TIP3   OH2 8488   2.657   1.201   5.881
 2844TIP3    H1 8489   2.725   1.258   5.845
 2844TIP3    H2 8490   2.680   1.113   5.850
 2845TIP3   OH2 8491   1.062   4.865   1.926
 2845TIP3    H1 8492   0.968   4.861   1.946
 2845TIP3    H2 8493   1.100   4.914   1.999
 2846TIP3   OH2 8494   6.198   6.152   5.694
 2846TIP3    H1 8495   6.118   6.122   5.737
 2846TIP3    H2 8496   6.248   6.195   5.763
 2847TIP3   OH2 8497   4.757   5.202   5.534
 2847TIP3    H1 8498   4.819   5.130   5.546
 2847TIP3    H2 8499   4.813   5.280   5.529
 2848TIP3   OH2 8500   7.985   4.685   4.581
 2848TIP3    H1 8501   8.005   4.728   4.664
 2848TIP3    H2 8502   7.915   4.738   4.542
 2849TIP3   OH2 8503   2.950   1.193   0.623
 2849TIP3    H1 8504   2.903   1.276   0.623
 2849TIP3    H2 8505   2.934   1.157   0.536
 2850TIP3   OH2 8506   3.997   6.254   4.805
 2850TIP3    H1 8507   3.926   6.218   4.858
 2850TIP3    H2 8508   4.076   6.235   4.855
 2851TIP3   OH2 8509   4.664   1.671   5.611
 2851TIP3    H1 8510   4.640   1.733   5.680
 2851TIP3    H2 8511   4.675   1.587   5.656
 2852TIP3   OH2 8512   7.546   6.139   1.965
 2852TIP3    H1 8513   7.479   6.192   1.921
 2852TIP3    H2 8514   7.524   6.145   2.058
 2853TIP3   OH2 8515   0.293   3.808   5.531
 2853TIP3    H1 8516   0.269   3.728   5.484
 2853TIP3    H2 8517   0.293   3.782   5.623
 2854TIP3   OH2 8518   7.722   4.330   3.359
 2854TIP3    H1 8519   7.714   4.270   3.284
 2854TIP3    H2 8520   7.674   4.409   3.331
 2855TIP3   OH2 8521   4.919   1.530   1.803
 2855TIP3    H1 8522   4.896   1.444   1.768
 2855TIP3    H2 8523   4.902   1.523   1.897
 2856TIP3   OH2 8524   7.869   5.741   3.474
 2856TIP3    H1 8525   7.803   5.718   3.539
 2856TIP3    H2 8526   7.952   5.720   3.517
 2857TIP3   OH2 8527   4.395   3.357   0.686
 2857TIP3    H1 8528   4.455   3.291   0.653
 2857TIP3    H2 8529   4.342   3.311   0.751
 2858TIP3   OH2 8530   7.092   4.654   3.228
 2858TIP3    H1 8531   7.043   4.593   3.172
 2858TIP3    H2 8532   7.024   4.712   3.265
 2859TIP3   OH2 8533   5.293   5.234   0.175
 2859TIP3    H1 8534   5.367   5.175   0.161
 2859TIP3    H2 8535   5.319   5.288   0.250
 2860TIP3   OH2 8536   3.774   3.514   2.952
 2860TIP3    H1 8537   3.761   3.510   3.047
 2860TIP3    H2 8538   3.686   3.505   2.915
 2861TIP3   OH2 8539   4.438   7.792   1.725
 2861TIP3    H1 8540   4.368   7.844   1.685
 2861TIP3    H2 8541   4.392   7.725   1.775
 2862TIP3   OH2 8542   6.421   2.250   4.396
 2862TIP3    H1 8543   6.427   2.186   4.325
 2862TIP3    H2 8544   6.409   2.197   4.475
 2863TIP3   OH2 8545   5.525   7.059   6.684
 2863TIP3    H1 8546   5.604   7.039   6.733
 2863TIP3    H2 8547   5.524   7.155   6.678
 2864TIP3   OH2 8548   0.573   2.199   4.527
 2864TIP3    H1 8549   0.548   2.232   4.613
 2864TIP3    H2 8550   0.496   2.152   4.496
 2865TIP3   OH2 8551   2.221   5.927   2.782
 2865TIP3    H1 8552   2.215   5.865   2.855
 2865TIP3    H2 8553   2.268   5.879   2.714
 2866TIP3   OH2 8554   3.026   4.171   5.117
 2866TIP3    H1 8555   3.100   4.193   5.060
 2866TIP3    H2 8556   3.066   4.159   5.203
 2867TIP3   OH2 8557   5.723   7.625   2.756
 2867TIP3    H1 8558   5.808   7.587   2.734
 2867TIP3    H2 8559   5.721   7.708   2.709
 2868TIP3   OH2 8560   6.831   7.298   3.352
 2868TIP3    H1 8561   6.924   7.276   3.347
 2868TIP3    H2 8562   6.818   7.330   3.442
 2869TIP3   OH2 8563   3.642   2.351   0.285
 2869TIP3    H1 8564   3.667   2.325   0.373
 2869TIP3    H2 8565   3.723   2.349   0.235
 2870TIP3   OH2 8566   1.462   2.069   6.176
 2870TIP3    H1 8567   1.395   2.006   6.203
 2870TIP3    H2 8568   1.438   2.149   6.221
 2871TIP3   OH2 8569   1.642   4.287   4.878
 2871TIP3    H1 8570   1.565   4.268   4.930
 2871TIP3    H2 8571   1.621   4.255   4.790
 2872TIP3   OH2 8572   4.411   3.164   6.408
 2872TIP3    H1 8573   4.476   3.095   6.421
 2872TIP3    H2 8574   4.331   3.119   6.385
 2873TIP3   OH2 8575   1.493   0.692   5.974
 2873TIP3    H1 8576   1.504   0.612   6.025
 2873TIP3    H2 8577   1.461   0.756   6.037
 2874TIP3   OH2 8578   2.926   4.375   2.976
 2874TIP3    H1 8579   3.013   4.336   2.984
 2874TIP3    H2 8580   2.925   4.418   2.891
 2875TIP3   OH2 8581   3.461   2.385   5.710
 2875TIP3    H1 8582   3.535   2.378   5.651
 2875TIP3    H2 8583   3.392   2.332   5.668
 2876TIP3   OH2 8584   4.479   1.030   0.150
 2876TIP3    H1 8585   4.482   1.039   0.245
 2876TIP3    H2 8586   4.561   0.986   0.128
 2877TIP3   OH2 8587   4.829   3.415   3.144
 2877TIP3    H1 8588   4.763   3.481   3.165
 2877TIP3    H2 8589   4.790   3.365   3.072
 2878TIP3   OH2 8590   8.028   2.874   0.971
 2878TIP3    H1 8591   7.962   2.868   0.902
 2878TIP3    H2 8592   7.983   2.846   1.050
 2879TIP3   OH2 8593   6.677   6.179   1.479
 2879TIP3    H1 8594   6.648   6.169   1.388
 2879TIP3    H2 8595   6.636   6.106   1.525
 2880TIP3   OH2 8596   2.298   2.968   0.778
 2880TIP3    H1 8597   2.297   3.057   0.742
 2880TIP3    H2 8598   2.288   2.911   0.701
 2881TIP3   OH2 8599   2.532   0.961   6.720
 2881TIP3    H1 8600   2.519   0.953   6.814
 2881TIP3    H2 8601   2.461   0.910   6.682
 2882TIP3   OH2 8602   1.898   3.628   1.398
 2882TIP3    H1 8603   1.891   3.598   1.308
 2882TIP3    H2 8604   1.819   3.680   1.413
 2883TIP3   OH2 8605   4.231   4.775   4.042
 2883TIP3    H1 8606   4.288   4.835   4.089
 2883TIP3    H2 8607   4.142   4.799   4.069
 2884TIP3   OH2 8608   4.858   7.591   4.056
 2884TIP3    H1 8609   4.857   7.496   4.048
 2884TIP3    H2 8610   4.872   7.607   4.149
 2885TIP3   OH2 8611   6.593   6.362   4.769
 2885TIP3    H1 8612   6.596   6.408   4.853
 2885TIP3    H2 8613   6.536   6.287   4.784
 2886TIP3   OH2 8614   4.470   4.104   0.219
 2886TIP3    H1 8615   4.532   4.062   0.159
 2886TIP3    H2 8616   4.525   4.148   0.284
 2887TIP3   OH2 8617   4.908   3.648   5.555
 2887TIP3    H1 8618   4.905   3.636   5.460
 2887TIP3    H2 8619   4.845   3.718   5.573
 2888TIP3   OH2 8620   3.055   0.973   5.243
 2888TIP3    H1 8621   3.009   1.013   5.170
 2888TIP3    H2 8622   3.035   0.879   5.235
 2889TIP3   OH2 8623   3.394   1.136   6.506
 2889TIP3    H1 8624   3.411   1.226   6.535
 2889TIP3    H2 8625   3.447   1.082   6.563
 2890TIP3   OH2 8626   2.348   0.826   5.550
 2890TIP3    H1 8627   2.335   0.777   5.632
 2890TIP3    H2 8628   2.259   0.849   5.522
 2891TIP3   OH2 8629   6.117   1.374   2.723
 2891TIP3    H1 8630   6.207   1.384   2.692
 2891TIP3    H2 8631   6.125   1.367   2.818
 2892TIP3   OH2 8632   7.584   4.116   1.476
 2892TIP3    H1 8633   7.511   4.177   1.487
 2892TIP3    H2 8634   7.661   4.172   1.467
 2893TIP3   OH2 8635   6.910   2.667   0.024
 2893TIP3    H1 8636   6.838   2.645   0.083
 2893TIP3    H2 8637   6.963   2.730   0.074
 2894TIP3   OH2 8638   6.917   6.650   6.601
 2894TIP3    H1 8639   6.825   6.665   6.625
 2894TIP3    H2 8640   6.940   6.569   6.645
 2895TIP3   OH2 8641   4.069   5.643   1.650
 2895TIP3    H1 8642   4.122   5.565   1.637
 2895TIP3    H2 8643   4.132   5.711   1.674
 2896TIP3   OH2 8644   5.445   1.042   3.766
 2896TIP3    H1 8645   5.481   1.019   3.680
 2896TIP3    H2 8646   5.467   1.135   3.777
 2897TIP3   OH2 8647   0.621   4.251   0.624
 2897TIP3    H1 8648   0.624   4.171   0.676
 2897TIP3    H2 8649   0.552   4.304   0.665
 2898TIP3   OH2 8650   7.722   2.296   2.798
 2898TIP3    H1 8651   7.748   2.388   2.807
 2898TIP3    H2 8652   7.634   2.300   2.759
 2899TIP3   OH2 8653   6.326   7.689   4.620
 2899TIP3    H1 8654   6.364   7.701   4.707
 2899TIP3    H2 8655   6.232   7.685   4.635
 2900TIP3   OH2 8656   3.206   6.307   0.523
 2900TIP3    H1 8657   3.271   6.367   0.486
 2900TIP3    H2 8658   3.245   6.220   0.512
 2901TIP3   OH2 8659   2.390   3.152   5.070
 2901TIP3    H1 8660   2.373   3.118   5.157
 2901TIP3    H2 8661   2.485   3.164   5.067
 2902TIP3   OH2 8662   3.430   1.835   3.189
 2902TIP3    H1 8663   3.421   1.856   3.282
 2902TIP3    H2 8664   3.523   1.815   3.178
 2903TIP3   OH2 8665   8.184   5.722   6.285
 2903TIP3    H1 8666   8.195   5.712   6.191
 2903TIP3    H2 8667   8.090   5.720   6.299
 2904TIP3   OH2 8668   0.801   2.196   1.421
 2904TIP3    H1 8669   0.891   2.225   1.437
 2904TIP3    H2 8670   0.771   2.250   1.348
 2905TIP3   OH2 8671   1.192   4.717   5.581
 2905TIP3    H1 8672   1.122   4.782   5.572
 2905TIP3    H2 8673   1.171   4.671   5.663
 2906TIP3   OH2 8674   3.611   2.580   3.219
 2906TIP3    H1 8675   3.700   2.577   3.183
 2906TIP3    H2 8676   3.608   2.506   3.281
 2907TIP3   OH2 8677   1.280   3.394   4.457
 2907TIP3    H1 8678   1.309   3.455   4.389
 2907TIP3    H2 8679   1.357   3.340   4.476
 2908TIP3   OH2 8680   3.754   5.932   2.840
 2908TIP3    H1 8681   3.669   5.901   2.809
 2908TIP3    H2 8682   3.803   5.852   2.861
 2909TIP3   OH2 8683   6.408   4.012   3.824
 2909TIP3    H1 8684   6.330   4.058   3.792
 2909TIP3    H2 8685   6.424   4.049   3.911
 2910TIP3   OH2 8686   3.462   0.723   2.640
 2910TIP3    H1 8687   3.380   0.674   2.633
 2910TIP3    H2 8688   3.459   0.785   2.567
 2911TIP3   OH2 8689   7.485   1.881   3.959
 2911TIP3    H1 8690   7.493   1.818   4.030
 2911TIP3    H2 8691   7.402   1.858   3.917
 2912TIP3   OH2 8692   5.215   2.324   5.855
 2912TIP3    H1 8693   5.158   2.250   5.880
 2912TIP3    H2 8694   5.278   2.331   5.927
 2913TIP3   OH2 8695   3.308   1.804   6.387
 2913TIP3    H1 8696   3.386   1.832   6.338
 2913TIP3    H2 8697   3.239   1.799   6.321
 2914TIP3   OH2 8698   7.355   5.737   1.103
 2914TIP3    H1 8699   7.305   5.808   1.062
 2914TIP3    H2 8700   7.338   5.745   1.196
 2915TIP3   OH2 8701   7.505   7.619   5.794
 2915TIP3    H1 8702   7.507   7.572   5.711
 2915TIP3    H2 8703   7.471   7.555   5.857
 2916TIP3   OH2 8704   6.081   2.735   1.981
 2916TIP3    H1 8705   6.076   2.657   2.036
 2916TIP3    H2 8706   6.164   2.726   1.934
 2917TIP3   OH2 8707   8.055   3.539   2.755
 2917TIP3    H1 8708   8.018   3.505   2.674
 2917TIP3    H2 8709   8.138   3.579   2.730
 2918TIP3   OH2 8710   7.673   4.625   3.418
 2918TIP3    H1 8711   7.608   4.649   3.352
 2918TIP3    H2 8712   7.682   4.703   3.473
 2919TIP3   OH2 8713   5.671   2.844   3.046
 2919TIP3    H1 8714   5.738   2.791   3.003
 2919TIP3    H2 8715   5.716   2.883   3.121
 2920TIP3   OH2 8716   6.392   6.589   5.691
 2920TIP3    H1 8717   6.347   6.671   5.673
 2920TIP3    H2 8718   6.414   6.593   5.784
 2921TIP3   OH2 8719   1.023   6.303   5.867
 2921TIP3    H1 8720   0.991   6.378   5.817
 2921TIP3    H2 8721   1.117   6.319   5.878
 2922TIP3   OH2 8722   4.376   4.596   2.267
 2922TIP3    H1 8723   4.382   4.615   2.173
 2922TIP3    H2 8724   4.337   4.675   2.305
 2923TIP3   OH2 8725   3.540   3.159   3.682
 2923TIP3    H1 8726   3.539   3.107   3.763
 2923TIP3    H2 8727   3.467   3.219   3.691
 2924TIP3   OH2 8728   7.997   7.757   4.226
 2924TIP3    H1 8729   8.049   7.831   4.196
 2924TIP3    H2 8730   7.973   7.711   4.146
 2925TIP3   OH2 8731   0.830   7.729   1.349
 2925TIP3    H1 8732   0.920   7.736   1.379
 2925TIP3    H2 8733   0.788   7.811   1.376
 2926TIP3   OH2 8734   2.912   0.918   4.172
 2926TIP3    H1 8735   2.870   0.994   4.211
 2926TIP3    H2 8736   2.951   0.872   4.246
 2927TIP3   OH2 8737   2.331   1.260   1.221
 2927TIP3    H1 8738   2.275   1.190   1.255
 2927TIP3    H2 8739   2.416   1.218   1.206
 2928TIP3   OH2 8740   3.162   1.382   3.924
 2928TIP3    H1 8741   3.166   1.324   4.000
 2928TIP3    H2 8742   3.186   1.327   3.850
 2929TIP3   OH2 8743   0.306   6.080   4.503
 2929TIP3    H1 8744   0.233   6.135   4.531
 2929TIP3    H2 8745   0.384   6.129   4.529
 2930TIP3   OH2 8746   8.299   6.008   4.968
 2930TIP3    H1 8747   8.358   6.015   4.893
 2930TIP3    H2 8748   8.221   6.056   4.941
 2931TIP3   OH2 8749   4.697   1.603   0.906
 2931TIP3    H1 8750   4.671   1.544   0.835
 2931TIP3    H2 8751   4.746   1.547   0.966
 2932TIP3   OH2 8752   2.019   4.522   0.686
 2932TIP3    H1 8753   2.083   4.469   0.732
 2932TIP3    H2 8754   2.000   4.472   0.606
 2933TIP3   OH2 8755   7.466   1.205   3.237
 2933TIP3    H1 8756   7.475   1.124   3.287
 2933TIP3    H2 8757   7.497   1.182   3.149
 2934TIP3   OH2 8758   3.118   3.369   3.796
 2934TIP3    H1 8759   3.045   3.318   3.830
 2934TIP3    H2 8760   3.157   3.410   3.873
 2935TIP3   OH2 8761   7.125   7.181   3.000
 2935TIP3    H1 8762   7.109   7.275   2.987
 2935TIP3    H2 8763   7.139   7.173   3.095
 2936TIP3   OH2 8764   0.858   1.575   2.992
 2936TIP3    H1 8765   0.869   1.481   2.985
 2936TIP3    H2 8766   0.947   1.610   2.987
 2937TIP3   OH2 8767   0.474   2.966   5.460
 2937TIP3    H1 8768   0.510   2.889   5.504
 2937TIP3    H2 8769   0.487   2.950   5.367
 2938TIP3   OH2 8770   5.817   6.873   2.169
 2938TIP3    H1 8771   5.743   6.927   2.199
 2938TIP3    H2 8772   5.886   6.889   2.232
 2939TIP3   OH2 8773   1.762   2.038   5.942
 2939TIP3    H1 8774   1.832   2.066   5.883
 2939TIP3    H2 8775   1.744   1.948   5.916
 2940TIP3   OH2 8776   4.824   5.949   5.979
 2940TIP3    H1 8777   4.769   6.023   6.005
 2940TIP3    H2 8778   4.905   5.961   6.028
 2941TIP3   OH2 8779   3.694   7.542   4.675
 2941TIP3    H1 8780   3.657   7.502   4.597
 2941TIP3    H2 8781   3.658   7.492   4.748
 2942TIP3   OH2 8782   6.033   3.271   4.514
 2942TIP3    H1 8783   6.083   3.349   4.537
 2942TIP3    H2 8784   5.985   3.248   4.594
 2943TIP3   OH2 8785   5.103   3.389   0.389
 2943TIP3    H1 8786   5.012   3.374   0.415
 2943TIP3    H2 8787   5.155   3.362   0.464
 2944TIP3   OH2 8788   0.918   1.660   2.316
 2944TIP3    H1 8789   0.946   1.584   2.265
 2944TIP3    H2 8790   0.989   1.723   2.306
 2945TIP3   OH2 8791   8.222   7.404   0.891
 2945TIP3    H1 8792   8.213   7.355   0.809
 2945TIP3    H2 8793   8.174   7.353   0.955
 2946TIP3   OH2 8794   6.240   0.422   0.544
 2946TIP3    H1 8795   6.282   0.336   0.547
 2946TIP3    H2 8796   6.148   0.405   0.565
 2947TIP3   OH2 8797   7.065   1.289   3.935
 2947TIP3    H1 8798   7.150   1.257   3.906
 2947TIP3    H2 8799   7.020   1.212   3.969
 2948TIP3   OH2 8800   6.366   5.617   4.322
 2948TIP3    H1 8801   6.309   5.617   4.245
 2948TIP3    H2 8802   6.452   5.593   4.289
 2949TIP3   OH2 8803   2.299   0.824   2.410
 2949TIP3    H1 8804   2.318   0.732   2.389
 2949TIP3    H2 8805   2.208   0.836   2.385
 2950TIP3   OH2 8806   4.928   7.784   1.012
 2950TIP3    H1 8807   4.980   7.759   1.088
 2950TIP3    H2 8808   4.838   7.764   1.038
 2951TIP3   OH2 8809   2.136   1.481   3.980
 2951TIP3    H1 8810   2.124   1.553   3.918
 2951TIP3    H2 8811   2.049   1.442   3.989
 2952TIP3   OH2 8812   1.035   0.410   3.624
 2952TIP3    H1 8813   0.997   0.349   3.687
 2952TIP3    H2 8814   0.978   0.488   3.629
 2953TIP3   OH2 8815   4.859   4.521   3.278
 2953TIP3    H1 8816   4.816   4.530   3.362
 2953TIP3    H2 8817   4.820   4.588   3.223
 2954TIP3   OH2 8818   6.038   1.714   0.117
 2954TIP3    H1 8819   6.074   1.801   0.136
 2954TIP3    H2 8820   6.053   1.702   0.024
 2955TIP3   OH2 8821   0.517   6.290   1.054
 2955TIP3    H1 8822   0.556   6.376   1.068
 2955TIP3    H2 8823   0.447   6.306   0.990
 2956TIP3   OH2 8824   7.588   3.155   0.687
 2956TIP3    H1 8825   7.678   3.155   0.721
 2956TIP3    H2 8826   7.543   3.088   0.737
 2957TIP3   OH2 8827   5.883   5.616   1.277
 2957TIP3    H1 8828   5.805   5.572   1.243
 2957TIP3    H2 8829   5.866   5.709   1.264
 2958TIP3   OH2 8830   0.635   6.925   4.896
 2958TIP3    H1 8831   0.593   6.957   4.816
 2958TIP3    H2 8832   0.571   6.942   4.965
 2959TIP3   OH2 8833   0.467   1.188   6.485
 2959TIP3    H1 8834   0.539   1.237   6.526
 2959TIP3    H2 8835   0.511   1.125   6.427
 2960TIP3   OH2 8836   4.352   5.099   1.158
 2960TIP3    H1 8837   4.347   5.173   1.096
 2960TIP3    H2 8838   4.293   5.124   1.229
 2961TIP3   OH2 8839   6.523   2.064   2.694
 2961TIP3    H1 8840   6.464   2.088   2.765
 2961TIP3    H2 8841   6.594   2.016   2.738
 2962TIP3   OH2 8842   2.118   2.554   1.171
 2962TIP3    H1 8843   2.195   2.580   1.222
 2962TIP3    H2 8844   2.154   2.510   1.094
 2963TIP3   OH2 8845   2.060   6.974   4.603
 2963TIP3    H1 8846   2.092   6.938   4.685
 2963TIP3    H2 8847   2.026   7.060   4.627
 2964TIP3   OH2 8848   5.080   2.707   0.640
 2964TIP3    H1 8849   5.091   2.671   0.552
 2964TIP3    H2 8850   5.157   2.678   0.688
 2965TIP3   OH2 8851   3.867   2.849   5.801
 2965TIP3    H1 8852   3.937   2.786   5.819
 2965TIP3    H2 8853   3.788   2.796   5.793
 2966TIP3   OH2 8854   7.751   6.734   1.306
 2966TIP3    H1 8855   7.766   6.824   1.334
 2966TIP3    H2 8856   7.716   6.690   1.383
 2967TIP3   OH2 8857   5.612   7.375   3.123
 2967TIP3    H1 8858   5.642   7.437   3.190
 2967TIP3    H2 8859   5.689   7.323   3.102
 2968TIP3   OH2 8860   2.388   0.911   1.059
 2968TIP3    H1 8861   2.345   0.853   1.122
 2968TIP3    H2 8862   2.451   0.960   1.112
 2969TIP3   OH2 8863   3.016   3.177   4.820
 2969TIP3    H1 8864   2.961   3.116   4.869
 2969TIP3    H2 8865   2.958   3.214   4.753
 2970TIP3   OH2 8866   2.213   6.822   2.596
 2970TIP3    H1 8867   2.242   6.804   2.507
 2970TIP3    H2 8868   2.119   6.809   2.595
 2971TIP3   OH2 8869   4.084   1.868   6.542
 2971TIP3    H1 8870   4.141   1.836   6.613
 2971TIP3    H2 8871   4.097   1.963   6.542
 2972TIP3   OH2 8872   7.603   7.681   0.594
 2972TIP3    H1 8873   7.546   7.681   0.671
 2972TIP3    H2 8874   7.662   7.755   0.608
 2973TIP3   OH2 8875   8.049   5.932   1.652
 2973TIP3    H1 8876   7.957   5.940   1.627
 2973TIP3    H2 8877   8.050   5.858   1.713
 2974TIP3   OH2 8878   1.110   7.229   2.814
 2974TIP3    H1 8879   1.054   7.263   2.883
 2974TIP3    H2 8880   1.066   7.251   2.732
 2975TIP3   OH2 8881   8.039   1.253   0.019
 2975TIP3    H1 8882   7.994   1.233  -0.063
 2975TIP3    H2 8883   8.112   1.192   0.022
 2976TIP3   OH2 8884   0.430   7.719   1.356
 2976TIP3    H1 8885   0.472   7.653   1.301
 2976TIP3    H2 8886   0.462   7.803   1.322
 2977TIP3   OH2 8887   5.854   1.974   0.812
 2977TIP3    H1 8888   5.804   2.018   0.743
 2977TIP3    H2 8889   5.795   1.904   0.843
 2978TIP3   OH2 8890   3.707   2.543   0.546
 2978TIP3    H1 8891   3.652   2.585   0.479
 2978TIP3    H2 8892   3.749   2.470   0.501
 2979TIP3   OH2 8893   0.694   0.664   5.514
 2979TIP3    H1 8894   0.732   0.736   5.465
 2979TIP3    H2 8895   0.614   0.642   5.466
 2980TIP3   OH2 8896   5.884   4.709   1.425
 2980TIP3    H1 8897   5.805   4.762   1.432
 2980TIP3    H2 8898   5.955   4.767   1.451
 2981TIP3   OH2 8899   2.670   6.765   0.994
 2981TIP3    H1 8900   2.744   6.825   0.985
 2981TIP3    H2 8901   2.641   6.776   1.084
 2982TIP3   OH2 8902   4.097   7.439   1.109
 2982TIP3    H1 8903   4.042   7.496   1.054
 2982TIP3    H2 8904   4.158   7.498   1.153
 2983TIP3   OH2 8905   3.184   2.458   5.674
 2983TIP3    H1 8906   3.155   2.367   5.670
 2983TIP3    H2 8907   3.164   2.493   5.587
 2984TIP3   OH2 8908   4.505   4.984   0.464
 2984TIP3    H1 8909   4.548   4.996   0.380
 2984TIP3    H2 8910   4.512   4.891   0.482
 2985TIP3   OH2 8911   0.959   2.985   1.837
 2985TIP3    H1 8912   0.978   3.029   1.920
 2985TIP3    H2 8913   1.009   2.904   1.840
 2986TIP3   OH2 8914   4.887   7.418   5.498
 2986TIP3    H1 8915   4.981   7.416   5.513
 2986TIP3    H2 8916   4.856   7.332   5.527
 2987TIP3   OH2 8917   2.854   1.092   1.508
 2987TIP3    H1 8918   2.934   1.141   1.490
 2987TIP3    H2 8919   2.882   1.001   1.513
 2988TIP3   OH2 8920   7.499   2.723   1.497
 2988TIP3    H1 8921   7.406   2.705   1.482
 2988TIP3    H2 8922   7.545   2.647   1.461
 2989TIP3   OH2 8923   8.121   4.237   4.374
 2989TIP3    H1 8924   8.067   4.200   4.444
 2989TIP3    H2 8925   8.201   4.184   4.374
 2990TIP3   OH2 8926   2.854   4.129   0.211
 2990TIP3    H1 8927   2.928   4.138   0.151
 2990TIP3    H2 8928   2.867   4.044   0.253
 2991TIP3   OH2 8929   1.628   6.658   1.597
 2991TIP3    H1 8930   1.657   6.571   1.623
 2991TIP3    H2 8931   1.538   6.645   1.566
 2992TIP3   OH2 8932   4.670   5.131   3.375
 2992TIP3    H1 8933   4.711   5.045   3.385
 2992TIP3    H2 8934   4.663   5.143   3.280
 2993TIP3   OH2 8935   7.241   4.867   6.457
 2993TIP3    H1 8936   7.216   4.776   6.472
 2993TIP3    H2 8937   7.271   4.870   6.366
 2994TIP3   OH2 8938   2.085   5.367   4.565
 2994TIP3    H1 8939   2.085   5.285   4.614
 2994TIP3    H2 8940   2.014   5.418   4.603
 2995TIP3   OH2 8941   1.006   4.270   5.275
 2995TIP3    H1 8942   0.997   4.359   5.309
 2995TIP3    H2 8943   1.037   4.218   5.349
 2996TIP3   OH2 8944   0.549   4.498   5.145
 2996TIP3    H1 8945   0.621   4.536   5.196
 2996TIP3    H2 8946   0.528   4.565   5.081
 2997TIP3   OH2 8947   3.150   5.172   2.808
 2997TIP3    H1 8948   3.076   5.214   2.852
 2997TIP3    H2 8949   3.227   5.200   2.858
 2998TIP3   OH2 8950   6.308   2.584   0.474
 2998TIP3    H1 8951   6.293   2.675   0.499
 2998TIP3    H2 8952   6.226   2.557   0.432
 2999TIP3   OH2 8953   2.362   7.245   1.265
 2999TIP3    H1 8954   2.419   7.170   1.281
 2999TIP3    H2 8955   2.276   7.206   1.247
 3000TIP3   OH2 8956   7.671   2.863   3.934
 3000TIP3    H1 8957   7.631   2.937   3.889
 3000TIP3    H2 8958   7.722   2.819   3.865
 3001TIP3   OH2 8959   2.129   1.889   1.079
 3001TIP3    H1 8960   2.082   1.874   1.161
 3001TIP3    H2 8961   2.218   1.859   1.097
 3002TIP3   OH2 8962   5.294   4.393   6.188
 3002TIP3    H1 8963   5.233   4.455   6.229
 3002TIP3    H2 8964   5.257   4.307   6.205
 3003TIP3   OH2 8965   5.174   3.029   0.776
 3003TIP3    H1 8966   5.226   2.956   0.810
 3003TIP3    H2 8967   5.091   2.990   0.751
 3004TIP3   OH2 8968   1.471   3.697   2.863
 3004TIP3    H1 8969   1.551   3.668   2.907
 3004TIP3    H2 8970   1.438   3.619   2.820
 3005TIP3   OH2 8971   4.231   6.220   2.287
 3005TIP3    H1 8972   4.289   6.169   2.232
 3005TIP3    H2 8973   4.224   6.170   2.369
 3006TIP3   OH2 8974   3.049   1.399   0.939
 3006TIP3    H1 8975   2.976   1.406   0.877
 3006TIP3    H2 8976   3.111   1.466   0.911
 3007TIP3   OH2 8977   7.445   5.226   3.574
 3007TIP3    H1 8978   7.368   5.280   3.554
 3007TIP3    H2 8979   7.495   5.277   3.637
 3008TIP3   OH2 8980   2.746   5.882   3.998
 3008TIP3    H1 8981   2.676   5.930   3.953
 3008TIP3    H2 8982   2.825   5.902   3.948
 3009TIP3   OH2 8983   4.401   0.227   3.136
 3009TIP3    H1 8984   4.328   0.167   3.122
 3009TIP3    H2 8985   4.371   0.286   3.205
 3010TIP3   OH2 8986   1.174   7.468   4.900
 3010TIP3    H1 8987   1.187   7.456   4.994
 3010TIP3    H2 8988   1.124   7.550   4.893
 3011TIP3   OH2 8989   1.253   6.194   5.230
 3011TIP3    H1 8990   1.305   6.274   5.228
 3011TIP3    H2 8991   1.171   6.218   5.188
 3012TIP3   OH2 8992   2.850   7.600   6.146
 3012TIP3    H1 8993   2.895   7.683   6.163
 3012TIP3    H2 8994   2.764   7.610   6.186
 3013TIP3   OH2 8995   5.755   7.403   2.201
 3013TIP3    H1 8996   5.807   7.430   2.125
 3013TIP3    H2 8997   5.667   7.391   2.167
 3014TIP3   OH2 8998   2.069   4.566   0.267
 3014TIP3    H1 8999   2.020   4.573   0.186
 3014TIP3    H2 9000   2.160   4.552   0.239
 3015TIP3   OH2 9001   6.431   0.767   2.786
 3015TIP3    H1 9002   6.339   0.781   2.805
 3015TIP3    H2 9003   6.438   0.673   2.769
 3016TIP3   OH2 9004   4.302   3.666   2.855
 3016TIP3    H1 9005   4.311   3.709   2.770
 3016TIP3    H2 9006   4.215   3.627   2.853
 3017TIP3   OH2 9007   3.493   3.779   1.359
 3017TIP3    H1 9008   3.434   3.848   1.390
 3017TIP3    H2 9009   3.456   3.698   1.394
 3018TIP3   OH2 9010   0.051   3.439   1.053
 3018TIP3    H1 9011   0.003   3.356   1.043
 3018TIP3    H2 9012   0.030   3.488   0.974
 3019TIP3   OH2 9013   3.142   4.209   6.465
 3019TIP3    H1 9014   3.100   4.143   6.410
 3019TIP3    H2 9015   3.217   4.163   6.504
 3020TIP3   OH2 9016   4.184   2.656   4.492
 3020TIP3    H1 9017   4.146   2.570   4.474
 3020TIP3    H2 9018   4.113   2.717   4.476
 3021TIP3   OH2 9019   5.372   0.804   1.246
 3021TIP3    H1 9020   5.407   0.890   1.265
 3021TIP3    H2 9021   5.277   0.817   1.241
 3022TIP3   OH2 9022   4.552   2.881   1.319
 3022TIP3    H1 9023   4.513   2.902   1.234
 3022TIP3    H2 9024   4.525   2.791   1.336
 3023TIP3   OH2 9025   4.932   3.586   6.443
 3023TIP3    H1 9026   4.867   3.654   6.424
 3023TIP3    H2 9027   4.981   3.577   6.361
 3024TIP3   OH2 9028   2.181   3.020   6.665
 3024TIP3    H1 9029   2.113   3.080   6.634
 3024TIP3    H2 9030   2.211   3.058   6.747
 3025TIP3   OH2 9031   5.350   1.408   6.144
 3025TIP3    H1 9032   5.363   1.503   6.146
 3025TIP3    H2 9033   5.296   1.391   6.221
 3026TIP3   OH2 9034   1.405   3.498   4.191
 3026TIP3    H1 9035   1.312   3.494   4.168
 3026TIP3    H2 9036   1.436   3.580   4.151
 3027TIP3   OH2 9037   7.601   1.620   3.147
 3027TIP3    H1 9038   7.540   1.629   3.221
 3027TIP3    H2 9039   7.562   1.553   3.091
 3028TIP3   OH2 9040   4.087   2.097   5.472
 3028TIP3    H1 9041   4.133   2.181   5.479
 3028TIP3    H2 9042   4.027   2.096   5.547
 3029TIP3   OH2 9043   5.355   3.102   1.946
 3029TIP3    H1 9044   5.302   3.099   2.026
 3029TIP3    H2 9045   5.429   3.044   1.964
 3030TIP3   OH2 9046   4.455   6.190   6.390
 3030TIP3    H1 9047   4.520   6.129   6.426
 3030TIP3    H2 9048   4.436   6.250   6.462
 3031TIP3   OH2 9049   4.599   0.723   5.973
 3031TIP3    H1 9050   4.571   0.753   6.059
 3031TIP3    H2 9051   4.652   0.794   5.938
 3032TIP3   OH2 9052   8.125   5.231   2.948
 3032TIP3    H1 9053   8.107   5.199   2.860
 3032TIP3    H2 9054   8.090   5.162   3.006
 3033TIP3   OH2 9055   3.785   6.206   4.990
 3033TIP3    H1 9056   3.703   6.245   5.020
 3033TIP3    H2 9057   3.821   6.162   5.067
 3034TIP3   OH2 9058   8.179   3.500   2.326
 3034TIP3    H1 9059   8.096   3.452   2.332
 3034TIP3    H2 9060   8.206   3.512   2.417
 3035TIP3   OH2 9061   1.157   6.196   1.022
 3035TIP3    H1 9062   1.151   6.137   0.948
 3035TIP3    H2 9063   1.077   6.249   1.017
 3036TIP3   OH2 9064   0.532   6.414   6.414
 3036TIP3    H1 9065   0.532   6.509   6.412
 3036TIP3    H2 9066   0.439   6.390   6.418
 3037TIP3   OH2 9067   5.746   5.453   4.979
 3037TIP3    H1 9068   5.793   5.371   4.967
 3037TIP3    H2 9069   5.807   5.520   4.949
 3038TIP3   OH2 9070   7.460   5.658   1.719
 3038TIP3    H1 9071   7.515   5.607   1.659
 3038TIP3    H2 9072   7.374   5.658   1.678
 3039TIP3   OH2 9073   3.058   0.215   5.260
 3039TIP3    H1 9074   3.049   0.189   5.168
 3039TIP3    H2 9075   2.968   0.225   5.291
 3040TIP3   OH2 9076   0.797   7.601   3.005
 3040TIP3    H1 9077   0.724   7.598   2.944
 3040TIP3    H2 9078   0.773   7.668   3.069
 3041TIP3   OH2 9079   8.022   2.252   0.422
 3041TIP3    H1 9080   8.074   2.233   0.500
 3041TIP3    H2 9081   8.010   2.168   0.379
 3042TIP3   OH2 9082   0.719   5.709   4.153
 3042TIP3    H1 9083   0.674   5.763   4.088
 3042TIP3    H2 9084   0.795   5.762   4.179
 3043TIP3   OH2 9085   6.926   2.666   4.544
 3043TIP3    H1 9086   7.011   2.627   4.525
 3043TIP3    H2 9087   6.893   2.616   4.619
 3044TIP3   OH2 9088   0.176   2.191   4.088
 3044TIP3    H1 9089   0.178   2.191   4.184
 3044TIP3    H2 9090   0.169   2.099   4.064
 3045TIP3   OH2 9091   8.187   5.088   4.822
 3045TIP3    H1 9092   8.155   5.009   4.866
 3045TIP3    H2 9093   8.176   5.157   4.887
 3046TIP3   OH2 9094   4.355   3.041   0.642
 3046TIP3    H1 9095   4.322   3.038   0.731
 3046TIP3    H2 9096   4.336   2.955   0.606
 3047TIP3   OH2 9097   3.975   1.014   1.783
 3047TIP3    H1 9098   3.892   0.967   1.793
 3047TIP3    H2 9099   4.002   0.994   1.693
 3048TIP3   OH2 9100   0.141   6.032   4.109
 3048TIP3    H1 9101   0.055   6.061   4.079
 3048TIP3    H2 9102   0.179   6.109   4.151
 3049TIP3   OH2 9103   1.028   2.059   0.673
 3049TIP3    H1 9104   1.031   1.982   0.617
 3049TIP3    H2 9105   1.119   2.087   0.681
 3050TIP3   OH2 9106   8.032   6.387   5.850
 3050TIP3    H1 9107   8.119   6.415   5.880
 3050TIP3    H2 9108   7.999   6.461   5.799
 3051TIP3   OH2 9109   2.904   1.476   6.496
 3051TIP3    H1 9110   2.844   1.437   6.560
 3051TIP3    H2 9111   2.893   1.424   6.417
 3052TIP3   OH2 9112   1.497   6.029   6.576
 3052TIP3    H1 9113   1.532   6.108   6.617
 3052TIP3    H2 9114   1.574   5.979   6.550
 3053TIP3   OH2 9115   4.838   1.682   0.079
 3053TIP3    H1 9116   4.830   1.756   0.020
 3053TIP3    H2 9117   4.932   1.676   0.098
 3054TIP3   OH2 9118   3.343   7.235   1.194
 3054TIP3    H1 9119   3.382   7.280   1.269
 3054TIP3    H2 9120   3.251   7.258   1.197
 3055TIP3   OH2 9121   0.740   2.707   2.471
 3055TIP3    H1 9122   0.762   2.636   2.531
 3055TIP3    H2 9123   0.658   2.743   2.506
 3056TIP3   OH2 9124   7.244   2.291   4.351
 3056TIP3    H1 9125   7.300   2.248   4.416
 3056TIP3    H2 9126   7.301   2.357   4.310
 3057TIP3   OH2 9127   6.108   1.709   5.525
 3057TIP3    H1 9128   6.057   1.734   5.448
 3057TIP3    H2 9129   6.085   1.618   5.541
 3058TIP3   OH2 9130   6.005   7.278   4.357
 3058TIP3    H1 9131   5.933   7.311   4.303
 3058TIP3    H2 9132   6.012   7.341   4.429
 3059TIP3   OH2 9133   5.120   4.983   4.416
 3059TIP3    H1 9134   5.103   5.000   4.509
 3059TIP3    H2 9135   5.215   4.975   4.410
 3060TIP3   OH2 9136   2.298   7.356   3.510
 3060TIP3    H1 9137   2.279   7.434   3.458
 3060TIP3    H2 9138   2.232   7.356   3.580
 3061TIP3   OH2 9139   7.588   0.684   1.775
 3061TIP3    H1 9140   7.643   0.658   1.848
 3061TIP3    H2 9141   7.539   0.759   1.807
 3062TIP3   OH2 9142   2.200   1.904   1.481
 3062TIP3    H1 9143   2.226   1.843   1.412
 3062TIP3    H2 9144   2.127   1.861   1.525
 3063TIP3   OH2 9145   4.004   5.417   4.506
 3063TIP3    H1 9146   3.985   5.511   4.497
 3063TIP3    H2 9147   3.918   5.375   4.501
 3064TIP3   OH2 9148   3.403   4.703   1.849
 3064TIP3    H1 9149   3.341   4.684   1.779
 3064TIP3    H2 9150   3.457   4.774   1.814
 3065TIP3   OH2 9151   4.574   6.706   1.262
 3065TIP3    H1 9152   4.479   6.716   1.276
 3065TIP3    H2 9153   4.601   6.643   1.329
 3066TIP3   OH2 9154   1.941   7.025   3.420
 3066TIP3    H1 9155   1.973   7.035   3.330
 3066TIP3    H2 9156   1.857   7.072   3.420
 3067TIP3   OH2 9157   8.258   7.586   2.385
 3067TIP3    H1 9158   8.248   7.518   2.318
 3067TIP3    H2 9159   8.184   7.570   2.445
 3068TIP3   OH2 9160   7.412   4.700   2.833
 3068TIP3    H1 9161   7.329   4.709   2.785
 3068TIP3    H2 9162   7.465   4.641   2.779
 3069TIP3   OH2 9163   5.923   2.602   0.556
 3069TIP3    H1 9164   5.930   2.636   0.467
 3069TIP3    H2 9165   5.862   2.661   0.600
 3070TIP3   OH2 9166   4.702   2.390   5.942
 3070TIP3    H1 9167   4.726   2.443   6.018
 3070TIP3    H2 9168   4.616   2.355   5.964
 3071TIP3   OH2 9169   6.327   0.758   5.255
 3071TIP3    H1 9170   6.420   0.765   5.278
 3071TIP3    H2 9171   6.325   0.695   5.182
 3072TIP3   OH2 9172   1.689   2.072   6.499
 3072TIP3    H1 9173   1.679   2.141   6.433
 3072TIP3    H2 9174   1.720   1.996   6.448
 3073TIP3   OH2 9175   7.712   4.222   4.868
 3073TIP3    H1 9176   7.749   4.274   4.797
 3073TIP3    H2 9177   7.639   4.274   4.901
 3074TIP3   OH2 9178   0.131   2.970   5.746
 3074TIP3    H1 9179   0.186   3.035   5.701
 3074TIP3    H2 9180   0.144   2.989   5.839
 3075TIP3   OH2 9181   6.931   4.049   4.978
 3075TIP3    H1 9182   6.948   3.955   4.990
 3075TIP3    H2 9183   7.017   4.090   4.989
 3076TIP3   OH2 9184   4.128   0.213   2.657
 3076TIP3    H1 9185   4.169   0.266   2.589
 3076TIP3    H2 9186   4.149   0.259   2.739
 3077TIP3   OH2 9187   6.252   3.200   1.173
 3077TIP3    H1 9188   6.312   3.263   1.132
 3077TIP3    H2 9189   6.302   3.163   1.245
 3078TIP3   OH2 9190   4.846   6.266   2.087
 3078TIP3    H1 9191   4.874   6.211   2.160
 3078TIP3    H2 9192   4.760   6.233   2.063
 3079TIP3   OH2 9193   8.158   6.156   6.274
 3079TIP3    H1 9194   8.226   6.125   6.214
 3079TIP3    H2 9195   8.142   6.247   6.247
 3080TIP3   OH2 9196   0.777   3.836   3.269
 3080TIP3    H1 9197   0.720   3.892   3.321
 3080TIP3    H2 9198   0.719   3.796   3.204
 3081TIP3   OH2 9199   3.566   1.677   1.617
 3081TIP3    H1 9200   3.610   1.620   1.680
 3081TIP3    H2 9201   3.491   1.626   1.587
 3082TIP3   OH2 9202   5.464   7.707   0.600
 3082TIP3    H1 9203   5.499   7.621   0.620
 3082TIP3    H2 9204   5.535   7.752   0.554
 3083TIP3   OH2 9205   7.946   1.772   6.023
 3083TIP3    H1 9206   7.982   1.730   5.945
 3083TIP3    H2 9207   7.874   1.715   6.050
 3084TIP3   OH2 9208   6.232   1.039   3.261
 3084TIP3    H1 9209   6.196   1.068   3.177
 3084TIP3    H2 9210   6.289   1.111   3.289
 3085TIP3   OH2 9211   2.627   2.142   5.113
 3085TIP3    H1 9212   2.639   2.176   5.025
 3085TIP3    H2 9213   2.715   2.120   5.143
 3086TIP3   OH2 9214   1.178   6.501   0.356
 3086TIP3    H1 9215   1.207   6.587   0.326
 3086TIP3    H2 9216   1.256   6.446   0.350
 3087TIP3   OH2 9217   4.011   5.629   6.365
 3087TIP3    H1 9218   3.933   5.579   6.391
 3087TIP3    H2 9219   3.981   5.720   6.361
 3088TIP3   OH2 9220   3.471   2.399   6.280
 3088TIP3    H1 9221   3.511   2.405   6.194
 3088TIP3    H2 9222   3.377   2.399   6.263
 3089TIP3   OH2 9223   3.214   6.618   3.718
 3089TIP3    H1 9224   3.264   6.551   3.764
 3089TIP3    H2 9225   3.204   6.585   3.629
 3090TIP3   OH2 9226   5.323   4.661   1.227
 3090TIP3    H1 9227   5.332   4.651   1.132
 3090TIP3    H2 9228   5.269   4.739   1.238
 3091TIP3   OH2 9229   5.940   3.631   3.948
 3091TIP3    H1 9230   5.909   3.699   4.008
 3091TIP3    H2 9231   5.899   3.550   3.980
 3092TIP3   OH2 9232   0.096   3.103   4.470
 3092TIP3    H1 9233   0.077   3.197   4.464
 3092TIP3    H2 9234   0.046   3.073   4.546
 3093TIP3   OH2 9235   6.170   5.993   0.525
 3093TIP3    H1 9236   6.195   5.983   0.617
 3093TIP3    H2 9237   6.175   6.087   0.509
 3094TIP3   OH2 9238   7.953   2.450   2.471
 3094TIP3    H1 9239   7.861   2.463   2.449
 3094TIP3    H2 9240   7.967   2.503   2.549
 3095TIP3   OH2 9241   4.981   0.370   2.214
 3095TIP3    H1 9242   4.942   0.457   2.199
 3095TIP3    H2 9243   4.975   0.327   2.129
 3096TIP3   OH2 9244   6.752   4.035   2.971
 3096TIP3    H1 9245   6.674   4.005   3.017
 3096TIP3    H2 9246   6.776   3.962   2.914
 3097TIP3   OH2 9247   5.966   0.393   2.384
 3097TIP3    H1 9248   5.981   0.338   2.461
 3097TIP3    H2 9249   6.054   0.413   2.352
 3098TIP3   OH2 9250   6.620   6.617   1.459
 3098TIP3    H1 9251   6.551   6.642   1.397
 3098TIP3    H2 9252   6.687   6.684   1.449
 3099TIP3   OH2 9253   7.337   6.642   1.831
 3099TIP3    H1 9254   7.324   6.706   1.901
 3099TIP3    H2 9255   7.381   6.691   1.761
 3100TIP3   OH2 9256   1.669   5.096   6.266
 3100TIP3    H1 9257   1.583   5.099   6.225
 3100TIP3    H2 9258   1.653   5.120   6.357
 3101TIP3   OH2 9259   2.423   5.451   3.919
 3101TIP3    H1 9260   2.376   5.491   3.846
 3101TIP3    H2 9261   2.489   5.517   3.944
 3102TIP3   OH2 9262   5.206   2.692   1.129
 3102TIP3    H1 9263   5.274   2.695   1.061
 3102TIP3    H2 9264   5.167   2.778   1.128
 3103TIP3   OH2 9265   7.908   4.910   1.497
 3103TIP3    H1 9266   7.823   4.918   1.454
 3103TIP3    H2 9267   7.948   4.996   1.487
 3104TIP3   OH2 9268   6.160   1.319   1.335
 3104TIP3    H1 9269   6.219   1.310   1.260
 3104TIP3    H2 9270   6.172   1.409   1.364
 3105TIP3   OH2 9271   2.349   4.040   1.835
 3105TIP3    H1 9272   2.276   4.004   1.885
 3105TIP3    H2 9273   2.367   3.974   1.768
 3106TIP3   OH2 9274   1.257   6.843   6.675
 3106TIP3    H1 9275   1.268   6.828   6.769
 3106TIP3    H2 9276   1.210   6.765   6.644
 3107TIP3   OH2 9277   1.086   6.813   2.984
 3107TIP3    H1 9278   1.119   6.768   3.062
 3107TIP3    H2 9279   1.075   6.743   2.919
 3108TIP3   OH2 9280   2.561   7.346   5.819
 3108TIP3    H1 9281   2.593   7.257   5.836
 3108TIP3    H2 9282   2.618   7.379   5.750
 3109TIP3   OH2 9283   6.859   7.351   3.643
 3109TIP3    H1 9284   6.888   7.424   3.698
 3109TIP3    H2 9285   6.915   7.277   3.670
 3110TIP3   OH2 9286   6.723   1.880   5.039
 3110TIP3    H1 9287   6.629   1.899   5.029
 3110TIP3    H2 9288   6.747   1.836   4.957
 3111TIP3   OH2 9289   2.229   0.170   4.187
 3111TIP3    H1 9290   2.286   0.169   4.109
 3111TIP3    H2 9291   2.147   0.132   4.156
 3112TIP3   OH2 9292   3.711   7.374   1.675
 3112TIP3    H1 9293   3.738   7.305   1.614
 3112TIP3    H2 9294   3.721   7.455   1.625
 3113TIP3   OH2 9295   0.667   7.784   2.803
 3113TIP3    H1 9296   0.701   7.865   2.841
 3113TIP3    H2 9297   0.582   7.772   2.845
 3114TIP3   OH2 9298   3.428   5.154   4.173
 3114TIP3    H1 9299   3.483   5.077   4.160
 3114TIP3    H2 9300   3.374   5.132   4.250
 3115TIP3   OH2 9301   4.883   4.842   4.237
 3115TIP3    H1 9302   4.889   4.930   4.276
 3115TIP3    H2 9303   4.884   4.857   4.143
 3116TIP3   OH2 9304   5.271   6.819   0.283
 3116TIP3    H1 9305   5.300   6.788   0.369
 3116TIP3    H2 9306   5.351   6.850   0.240
 3117TIP3   OH2 9307   3.895   2.981   5.530
 3117TIP3    H1 9308   3.933   2.927   5.461
 3117TIP3    H2 9309   3.888   2.923   5.606
 3118TIP3   OH2 9310   3.816   6.318   3.138
 3118TIP3    H1 9311   3.911   6.314   3.125
 3118TIP3    H2 9312   3.783   6.359   3.058
 3119TIP3   OH2 9313   1.704   1.084   6.612
 3119TIP3    H1 9314   1.754   1.003   6.601
 3119TIP3    H2 9315   1.727   1.115   6.700
 3120TIP3   OH2 9316   0.920   2.013   6.401
 3120TIP3    H1 9317   0.974   2.050   6.332
 3120TIP3    H2 9318   0.928   2.074   6.474
 3121TIP3   OH2 9319   1.372   4.042   3.297
 3121TIP3    H1 9320   1.377   4.019   3.390
 3121TIP3    H2 9321   1.301   4.106   3.291
 3122TIP3   OH2 9322   5.381   5.599   2.357
 3122TIP3    H1 9323   5.313   5.659   2.387
 3122TIP3    H2 9324   5.426   5.572   2.437
 3123TIP3   OH2 9325   0.462   1.345   4.697
 3123TIP3    H1 9326   0.526   1.404   4.657
 3123TIP3    H2 9327   0.514   1.276   4.737
 3124TIP3   OH2 9328   1.370   2.373   2.557
 3124TIP3    H1 9329   1.426   2.379   2.479
 3124TIP3    H2 9330   1.427   2.400   2.629
 3125TIP3   OH2 9331   6.404   7.863   6.338
 3125TIP3    H1 9332   6.333   7.800   6.352
 3125TIP3    H2 9333   6.454   7.860   6.420
 3126TIP3   OH2 9334   3.247   5.835   1.359
 3126TIP3    H1 9335   3.209   5.750   1.380
 3126TIP3    H2 9336   3.292   5.862   1.439
 3127TIP3   OH2 9337   8.077   7.190   1.016
 3127TIP3    H1 9338   8.009   7.247   1.052
 3127TIP3    H2 9339   8.038   7.102   1.017
 3128TIP3   OH2 9340   4.374   4.055   4.880
 3128TIP3    H1 9341   4.417   4.011   4.807
 3128TIP3    H2 9342   4.431   4.129   4.900
 3129TIP3   OH2 9343   5.770   0.728   3.962
 3129TIP3    H1 9344   5.772   0.704   4.054
 3129TIP3    H2 9345   5.701   0.674   3.924
 3130TIP3   OH2 9346   7.349   7.398   0.587
 3130TIP3    H1 9347   7.294   7.472   0.562
 3130TIP3    H2 9348   7.288   7.327   0.607
 3131TIP3   OH2 9349   6.823   7.569   5.541
 3131TIP3    H1 9350   6.828   7.475   5.561
 3131TIP3    H2 9351   6.888   7.609   5.598
 3132TIP3   OH2 9352   3.738   2.730   2.300
 3132TIP3    H1 9353   3.693   2.815   2.300
 3132TIP3    H2 9354   3.750   2.709   2.392
 3133TIP3   OH2 9355   4.623   5.442   4.790
 3133TIP3    H1 9356   4.655   5.435   4.700
 3133TIP3    H2 9357   4.548   5.501   4.784
 3134TIP3   OH2 9358   0.625   6.740   3.539
 3134TIP3    H1 9359   0.691   6.677   3.509
 3134TIP3    H2 9360   0.672   6.823   3.545
 3135TIP3   OH2 9361   5.060   5.387   0.048
 3135TIP3    H1 9362   5.128   5.335   0.089
 3135TIP3    H2 9363   5.003   5.414   0.120
 3136TIP3   OH2 9364   4.740   2.583   3.070
 3136TIP3    H1 9365   4.685   2.640   3.017
 3136TIP3    H2 9366   4.707   2.494   3.054
 3137TIP3   OH2 9367   1.160   2.079   5.980
 3137TIP3    H1 9368   1.088   2.041   6.030
 3137TIP3    H2 9369   1.171   2.020   5.905
 3138TIP3   OH2 9370   5.487   6.582   5.137
 3138TIP3    H1 9371   5.563   6.627   5.174
 3138TIP3    H2 9372   5.440   6.548   5.213
 3139TIP3   OH2 9373   2.805   5.842   2.409
 3139TIP3    H1 9374   2.829   5.787   2.485
 3139TIP3    H2 9375   2.735   5.898   2.442
 3140TIP3   OH2 9376   1.566   4.263   0.893
 3140TIP3    H1 9377   1.556   4.330   0.960
 3140TIP3    H2 9378   1.640   4.210   0.923
 3141TIP3   OH2 9379   6.175   7.518   0.819
 3141TIP3    H1 9380   6.116   7.577   0.771
 3141TIP3    H2 9381   6.125   7.437   0.827
 3142TIP3   OH2 9382   4.914   2.569   6.038
 3142TIP3    H1 9383   5.003   2.593   6.012
 3142TIP3    H2 9384   4.857   2.628   5.988
 3143TIP3   OH2 9385   1.017   0.530   1.668
 3143TIP3    H1 9386   1.001   0.576   1.751
 3143TIP3    H2 9387   1.101   0.563   1.638
 3144TIP3   OH2 9388   4.797   3.651   3.562
 3144TIP3    H1 9389   4.736   3.584   3.529
 3144TIP3    H2 9390   4.864   3.658   3.494
 3145TIP3   OH2 9391   4.354   5.712   1.608
 3145TIP3    H1 9392   4.442   5.746   1.586
 3145TIP3    H2 9393   4.319   5.775   1.671
 3146TIP3   OH2 9394   6.313   1.298   2.387
 3146TIP3    H1 9395   6.327   1.268   2.297
 3146TIP3    H2 9396   6.385   1.260   2.437
 3147TIP3   OH2 9397   3.847   3.147   4.874
 3147TIP3    H1 9398   3.896   3.065   4.880
 3147TIP3    H2 9399   3.892   3.197   4.806
 3148TIP3   OH2 9400   6.985   2.586   0.767
 3148TIP3    H1 9401   6.984   2.674   0.805
 3148TIP3    H2 9402   6.894   2.568   0.744
 3149TIP3   OH2 9403   3.740   3.852   1.451
 3149TIP3    H1 9404   3.647   3.842   1.427
 3149TIP3    H2 9405   3.746   3.812   1.538
 3150TIP3   OH2 9406   5.161   6.974   0.640
 3150TIP3    H1 9407   5.177   6.884   0.613
 3150TIP3    H2 9408   5.194   6.979   0.730
 3151TIP3   OH2 9409   2.479   0.373   5.239
 3151TIP3    H1 9410   2.449   0.398   5.327
 3151TIP3    H2 9411   2.505   0.456   5.199
 3152TIP3   OH2 9412   3.177   6.576   1.211
 3152TIP3    H1 9413   3.175   6.483   1.190
 3152TIP3    H2 9414   3.250   6.586   1.272
 3153TIP3   OH2 9415   1.641   6.784   6.644
 3153TIP3    H1 9416   1.652   6.872   6.607
 3153TIP3    H2 9417   1.566   6.747   6.596
 3154TIP3   OH2 9418   3.773   1.490   1.236
 3154TIP3    H1 9419   3.697   1.546   1.253
 3154TIP3    H2 9420   3.815   1.479   1.321
 3155TIP3   OH2 9421   0.939   6.706   4.009
 3155TIP3    H1 9422   1.031   6.682   4.007
 3155TIP3    H2 9423   0.924   6.754   3.928
 3156TIP3   OH2 9424   2.726   4.037   3.259
 3156TIP3    H1 9425   2.729   4.126   3.224
 3156TIP3    H2 9426   2.709   4.048   3.353
 3157TIP3   OH2 9427   5.289   0.270   2.182
 3157TIP3    H1 9428   5.258   0.198   2.127
 3157TIP3    H2 9429   5.225   0.340   2.170
 3158TIP3   OH2 9430   6.962   5.673   3.348
 3158TIP3    H1 9431   7.025   5.720   3.292
 3158TIP3    H2 9432   6.934   5.738   3.412
 3159TIP3   OH2 9433   6.222   0.413   1.264
 3159TIP3    H1 9434   6.274   0.489   1.289
 3159TIP3    H2 9435   6.159   0.446   1.200
 3160TIP3   OH2 9436   0.000   2.953   1.825
 3160TIP3    H1 9437   0.037   2.887   1.885
 3160TIP3    H2 9438   0.068   2.966   1.759
 3161TIP3   OH2 9439   7.200   5.758   1.908
 3161TIP3    H1 9440   7.275   5.778   1.963
 3161TIP3    H2 9441   7.186   5.837   1.856
 3162TIP3   OH2 9442   5.678   5.988   0.409
 3162TIP3    H1 9443   5.623   5.983   0.487
 3162TIP3    H2 9444   5.765   5.959   0.439
 3163TIP3   OH2 9445   3.430   3.418   5.119
 3163TIP3    H1 9446   3.386   3.501   5.104
 3163TIP3    H2 9447   3.393   3.358   5.054
 3164TIP3   OH2 9448   6.927   6.003   6.141
 3164TIP3    H1 9449   6.938   5.951   6.221
 3164TIP3    H2 9450   6.838   6.038   6.147
 3165TIP3   OH2 9451   4.425   0.634   5.435
 3165TIP3    H1 9452   4.475   0.634   5.354
 3165TIP3    H2 9453   4.434   0.545   5.469
 3166TIP3   OH2 9454   5.149   4.552   0.061
 3166TIP3    H1 9455   5.184   4.500  -0.011
 3166TIP3    H2 9456   5.115   4.630   0.019
 3167TIP3   OH2 9457   3.704   3.634   0.763
 3167TIP3    H1 9458   3.690   3.610   0.672
 3167TIP3    H2 9459   3.695   3.552   0.811
 3168TIP3   OH2 9460   3.460   1.883   0.238
 3168TIP3    H1 9461   3.476   1.956   0.297
 3168TIP3    H2 9462   3.540   1.876   0.187
 3169TIP3   OH2 9463   1.936   0.402   5.999
 3169TIP3    H1 9464   1.849   0.362   5.992
 3169TIP3    H2 9465   1.957   0.429   5.910
 3170TIP3   OH2 9466   1.415   2.167   1.519
 3170TIP3    H1 9467   1.370   2.218   1.586
 3170TIP3    H2 9468   1.362   2.088   1.510
 3171TIP3   OH2 9469   1.000   1.745   6.044
 3171TIP3    H1 9470   0.948   1.741   5.964
 3171TIP3    H2 9471   0.938   1.770   6.113
 3172TIP3   OH2 9472   0.326   1.801   6.713
 3172TIP3    H1 9473   0.376   1.719   6.709
 3172TIP3    H2 9474   0.243   1.781   6.670
 3173TIP3   OH2 9475   4.871   0.198   0.714
 3173TIP3    H1 9476   4.916   0.115   0.724
 3173TIP3    H2 9477   4.831   0.215   0.799
 3174TIP3   OH2 9478   7.372   7.192   1.828
 3174TIP3    H1 9479   7.448   7.211   1.882
 3174TIP3    H2 9480   7.338   7.278   1.802
 3175TIP3   OH2 9481   6.297   2.025   1.048
 3175TIP3    H1 9482   6.244   2.089   1.095
 3175TIP3    H2 9483   6.273   1.941   1.087
 3176TIP3   OH2 9484   7.921   3.928   0.369
 3176TIP3    H1 9485   7.828   3.949   0.382
 3176TIP3    H2 9486   7.943   3.873   0.445
 3177TIP3   OH2 9487   1.768   7.493   4.843
 3177TIP3    H1 9488   1.835   7.482   4.911
 3177TIP3    H2 9489   1.705   7.422   4.859
 3178TIP3   OH2 9490   7.750   2.272   3.753
 3178TIP3    H1 9491   7.689   2.198   3.747
 3178TIP3    H2 9492   7.699   2.342   3.794
 3179TIP3   OH2 9493   5.085   5.138   4.180
 3179TIP3    H1 9494   5.176   5.155   4.153
 3179TIP3    H2 9495   5.093   5.073   4.250
 3180TIP3   OH2 9496   0.933   0.834   1.754
 3180TIP3    H1 9497   0.955   0.807   1.843
 3180TIP3    H2 9498   0.925   0.929   1.759
 3181TIP3   OH2 9499   4.271   4.559   6.399
 3181TIP3    H1 9500   4.280   4.500   6.474
 3181TIP3    H2 9501   4.296   4.645   6.432
 3182TIP3   OH2 9502   4.753   6.927   1.218
 3182TIP3    H1 9503   4.690   6.859   1.242
 3182TIP3    H2 9504   4.796   6.950   1.301
 3183TIP3   OH2 9505   1.944   6.079   5.074
 3183TIP3    H1 9506   1.947   6.107   5.165
 3183TIP3    H2 9507   2.035   6.071   5.048
 3184TIP3   OH2 9508   1.140   3.197   1.236
 3184TIP3    H1 9509   1.152   3.190   1.330
 3184TIP3    H2 9510   1.059   3.149   1.218
 3185TIP3   OH2 9511   1.329   7.376   2.915
 3185TIP3    H1 9512   1.311   7.321   2.991
 3185TIP3    H2 9513   1.280   7.335   2.844
 3186TIP3   OH2 9514   7.346   4.081   2.756
 3186TIP3    H1 9515   7.302   4.101   2.839
 3186TIP3    H2 9516   7.293   4.125   2.690
 3187TIP3   OH2 9517   3.659   0.476   0.507
 3187TIP3    H1 9518   3.569   0.457   0.479
 3187TIP3    H2 9519   3.704   0.391   0.502
 3188TIP3   OH2 9520   7.266   4.359   1.999
 3188TIP3    H1 9521   7.353   4.388   2.026
 3188TIP3    H2 9522   7.253   4.400   1.913
 3189TIP3   OH2 9523   7.885   0.082   2.307
 3189TIP3    H1 9524   7.850   0.056   2.392
 3189TIP3    H2 9525   7.812   0.125   2.263
 3190TIP3   OH2 9526   6.443   3.378   0.301
 3190TIP3    H1 9527   6.459   3.358   0.209
 3190TIP3    H2 9528   6.447   3.473   0.307
 3191TIP3   OH2 9529   7.524   6.119   4.743
 3191TIP3    H1 9530   7.479   6.116   4.827
 3191TIP3    H2 9531   7.507   6.207   4.709
 3192TIP3   OH2 9532   3.966   7.229   4.872
 3192TIP3    H1 9533   3.942   7.170   4.943
 3192TIP3    H2 9534   3.903   7.211   4.802
 3193TIP3   OH2 9535   0.227   1.572   0.127
 3193TIP3    H1 9536   0.193   1.650   0.083
 3193TIP3    H2 9537   0.311   1.555   0.084
 3194TIP3   OH2 9538   4.496   7.453   0.325
 3194TIP3    H1 9539   4.484   7.525   0.263
 3194TIP3    H2 9540   4.408   7.434   0.357
 3195TIP3   OH2 9541   7.856   7.596   0.918
 3195TIP3    H1 9542   7.869   7.503   0.902
 3195TIP3    H2 9543   7.775   7.602   0.967
 3196TIP3   OH2 9544   3.558   6.781   6.515
 3196TIP3    H1 9545   3.581   6.732   6.594
 3196TIP3    H2 9546   3.472   6.817   6.534
 3197TIP3   OH2 9547   6.172   2.890   3.668
 3197TIP3    H1 9548   6.253   2.861   3.709
 3197TIP3    H2 9549   6.191   2.978   3.636
 3198TIP3   OH2 9550   2.278   1.785   6.572
 3198TIP3    H1 9551   2.192   1.826   6.575
 3198TIP3    H2 9552   2.324   1.830   6.502
 3199TIP3   OH2 9553   0.767   5.492  -0.015
 3199TIP3    H1 9554   0.696   5.541   0.026
 3199TIP3    H2 9555   0.758   5.403   0.021
 3200TIP3   OH2 9556   7.970   1.467   2.849
 3200TIP3    H1 9557   8.056   1.473   2.889
 3200TIP3    H2 9558   7.948   1.557   2.825
 3201TIP3   OH2 9559   1.261   4.044   5.363
 3201TIP3    H1 9560   1.176   4.002   5.353
 3201TIP3    H2 9561   1.325   3.977   5.339
 3202TIP3   OH2 9562   5.884   0.041   4.794
 3202TIP3    H1 9563   5.931  -0.041   4.804
 3202TIP3    H2 9564   5.917   0.078   4.712
 3203TIP3   OH2 9565   6.833   7.326   6.652
 3203TIP3    H1 9566   6.820   7.421   6.651
 3203TIP3    H2 9567   6.904   7.311   6.590
 3204TIP3   OH2 9568   8.294   5.116   4.331
 3204TIP3    H1 9569   8.287   5.058   4.408
 3204TIP3    H2 9570   8.282   5.204   4.366
 3205TIP3   OH2 9571   4.709   2.284   5.280
 3205TIP3    H1 9572   4.756   2.236   5.349
 3205TIP3    H2 9573   4.653   2.218   5.240
 3206TIP3   OH2 9574   3.047   2.895   2.079
 3206TIP3    H1 9575   3.099   2.974   2.093
 3206TIP3    H2 9576   3.087   2.830   2.136
 3207TIP3   OH2 9577   6.357   2.082   0.567
 3207TIP3    H1 9578   6.295   2.012   0.548
 3207TIP3    H2 9579   6.363   2.084   0.663
 3208TIP3   OH2 9580   1.464   3.154   0.692
 3208TIP3    H1 9581   1.525   3.095   0.648
 3208TIP3    H2 9582   1.473   3.133   0.785
 3209TIP3   OH2 9583   7.015   2.557   1.892
 3209TIP3    H1 9584   7.000   2.640   1.847
 3209TIP3    H2 9585   7.095   2.571   1.942
 3210TIP3   OH2 9586   7.822   6.711   2.286
 3210TIP3    H1 9587   7.755   6.709   2.355
 3210TIP3    H2 9588   7.898   6.751   2.328
 3211TIP3   OH2 9589   7.237   1.457   2.541
 3211TIP3    H1 9590   7.196   1.515   2.605
 3211TIP3    H2 9591   7.274   1.386   2.592
 3212TIP3   OH2 9592   4.409   3.634   0.637
 3212TIP3    H1 9593   4.386   3.541   0.628
 3212TIP3    H2 9594   4.392   3.654   0.729
 3213TIP3   OH2 9595   0.365   4.644   6.474
 3213TIP3    H1 9596   0.445   4.592   6.471
 3213TIP3    H2 9597   0.364   4.684   6.561
 3214TIP3   OH2 9598   6.432   0.912   1.777
 3214TIP3    H1 9599   6.442   0.891   1.870
 3214TIP3    H2 9600   6.441   0.828   1.732
 3215TIP3   OH2 9601   1.306   7.384   5.925
 3215TIP3    H1 9602   1.333   7.389   6.016
 3215TIP3    H2 9603   1.326   7.471   5.889
 3216TIP3   OH2 9604   6.390   2.589   3.164
 3216TIP3    H1 9605   6.342   2.623   3.088
 3216TIP3    H2 9606   6.481   2.585   3.134
 3217TIP3   OH2 9607   6.178   5.833   3.545
 3217TIP3    H1 9608   6.151   5.917   3.583
 3217TIP3    H2 9609   6.190   5.776   3.621
 3218TIP3   OH2 9610   5.126   6.101   1.337
 3218TIP3    H1 9611   5.202   6.092   1.393
 3218TIP3    H2 9612   5.140   6.183   1.290
 3219TIP3   OH2 9613   5.471   2.735   1.635
 3219TIP3    H1 9614   5.415   2.657   1.645
 3219TIP3    H2 9615   5.416   2.797   1.587
 3220TIP3   OH2 9616   5.661   7.381   1.645
 3220TIP3    H1 9617   5.709   7.355   1.723
 3220TIP3    H2 9618   5.583   7.326   1.645
 3221TIP3   OH2 9619   2.131   0.065   1.897
 3221TIP3    H1 9620   2.130   0.015   1.979
 3221TIP3    H2 9621   2.077   0.142   1.916
 3222TIP3   OH2 9622   6.725   0.189   3.091
 3222TIP3    H1 9623   6.802   0.146   3.128
 3222TIP3    H2 9624   6.675   0.219   3.168
 3223TIP3   OH2 9625   3.602   7.215   6.774
 3223TIP3    H1 9626   3.696   7.227   6.767
 3223TIP3    H2 9627   3.564   7.289   6.727
 3224TIP3   OH2 9628   7.835   0.854   0.560
 3224TIP3    H1 9629   7.788   0.790   0.507
 3224TIP3    H2 9630   7.780   0.933   0.557
 3225TIP3   OH2 9631   6.349   2.365   6.681
 3225TIP3    H1 9632   6.357   2.381   6.775
 3225TIP3    H2 9633   6.415   2.422   6.641
 3226TIP3   OH2 9634   2.284   5.539   2.764
 3226TIP3    H1 9635   2.231   5.577   2.834
 3226TIP3    H2 9636   2.222   5.522   2.693
 3227TIP3   OH2 9637   6.400   6.206   4.543
 3227TIP3    H1 9638   6.305   6.195   4.547
 3227TIP3    H2 9639   6.424   6.169   4.458
 3228TIP3   OH2 9640   5.335   4.422   6.747
 3228TIP3    H1 9641   5.276   4.372   6.691
 3228TIP3    H2 9642   5.422   4.385   6.729
 3229TIP3   OH2 9643   3.165   7.414   3.195
 3229TIP3    H1 9644   3.222   7.467   3.140
 3229TIP3    H2 9645   3.159   7.330   3.149
 3230TIP3   OH2 9646   1.926   5.870   2.382
 3230TIP3    H1 9647   1.957   5.856   2.471
 3230TIP3    H2 9648   1.837   5.903   2.393
 3231TIP3   OH2 9649   6.675   2.578   3.161
 3231TIP3    H1 9650   6.719   2.498   3.188
 3231TIP3    H2 9651   6.746   2.637   3.136
 3232TIP3   OH2 9652   3.430   3.646   2.508
 3232TIP3    H1 9653   3.380   3.565   2.508
 3232TIP3    H2 9654   3.415   3.683   2.596
 3233TIP3   OH2 9655   6.955   1.804   6.190
 3233TIP3    H1 9656   6.986   1.716   6.167
 3233TIP3    H2 9657   6.872   1.812   6.144
 3234TIP3   OH2 9658   7.078   4.943   3.115
 3234TIP3    H1 9659   7.063   4.859   3.071
 3234TIP3    H2 9660   7.072   5.008   3.046
 3235TIP3   OH2 9661   2.841   0.744   5.368
 3235TIP3    H1 9662   2.787   0.817   5.337
 3235TIP3    H2 9663   2.885   0.777   5.446
 3236TIP3   OH2 9664   3.746   0.007   5.621
 3236TIP3    H1 9665   3.779  -0.035   5.701
 3236TIP3    H2 9666   3.666   0.052   5.649
 3237TIP3   OH2 9667   0.498   5.154   0.381
 3237TIP3    H1 9668   0.423   5.147   0.322
 3237TIP3    H2 9669   0.460   5.147   0.469
 3238TIP3   OH2 9670   1.467   0.447   0.876
 3238TIP3    H1 9671   1.420   0.432   0.958
 3238TIP3    H2 9672   1.411   0.506   0.827
 3239TIP3   OH2 9673   2.785   5.036   3.903
 3239TIP3    H1 9674   2.745   4.953   3.927
 3239TIP3    H2 9675   2.759   5.097   3.973
 3240TIP3   OH2 9676   6.526   3.143   1.893
 3240TIP3    H1 9677   6.437   3.169   1.915
 3240TIP3    H2 9678   6.573   3.146   1.976
 3241TIP3   OH2 9679   2.167   7.813   4.970
 3241TIP3    H1 9680   2.140   7.748   5.035
 3241TIP3    H2 9681   2.137   7.776   4.887
 3242TIP3   OH2 9682   5.347   4.433   0.792
 3242TIP3    H1 9683   5.351   4.519   0.834
 3242TIP3    H2 9684   5.335   4.451   0.699
 3243TIP3   OH2 9685   1.061   1.785   1.639
 3243TIP3    H1 9686   1.057   1.690   1.649
 3243TIP3    H2 9687   0.973   1.809   1.608
 3244TIP3   OH2 9688   8.183   2.275   5.538
 3244TIP3    H1 9689   8.109   2.259   5.597
 3244TIP3    H2 9690   8.152   2.341   5.476
 3245TIP3   OH2 9691   3.593   0.955   5.368
 3245TIP3    H1 9692   3.684   0.931   5.381
 3245TIP3    H2 9693   3.561   0.978   5.455
 3246TIP3   OH2 9694   1.842   1.439   3.734
 3246TIP3    H1 9695   1.876   1.382   3.803
 3246TIP3    H2 9696   1.870   1.397   3.653
 3247TIP3   OH2 9697   4.095   5.800   0.302
 3247TIP3    H1 9698   4.117   5.887   0.336
 3247TIP3    H2 9699   4.154   5.741   0.349
 3248TIP3   OH2 9700   5.457   6.330   1.178
 3248TIP3    H1 9701   5.494   6.282   1.252
 3248TIP3    H2 9702   5.372   6.361   1.209
 3249TIP3   OH2 9703   3.077   7.561   3.922
 3249TIP3    H1 9704   3.102   7.470   3.906
 3249TIP3    H2 9705   3.093   7.605   3.838
 3250TIP3   OH2 9706   5.889   1.731   1.138
 3250TIP3    H1 9707   5.795   1.732   1.117
 3250TIP3    H2 9708   5.923   1.653   1.094
 3251TIP3   OH2 9709   7.534   2.907   3.457
 3251TIP3    H1 9710   7.456   2.863   3.425
 3251TIP3    H2 9711   7.598   2.898   3.386
 3252TIP3   OH2 9712   8.068   0.387   2.307
 3252TIP3    H1 9713   8.092   0.476   2.284
 3252TIP3    H2 9714   8.081   0.336   2.227
 3253TIP3   OH2 9715   1.295   5.659   4.725
 3253TIP3    H1 9716   1.273   5.728   4.662
 3253TIP3    H2 9717   1.373   5.691   4.770
 3254TIP3   OH2 9718   7.460   4.103   1.902
 3254TIP3    H1 9719   7.413   4.185   1.922
 3254TIP3    H2 9720   7.527   4.129   1.838
 3255TIP3   OH2 9721   6.711   3.133   4.480
 3255TIP3    H1 9722   6.792   3.180   4.463
 3255TIP3    H2 9723   6.734   3.068   4.546
 3256TIP3   OH2 9724   5.772   0.768   1.878
 3256TIP3    H1 9725   5.819   0.763   1.961
 3256TIP3    H2 9726   5.752   0.861   1.867
 3257TIP3   OH2 9727   0.618   5.410   3.430
 3257TIP3    H1 9728   0.680   5.349   3.389
 3257TIP3    H2 9729   0.672   5.463   3.489
 3258TIP3   OH2 9730   0.176   1.731   2.627
 3258TIP3    H1 9731   0.204   1.645   2.658
 3258TIP3    H2 9732   0.168   1.785   2.706
 3259TIP3   OH2 9733   5.158   4.440   2.629
 3259TIP3    H1 9734   5.198   4.517   2.590
 3259TIP3    H2 9735   5.120   4.392   2.555
 3260TIP3   OH2 9736   3.728   2.419   2.308
 3260TIP3    H1 9737   3.679   2.449   2.384
 3260TIP3    H2 9738   3.799   2.483   2.299
 3261TIP3   OH2 9739   6.678   2.340   3.465
 3261TIP3    H1 9740   6.712   2.429   3.453
 3261TIP3    H2 9741   6.701   2.317   3.555
 3262TIP3   OH2 9742   7.666   5.517   5.842
 3262TIP3    H1 9743   7.746   5.465   5.834
 3262TIP3    H2 9744   7.598   5.463   5.801
 3263TIP3   OH2 9745   5.404   5.881   4.771
 3263TIP3    H1 9746   5.335   5.859   4.710
 3263TIP3    H2 9747   5.411   5.805   4.829
 3264TIP3   OH2 9748   4.470   4.719   5.455
 3264TIP3    H1 9749   4.376   4.722   5.435
 3264TIP3    H2 9750   4.490   4.806   5.490
 3265TIP3   OH2 9751   8.113   1.302   1.814
 3265TIP3    H1 9752   8.118   1.377   1.873
 3265TIP3    H2 9753   8.201   1.264   1.814
 3266TIP3   OH2 9754   4.650   7.022   3.628
 3266TIP3    H1 9755   4.652   7.118   3.622
 3266TIP3    H2 9756   4.701   7.002   3.706
 3267TIP3   OH2 9757   0.753   4.803   1.967
 3267TIP3    H1 9758   0.688   4.867   1.997
 3267TIP3    H2 9759   0.774   4.751   2.044
 3268TIP3   OH2 9760   6.291   6.454   4.693
 3268TIP3    H1 9761   6.384   6.437   4.681
 3268TIP3    H2 9762   6.251   6.368   4.702
 3269TIP3   OH2 9763   7.206   1.505   3.065
 3269TIP3    H1 9764   7.215   1.590   3.022
 3269TIP3    H2 9765   7.155   1.452   3.003
 3270TIP3   OH2 9766   3.946   4.106   3.572
 3270TIP3    H1 9767   3.889   4.029   3.571
 3270TIP3    H2 9768   4.002   4.093   3.648
 3271TIP3   OH2 9769   0.559   2.445   1.576
 3271TIP3    H1 9770   0.530   2.495   1.652
 3271TIP3    H2 9771   0.652   2.428   1.593
 3272TIP3   OH2 9772   6.420   1.131   0.826
 3272TIP3    H1 9773   6.429   1.110   0.919
 3272TIP3    H2 9774   6.366   1.211   0.825
 3273TIP3   OH2 9775   2.439   1.654   3.925
 3273TIP3    H1 9776   2.478   1.568   3.910
 3273TIP3    H2 9777   2.368   1.638   3.987
 3274TIP3   OH2 9778   6.804   5.688   0.658
 3274TIP3    H1 9779   6.895   5.661   0.646
 3274TIP3    H2 9780   6.791   5.683   0.753
 3275TIP3   OH2 9781   0.819   7.577   2.509
 3275TIP3    H1 9782   0.761   7.625   2.568
 3275TIP3    H2 9783   0.869   7.645   2.464
 3276TIP3   OH2 9784   6.001   3.806   5.717
 3276TIP3    H1 9785   5.971   3.759   5.639
 3276TIP3    H2 9786   5.935   3.873   5.731
 3277TIP3   OH2 9787   0.786   0.851   3.842
 3277TIP3    H1 9788   0.697   0.882   3.828
 3277TIP3    H2 9789   0.776   0.773   3.897
 3278TIP3   OH2 9790   7.007   6.172   0.156
 3278TIP3    H1 9791   6.914   6.156   0.172
 3278TIP3    H2 9792   7.016   6.164   0.061
 3279TIP3   OH2 9793   5.244   2.223   4.298
 3279TIP3    H1 9794   5.293   2.200   4.376
 3279TIP3    H2 9795   5.152   2.218   4.325
 3280TIP3   OH2 9796   0.987   4.123   5.565
 3280TIP3    H1 9797   0.897   4.156   5.569
 3280TIP3    H2 9798   1.042   4.201   5.567
 3281TIP3   OH2 9799   0.715   5.299   6.688
 3281TIP3    H1 9800   0.721   5.334   6.777
 3281TIP3    H2 9801   0.798   5.254   6.673
 3282TIP3   OH2 9802   0.431   6.681   3.278
 3282TIP3    H1 9803   0.430   6.735   3.357
 3282TIP3    H2 9804   0.457   6.594   3.309
 3283TIP3   OH2 9805   6.340   7.191   3.888
 3283TIP3    H1 9806   6.257   7.147   3.866
 3283TIP3    H2 9807   6.397   7.173   3.813
 3284TIP3   OH2 9808   6.856   0.597   6.434
 3284TIP3    H1 9809   6.793   0.526   6.422
 3284TIP3    H2 9810   6.937   0.564   6.397
 3285TIP3   OH2 9811   8.292   2.268   6.194
 3285TIP3    H1 9812   8.228   2.247   6.261
 3285TIP3    H2 9813   8.274   2.359   6.171
 3286TIP3   OH2 9814   5.334   5.960   1.192
 3286TIP3    H1 9815   5.253   5.978   1.240
 3286TIP3    H2 9816   5.335   6.026   1.122
 3287TIP3   OH2 9817   5.834   0.266   1.764
 3287TIP3    H1 9818   5.839   0.341   1.823
 3287TIP3    H2 9819   5.886   0.291   1.688
 3288TIP3   OH2 9820   5.514   3.739   0.893
 3288TIP3    H1 9821   5.511   3.755   0.987
 3288TIP3    H2 9822   5.549   3.651   0.884
 3289TIP3   OH2 9823   3.488   4.913   5.764
 3289TIP3    H1 9824   3.528   4.847   5.820
 3289TIP3    H2 9825   3.402   4.877   5.741
 3290TIP3   OH2 9826   7.302   0.462   2.385
 3290TIP3    H1 9827   7.282   0.489   2.295
 3290TIP3    H2 9828   7.393   0.433   2.382
 3291TIP3   OH2 9829   8.270   4.026   0.857
 3291TIP3    H1 9830   8.352   4.075   0.864
 3291TIP3    H2 9831   8.204   4.086   0.892
 3292TIP3   OH2 9832   6.966   5.284   3.655
 3292TIP3    H1 9833   6.959   5.306   3.562
 3292TIP3    H2 9834   6.996   5.365   3.696
 3293TIP3   OH2 9835   3.615   1.466   4.073
 3293TIP3    H1 9836   3.625   1.374   4.048
 3293TIP3    H2 9837   3.691   1.510   4.033
 3294TIP3   OH2 9838   4.070   6.961   6.009
 3294TIP3    H1 9839   4.147   7.018   6.002
 3294TIP3    H2 9840   4.105   6.875   6.031
 3295TIP3   OH2 9841   6.644   0.828   4.221
 3295TIP3    H1 9842   6.610   0.771   4.152
 3295TIP3    H2 9843   6.735   0.844   4.197
 3296TIP3   OH2 9844   3.371   5.011   0.483
 3296TIP3    H1 9845   3.423   4.964   0.418
 3296TIP3    H2 9846   3.300   4.951   0.505
 3297TIP3   OH2 9847   1.667   2.636   6.253
 3297TIP3    H1 9848   1.678   2.620   6.347
 3297TIP3    H2 9849   1.627   2.723   6.248
 3298TIP3   OH2 9850   5.693   6.900   3.628
 3298TIP3    H1 9851   5.743   6.845   3.688
 3298TIP3    H2 9852   5.663   6.840   3.560
 3299TIP3   OH2 9853   6.697   3.207   0.268
 3299TIP3    H1 9854   6.644   3.173   0.196
 3299TIP3    H2 9855   6.643   3.275   0.308
 3300TIP3   OH2 9856   4.535   5.086   3.801
 3300TIP3    H1 9857   4.598   5.129   3.743
 3300TIP3    H2 9858   4.535   5.139   3.881
 3301TIP3   OH2 9859   3.736   5.324   5.684
 3301TIP3    H1 9860   3.723   5.355   5.594
 3301TIP3    H2 9861   3.799   5.252   5.675
 3302TIP3   OH2 9862   7.095   3.694   5.811
 3302TIP3    H1 9863   7.062   3.707   5.900
 3302TIP3    H2 9864   7.106   3.783   5.777
 3303TIP3   OH2 9865   6.741   1.703   1.531
 3303TIP3    H1 9866   6.835   1.690   1.545
 3303TIP3    H2 9867   6.718   1.775   1.589
 3304TIP3   OH2 9868   3.567   2.853   6.756
 3304TIP3    H1 9869   3.608   2.894   6.833
 3304TIP3    H2 9870   3.575   2.919   6.687
 3305TIP3   OH2 9871   7.809   5.828   4.948
 3305TIP3    H1 9872   7.818   5.778   5.029
 3305TIP3    H2 9873   7.746   5.778   4.896
 3306TIP3   OH2 9874   1.130   5.899   0.933
 3306TIP3    H1 9875   1.172   5.819   0.901
 3306TIP3    H2 9876   1.140   5.893   1.029
 3307TIP3   OH2 9877   3.652   5.151   6.608
 3307TIP3    H1 9878   3.623   5.100   6.684
 3307TIP3    H2 9879   3.609   5.110   6.533
 3308TIP3   OH2 9880   4.567   4.442   2.041
 3308TIP3    H1 9881   4.616   4.498   2.102
 3308TIP3    H2 9882   4.495   4.497   2.011
 3309TIP3   OH2 9883   0.970   5.105   6.737
 3309TIP3    H1 9884   0.985   5.110   6.643
 3309TIP3    H2 9885   1.033   5.039   6.768
 3310TIP3   OH2 9886   6.376   5.642   2.661
 3310TIP3    H1 9887   6.281   5.658   2.658
 3310TIP3    H2 9888   6.384   5.546   2.665
 3311TIP3   OH2 9889   2.229   4.094   5.973
 3311TIP3    H1 9890   2.146   4.110   5.927
 3311TIP3    H2 9891   2.281   4.172   5.956
 3312TIP3   OH2 9892   7.518   6.639   4.202
 3312TIP3    H1 9893   7.568   6.574   4.251
 3312TIP3    H2 9894   7.453   6.672   4.264
 3313TIP3   OH2 9895   5.748   1.402   3.488
 3313TIP3    H1 9896   5.815   1.402   3.556
 3313TIP3    H2 9897   5.731   1.495   3.471
 3314TIP3   OH2 9898   3.516   6.932   5.126
 3314TIP3    H1 9899   3.550   6.843   5.138
 3314TIP3    H2 9900   3.593   6.988   5.133
 3315TIP3   OH2 9901   6.267   6.393   2.035
 3315TIP3    H1 9902   6.199   6.346   2.083
 3315TIP3    H2 9903   6.224   6.470   2.000
 3316TIP3   OH2 9904   5.224   6.544   2.274
 3316TIP3    H1 9905   5.218   6.629   2.318
 3316TIP3    H2 9906   5.229   6.480   2.344
 3317TIP3   OH2 9907   0.643   6.797   2.167
 3317TIP3    H1 9908   0.633   6.740   2.243
 3317TIP3    H2 9909   0.567   6.778   2.112
 3318TIP3   OH2 9910   3.503   5.921   4.959
 3318TIP3    H1 9911   3.451   5.889   4.885
 3318TIP3    H2 9912   3.576   5.968   4.918
 3319TIP3   OH2 9913   2.248   3.561   0.773
 3319TIP3    H1 9914   2.343   3.570   0.782
 3319TIP3    H2 9915   2.224   3.495   0.838
 3320TIP3   OH2 9916   2.744   1.346   0.117
 3320TIP3    H1 9917   2.680   1.416   0.120
 3320TIP3    H2 9918   2.705   1.279   0.061
 3321TIP3   OH2 9919   2.658   0.738   6.318
 3321TIP3    H1 9920   2.583   0.748   6.376
 3321TIP3    H2 9921   2.734   0.740   6.376
 3322TIP3   OH2 9922   2.632   0.174   6.052
 3322TIP3    H1 9923   2.561   0.204   6.110
 3322TIP3    H2 9924   2.639   0.242   5.986
 3323TIP3   OH2 9925   4.564   3.927   2.435
 3323TIP3    H1 9926   4.656   3.908   2.455
 3323TIP3    H2 9927   4.552   3.892   2.346
 3324TIP3   OH2 9928   1.264   3.478   1.394
 3324TIP3    H1 9929   1.218   3.524   1.324
 3324TIP3    H2 9930   1.356   3.505   1.384
 3325TIP3   OH2 9931   8.059   3.637   5.592
 3325TIP3    H1 9932   8.010   3.566   5.634
 3325TIP3    H2 9933   8.009   3.656   5.512
 3326TIP3   OH2 9934   6.454   2.506   5.120
 3326TIP3    H1 9935   6.497   2.525   5.037
 3326TIP3    H2 9936   6.452   2.411   5.125
 3327TIP3   OH2 9937   6.366   2.772   2.119
 3327TIP3    H1 9938   6.434   2.838   2.107
 3327TIP3    H2 9939   6.350   2.738   2.031
 3328TIP3   OH2 9940   7.401   7.021   3.982
 3328TIP3    H1 9941   7.415   6.926   3.988
 3328TIP3    H2 9942   7.316   7.036   4.023
 3329TIP3   OH2 9943   0.540   7.527   1.201
 3329TIP3    H1 9944   0.473   7.472   1.241
 3329TIP3    H2 9945   0.533   7.510   1.108
 3330TIP3   OH2 9946   2.077   0.812   3.800
 3330TIP3    H1 9947   2.083   0.838   3.892
 3330TIP3    H2 9948   2.145   0.746   3.789
 3331TIP3   OH2 9949   2.264   4.359   4.575
 3331TIP3    H1 9950   2.315   4.359   4.656
 3331TIP3    H2 9951   2.200   4.429   4.586
 3332TIP3   OH2 9952   0.936   1.042   4.959
 3332TIP3    H1 9953   0.868   1.032   4.892
 3332TIP3    H2 9954   0.995   1.108   4.923
 3333TIP3   OH2 9955   3.118   4.204   3.932
 3333TIP3    H1 9956   3.042   4.260   3.918
 3333TIP3    H2 9957   3.184   4.236   3.870
 3334TIP3   OH2 9958   2.747   2.886   2.376
 3334TIP3    H1 9959   2.726   2.925   2.292
 3334TIP3    H2 9960   2.704   2.800   2.374
 3335TIP3   OH2 9961   7.075   0.602   0.714
 3335TIP3    H1 9962   7.152   0.552   0.742
 3335TIP3    H2 9963   7.096   0.633   0.626
 3336TIP3   OH2 9964   0.921   1.841   4.037
 3336TIP3    H1 9965   0.898   1.915   3.982
 3336TIP3    H2 9966   0.916   1.875   4.126
 3337TIP3   OH2 9967   2.649   2.130   2.060
 3337TIP3    H1 9968   2.724   2.070   2.064
 3337TIP3    H2 9969   2.687   2.212   2.029
 3338TIP3   OH2 9970   4.286   5.424   1.688
 3338TIP3    H1 9971   4.336   5.498   1.654
 3338TIP3    H2 9972   4.340   5.347   1.671
 3339TIP3   OH2 9973   0.553   6.041   0.059
 3339TIP3    H1 9974   0.488   5.971   0.046
 3339TIP3    H2 9975   0.553   6.089  -0.024
 3340TIP3   OH2 9976   3.238   3.590   5.369
 3340TIP3    H1 9977   3.232   3.509   5.317
 3340TIP3    H2 9978   3.162   3.586   5.427
 3341TIP3   OH2 9979   1.411   5.313   0.225
 3341TIP3    H1 9980   1.457   5.252   0.168
 3341TIP3    H2 9981   1.479   5.373   0.256
 3342TIP3   OH2 9982   0.551   1.697   2.096
 3342TIP3    H1 9983   0.483   1.759   2.123
 3342TIP3    H2 9984   0.577   1.654   2.177
 3343TIP3   OH2 9985   5.383   3.604   2.117
 3343TIP3    H1 9986   5.471   3.603   2.079
 3343TIP3    H2 9987   5.338   3.676   2.073
 3344TIP3   OH2 9988   5.955   6.185   3.873
 3344TIP3    H1 9989   5.912   6.261   3.912
 3344TIP3    H2 9990   5.915   6.175   3.787
 3345TIP3   OH2 9991   7.846   0.450   1.745
 3345TIP3    H1 9992   7.792   0.482   1.818
 3345TIP3    H2 9993   7.801   0.481   1.667
 3346TIP3   OH2 9994   1.393   5.309   5.746
 3346TIP3    H1 9995   1.403   5.381   5.684
 3346TIP3    H2 9996   1.371   5.233   5.693
 3347TIP3   OH2 9997   1.973   3.929   2.763
 3347TIP3    H1 9998   1.964   3.965   2.851
 3347TIP3    H2 9999   2.065   3.945   2.741
 3348TIP3   OH210000   2.273   4.907   6.102
 3348TIP3    H110001   2.243   4.969   6.169
 3348TIP3    H210002   2.193   4.883   6.055
 3349TIP3   OH210003   3.827   7.499   0.986
 3349TIP3    H110004   3.840   7.517   0.892
 3349TIP3    H210005   3.735   7.522   1.001
 3350TIP3   OH210006   1.240   2.779   1.301
 3350TIP3    H110007   1.247   2.858   1.356
 3350TIP3    H210008   1.147   2.755   1.306
 3351TIP3   OH210009   3.798   0.402   5.584
 3351TIP3    H110010   3.728   0.381   5.645
 3351TIP3    H210011   3.854   0.324   5.584
 3352TIP3   OH210012   0.397   2.705   3.953
 3352TIP3    H110013   0.471   2.692   3.893
 3352TIP3    H210014   0.359   2.617   3.962
 3353TIP3   OH210015   1.205   6.642   3.998
 3353TIP3    H110016   1.252   6.693   3.932
 3353TIP3    H210017   1.261   6.567   4.014
 3354TIP3   OH210018   5.232   6.874   1.506
 3354TIP3    H110019   5.298   6.879   1.437
 3354TIP3    H210020   5.278   6.836   1.581
 3355TIP3   OH210021   4.959   0.648   4.070
 3355TIP3    H110022   5.040   0.667   4.022
 3355TIP3    H210023   4.974   0.562   4.110
 3356TIP3   OH210024   5.906   3.609   3.655
 3356TIP3    H110025   5.961   3.551   3.602
 3356TIP3    H210026   5.924   3.583   3.745
 3357TIP3   OH210027   5.087   6.750   4.884
 3357TIP3    H110028   5.155   6.684   4.898
 3357TIP3    H210029   5.118   6.827   4.930
 3358TIP3   OH210030   8.050   3.104   1.138
 3358TIP3    H110031   8.108   3.159   1.085
 3358TIP3    H210032   8.034   3.027   1.083
 3359TIP3   OH210033   6.691   5.230   2.720
 3359TIP3    H110034   6.720   5.229   2.629
 3359TIP3    H210035   6.738   5.304   2.759
 3360TIP3   OH210036   4.017   6.637   6.407
 3360TIP3    H110037   4.001   6.557   6.457
 3360TIP3    H210038   3.931   6.662   6.374
 3361TIP3   OH210039   1.576   2.071   1.313
 3361TIP3    H110040   1.528   2.126   1.375
 3361TIP3    H210041   1.522   2.071   1.234
 3362TIP3   OH210042   3.519   1.637   1.260
 3362TIP3    H110043   3.478   1.601   1.339
 3362TIP3    H210044   3.464   1.606   1.188
 3363TIP3   OH210045   0.273   2.573   0.720
 3363TIP3    H110046   0.185   2.607   0.699
 3363TIP3    H210047   0.289   2.506   0.653
 3364TIP3   OH210048   0.597   3.198   4.348
 3364TIP3    H110049   0.559   3.203   4.260
 3364TIP3    H210050   0.584   3.285   4.385
 3365TIP3   OH210051   1.560   2.330   5.509
 3365TIP3    H110052   1.598   2.400   5.455
 3365TIP3    H210053   1.624   2.315   5.578
 3366TIP3   OH210054   3.898   7.659   0.340
 3366TIP3    H110055   3.962   7.607   0.388
 3366TIP3    H210056   3.949   7.707   0.275
 3367TIP3   OH210057   7.502   0.048   5.548
 3367TIP3    H110058   7.571   0.084   5.604
 3367TIP3    H210059   7.543  -0.026   5.504
 3368TIP3   OH210060   6.452   1.066   6.550
 3368TIP3    H110061   6.532   1.027   6.516
 3368TIP3    H210062   6.436   1.142   6.493
 3369TIP3   OH210063   2.154   4.910   0.132
 3369TIP3    H110064   2.131   4.880   0.044
 3369TIP3    H210065   2.213   4.984   0.117
 3370TIP3   OH210066   3.047   0.074   4.151
 3370TIP3    H110067   3.031   0.153   4.203
 3370TIP3    H210068   3.113   0.100   4.087
 3371TIP3   OH210069   8.120   4.478   1.166
 3371TIP3    H110070   8.185   4.443   1.105
 3371TIP3    H210071   8.134   4.573   1.164
 3372TIP3   OH210072   2.031   0.103   0.360
 3372TIP3    H110073   2.125   0.090   0.366
 3372TIP3    H210074   2.009   0.154   0.438
 3373TIP3   OH210075   4.928   1.697   0.718
 3373TIP3    H110076   5.021   1.676   0.710
 3373TIP3    H210077   4.894   1.631   0.779
 3374TIP3   OH210078   2.427   7.195   3.183
 3374TIP3    H110079   2.390   7.165   3.266
 3374TIP3    H210080   2.351   7.222   3.132
 3375TIP3   OH210081   5.401   6.880   4.605
 3375TIP3    H110082   5.391   6.823   4.681
 3375TIP3    H210083   5.373   6.966   4.635
 3376TIP3   OH210084   7.674   1.351   4.874
 3376TIP3    H110085   7.596   1.403   4.854
 3376TIP3    H210086   7.640   1.271   4.913
 3377TIP3   OH210087   5.870   1.814   2.522
 3377TIP3    H110088   5.833   1.898   2.496
 3377TIP3    H210089   5.796   1.754   2.520
 3378TIP3   OH210090   5.768   4.922   5.232
 3378TIP3    H110091   5.835   4.896   5.169
 3378TIP3    H210092   5.702   4.968   5.179
 3379TIP3   OH210093   6.965   4.980   1.110
 3379TIP3    H110094   6.913   5.059   1.124
 3379TIP3    H210095   6.937   4.948   1.024
 3380TIP3   OH210096   2.175   5.046   6.325
 3380TIP3    H110097   2.212   4.995   6.397
 3380TIP3    H210098   2.090   5.006   6.309
 3381TIP3   OH210099   1.166   6.053   3.405
 3381TIP3    H110100   1.177   5.992   3.332
 3381TIP3    H210101   1.072   6.066   3.412
 3382TIP3   OH210102   5.217   3.907   0.202
 3382TIP3    H110103   5.220   3.869   0.290
 3382TIP3    H210104   5.308   3.932   0.184
 3383TIP3   OH210105   7.496   0.410   1.691
 3383TIP3    H110106   7.525   0.500   1.676
 3383TIP3    H210107   7.501   0.368   1.605
 3384TIP3   OH210108   4.210   4.390   1.897
 3384TIP3    H110109   4.277   4.455   1.919
 3384TIP3    H210110   4.135   4.414   1.951
 3385TIP3   OH210111   7.376   5.689   5.757
 3385TIP3    H110112   7.290   5.730   5.742
 3385TIP3    H210113   7.384   5.625   5.686
 3386TIP3   OH210114   2.906   3.849   6.024
 3386TIP3    H110115   2.889   3.828   6.115
 3386TIP3    H210116   2.984   3.798   6.001
 3387TIP3   OH210117   1.882   7.456   3.941
 3387TIP3    H110118   1.818   7.528   3.936
 3387TIP3    H210119   1.965   7.500   3.956
 3388TIP3   OH210120   3.203   1.721   1.893
 3388TIP3    H110121   3.289   1.758   1.913
 3388TIP3    H210122   3.148   1.797   1.874
 3389TIP3   OH210123   0.999   3.300   4.211
 3389TIP3    H110124   1.065   3.352   4.166
 3389TIP3    H210125   0.999   3.216   4.165
 3390TIP3   OH210126   2.471   3.911   1.416
 3390TIP3    H110127   2.491   3.818   1.410
 3390TIP3    H210128   2.428   3.933   1.334
 3391TIP3   OH210129   3.507   6.943   6.137
 3391TIP3    H110130   3.463   6.873   6.089
 3391TIP3    H210131   3.589   6.958   6.090
 3392TIP3   OH210132   6.499   1.166   1.689
 3392TIP3    H110133   6.594   1.171   1.685
 3392TIP3    H210134   6.480   1.073   1.703
 3393TIP3   OH210135   1.569   7.716   6.317
 3393TIP3    H110136   1.601   7.770   6.244
 3393TIP3    H210137   1.597   7.763   6.396
 3394TIP3   OH210138   5.261   3.437   2.573
 3394TIP3    H110139   5.299   3.439   2.661
 3394TIP3    H210140   5.336   3.431   2.514
 3395TIP3   OH210141   3.672   6.267   1.439
 3395TIP3    H110142   3.594   6.322   1.440
 3395TIP3    H210143   3.713   6.281   1.524
 3396TIP3   OH210144   3.706   0.198   6.557
 3396TIP3    H110145   3.716   0.280   6.606
 3396TIP3    H210146   3.794   0.160   6.557
 3397TIP3   OH210147   1.906   6.020   0.589
 3397TIP3    H110148   1.971   6.034   0.521
 3397TIP3    H210149   1.838   5.967   0.547
 3398TIP3   OH210150   2.859   3.530   5.799
 3398TIP3    H110151   2.871   3.596   5.867
 3398TIP3    H210152   2.774   3.552   5.759
 3399TIP3   OH210153   5.174   3.950   1.637
 3399TIP3    H110154   5.267   3.927   1.636
 3399TIP3    H210155   5.168   4.025   1.696
 3400TIP3   OH210156   2.163   2.179   1.437
 3400TIP3    H110157   2.089   2.207   1.384
 3400TIP3    H210158   2.148   2.085   1.450
 3401TIP3   OH210159   4.228   4.833   1.797
 3401TIP3    H110160   4.138   4.864   1.800
 3401TIP3    H210161   4.280   4.904   1.834
 3402TIP3   OH210162   7.680   2.757   5.223
 3402TIP3    H110163   7.745   2.741   5.292
 3402TIP3    H210164   7.730   2.796   5.151
 3403TIP3   OH210165   2.565   3.551   0.040
 3403TIP3    H110166   2.577   3.571   0.133
 3403TIP3    H210167   2.515   3.469   0.040
 3404TIP3   OH210168   0.945   2.478   3.447
 3404TIP3    H110169   0.987   2.436   3.371
 3404TIP3    H210170   0.973   2.425   3.521
 3405TIP3   OH210171   4.373   5.248   2.228
 3405TIP3    H110172   4.306   5.256   2.160
 3405TIP3    H210173   4.383   5.336   2.263
 3406TIP3   OH210174   3.399   1.144   6.087
 3406TIP3    H110175   3.419   1.195   6.009
 3406TIP3    H210176   3.305   1.127   6.082
 3407TIP3   OH210177   5.439   6.571   0.651
 3407TIP3    H110178   5.531   6.598   0.659
 3407TIP3    H210179   5.416   6.540   0.738
 3408TIP3   OH210180   3.350   2.984   4.741
 3408TIP3    H110181   3.350   3.039   4.818
 3408TIP3    H210182   3.283   2.917   4.759
 3409TIP3   OH210183   2.526   6.312   5.875
 3409TIP3    H110184   2.545   6.225   5.839
 3409TIP3    H210185   2.460   6.348   5.815
 3410TIP3   OH210186   7.138   6.998   1.237
 3410TIP3    H110187   7.134   7.055   1.160
 3410TIP3    H210188   7.228   7.007   1.268
 3411TIP3   OH210189   2.313   6.291   4.007
 3411TIP3    H110190   2.305   6.276   4.101
 3411TIP3    H210191   2.332   6.385   3.999
 3412TIP3   OH210192   6.055   0.498   1.058
 3412TIP3    H110193   6.060   0.588   1.026
 3412TIP3    H210194   5.993   0.455   0.998
 3413TIP3   OH210195   7.789   1.865   3.128
 3413TIP3    H110196   7.825   1.931   3.068
 3413TIP3    H210197   7.759   1.794   3.070
 3414TIP3   OH210198   4.727   6.200   6.066
 3414TIP3    H110199   4.775   6.269   6.111
 3414TIP3    H210200   4.648   6.243   6.033
 3415TIP3   OH210201   1.751   2.689   4.583
 3415TIP3    H110202   1.702   2.608   4.569
 3415TIP3    H210203   1.753   2.700   4.678
 3416TIP3   OH210204   2.455   4.315   1.379
 3416TIP3    H110205   2.458   4.250   1.450
 3416TIP3    H210206   2.537   4.364   1.389
 3417TIP3   OH210207   4.124   1.101   3.069
 3417TIP3    H110208   4.056   1.121   3.132
 3417TIP3    H210209   4.206   1.104   3.119
 3418TIP3   OH210210   3.605   1.035   5.069
 3418TIP3    H110211   3.616   1.038   4.974
 3418TIP3    H210212   3.607   1.127   5.096
 3419TIP3   OH210213   1.221   3.056   0.394
 3419TIP3    H110214   1.305   3.052   0.349
 3419TIP3    H210215   1.190   2.965   0.396
 3420TIP3   OH210216   3.057   1.822   3.550
 3420TIP3    H110217   2.979   1.875   3.534
 3420TIP3    H210218   3.069   1.773   3.469
 3421TIP3   OH210219   7.143   2.034   6.134
 3421TIP3    H110220   7.074   1.968   6.141
 3421TIP3    H210221   7.131   2.090   6.211
 3422TIP3   OH210222   4.127   1.673   4.641
 3422TIP3    H110223   4.205   1.695   4.589
 3422TIP3    H210224   4.161   1.648   4.727
 3423TIP3   OH210225   0.886   1.217   3.111
 3423TIP3    H110226   0.857   1.250   3.025
 3423TIP3    H210227   0.925   1.132   3.092
 3424TIP3   OH210228   4.341   2.630   5.602
 3424TIP3    H110229   4.417   2.687   5.592
 3424TIP3    H210230   4.362   2.575   5.678
 3425TIP3   OH210231   6.844   3.858   2.763
 3425TIP3    H110232   6.933   3.849   2.729
 3425TIP3    H210233   6.803   3.773   2.744
 3426TIP3   OH210234   4.055   3.710   4.673
 3426TIP3    H110235   4.128   3.676   4.725
 3426TIP3    H210236   4.043   3.799   4.705
 3427TIP3   OH210237   2.553   2.048   3.280
 3427TIP3    H110238   2.630   2.103   3.267
 3427TIP3    H210239   2.482   2.109   3.302
 3428TIP3   OH210240   2.488   3.351   3.542
 3428TIP3    H110241   2.513   3.439   3.514
 3428TIP3    H210242   2.572   3.304   3.549
 3429TIP3   OH210243   5.219   1.076   4.424
 3429TIP3    H110244   5.262   1.003   4.378
 3429TIP3    H210245   5.239   1.153   4.370
 3430TIP3   OH210246   2.679   0.822   1.706
 3430TIP3    H110247   2.719   0.735   1.715
 3430TIP3    H210248   2.696   0.846   1.615
 3431TIP3   OH210249   7.027   2.926   3.327
 3431TIP3    H110250   7.005   3.019   3.326
 3431TIP3    H210251   7.001   2.896   3.415
 3432TIP3   OH210252   7.121   3.115   6.360
 3432TIP3    H110253   7.209   3.147   6.340
 3432TIP3    H210254   7.064   3.191   6.346
 3433TIP3   OH210255   3.941   3.262   4.637
 3433TIP3    H110256   3.929   3.187   4.579
 3433TIP3    H210257   3.906   3.336   4.589
 3434TIP3   OH210258   1.543   0.566   6.612
 3434TIP3    H110259   1.506   0.651   6.637
 3434TIP3    H210260   1.468   0.514   6.583
 3435TIP3   OH210261   1.877   5.630   1.064
 3435TIP3    H110262   1.854   5.721   1.045
 3435TIP3    H210263   1.878   5.587   0.978
 3436TIP3   OH210264   3.373   1.131   0.002
 3436TIP3    H110265   3.380   1.039   0.028
 3436TIP3    H210266   3.369   1.179   0.084
 3437TIP3   OH210267   4.036   5.022   4.395
 3437TIP3    H110268   4.019   5.052   4.306
 3437TIP3    H210269   3.975   5.072   4.449
 3438TIP3   OH210270   0.828   0.501   1.354
 3438TIP3    H110271   0.916   0.516   1.388
 3438TIP3    H210272   0.773   0.494   1.433
 3439TIP3   OH210273   4.705   1.163   6.820
 3439TIP3    H110274   4.788   1.203   6.793
 3439TIP3    H210275   4.656   1.151   6.739
 3440TIP3   OH210276   1.217   2.743   6.645
 3440TIP3    H110277   1.181   2.806   6.583
 3440TIP3    H210278   1.201   2.782   6.731
 3441TIP3   OH210279   1.054   2.111   1.776
 3441TIP3    H110280   1.038   2.108   1.681
 3441TIP3    H210281   0.967   2.117   1.815
 3442TIP3   OH210282   7.506   1.956   0.578
 3442TIP3    H110283   7.592   1.989   0.605
 3442TIP3    H210284   7.462   1.932   0.660
 3443TIP3   OH210285   6.762   1.207   1.105
 3443TIP3    H110286   6.803   1.223   1.190
 3443TIP3    H210287   6.733   1.294   1.076
 3444TIP3   OH210288   2.210   2.288   4.857
 3444TIP3    H110289   2.228   2.204   4.900
 3444TIP3    H210290   2.294   2.333   4.857
 3445TIP3   OH210291   1.574   6.745   4.882
 3445TIP3    H110292   1.509   6.743   4.953
 3445TIP3    H210293   1.624   6.664   4.894
 3446TIP3   OH210294   2.567   5.698   4.955
 3446TIP3    H110295   2.501   5.641   4.995
 3446TIP3    H210296   2.625   5.638   4.909
 3447TIP3   OH210297   4.567   5.462   3.741
 3447TIP3    H110298   4.556   5.421   3.655
 3447TIP3    H210299   4.479   5.463   3.779
 3448TIP3   OH210300   8.257   3.219   6.373
 3448TIP3    H110301   8.296   3.302   6.345
 3448TIP3    H210302   8.162   3.237   6.373
 3449TIP3   OH210303   7.669   7.286   3.296
 3449TIP3    H110304   7.649   7.259   3.207
 3449TIP3    H210305   7.630   7.219   3.352
 3450TIP3   OH210306   2.898   0.276   2.187
 3450TIP3    H110307   2.926   0.185   2.178
 3450TIP3    H210308   2.975   0.327   2.162
 3451TIP3   OH210309   7.945   3.391   5.151
 3451TIP3    H110310   7.959   3.418   5.061
 3451TIP3    H210311   7.878   3.323   5.146
 3452TIP3   OH210312   5.425   6.585   1.933
 3452TIP3    H110313   5.495   6.556   1.992
 3452TIP3    H210314   5.369   6.640   1.987
 3453TIP3   OH210315   7.961   1.281   4.595
 3453TIP3    H110316   7.891   1.231   4.636
 3453TIP3    H210317   7.923   1.369   4.582
 3454TIP3   OH210318   2.255   3.379   4.963
 3454TIP3    H110319   2.161   3.359   4.968
 3454TIP3    H210320   2.298   3.295   4.977
 3455TIP3   OH210321   2.425   3.619   3.307
 3455TIP3    H110322   2.338   3.629   3.347
 3455TIP3    H210323   2.413   3.647   3.216
 3456TIP3   OH210324   3.738   0.725   2.582
 3456TIP3    H110325   3.651   0.726   2.622
 3456TIP3    H210326   3.725   0.682   2.497
 3457TIP3   OH210327   3.107   6.874   4.984
 3457TIP3    H110328   3.167   6.905   4.916
 3457TIP3    H210329   3.108   6.944   5.050
 3458TIP3   OH210330   0.041   1.752   2.162
 3458TIP3    H110331   0.035   1.657   2.161
 3458TIP3    H210332   0.102   1.772   2.233
 3459TIP3   OH210333   5.389   1.132   2.100
 3459TIP3    H110334   5.480   1.110   2.122
 3459TIP3    H210335   5.346   1.144   2.185
 3460TIP3   OH210336   0.225   5.789   5.514
 3460TIP3    H110337   0.143   5.835   5.494
 3460TIP3    H210338   0.262   5.769   5.428
 3461TIP3   OH210339   4.625   7.817   2.658
 3461TIP3    H110340   4.644   7.835   2.750
 3461TIP3    H210341   4.640   7.723   2.649
 3462TIP3   OH210342   1.005   7.305   3.263
 3462TIP3    H110343   0.974   7.309   3.173
 3462TIP3    H210344   0.940   7.355   3.313
 3463TIP3   OH210345   4.847   3.801   2.234
 3463TIP3    H110346   4.810   3.819   2.147
 3463TIP3    H210347   4.930   3.849   2.235
 3464TIP3   OH210348   3.168   2.402   2.043
 3464TIP3    H110349   3.159   2.408   2.139
 3464TIP3    H210350   3.166   2.493   2.014
 3465TIP3   OH210351   4.230   0.659   0.895
 3465TIP3    H110352   4.162   0.634   0.831
 3465TIP3    H210353   4.306   0.606   0.871
 3466TIP3   OH210354   1.144   4.270   5.011
 3466TIP3    H110355   1.078   4.249   5.078
 3466TIP3    H210356   1.139   4.365   5.002
 3467TIP3   OH210357   0.550   3.471   4.423
 3467TIP3    H110358   0.643   3.456   4.407
 3467TIP3    H210359   0.547   3.517   4.507
 3468TIP3   OH210360   7.081   6.831   2.613
 3468TIP3    H110361   7.108   6.862   2.700
 3468TIP3    H210362   7.100   6.904   2.554
 3469TIP3   OH210363   7.480   2.286   6.675
 3469TIP3    H110364   7.470   2.248   6.588
 3469TIP3    H210365   7.572   2.312   6.679
 3470TIP3   OH210366   2.689   5.031   4.166
 3470TIP3    H110367   2.697   5.125   4.180
 3470TIP3    H210368   2.602   5.020   4.128
 3471TIP3   OH210369   3.465   7.513   1.545
 3471TIP3    H110370   3.484   7.428   1.504
 3471TIP3    H210371   3.512   7.509   1.629
 3472TIP3   OH210372   2.922   0.916   3.892
 3472TIP3    H110373   2.924   0.935   3.985
 3472TIP3    H210374   2.832   0.886   3.876
 3473TIP3   OH210375   4.166   1.297   1.467
 3473TIP3    H110376   4.105   1.291   1.394
 3473TIP3    H210377   4.124   1.359   1.528
 3474TIP3   OH210378   5.890   3.692   5.462
 3474TIP3    H110379   5.878   3.660   5.372
 3474TIP3    H210380   5.801   3.695   5.498
 3475TIP3   OH210381   4.695   6.804   2.109
 3475TIP3    H110382   4.748   6.749   2.167
 3475TIP3    H210383   4.709   6.768   2.022
 3476TIP3   OH210384   4.696   3.010   0.183
 3476TIP3    H110385   4.668   2.920   0.202
 3476TIP3    H210386   4.713   3.048   0.269
 3477TIP3   OH210387   0.304   0.565   1.083
 3477TIP3    H110388   0.337   0.653   1.100
 3477TIP3    H210389   0.375   0.507   1.110
 3478TIP3   OH210390   5.735   3.155   4.337
 3478TIP3    H110391   5.695   3.097   4.402
 3478TIP3    H210392   5.662   3.179   4.279
 3479TIP3   OH210393   7.720   0.538   1.958
 3479TIP3    H110394   7.765   0.542   2.042
 3479TIP3    H210395   7.634   0.501   1.979
 3480TIP3   OH210396   1.857   2.366   4.653
 3480TIP3    H110397   1.883   2.273   4.649
 3480TIP3    H210398   1.762   2.364   4.652
 3481TIP3   OH210399   0.068   0.555   5.292
 3481TIP3    H110400   0.163   0.541   5.286
 3481TIP3    H210401   0.029   0.475   5.256
 3482TIP3   OH210402   2.920   6.768   3.424
 3482TIP3    H110403   2.905   6.801   3.336
 3482TIP3    H210404   2.970   6.837   3.468
 3483TIP3   OH210405   3.784   1.674   0.250
 3483TIP3    H110406   3.824   1.611   0.311
 3483TIP3    H210407   3.839   1.668   0.171
 3484TIP3   OH210408   3.945   5.427   5.184
 3484TIP3    H110409   3.924   5.448   5.093
 3484TIP3    H210410   4.000   5.349   5.179
 3485TIP3   OH210411   2.809   3.501   4.163
 3485TIP3    H110412   2.801   3.568   4.231
 3485TIP3    H210413   2.779   3.420   4.206
 3486TIP3   OH210414   2.820   3.977   0.581
 3486TIP3    H110415   2.746   4.001   0.525
 3486TIP3    H210416   2.816   3.881   0.586
 3487TIP3   OH210417   4.721   7.208   5.563
 3487TIP3    H110418   4.678   7.123   5.567
 3487TIP3    H210419   4.670   7.257   5.498
 3488TIP3   OH210420   7.460   0.333   4.940
 3488TIP3    H110421   7.512   0.405   4.975
 3488TIP3    H210422   7.522   0.283   4.886
 3489TIP3   OH210423   6.484   4.328   5.517
 3489TIP3    H110424   6.577   4.311   5.532
 3489TIP3    H210425   6.482   4.387   5.442
 3490TIP3   OH210426   2.600   0.560   3.913
 3490TIP3    H110427   2.648   0.632   3.872
 3490TIP3    H210428   2.613   0.573   4.007
 3491TIP3   OH210429   1.913   1.684   2.826
 3491TIP3    H110430   1.867   1.753   2.778
 3491TIP3    H210431   1.856   1.607   2.819
 3492TIP3   OH210432   4.888   2.269   0.442
 3492TIP3    H110433   4.895   2.265   0.537
 3492TIP3    H210434   4.969   2.231   0.410
 3493TIP3   OH210435   5.825   4.405   1.438
 3493TIP3    H110436   5.732   4.381   1.445
 3493TIP3    H210437   5.828   4.496   1.464
 3494TIP3   OH210438   5.880   6.367   3.252
 3494TIP3    H110439   5.876   6.271   3.249
 3494TIP3    H210440   5.972   6.387   3.265
 3495TIP3   OH210441   2.406   3.418   6.341
 3495TIP3    H110442   2.402   3.497   6.287
 3495TIP3    H210443   2.485   3.429   6.393
 3496TIP3   OH210444   0.069   1.385   3.430
 3496TIP3    H110445  -0.012   1.432   3.409
 3496TIP3    H210446   0.047   1.332   3.507
 3497TIP3   OH210447   0.463   6.218   3.328
 3497TIP3    H110448   0.442   6.194   3.237
 3497TIP3    H210449   0.508   6.140   3.363
 3498TIP3   OH210450   5.128   3.742   0.009
 3498TIP3    H110451   5.161   3.666   0.058
 3498TIP3    H210452   5.153   3.817   0.064
 3499TIP3   OH210453   6.977   4.483   0.726
 3499TIP3    H110454   7.029   4.411   0.690
 3499TIP3    H210455   6.886   4.456   0.713
 3500TIP3   OH210456   1.337   5.718   4.416
 3500TIP3    H110457   1.275   5.766   4.471
 3500TIP3    H210458   1.421   5.760   4.432
 3501TIP3   OH210459   0.226   1.282   4.840
 3501TIP3    H110460   0.292   1.286   4.771
 3501TIP3    H210461   0.180   1.366   4.834
 3502TIP3   OH210462   1.004   6.247   2.252
 3502TIP3    H110463   1.056   6.253   2.332
 3502TIP3    H210464   0.913   6.255   2.282
 3503TIP3   OH210465   0.637   5.121   2.782
 3503TIP3    H110466   0.626   5.164   2.697
 3503TIP3    H210467   0.560   5.065   2.790
 3504TIP3   OH210468   1.562   6.724   5.376
 3504TIP3    H110469   1.615   6.764   5.446
 3504TIP3    H210470   1.479   6.703   5.418
 3505TIP3   OH210471   2.494   2.366   3.522
 3505TIP3    H110472   2.412   2.408   3.549
 3505TIP3    H210473   2.552   2.438   3.500
 3506TIP3   OH210474   1.957   6.108   1.541
 3506TIP3    H110475   1.919   6.056   1.613
 3506TIP3    H210476   2.048   6.077   1.535
 3507TIP3   OH210477   4.218   1.510   3.487
 3507TIP3    H110478   4.230   1.466   3.403
 3507TIP3    H210479   4.284   1.580   3.487
 3508TIP3   OH210480   4.211   2.137   5.219
 3508TIP3    H110481   4.220   2.051   5.177
 3508TIP3    H210482   4.145   2.124   5.287
 3509TIP3   OH210483   6.363   7.033   0.421
 3509TIP3    H110484   6.426   6.962   0.409
 3509TIP3    H210485   6.278   6.991   0.410
 3510TIP3   OH210486   4.653   5.493   5.413
 3510TIP3    H110487   4.622   5.492   5.504
 3510TIP3    H210488   4.580   5.530   5.364
 3511TIP3   OH210489   2.702   1.289   1.383
 3511TIP3    H110490   2.746   1.239   1.451
 3511TIP3    H210491   2.699   1.379   1.416
 3512TIP3   OH210492   7.190   7.821   6.046
 3512TIP3    H110493   7.107   7.781   6.021
 3512TIP3    H210494   7.237   7.753   6.094
 3513TIP3   OH210495   6.355   3.039   5.003
 3513TIP3    H110496   6.385   3.032   4.912
 3513TIP3    H210497   6.351   2.948   5.033
 3514TIP3   OH210498   0.620   7.749  -0.007
 3514TIP3    H110499   0.668   7.681   0.041
 3514TIP3    H210500   0.596   7.813   0.059
 3515TIP3   OH210501   2.205   6.018   0.156
 3515TIP3    H110502   2.291   5.977   0.157
 3515TIP3    H210503   2.154   5.964   0.096
 3516TIP3   OH210504   0.920   5.454   5.661
 3516TIP3    H110505   0.957   5.397   5.728
 3516TIP3    H210506   0.848   5.403   5.623
 3517TIP3   OH210507   0.079   0.644   3.280
 3517TIP3    H110508   0.013   0.707   3.254
 3517TIP3    H210509   0.098   0.594   3.200
 3518TIP3   OH210510   7.607   4.289   6.093
 3518TIP3    H110511   7.623   4.195   6.093
 3518TIP3    H210512   7.553   4.305   6.016
 3519TIP3   OH210513   6.688   5.592   5.699
 3519TIP3    H110514   6.641   5.544   5.631
 3519TIP3    H210515   6.711   5.676   5.659
 3520TIP3   OH210516   1.319   7.115   3.669
 3520TIP3    H110517   1.256   7.116   3.741
 3520TIP3    H210518   1.404   7.122   3.711
 3521TIP3   OH210519   6.929   0.319   6.146
 3521TIP3    H110520   6.948   0.399   6.196
 3521TIP3    H210521   6.982   0.327   6.067
 3522TIP3   OH210522   1.142   4.580   0.101
 3522TIP3    H110523   1.144   4.610   0.192
 3522TIP3    H210524   1.157   4.659   0.049
 3523TIP3   OH210525   6.938   1.012   2.056
 3523TIP3    H110526   6.928   0.966   1.973
 3523TIP3    H210527   6.848   1.032   2.083
 3524TIP3   OH210528   7.517   7.658   3.896
 3524TIP3    H110529   7.554   7.586   3.947
 3524TIP3    H210530   7.567   7.657   3.814
 3525TIP3   OH210531   8.143   7.243   0.680
 3525TIP3    H110532   8.202   7.175   0.713
 3525TIP3    H210533   8.056   7.202   0.683
 3526TIP3   OH210534   3.412   1.594   0.189
 3526TIP3    H110535   3.491   1.634   0.225
 3526TIP3    H210536   3.351   1.590   0.263
 3527TIP3   OH210537   1.384   1.027   6.462
 3527TIP3    H110538   1.410   1.115   6.489
 3527TIP3    H210539   1.426   1.014   6.377
 3528TIP3   OH210540   2.392   6.783   0.416
 3528TIP3    H110541   2.392   6.815   0.325
 3528TIP3    H210542   2.445   6.703   0.412
 3529TIP3   OH210543   4.227   6.872   0.680
 3529TIP3    H110544   4.244   6.922   0.760
 3529TIP3    H210545   4.278   6.918   0.612
 3530TIP3   OH210546   8.101   5.688   6.004
 3530TIP3    H110547   8.026   5.727   5.959
 3530TIP3    H210548   8.113   5.603   5.960
 3531TIP3   OH210549   0.081   4.109   2.227
 3531TIP3    H110550   0.146   4.070   2.286
 3531TIP3    H210551   0.003   4.056   2.240
 3532TIP3   OH210552   4.800   6.628   2.823
 3532TIP3    H110553   4.811   6.710   2.775
 3532TIP3    H210554   4.728   6.645   2.883
 3533TIP3   OH210555   3.094   3.408   6.016
 3533TIP3    H110556   3.111   3.499   5.992
 3533TIP3    H210557   3.180   3.367   6.016
 3534TIP3   OH210558   1.722   7.408   6.523
 3534TIP3    H110559   1.660   7.376   6.458
 3534TIP3    H210560   1.698   7.363   6.604
 3535TIP3   OH210561   5.816   2.445   1.530
 3535TIP3    H110562   5.833   2.539   1.526
 3535TIP3    H210563   5.903   2.405   1.535
 3536TIP3   OH210564   4.769   4.689   3.089
 3536TIP3    H110565   4.800   4.777   3.066
 3536TIP3    H210566   4.713   4.664   3.016
 3537TIP3   OH210567   7.272   2.049   0.444
 3537TIP3    H110568   7.360   2.019   0.466
 3537TIP3    H210569   7.272   2.056   0.348
 3538TIP3   OH210570   6.652   1.307   3.649
 3538TIP3    H110571   6.589   1.329   3.581
 3538TIP3    H210572   6.679   1.217   3.628
 3539TIP3   OH210573   4.440   3.706   0.922
 3539TIP3    H110574   4.450   3.778   0.986
 3539TIP3    H210575   4.497   3.637   0.956
 3540TIP3   OH210576   5.590   0.859   5.300
 3540TIP3    H110577   5.597   0.946   5.341
 3540TIP3    H210578   5.501   0.857   5.265
 3541TIP3   OH210579   0.456   3.442   1.066
 3541TIP3    H110580   0.477   3.374   1.001
 3541TIP3    H210581   0.398   3.399   1.128
 3542TIP3   OH210582  -0.034   5.171   0.570
 3542TIP3    H110583   0.012   5.105   0.622
 3542TIP3    H210584  -0.072   5.230   0.636
 3543TIP3   OH210585   8.059   3.383   5.954
 3543TIP3    H110586   8.068   3.288   5.961
 3543TIP3    H210587   8.125   3.408   5.889
 3544TIP3   OH210588   1.941   7.001   1.468
 3544TIP3    H110589   1.850   6.992   1.439
 3544TIP3    H210590   1.961   6.918   1.511
 3545TIP3   OH210591   2.661   7.165   6.809
 3545TIP3    H110592   2.578   7.207   6.830
 3545TIP3    H210593   2.664   7.165   6.714
 3546TIP3   OH210594   6.430   2.717   4.762
 3546TIP3    H110595   6.417   2.712   4.667
 3546TIP3    H210596   6.461   2.807   4.777
 3547TIP3   OH210597   6.784   6.710   1.734
 3547TIP3    H110598   6.767   6.656   1.657
 3547TIP3    H210599   6.714   6.686   1.796
 3548TIP3   OH210600   5.520   6.171   3.801
 3548TIP3    H110601   5.570   6.092   3.819
 3548TIP3    H210602   5.585   6.235   3.772
 3549TIP3   OH210603   5.452   1.340   2.435
 3549TIP3    H110604   5.403   1.261   2.414
 3549TIP3    H210605   5.542   1.310   2.446
 3550TIP3   OH210606   3.013   6.109   4.207
 3550TIP3    H110607   3.021   6.183   4.147
 3550TIP3    H210608   2.969   6.041   4.156
 3551TIP3   OH210609   2.890   7.012   2.353
 3551TIP3    H110610   2.795   7.012   2.338
 3551TIP3    H210611   2.920   6.929   2.317
 3552TIP3   OH210612   5.969   7.788   0.913
 3552TIP3    H110613   5.976   7.763   0.820
 3552TIP3    H210614   5.892   7.741   0.944
 3553TIP3   OH210615   6.953   5.895   3.556
 3553TIP3    H110616   7.047   5.878   3.562
 3553TIP3    H210617   6.943   5.954   3.481
 3554TIP3   OH210618   4.907   2.923   6.705
 3554TIP3    H110619   5.002   2.915   6.694
 3554TIP3    H210620   4.896   2.982   6.780
 3555TIP3   OH210621   0.830   3.403   1.289
 3555TIP3    H110622   0.809   3.320   1.332
 3555TIP3    H210623   0.867   3.457   1.358
 3556TIP3   OH210624   5.676   6.728   2.724
 3556TIP3    H110625   5.705   6.818   2.737
 3556TIP3    H210626   5.613   6.712   2.795
 3557TIP3   OH210627   4.655   0.209   6.213
 3557TIP3    H110628   4.711   0.262   6.270
 3557TIP3    H210629   4.580   0.266   6.195
 3558TIP3   OH210630   7.300   0.463   5.766
 3558TIP3    H110631   7.347   0.425   5.692
 3558TIP3    H210632   7.367   0.510   5.816
 3559TIP3   OH210633   4.673   1.920   0.143
 3559TIP3    H110634   4.749   1.934   0.086
 3559TIP3    H210635   4.711   1.903   0.229
 3560TIP3   OH210636   4.048   1.298   1.215
 3560TIP3    H110637   4.073   1.390   1.205
 3560TIP3    H210638   4.097   1.253   1.145
 3561TIP3   OH210639   1.470   6.111   6.309
 3561TIP3    H110640   1.485   6.108   6.403
 3561TIP3    H210641   1.441   6.022   6.286
 3562TIP3   OH210642   6.515   4.382   3.407
 3562TIP3    H110643   6.444   4.324   3.378
 3562TIP3    H210644   6.472   4.467   3.418
 3563TIP3   OH210645   0.739   6.251   2.338
 3563TIP3    H110646   0.722   6.330   2.389
 3563TIP3    H210647   0.744   6.181   2.403
 3564TIP3   OH210648   2.883   3.729   5.339
 3564TIP3    H110649   2.910   3.810   5.381
 3564TIP3    H210650   2.911   3.660   5.400
 3565TIP3   OH210651   1.966   2.615   2.462
 3565TIP3    H110652   1.980   2.698   2.508
 3565TIP3    H210653   2.040   2.608   2.402
 3566TIP3   OH210654   0.407   0.958   6.796
 3566TIP3    H110655   0.498   0.968   6.768
 3566TIP3    H210656   0.356   0.969   6.715
 3567TIP3   OH210657   3.307   6.400   6.343
 3567TIP3    H110658   3.319   6.464   6.414
 3567TIP3    H210659   3.228   6.429   6.298
 3568TIP3   OH210660   0.775   6.467   5.112
 3568TIP3    H110661   0.707   6.426   5.059
 3568TIP3    H210662   0.761   6.561   5.099
 3569TIP3   OH210663   3.444   6.429   1.446
 3569TIP3    H110664   3.441   6.518   1.412
 3569TIP3    H210665   3.377   6.427   1.514
 3570TIP3   OH210666   2.711   1.087   4.888
 3570TIP3    H110667   2.696   1.006   4.839
 3570TIP3    H210668   2.798   1.076   4.927
 3571TIP3   OH210669   2.079   6.865   6.026
 3571TIP3    H110670   2.079   6.825   5.939
 3571TIP3    H210671   1.994   6.842   6.063
 3572TIP3   OH210672   0.708   1.646   1.604
 3572TIP3    H110673   0.668   1.703   1.538
 3572TIP3    H210674   0.748   1.576   1.553
 3573TIP3   OH210675   0.478   4.746   0.754
 3573TIP3    H110676   0.433   4.762   0.837
 3573TIP3    H210677   0.568   4.775   0.770
 3574TIP3   OH210678   7.202   1.305   2.016
 3574TIP3    H110679   7.115   1.343   2.013
 3574TIP3    H210680   7.237   1.331   2.101
 3575TIP3   OH210681   6.198   7.667   4.245
 3575TIP3    H110682   6.128   7.721   4.283
 3575TIP3    H210683   6.278   7.709   4.276
 3576TIP3   OH210684   4.896   3.341   5.190
 3576TIP3    H110685   4.811   3.297   5.192
 3576TIP3    H210686   4.879   3.427   5.229
 3577TIP3   OH210687   2.494   3.711   2.597
 3577TIP3    H110688   2.457   3.667   2.673
 3577TIP3    H210689   2.584   3.680   2.593
 3578TIP3   OH210690   2.780   3.870   1.492
 3578TIP3    H110691   2.741   3.815   1.560
 3578TIP3    H210692   2.718   3.942   1.480
 3579TIP3   OH210693   1.715   4.738   2.619
 3579TIP3    H110694   1.689   4.646   2.613
 3579TIP3    H210695   1.663   4.782   2.552
 3580TIP3   OH210696   5.085   3.878   6.250
 3580TIP3    H110697   4.995   3.846   6.260
 3580TIP3    H210698   5.109   3.908   6.338
 3581TIP3   OH210699   3.461   5.513   6.547
 3581TIP3    H110700   3.420   5.470   6.472
 3581TIP3    H210701   3.405   5.590   6.563
 3582TIP3   OH210702   6.399   3.245   5.353
 3582TIP3    H110703   6.368   3.333   5.374
 3582TIP3    H210704   6.349   3.220   5.275
 3583TIP3   OH210705   3.439   0.493   0.346
 3583TIP3    H110706   3.386   0.572   0.356
 3583TIP3    H210707   3.479   0.502   0.259
 3584TIP3   OH210708   4.566   0.321   4.422
 3584TIP3    H110709   4.603   0.345   4.337
 3584TIP3    H210710   4.642   0.293   4.473
 3585TIP3   OH210711   2.754   0.675   4.136
 3585TIP3    H110712   2.762   0.678   4.231
 3585TIP3    H210713   2.739   0.766   4.110
 3586TIP3   OH210714   1.111   1.927   5.738
 3586TIP3    H110715   1.177   1.858   5.727
 3586TIP3    H210716   1.088   1.952   5.648
 3587TIP3   OH210717   6.735   4.662   3.590
 3587TIP3    H110718   6.710   4.736   3.646
 3587TIP3    H210719   6.653   4.618   3.570
 3588TIP3   OH210720   6.839   1.461   3.951
 3588TIP3    H110721   6.899   1.390   3.926
 3588TIP3    H210722   6.872   1.493   4.035
 3589TIP3   OH210723   0.534   2.407   0.533
 3589TIP3    H110724   0.444   2.380   0.550
 3589TIP3    H210725   0.556   2.366   0.449
 3590TIP3   OH210726   0.663   2.692   3.810
 3590TIP3    H110727   0.709   2.612   3.835
 3590TIP3    H210728   0.664   2.690   3.714
 3591TIP3   OH210729   3.186   3.290   1.464
 3591TIP3    H110730   3.123   3.222   1.488
 3591TIP3    H210731   3.269   3.243   1.453
 3592TIP3   OH210732   4.298   5.195   0.307
 3592TIP3    H110733   4.245   5.248   0.248
 3592TIP3    H210734   4.282   5.105   0.279
 3593TIP3   OH210735   1.187   5.867   3.729
 3593TIP3    H110736   1.268   5.911   3.704
 3593TIP3    H210737   1.170   5.897   3.818
 3594TIP3   OH210738   3.652   6.195   2.345
 3594TIP3    H110739   3.619   6.279   2.314
 3594TIP3    H210740   3.747   6.202   2.336
 3595TIP3   OH210741   4.001   6.393   5.222
 3595TIP3    H110742   4.069   6.326   5.233
 3595TIP3    H210743   3.969   6.409   5.310
 3596TIP3   OH210744   7.682   3.499   4.634
 3596TIP3    H110745   7.656   3.430   4.573
 3596TIP3    H210746   7.609   3.561   4.632
 3597TIP3   OH210747   7.747   1.436   2.575
 3597TIP3    H110748   7.773   1.440   2.667
 3597TIP3    H210749   7.805   1.370   2.537
 3598TIP3   OH210750   1.857   0.173   2.340
 3598TIP3    H110751   1.904   0.250   2.309
 3598TIP3    H210752   1.899   0.151   2.423
 3599TIP3   OH210753   6.986   1.213   5.332
 3599TIP3    H110754   6.908   1.172   5.295
 3599TIP3    H210755   6.976   1.306   5.313
 3600TIP3   OH210756   4.451   1.343   1.794
 3600TIP3    H110757   4.438   1.313   1.704
 3600TIP3    H210758   4.496   1.270   1.837
 3601TIP3   OH210759   8.142   4.400   3.014
 3601TIP3    H110760   8.188   4.321   3.042
 3601TIP3    H210761   8.067   4.406   3.073
 3602TIP3   OH210762   3.046   2.070   5.832
 3602TIP3    H110763   2.986   2.030   5.769
 3602TIP3    H210764   2.998   2.145   5.867
 3603TIP3   OH210765   6.878   2.306   4.124
 3603TIP3    H110766   6.873   2.362   4.202
 3603TIP3    H210767   6.925   2.228   4.153
 3604TIP3   OH210768   5.761   1.600   6.549
 3604TIP3    H110769   5.832   1.536   6.543
 3604TIP3    H210770   5.710   1.587   6.469
 3605TIP3   OH210771   5.542   7.452   6.224
 3605TIP3    H110772   5.496   7.382   6.177
 3605TIP3    H210773   5.561   7.518   6.157
 3606TIP3   OH210774   7.535   1.039   2.985
 3606TIP3    H110775   7.624   1.005   2.990
 3606TIP3    H210776   7.489   0.980   2.925
 3607TIP3   OH210777   6.162   2.898   0.772
 3607TIP3    H110778   6.224   2.911   0.843
 3607TIP3    H210779   6.148   2.986   0.736
 3608TIP3   OH210780   0.948   5.253   4.725
 3608TIP3    H110781   0.963   5.240   4.819
 3608TIP3    H210782   0.853   5.248   4.716
 3609TIP3   OH210783   7.943   0.992   3.670
 3609TIP3    H110784   7.859   1.021   3.708
 3609TIP3    H210785   7.959   1.052   3.598
 3610TIP3   OH210786   1.641   3.785   1.421
 3610TIP3    H110787   1.697   3.839   1.475
 3610TIP3    H210788   1.579   3.846   1.381
 3611TIP3   OH210789   7.789   6.285   4.660
 3611TIP3    H110790   7.799   6.212   4.721
 3611TIP3    H210791   7.811   6.248   4.575
 3612TIP3   OH210792   6.860   2.062   2.509
 3612TIP3    H110793   6.870   2.115   2.430
 3612TIP3    H210794   6.844   2.126   2.578
 3613TIP3   OH210795   7.862   0.919   6.503
 3613TIP3    H110796   7.944   0.905   6.454
 3613TIP3    H210797   7.840   1.010   6.486
 3614TIP3   OH210798   2.418   4.730  -0.048
 3614TIP3    H110799   2.423   4.804   0.012
 3614TIP3    H210800   2.387   4.767  -0.131
 3615TIP3   OH210801   6.307   6.181   6.258
 3615TIP3    H110802   6.296   6.133   6.340
 3615TIP3    H210803   6.349   6.262   6.283
 3616TIP3   OH210804   1.992   2.675   2.031
 3616TIP3    H110805   2.067   2.664   1.973
 3616TIP3    H210806   1.948   2.590   2.028
 3617TIP3   OH210807   6.032   2.140   2.667
 3617TIP3    H110808   5.999   2.112   2.753
 3617TIP3    H210809   6.009   2.233   2.662
 3618TIP3   OH210810   2.199   4.308   5.344
 3618TIP3    H110811   2.147   4.303   5.264
 3618TIP3    H210812   2.143   4.271   5.412
 3619TIP3   OH210813   4.396   2.754   4.618
 3619TIP3    H110814   4.316   2.704   4.600
 3619TIP3    H210815   4.400   2.759   4.714
 3620TIP3   OH210816   1.527   4.027   4.756
 3620TIP3    H110817   1.434   4.010   4.740
 3620TIP3    H210818   1.550   4.096   4.694
 3621TIP3   OH210819   5.590   1.555   0.473
 3621TIP3    H110820   5.660   1.493   0.448
 3621TIP3    H210821   5.597   1.563   0.568
 3622TIP3   OH210822   7.553   2.465   1.414
 3622TIP3    H110823   7.572   2.477   1.321
 3622TIP3    H210824   7.464   2.430   1.416
 3623TIP3   OH210825   3.763   3.108   2.904
 3623TIP3    H110826   3.686   3.146   2.948
 3623TIP3    H210827   3.766   3.018   2.936
 3624TIP3   OH210828   2.491   6.707   3.994
 3624TIP3    H110829   2.526   6.686   4.080
 3624TIP3    H210830   2.557   6.764   3.955
 3625TIP3   OH210831   2.462   2.826   3.956
 3625TIP3    H110832   2.386   2.802   3.904
 3625TIP3    H210833   2.465   2.922   3.951
 3626TIP3   OH210834   5.515   7.539   2.926
 3626TIP3    H110835   5.542   7.454   2.960
 3626TIP3    H210836   5.582   7.561   2.860
 3627TIP3   OH210837   1.669   5.638   0.476
 3627TIP3    H110838   1.717   5.662   0.555
 3627TIP3    H210839   1.616   5.563   0.502
 3628TIP3   OH210840   2.687   1.425   5.589
 3628TIP3    H110841   2.681   1.352   5.528
 3628TIP3    H210842   2.608   1.418   5.643
 3629TIP3   OH210843   4.290   4.726   0.676
 3629TIP3    H110844   4.289   4.631   0.690
 3629TIP3    H210845   4.338   4.737   0.593
 3630TIP3   OH210846   1.396   7.151   2.570
 3630TIP3    H110847   1.356   7.237   2.557
 3630TIP3    H210848   1.331   7.101   2.621
 3631TIP3   OH210849   0.598   1.857   0.913
 3631TIP3    H110850   0.587   1.779   0.966
 3631TIP3    H210851   0.662   1.910   0.961
 3632TIP3   OH210852   2.163   1.987   5.801
 3632TIP3    H110853   2.193   2.063   5.751
 3632TIP3    H210854   2.072   1.975   5.775
 3633TIP3   OH210855   4.621   4.276   4.129
 3633TIP3    H110856   4.700   4.261   4.181
 3633TIP3    H210857   4.592   4.363   4.154
 3634TIP3   OH210858   3.745   6.604   0.410
 3634TIP3    H110859   3.794   6.539   0.461
 3634TIP3    H210860   3.708   6.553   0.337
 3635TIP3   OH210861   1.580   3.010   4.961
 3635TIP3    H110862   1.665   3.021   4.918
 3635TIP3    H210863   1.596   3.033   5.053
 3636TIP3   OH210864   3.311   0.079   4.029
 3636TIP3    H110865   3.346  -0.007   4.006
 3636TIP3    H210866   3.352   0.139   3.966
 3637TIP3   OH210867   0.163   0.292   3.661
 3637TIP3    H110868   0.093   0.238   3.698
 3637TIP3    H210869   0.145   0.294   3.567
 3638TIP3   OH210870   1.515   5.670   3.650
 3638TIP3    H110871   1.513   5.660   3.555
 3638TIP3    H210872   1.559   5.591   3.681
 3639TIP3   OH210873   3.841   1.928   1.984
 3639TIP3    H110874   3.770   1.948   1.923
 3639TIP3    H210875   3.803   1.863   2.044
 3640TIP3   OH210876   5.834   6.174   5.064
 3640TIP3    H110877   5.778   6.244   5.029
 3640TIP3    H210878   5.887   6.147   4.989
 3641TIP3   OH210879   3.101   7.042   6.338
 3641TIP3    H110880   3.142   7.053   6.252
 3641TIP3    H210881   3.112   6.950   6.359
 3642TIP3   OH210882   5.982   2.240   4.635
 3642TIP3    H110883   6.049   2.275   4.576
 3642TIP3    H210884   5.902   2.287   4.610
 3643TIP3   OH210885   7.729   7.408   3.817
 3643TIP3    H110886   7.755   7.409   3.909
 3643TIP3    H210887   7.806   7.441   3.770
 3644TIP3   OH210888   2.084   1.426   1.964
 3644TIP3    H110889   2.114   1.340   1.934
 3644TIP3    H210890   2.028   1.407   2.039
 3645TIP3   OH210891   3.340   5.516   3.790
 3645TIP3    H110892   3.336   5.444   3.853
 3645TIP3    H210893   3.423   5.503   3.745
 3646TIP3   OH210894   0.853   3.418   6.239
 3646TIP3    H110895   0.909   3.459   6.305
 3646TIP3    H210896   0.796   3.360   6.289
 3647TIP3   OH210897   5.589   6.989   2.646
 3647TIP3    H110898   5.528   6.988   2.719
 3647TIP3    H210899   5.536   7.016   2.571
 3648TIP3   OH210900   4.948   6.542   3.423
 3648TIP3    H110901   4.939   6.630   3.458
 3648TIP3    H210902   4.973   6.488   3.498
 3649TIP3   OH210903   6.649   1.913   3.777
 3649TIP3    H110904   6.650   1.953   3.690
 3649TIP3    H210905   6.603   1.977   3.832
 3650TIP3   OH210906   2.410   4.745   4.570
 3650TIP3    H110907   2.485   4.804   4.584
 3650TIP3    H210908   2.436   4.692   4.494
 3651TIP3   OH210909   7.246   2.187   1.724
 3651TIP3    H110910   7.177   2.254   1.726
 3651TIP3    H210911   7.327   2.238   1.721
 3652TIP3   OH210912   2.161   2.279   3.975
 3652TIP3    H110913   2.067   2.290   3.986
 3652TIP3    H210914   2.189   2.355   3.925
 3653TIP3   OH210915   4.427   7.213   4.904
 3653TIP3    H110916   4.370   7.240   4.976
 3653TIP3    H210917   4.381   7.140   4.863
 3654TIP3   OH210918   0.908   2.295   0.918
 3654TIP3    H110919   0.991   2.341   0.931
 3654TIP3    H210920   0.872   2.333   0.839
 3655TIP3   OH210921   2.922   6.139   0.896
 3655TIP3    H110922   2.917   6.224   0.939
 3655TIP3    H210923   3.008   6.137   0.856
 3656TIP3   OH210924   8.136   1.597   0.590
 3656TIP3    H110925   8.153   1.578   0.683
 3656TIP3    H210926   8.217   1.573   0.546
 3657TIP3   OH210927   6.005   2.280   5.143
 3657TIP3    H110928   6.036   2.370   5.155
 3657TIP3    H210929   5.912   2.283   5.166
 3658TIP3   OH210930   8.079   6.117   6.823
 3658TIP3    H110931   8.073   6.185   6.757
 3658TIP3    H210932   8.092   6.036   6.774
 3659TIP3   OH210933   2.220   0.713   4.941
 3659TIP3    H110934   2.292   0.735   4.883
 3659TIP3    H210935   2.233   0.620   4.962
 3660TIP3   OH210936   2.437   6.047   1.463
 3660TIP3    H110937   2.415   6.087   1.378
 3660TIP3    H210938   2.527   6.016   1.452
 3661TIP3   OH210939   4.294   1.035   5.369
 3661TIP3    H110940   4.278   0.946   5.400
 3661TIP3    H210941   4.241   1.090   5.426
 3662TIP3   OH210942   1.530   7.818   0.414
 3662TIP3    H110943   1.610   7.815   0.467
 3662TIP3    H210944   1.530   7.907   0.378
 3663TIP3   OH210945   5.763   6.393   0.859
 3663TIP3    H110946   5.843   6.348   0.886
 3663TIP3    H210947   5.787   6.485   0.858
 3664TIP3   OH210948   0.810   3.186   1.470
 3664TIP3    H110949   0.820   3.205   1.564
 3664TIP3    H210950   0.867   3.111   1.454
 3665TIP3   OH210951   7.236   2.039   5.880
 3665TIP3    H110952   7.200   2.037   5.969
 3665TIP3    H210953   7.215   2.127   5.847
 3666TIP3   OH210954   1.843   6.023   0.981
 3666TIP3    H110955   1.865   6.016   1.074
 3666TIP3    H210956   1.927   6.025   0.936
 3667TIP3   OH210957   5.412   3.792   6.135
 3667TIP3    H110958   5.381   3.882   6.142
 3667TIP3    H210959   5.383   3.750   6.216
 3668TIP3   OH210960   4.233   7.297   5.095
 3668TIP3    H110961   4.235   7.329   5.185
 3668TIP3    H210962   4.163   7.347   5.053
 3669TIP3   OH210963   8.266   5.773   3.371
 3669TIP3    H110964   8.307   5.718   3.438
 3669TIP3    H210965   8.336   5.832   3.342
 3670TIP3   OH210966   4.219   6.465   0.060
 3670TIP3    H110967   4.309   6.435   0.077
 3670TIP3    H210968   4.222   6.506  -0.026
 3671TIP3   OH210969   8.007   4.163   0.592
 3671TIP3    H110970   8.041   4.075   0.578
 3671TIP3    H210971   7.937   4.152   0.656
 3672TIP3   OH210972   1.760   3.362   2.620
 3672TIP3    H110973   1.675   3.374   2.662
 3672TIP3    H210974   1.794   3.281   2.657
 3673TIP3   OH210975   6.141   7.490   6.301
 3673TIP3    H110976   6.069   7.518   6.357
 3673TIP3    H210977   6.172   7.570   6.259
 3674TIP3   OH210978   7.503   1.395   4.479
 3674TIP3    H110979   7.475   1.312   4.519
 3674TIP3    H210980   7.563   1.368   4.409
 3675TIP3   OH210981   3.817   0.295   0.931
 3675TIP3    H110982   3.779   0.376   0.898
 3675TIP3    H210983   3.907   0.318   0.954
 3676TIP3   OH210984   7.641   0.895   2.153
 3676TIP3    H110985   7.675   0.976   2.115
 3676TIP3    H210986   7.561   0.922   2.199
 3677TIP3   OH210987   7.911   7.795   6.569
 3677TIP3    H110988   7.902   7.729   6.638
 3677TIP3    H210989   7.979   7.760   6.511
 3678TIP3   OH210990   0.280   2.264   5.922
 3678TIP3    H110991   0.207   2.325   5.932
 3678TIP3    H210992   0.244   2.179   5.950
 3679TIP3   OH210993   5.735   2.947   5.382
 3679TIP3    H110994   5.735   3.041   5.397
 3679TIP3    H210995   5.744   2.909   5.469
 3680TIP3   OH210996   8.039   3.862   2.661
 3680TIP3    H110997   8.117   3.808   2.672
 3680TIP3    H210998   7.967   3.800   2.652
 3681TIP3   OH210999   6.169   4.583   4.600
 3681TIP3    H111000   6.080   4.551   4.585
 3681TIP3    H211001   6.225   4.514   4.566
 3682TIP3   OH211002   4.672   6.537   2.424
 3682TIP3    H111003   4.622   6.505   2.349
 3682TIP3    H211004   4.763   6.540   2.394
 3683TIP3   OH211005   4.851   0.541   6.689
 3683TIP3    H111006   4.920   0.563   6.751
 3683TIP3    H211007   4.887   0.468   6.638
 3684TIP3   OH211008   2.511   6.004   2.083
 3684TIP3    H111009   2.599   5.968   2.095
 3684TIP3    H211010   2.520   6.097   2.103
 3685TIP3   OH211011   0.832   3.606   4.625
 3685TIP3    H111012   0.839   3.540   4.556
 3685TIP3    H211013   0.742   3.598   4.657
 3686TIP3   OH211014   2.355   4.162   2.494
 3686TIP3    H111015   2.277   4.216   2.508
 3686TIP3    H211016   2.423   4.224   2.467
 3687TIP3   OH211017   4.136   1.322   4.816
 3687TIP3    H111018   4.207   1.272   4.856
 3687TIP3    H211019   4.122   1.395   4.877
 3688TIP3   OH211020   0.692   1.923   4.445
 3688TIP3    H111021   0.657   1.998   4.492
 3688TIP3    H211022   0.748   1.961   4.377
 3689TIP3   OH211023   4.433   3.817   0.068
 3689TIP3    H111024   4.376   3.878   0.115
 3689TIP3    H211025   4.389   3.733   0.075
 3690TIP3   OH211026   5.448   2.664   3.761
 3690TIP3    H111027   5.376   2.727   3.765
 3690TIP3    H211028   5.497   2.689   3.683
 3691TIP3   OH211029   8.169   5.461   2.223
 3691TIP3    H111030   8.223   5.530   2.262
 3691TIP3    H211031   8.232   5.400   2.185
 3692TIP3   OH211032   1.841   7.466   1.178
 3692TIP3    H111033   1.758   7.437   1.140
 3692TIP3    H211034   1.823   7.475   1.271
 3693TIP3   OH211035   1.787   3.018   5.599
 3693TIP3    H111036   1.720   3.051   5.539
 3693TIP3    H211037   1.824   2.942   5.553
 3694TIP3   OH211038   8.134   1.243   3.109
 3694TIP3    H111039   8.138   1.197   3.193
 3694TIP3    H211040   8.074   1.316   3.125
 3695TIP3   OH211041   7.885   3.725   1.013
 3695TIP3    H111042   7.953   3.681   0.962
 3695TIP3    H211043   7.886   3.815   0.981
 3696TIP3   OH211044   0.494   7.174   1.036
 3696TIP3    H111045   0.584   7.184   1.005
 3696TIP3    H211046   0.483   7.246   1.099
 3697TIP3   OH211047   7.714   3.231   3.875
 3697TIP3    H111048   7.754   3.296   3.818
 3697TIP3    H211049   7.670   3.170   3.816
 3698TIP3   OH211050   2.002   1.050   6.188
 3698TIP3    H111051   2.017   1.114   6.118
 3698TIP3    H211052   1.978   1.103   6.264
 3699TIP3   OH211053   6.864   5.057   5.301
 3699TIP3    H111054   6.782   5.103   5.316
 3699TIP3    H211055   6.895   5.034   5.388
 3700TIP3   OH211056   2.075   7.231   3.972
 3700TIP3    H111057   2.060   7.136   3.978
 3700TIP3    H211058   1.987   7.269   3.966
 3701TIP3   OH211059   0.763   2.247   3.329
 3701TIP3    H111060   0.765   2.249   3.425
 3701TIP3    H211061   0.854   2.233   3.303
 3702TIP3   OH211062   8.238   3.325   4.380
 3702TIP3    H111063   8.146   3.301   4.377
 3702TIP3    H211064   8.242   3.396   4.444
 3703TIP3   OH211065   3.264   6.220   3.213
 3703TIP3    H111066   3.319   6.261   3.280
 3703TIP3    H211067   3.175   6.222   3.250
 3704TIP3   OH211068   1.904   7.415   0.726
 3704TIP3    H111069   1.871   7.450   0.643
 3704TIP3    H211070   1.925   7.493   0.778
 3705TIP3   OH211071   1.937   1.769   4.758
 3705TIP3    H111072   1.879   1.693   4.748
 3705TIP3    H211073   1.902   1.834   4.698
 3706TIP3   OH211074   1.130   5.062   1.756
 3706TIP3    H111075   1.096   4.988   1.808
 3706TIP3    H211076   1.197   5.100   1.812
 3707TIP3   OH211077   7.260   6.920   2.374
 3707TIP3    H111078   7.254   6.827   2.398
 3707TIP3    H211079   7.350   6.932   2.344
 3708TIP3   OH211080   1.173   2.722   5.800
 3708TIP3    H111081   1.266   2.731   5.779
 3708TIP3    H211082   1.135   2.805   5.774
 3709TIP3   OH211083   5.526   2.246   5.808
 3709TIP3    H111084   5.498   2.155   5.809
 3709TIP3    H211085   5.501   2.277   5.720
 3710TIP3   OH211086   0.505   0.653   0.127
 3710TIP3    H111087   0.419   0.633   0.163
 3710TIP3    H211088   0.496   0.740   0.088
 3711TIP3   OH211089   5.973   4.469   5.181
 3711TIP3    H111090   6.018   4.552   5.194
 3711TIP3    H211091   5.922   4.457   5.261
 3712TIP3   OH211092   3.430   5.477   4.937
 3712TIP3    H111093   3.425   5.565   4.974
 3712TIP3    H211094   3.339   5.453   4.919
 3713TIP3   OH211095   3.276   0.764   0.707
 3713TIP3    H111096   3.295   0.833   0.644
 3713TIP3    H211097   3.262   0.686   0.653
 3714TIP3   OH211098   3.559   7.566   0.984
 3714TIP3    H111099   3.490   7.592   1.044
 3714TIP3    H211100   3.515   7.558   0.899
 3715TIP3   OH211101   0.481   5.702   0.498
 3715TIP3    H111102   0.436   5.699   0.414
 3715TIP3    H211103   0.529   5.619   0.503
 3716TIP3   OH211104   7.673   1.237   5.954
 3716TIP3    H111105   7.732   1.294   6.004
 3716TIP3    H211106   7.720   1.218   5.874
 3717TIP3   OH211107   3.022   7.257   0.049
 3717TIP3    H111108   3.076   7.177   0.050
 3717TIP3    H211109   3.005   7.273  -0.044
 3718TIP3   OH211110   7.977   0.593   0.949
 3718TIP3    H111111   7.899   0.613   0.899
 3718TIP3    H211112   7.948   0.597   1.041
 3719TIP3   OH211113   0.248   1.598   5.158
 3719TIP3    H111114   0.257   1.552   5.242
 3719TIP3    H211115   0.294   1.681   5.171
 3720TIP3   OH211116   3.780  -0.032   1.541
 3720TIP3    H111117   3.840   0.023   1.491
 3720TIP3    H211118   3.776   0.009   1.627
 3721TIP3   OH211119   0.049   4.086   4.454
 3721TIP3    H111120   0.009   4.011   4.497
 3721TIP3    H211121   0.134   4.055   4.426
 3722TIP3   OH211122   4.989   3.569   4.687
 3722TIP3    H111123   4.972   3.540   4.777
 3722TIP3    H211124   4.986   3.488   4.636
 3723TIP3   OH211125   1.047   6.568   2.238
 3723TIP3    H111126   1.054   6.546   2.145
 3723TIP3    H211127   1.022   6.486   2.280
 3724TIP3   OH211128   6.519   2.095   6.381
 3724TIP3    H111129   6.451   2.038   6.346
 3724TIP3    H211130   6.498   2.182   6.347
 3725TIP3   OH211131   0.193   2.655   0.996
 3725TIP3    H111132   0.236   2.646   0.911
 3725TIP3    H211133   0.121   2.717   0.980
 3726TIP3   OH211134   7.200   4.706   5.930
 3726TIP3    H111135   7.197   4.710   5.834
 3726TIP3    H211136   7.293   4.706   5.951
 3727TIP3   OH211137   7.138   2.976   6.736
 3727TIP3    H111138   7.043   2.970   6.736
 3727TIP3    H211139   7.168   2.887   6.716
 3728TIP3   OH211140   2.904   3.001   3.519
 3728TIP3    H111141   2.996   2.983   3.540
 3728TIP3    H211142   2.897   2.983   3.426
 3729TIP3   OH211143   6.573   1.421   3.114
 3729TIP3    H111144   6.515   1.451   3.043
 3729TIP3    H211145   6.649   1.479   3.108
 3730TIP3   OH211146   7.994   6.696   3.728
 3730TIP3    H111147   7.901   6.684   3.708
 3730TIP3    H211148   8.039   6.669   3.648
 3731TIP3   OH211149   0.169   0.817   4.555
 3731TIP3    H111150   0.211   0.901   4.536
 3731TIP3    H211151   0.221   0.753   4.508
 3732TIP3   OH211152   2.751   3.553   5.177
 3732TIP3    H111153   2.799   3.617   5.229
 3732TIP3    H211154   2.814   3.482   5.163
 3733TIP3   OH211155   3.963   6.367   5.767
 3733TIP3    H111156   3.928   6.413   5.844
 3733TIP3    H211157   3.890   6.314   5.736
 3734TIP3   OH211158   4.652   7.621   4.572
 3734TIP3    H111159   4.579   7.570   4.607
 3734TIP3    H211160   4.616   7.709   4.559
 3735TIP3   OH211161   6.004   6.935   3.447
 3735TIP3    H111162   6.017   6.867   3.381
 3735TIP3    H211163   5.984   7.014   3.397
 3736TIP3   OH211164   6.434   0.833   0.204
 3736TIP3    H111165   6.450   0.738   0.206
 3736TIP3    H211166   6.360   0.843   0.145
 3737TIP3   OH211167   0.199   4.951   6.035
 3737TIP3    H111168   0.191   4.899   5.955
 3737TIP3    H211169   0.152   5.032   6.015
 3738TIP3   OH211170   0.441   6.583   4.404
 3738TIP3    H111171   0.513   6.583   4.341
 3738TIP3    H211172   0.457   6.662   4.457
 3739TIP3   OH211173   4.369   0.007   2.428
 3739TIP3    H111174   4.358   0.000   2.523
 3739TIP3    H211175   4.295   0.062   2.400
 3740TIP3   OH211176   7.412   0.913   2.766
 3740TIP3    H111177   7.325   0.913   2.727
 3740TIP3    H211178   7.428   0.821   2.789
 3741TIP3   OH211179   3.305   4.412   4.521
 3741TIP3    H111180   3.388   4.376   4.554
 3741TIP3    H211181   3.241   4.342   4.536
 3742TIP3   OH211182   1.069   1.361   1.165
 3742TIP3    H111183   1.147   1.308   1.152
 3742TIP3    H211184   1.024   1.360   1.081
 3743TIP3   OH211185   2.643   0.895   0.867
 3743TIP3    H111186   2.622   0.855   0.783
 3743TIP3    H211187   2.731   0.932   0.855
 3744TIP3   OH211188   8.236   2.970   2.256
 3744TIP3    H111189   8.281   3.054   2.252
 3744TIP3    H211190   8.298   2.908   2.218
 3745TIP3   OH211191   4.556   6.364   1.105
 3745TIP3    H111192   4.608   6.440   1.080
 3745TIP3    H211193   4.583   6.295   1.044
 3746TIP3   OH211194   3.300   5.238   4.426
 3746TIP3    H111195   3.352   5.297   4.370
 3746TIP3    H211196   3.224   5.291   4.452
 3747TIP3   OH211197   2.124   3.126   4.145
 3747TIP3    H111198   2.135   3.195   4.210
 3747TIP3    H211199   2.034   3.097   4.156
 3748TIP3   OH211200   2.003   7.382   0.409
 3748TIP3    H111201   1.944   7.308   0.424
 3748TIP3    H211202   2.085   7.357   0.452
 3749TIP3   OH211203   1.123   3.574   0.669
 3749TIP3    H111204   1.199   3.606   0.718
 3749TIP3    H211205   1.119   3.481   0.688
 3750TIP3   OH211206   0.780   7.593   0.204
 3750TIP3    H111207   0.770   7.664   0.267
 3750TIP3    H211208   0.798   7.516   0.258
 3751TIP3   OH211209   7.630   2.960   1.095
 3751TIP3    H111210   7.686   3.022   1.048
 3751TIP3    H211211   7.623   2.995   1.183
 3752TIP3   OH211212   5.769   5.177   3.446
 3752TIP3    H111213   5.846   5.144   3.492
 3752TIP3    H211214   5.725   5.098   3.413
 3753TIP3   OH211215   5.995   7.433   0.221
 3753TIP3    H111216   5.955   7.357   0.180
 3753TIP3    H211217   6.044   7.476   0.150
 3754TIP3   OH211218   1.061   3.743   1.604
 3754TIP3    H111219   1.115   3.819   1.582
 3754TIP3    H211220   1.015   3.722   1.523
 3755TIP3   OH211221   2.165   7.621   2.064
 3755TIP3    H111222   2.087   7.624   2.119
 3755TIP3    H211223   2.238   7.635   2.125
 3756TIP3   OH211224   3.182   5.024   3.043
 3756TIP3    H111225   3.170   5.040   2.950
 3756TIP3    H211226   3.099   4.986   3.072
 3757TIP3   OH211227   2.365   6.970   0.623
 3757TIP3    H111228   2.359   6.919   0.541
 3757TIP3    H211229   2.455   7.001   0.624
 3758TIP3   OH211230   0.256   4.871   1.223
 3758TIP3    H111231   0.306   4.797   1.258
 3758TIP3    H211232   0.306   4.900   1.147
 3759TIP3   OH211233   7.840   5.724   5.928
 3759TIP3    H111234   7.767   5.667   5.902
 3759TIP3    H211235   7.839   5.795   5.864
 3760TIP3   OH211236   7.482   6.059   3.085
 3760TIP3    H111237   7.480   6.007   3.005
 3760TIP3    H211238   7.456   6.147   3.057
 3761TIP3   OH211239   4.133   2.217   2.605
 3761TIP3    H111240   4.042   2.233   2.630
 3761TIP3    H211241   4.146   2.270   2.527
 3762TIP3   OH211242   0.722   1.710   4.290
 3762TIP3    H111243   0.728   1.788   4.344
 3762TIP3    H211244   0.798   1.658   4.316
 3763TIP3   OH211245   2.047   6.892   0.330
 3763TIP3    H111246   1.976   6.938   0.285
 3763TIP3    H211247   2.046   6.928   0.419
 3764TIP3   OH211248   7.765   1.232   1.525
 3764TIP3    H111249   7.805   1.198   1.605
 3764TIP3    H211250   7.689   1.175   1.510
 3765TIP3   OH211251   3.598   7.670   3.918
 3765TIP3    H111252   3.528   7.625   3.871
 3765TIP3    H211253   3.678   7.643   3.874
 3766TIP3   OH211254   7.147   3.390   2.665
 3766TIP3    H111255   7.127   3.478   2.634
 3766TIP3    H211256   7.224   3.401   2.721
 3767TIP3   OH211257   6.838   1.128   4.002
 3767TIP3    H111258   6.757   1.177   3.985
 3767TIP3    H211259   6.810   1.036   4.000
 3768TIP3   OH211260   5.243   1.236   0.991
 3768TIP3    H111261   5.152   1.253   1.012
 3768TIP3    H211262   5.283   1.322   0.983
 3769TIP3   OH211263   8.037   0.904   4.803
 3769TIP3    H111264   8.021   0.838   4.871
 3769TIP3    H211265   8.113   0.871   4.755
 3770TIP3   OH211266   1.624   2.440   4.130
 3770TIP3    H111267   1.599   2.427   4.222
 3770TIP3    H211268   1.553   2.400   4.080
 3771TIP3   OH211269   6.244   0.400   3.033
 3771TIP3    H111270   6.186   0.332   3.068
 3771TIP3    H211271   6.311   0.351   2.985
 3772TIP3   OH211272   2.368   1.446   3.578
 3772TIP3    H111273   2.449   1.434   3.529
 3772TIP3    H211274   2.379   1.532   3.620
 3773TIP3   OH211275   1.481   4.521   4.961
 3773TIP3    H111276   1.486   4.478   5.047
 3773TIP3    H211277   1.572   4.547   4.943
 3774TIP3   OH211278   0.649   7.756   5.476
 3774TIP3    H111279   0.644   7.807   5.557
 3774TIP3    H211280   0.575   7.786   5.424
 3775TIP3   OH211281   0.521   4.525   1.006
 3775TIP3    H111282   0.580   4.601   1.012
 3775TIP3    H211283   0.466   4.531   1.084
 3776TIP3   OH211284   1.046   7.193   5.690
 3776TIP3    H111285   0.950   7.197   5.689
 3776TIP3    H211286   1.068   7.130   5.622
 3777TIP3   OH211287   5.937   6.611   0.791
 3777TIP3    H111288   6.025   6.590   0.758
 3777TIP3    H211289   5.953   6.677   0.859
 3778TIP3   OH211290   5.343   7.241   1.438
 3778TIP3    H111291   5.371   7.187   1.365
 3778TIP3    H211292   5.322   7.326   1.398
 3779TIP3   OH211293   4.671   7.837   1.600
 3779TIP3    H111294   4.585   7.827   1.641
 3779TIP3    H211295   4.721   7.762   1.633
 3780TIP3   OH211296   0.543   1.537   6.253
 3780TIP3    H111297   0.558   1.472   6.186
 3780TIP3    H211298   0.619   1.530   6.311
 3781TIP3   OH211299   1.764   3.437   3.378
 3781TIP3    H111300   1.832   3.426   3.311
 3781TIP3    H211301   1.687   3.394   3.340
 3782TIP3   OH211302   4.308   0.562   4.306
 3782TIP3    H111303   4.278   0.579   4.395
 3782TIP3    H211304   4.390   0.609   4.298
 3783TIP3   OH211305   4.025   5.519   0.515
 3783TIP3    H111306   3.953   5.491   0.459
 3783TIP3    H211307   3.992   5.597   0.559
 3784TIP3   OH211308   0.022   1.904   6.271
 3784TIP3    H111309   0.046   1.993   6.244
 3784TIP3    H211310   0.106   1.859   6.281
 3785TIP3   OH211311   5.916   2.711   0.325
 3785TIP3    H111312   5.895   2.805   0.325
 3785TIP3    H211313   5.959   2.697   0.240
 3786TIP3   OH211314   0.721   1.488   6.545
 3786TIP3    H111315   0.772   1.436   6.607
 3786TIP3    H211316   0.787   1.527   6.488
 3787TIP3   OH211317   1.474   3.734   6.434
 3787TIP3    H111318   1.394   3.772   6.470
 3787TIP3    H211319   1.467   3.749   6.340
 3788TIP3   OH211320   7.576   3.753   6.609
 3788TIP3    H111321   7.653   3.809   6.609
 3788TIP3    H211322   7.584   3.699   6.530
 3789TIP3   OH211323   0.770   6.983   3.219
 3789TIP3    H111324   0.827   7.055   3.191
 3789TIP3    H211325   0.681   7.015   3.202
 3790TIP3   OH211326   5.447   1.806  -0.058
 3790TIP3    H111327   5.522   1.853  -0.022
 3790TIP3    H211328   5.416   1.752   0.014
 3791TIP3   OH211329   8.088   2.099   2.211
 3791TIP3    H111330   8.042   2.183   2.204
 3791TIP3    H211331   8.133   2.091   2.127
 3792TIP3   OH211332   1.362   7.440   2.501
 3792TIP3    H111333   1.365   7.490   2.419
 3792TIP3    H211334   1.280   7.465   2.542
 3793TIP3   OH211335   0.848   5.600   4.533
 3793TIP3    H111336   0.904   5.561   4.600
 3793TIP3    H211337   0.778   5.643   4.582
 3794TIP3   OH211338   2.485   4.600   4.083
 3794TIP3    H111339   2.447   4.570   4.001
 3794TIP3    H211340   2.433   4.676   4.108
 3795TIP3   OH211341   5.098   2.289   2.403
 3795TIP3    H111342   5.118   2.197   2.387
 3795TIP3    H211343   5.166   2.337   2.356
 3796TIP3   OH211344   3.056   5.320   1.334
 3796TIP3    H111345   3.104   5.239   1.316
 3796TIP3    H211346   2.991   5.327   1.264
 3797TIP3   OH211347   0.670   4.731   1.498
 3797TIP3    H111348   0.714   4.756   1.579
 3797TIP3    H211349   0.588   4.690   1.527
 3798TIP3   OH211350   6.412   6.172   0.224
 3798TIP3    H111351   6.495   6.181   0.271
 3798TIP3    H211352   6.383   6.083   0.243
 3799TIP3   OH211353   5.711   3.397   0.366
 3799TIP3    H111354   5.762   3.363   0.440
 3799TIP3    H211355   5.775   3.445   0.313
 3800TIP3   OH211356   4.648   7.291   3.094
 3800TIP3    H111357   4.628   7.383   3.109
 3800TIP3    H211358   4.588   7.265   3.024
 3801TIP3   OH211359   6.454   2.468   5.920
 3801TIP3    H111360   6.397   2.420   5.980
 3801TIP3    H211361   6.421   2.445   5.833
 3802TIP3   OH211362   2.220   6.100   3.725
 3802TIP3    H111363   2.237   6.014   3.764
 3802TIP3    H211364   2.256   6.094   3.637
 3803TIP3   OH211365   6.025   3.844   4.680
 3803TIP3    H111366   6.112   3.812   4.656
 3803TIP3    H211367   6.042   3.926   4.727
 3804TIP3   OH211368   5.587   4.201   1.722
 3804TIP3    H111369   5.680   4.205   1.701
 3804TIP3    H211370   5.545   4.255   1.656
 3805TIP3   OH211371   5.502   4.920   2.104
 3805TIP3    H111372   5.502   5.015   2.110
 3805TIP3    H211373   5.483   4.901   2.012
 3806TIP3   OH211374   7.836   6.387   1.103
 3806TIP3    H111375   7.851   6.295   1.125
 3806TIP3    H211376   7.920   6.430   1.117
 3807TIP3   OH211377   2.590   2.644   4.673
 3807TIP3    H111378   2.548   2.718   4.629
 3807TIP3    H211379   2.634   2.597   4.603
 3808TIP3   OH211380   3.684   7.296   0.720
 3808TIP3    H111381   3.648   7.305   0.809
 3808TIP3    H211382   3.656   7.209   0.692
 3809TIP3   OH211383   7.473   6.647   5.962
 3809TIP3    H111384   7.541   6.623   5.899
 3809TIP3    H211385   7.395   6.661   5.908
 3810TIP3   OH211386   3.008   1.112   2.557
 3810TIP3    H111387   3.003   1.148   2.646
 3810TIP3    H211388   2.982   1.186   2.500
 3811TIP3   OH211389   5.874   3.905   6.235
 3811TIP3    H111390   5.962   3.891   6.270
 3811TIP3    H211391   5.855   3.824   6.188
 3812TIP3   OH211392   5.866   6.740   3.765
 3812TIP3    H111393   5.860   6.647   3.788
 3812TIP3    H211394   5.960   6.759   3.767
 3813TIP3   OH211395   2.371   7.389   6.029
 3813TIP3    H111396   2.296   7.331   6.024
 3813TIP3    H211397   2.401   7.397   5.938
 3814TIP3   OH211398   5.634   6.510   2.142
 3814TIP3    H111399   5.610   6.483   2.231
 3814TIP3    H211400   5.681   6.435   2.106
 3815TIP3   OH211401   1.888   4.328   4.873
 3815TIP3    H111402   1.922   4.402   4.823
 3815TIP3    H211403   1.793   4.332   4.861
 3816TIP3   OH211404   0.691   3.748   1.542
 3816TIP3    H111405   0.700   3.667   1.593
 3816TIP3    H211406   0.647   3.808   1.602
 3817TIP3   OH211407   3.441   0.468   1.149
 3817TIP3    H111408   3.409   0.421   1.072
 3817TIP3    H211409   3.420   0.559   1.133
 3818TIP3   OH211410   6.811   3.985   6.025
 3818TIP3    H111411   6.763   4.063   6.053
 3818TIP3    H211412   6.743   3.924   5.995
 3819TIP3   OH211413   2.669   2.018   4.200
 3819TIP3    H111414   2.611   1.977   4.136
 3819TIP3    H211415   2.709   1.945   4.246
 3820TIP3   OH211416   8.226   5.855   1.463
 3820TIP3    H111417   8.221   5.891   1.374
 3820TIP3    H211418   8.143   5.878   1.504
 3821TIP3   OH211419   0.816   6.602   3.033
 3821TIP3    H111420   0.873   6.616   2.957
 3821TIP3    H211421   0.841   6.515   3.065
 3822TIP3   OH211422   0.122   0.908   1.705
 3822TIP3    H111423   0.195   0.851   1.730
 3822TIP3    H211424   0.141   0.934   1.615
 3823TIP3   OH211425   4.987   3.062   1.748
 3823TIP3    H111426   5.023   3.071   1.837
 3823TIP3    H211427   4.964   2.970   1.741
 3824TIP3   OH211428   7.953   0.952   4.233
 3824TIP3    H111429   8.001   0.967   4.152
 3824TIP3    H211430   8.020   0.920   4.294
 3825TIP3   OH211431   8.272   3.538   0.273
 3825TIP3    H111432   8.313   3.621   0.250
 3825TIP3    H211433   8.321   3.472   0.224
 3826TIP3   OH211434   2.437   3.607   3.752
 3826TIP3    H111435   2.499   3.618   3.680
 3826TIP3    H211436   2.356   3.577   3.709
 3827TIP3   OH211437   2.501   7.506   4.078
 3827TIP3    H111438   2.516   7.418   4.111
 3827TIP3    H211439   2.430   7.541   4.132
 3828TIP3   OH211440   5.426   5.306   6.472
 3828TIP3    H111441   5.347   5.321   6.523
 3828TIP3    H211442   5.443   5.213   6.481
 3829TIP3   OH211443   7.325   3.033   4.853
 3829TIP3    H111444   7.281   3.108   4.812
 3829TIP3    H211445   7.264   3.003   4.920
 3830TIP3   OH211446   1.933   4.751   6.500
 3830TIP3    H111447   1.953   4.745   6.406
 3830TIP3    H211448   1.912   4.662   6.526
 3831TIP3   OH211449   1.002   3.197   2.972
 3831TIP3    H111450   0.925   3.148   2.942
 3831TIP3    H211451   1.057   3.132   3.015
 3832TIP3   OH211452   7.830   2.662   5.940
 3832TIP3    H111453   7.743   2.674   5.902
 3832TIP3    H211454   7.883   2.732   5.901
 3833TIP3   OH211455   5.155   4.903   1.231
 3833TIP3    H111456   5.224   4.964   1.257
 3833TIP3    H211457   5.094   4.902   1.305
 3834TIP3   OH211458   3.008   2.453   6.116
 3834TIP3    H111459   3.006   2.519   6.185
 3834TIP3    H211460   2.946   2.485   6.051
 3835TIP3   OH211461   7.691   0.916   4.359
 3835TIP3    H111462   7.765   0.947   4.306
 3835TIP3    H211463   7.718   0.829   4.389
 3836TIP3   OH211464   7.855   6.021   3.748
 3836TIP3    H111465   7.948   6.043   3.740
 3836TIP3    H211466   7.844   5.997   3.840
 3837TIP3   OH211467   7.678   7.023   6.128
 3837TIP3    H111468   7.622   6.986   6.197
 3837TIP3    H211469   7.766   7.025   6.166
 3838TIP3   OH211470   7.804   6.952   3.957
 3838TIP3    H111471   7.884   6.999   3.934
 3838TIP3    H211472   7.830   6.892   4.027
 3839TIP3   OH211473   4.579   2.596   1.436
 3839TIP3    H111474   4.583   2.532   1.365
 3839TIP3    H211475   4.669   2.625   1.447
 3840TIP3   OH211476   2.442   6.916   2.741
 3840TIP3    H111477   2.485   6.959   2.667
 3840TIP3    H211478   2.369   6.868   2.702
 3841TIP3   OH211479   7.568   6.395   4.895
 3841TIP3    H111480   7.551   6.312   4.940
 3841TIP3    H211481   7.663   6.393   4.877
 3842TIP3   OH211482   3.187   5.341   5.522
 3842TIP3    H111483   3.273   5.347   5.563
 3842TIP3    H211484   3.191   5.403   5.449
 3843TIP3   OH211485   6.149   0.196   2.122
 3843TIP3    H111486   6.137   0.190   2.217
 3843TIP3    H211487   6.227   0.251   2.112
 3844TIP3   OH211488   2.810   1.454   0.638
 3844TIP3    H111489   2.745   1.499   0.693
 3844TIP3    H211490   2.760   1.422   0.563
 3845TIP3   OH211491   5.314   4.146   0.501
 3845TIP3    H111492   5.399   4.163   0.461
 3845TIP3    H211493   5.333   4.131   0.593
 3846TIP3   OH211494   7.162   3.840   4.689
 3846TIP3    H111495   7.175   3.772   4.623
 3846TIP3    H211496   7.070   3.864   4.681
 3847TIP3   OH211497   6.440   6.727   2.349
 3847TIP3    H111498   6.454   6.662   2.280
 3847TIP3    H211499   6.439   6.676   2.430
 3848TIP3   OH211500   1.512   2.277   0.278
 3848TIP3    H111501   1.420   2.299   0.289
 3848TIP3    H211502   1.559   2.354   0.312
 3849TIP3   OH211503   7.766   7.765   6.105
 3849TIP3    H111504   7.755   7.832   6.172
 3849TIP3    H211505   7.853   7.728   6.122
 3850TIP3   OH211506   5.533   1.861   3.916
 3850TIP3    H111507   5.537   1.878   4.010
 3850TIP3    H211508   5.514   1.947   3.877
 3851TIP3   OH211509   7.473   4.473   5.174
 3851TIP3    H111510   7.434   4.558   5.192
 3851TIP3    H211511   7.567   4.490   5.169
 3852TIP3   OH211512   4.350   5.893   2.454
 3852TIP3    H111513   4.418   5.851   2.507
 3852TIP3    H211514   4.289   5.822   2.433
 3853TIP3   OH211515   3.682   7.793   0.434
 3853TIP3    H111516   3.735   7.872   0.450
 3853TIP3    H211517   3.745   7.727   0.407
 3854TIP3   OH211518   1.285   1.621   2.778
 3854TIP3    H111519   1.232   1.608   2.699
 3854TIP3    H211520   1.317   1.534   2.800
 3855TIP3   OH211521   2.485   2.773   4.461
 3855TIP3    H111522   2.540   2.760   4.384
 3855TIP3    H211523   2.453   2.863   4.453
 3856TIP3   OH211524   6.459   3.202   1.611
 3856TIP3    H111525   6.482   3.200   1.703
 3856TIP3    H211526   6.372   3.242   1.609
 3857TIP3   OH211527   5.342   7.378   2.317
 3857TIP3    H111528   5.316   7.397   2.227
 3857TIP3    H211529   5.260   7.354   2.361
 3858TIP3   OH211530   3.356   5.294   2.941
 3858TIP3    H111531   3.374   5.374   2.991
 3858TIP3    H211532   3.382   5.223   2.999
 3859TIP3   OH211533   4.030   4.064   0.784
 3859TIP3    H111534   4.038   4.052   0.878
 3859TIP3    H211535   3.961   4.130   0.774
 3860TIP3   OH211536   2.387   7.816   0.945
 3860TIP3    H111537   2.377   7.806   1.039
 3860TIP3    H211538   2.473   7.780   0.925
 3861TIP3   OH211539   7.207   3.952   4.932
 3861TIP3    H111540   7.192   3.910   4.847
 3861TIP3    H211541   7.217   3.878   4.993
 3862TIP3   OH211542   6.719   5.831   0.884
 3862TIP3    H111543   6.778   5.792   0.948
 3862TIP3    H211544   6.748   5.922   0.877
 3863TIP3   OH211545   0.268   4.754   2.656
 3863TIP3    H111546   0.231   4.670   2.684
 3863TIP3    H211547   0.354   4.732   2.622
 3864TIP3   OH211548   2.515   4.585   5.329
 3864TIP3    H111549   2.501   4.538   5.246
 3864TIP3    H211550   2.544   4.673   5.302
 3865TIP3   OH211551   5.595   2.363   0.023
 3865TIP3    H111552   5.526   2.418   0.060
 3865TIP3    H211553   5.569   2.351  -0.069
 3866TIP3   OH211554   1.395   2.604   6.485
 3866TIP3    H111555   1.485   2.623   6.511
 3866TIP3    H211556   1.346   2.681   6.513
 3867TIP3   OH211557   4.207   6.703   1.722
 3867TIP3    H111558   4.205   6.753   1.641
 3867TIP3    H211559   4.218   6.769   1.790
 3868TIP3   OH211560   8.024   3.143   1.445
 3868TIP3    H111561   7.969   3.066   1.430
 3868TIP3    H211562   8.053   3.168   1.357
 3869TIP3   OH211563   6.273   4.278   0.870
 3869TIP3    H111564   6.245   4.284   0.778
 3869TIP3    H211565   6.343   4.343   0.878
 3870TIP3   OH211566   7.737   2.167   2.513
 3870TIP3    H111567   7.800   2.118   2.460
 3870TIP3    H211568   7.782   2.248   2.536
 3871TIP3   OH211569   1.831   2.439   2.308
 3871TIP3    H111570   1.880   2.485   2.375
 3871TIP3    H211571   1.829   2.499   2.233
 3872TIP3   OH211572   4.505   0.109   2.886
 3872TIP3    H111573   4.554   0.166   2.827
 3872TIP3    H211574   4.445   0.061   2.830
 3873TIP3   OH211575   8.267   3.645   5.807
 3873TIP3    H111576   8.202   3.625   5.739
 3873TIP3    H211577   8.350   3.613   5.771
 3874TIP3   OH211578   3.501   4.811   1.218
 3874TIP3    H111579   3.500   4.879   1.151
 3874TIP3    H211580   3.459   4.851   1.294
 3875TIP3   OH211581   0.856   3.897   4.876
 3875TIP3    H111582   0.850   3.833   4.947
 3875TIP3    H211583   0.831   3.980   4.917
 3876TIP3   OH211584   7.757   3.248   1.130
 3876TIP3    H111585   7.759   3.317   1.195
 3876TIP3    H211586   7.836   3.197   1.146
 3877TIP3   OH211587   3.050   4.636   0.685
 3877TIP3    H111588   3.047   4.548   0.648
 3877TIP3    H211589   3.117   4.630   0.754
 3878TIP3   OH211590   3.237   0.722   3.131
 3878TIP3    H111591   3.311   0.725   3.192
 3878TIP3    H211592   3.190   0.804   3.147
 3879TIP3   OH211593   3.177   6.749   5.968
 3879TIP3    H111594   3.179   6.687   5.895
 3879TIP3    H211595   3.233   6.709   6.035
 3880TIP3   OH211596   8.123   4.072   4.001
 3880TIP3    H111597   8.032   4.050   4.022
 3880TIP3    H211598   8.174   4.023   4.065
 3881TIP3   OH211599   6.213   3.109   2.945
 3881TIP3    H111600   6.157   3.180   2.913
 3881TIP3    H211601   6.194   3.104   3.039
 3882TIP3   OH211602   8.210   7.106   4.004
 3882TIP3    H111603   8.285   7.058   3.969
 3882TIP3    H211604   8.170   7.046   4.066
 3883TIP3   OH211605   8.179   4.773   2.172
 3883TIP3    H111606   8.257   4.754   2.119
 3883TIP3    H211607   8.119   4.816   2.111
 3884TIP3   OH211608   5.648   3.479   2.717
 3884TIP3    H111609   5.733   3.469   2.760
 3884TIP3    H211610   5.586   3.440   2.779
 3885TIP3   OH211611   2.950   7.502   5.709
 3885TIP3    H111612   2.889   7.564   5.747
 3885TIP3    H211613   3.036   7.542   5.721
 3886TIP3   OH211614   8.135   1.476   4.746
 3886TIP3    H111615   8.151   1.399   4.691
 3886TIP3    H211616   8.063   1.521   4.703
 3887TIP3   OH211617   3.034   0.755   5.991
 3887TIP3    H111618   2.945   0.729   6.015
 3887TIP3    H211619   3.077   0.773   6.075
 3888TIP3   OH211620   1.815   6.397   0.042
 3888TIP3    H111621   1.813   6.335   0.115
 3888TIP3    H211622   1.856   6.349  -0.030
 3889TIP3   OH211623   0.247   1.493   0.717
 3889TIP3    H111624   0.186   1.431   0.678
 3889TIP3    H211625   0.239   1.572   0.663
 3890TIP3   OH211626   8.291   7.348   2.182
 3890TIP3    H111627   8.221   7.284   2.198
 3890TIP3    H211628   8.317   7.332   2.091
 3891TIP3   OH211629   1.543   7.596   5.306
 3891TIP3    H111630   1.605   7.523   5.302
 3891TIP3    H211631   1.589   7.669   5.264
 3892TIP3   OH211632   3.292   4.320   3.773
 3892TIP3    H111633   3.382   4.347   3.791
 3892TIP3    H211634   3.263   4.379   3.703
 3893TIP3   OH211635   7.533   1.476   0.710
 3893TIP3    H111636   7.479   1.504   0.636
 3893TIP3    H211637   7.519   1.543   0.777
 3894TIP3   OH211638   1.392   7.199   3.403
 3894TIP3    H111639   1.395   7.116   3.355
 3894TIP3    H211640   1.346   7.179   3.484
 3895TIP3   OH211641   0.506   4.139   2.222
 3895TIP3    H111642   0.481   4.074   2.156
 3895TIP3    H211643   0.592   4.170   2.194
 3896TIP3   OH211644   0.451   7.307   4.879
 3896TIP3    H111645   0.469   7.336   4.790
 3896TIP3    H211646   0.464   7.385   4.933
 3897TIP3   OH211647   2.796   2.599   5.701
 3897TIP3    H111648   2.710   2.635   5.722
 3897TIP3    H211649   2.844   2.602   5.784
 3898TIP3   OH211650   4.548   4.997   4.428
 3898TIP3    H111651   4.642   5.010   4.415
 3898TIP3    H211652   4.540   4.906   4.457
 3899TIP3   OH211653   0.284   4.461   4.683
 3899TIP3    H111654   0.368   4.496   4.653
 3899TIP3    H211655   0.308   4.391   4.743
 3900TIP3   OH211656   5.602   0.957   3.556
 3900TIP3    H111657   5.597   1.042   3.512
 3900TIP3    H211658   5.696   0.943   3.569
 3901TIP3   OH211659   3.645   4.583   1.328
 3901TIP3    H111660   3.589   4.659   1.316
 3901TIP3    H211661   3.587   4.515   1.362
 3902TIP3   OH211662   7.628   0.456   0.791
 3902TIP3    H111663   7.598   0.520   0.856
 3902TIP3    H211664   7.702   0.500   0.748
 3903TIP3   OH211665   7.340   3.581   4.300
 3903TIP3    H111666   7.304   3.543   4.220
 3903TIP3    H211667   7.433   3.561   4.296
 3904TIP3   OH211668   0.324   3.361   0.526
 3904TIP3    H111669   0.280   3.365   0.441
 3904TIP3    H211670   0.301   3.275   0.561
 3905TIP3   OH211671   5.786   5.177   6.260
 3905TIP3    H111672   5.854   5.124   6.217
 3905TIP3    H211673   5.774   5.252   6.202
 3906TIP3   OH211674   0.385   6.348   1.776
 3906TIP3    H111675   0.440   6.279   1.738
 3906TIP3    H211676   0.332   6.303   1.841
 3907TIP3   OH211677   2.265   2.103   6.735
 3907TIP3    H111678   2.352   2.109   6.697
 3907TIP3    H211679   2.270   2.028   6.795
 3908TIP3   OH211680   0.841   1.318   6.711
 3908TIP3    H111681   0.858   1.240   6.658
 3908TIP3    H211682   0.928   1.353   6.731
 3909TIP3   OH211683   5.143   4.535   6.351
 3909TIP3    H111684   5.170   4.604   6.412
 3909TIP3    H211685   5.050   4.551   6.336
 3910TIP3   OH211686   0.780   1.071   4.722
 3910TIP3    H111687   0.744   1.000   4.669
 3910TIP3    H211688   0.705   1.104   4.771
 3911TIP3   OH211689   4.444   3.200   4.023
 3911TIP3    H111690   4.381   3.202   3.951
 3911TIP3    H211691   4.408   3.261   4.087
 3912TIP3   OH211692   1.475   5.205   6.504
 3912TIP3    H111693   1.560   5.209   6.547
 3912TIP3    H211694   1.486   5.257   6.425
 3913TIP3   OH211695   4.399   4.642   1.993
 3913TIP3    H111696   4.332   4.696   1.951
 3913TIP3    H211697   4.463   4.704   2.026
 3914TIP3   OH211698   2.279   6.444   0.087
 3914TIP3    H111699   2.225   6.504   0.139
 3914TIP3    H211700   2.362   6.491   0.075
 3915TIP3   OH211701   0.090   2.274   2.137
 3915TIP3    H111702   0.085   2.322   2.219
 3915TIP3    H211703   0.004   2.286   2.097
 3916TIP3   OH211704   5.754   6.706   6.278
 3916TIP3    H111705   5.750   6.794   6.317
 3916TIP3    H211706   5.663   6.685   6.257
 3917TIP3   OH211707   6.574   6.151   5.637
 3917TIP3    H111708   6.491   6.160   5.684
 3917TIP3    H211709   6.637   6.198   5.691
 3918TIP3   OH211710   8.037   0.939   2.752
 3918TIP3    H111711   8.073   0.949   2.840
 3918TIP3    H211712   7.947   0.971   2.758
 3919TIP3   OH211713   3.036   2.949   4.508
 3919TIP3    H111714   3.063   3.012   4.440
 3919TIP3    H211715   3.114   2.895   4.522
 3920TIP3   OH211716   1.058   4.377   0.373
 3920TIP3    H111717   1.072   4.471   0.368
 3920TIP3    H211718   1.133   4.339   0.328
 3921TIP3   OH211719   3.827   2.814   6.092
 3921TIP3    H111720   3.915   2.778   6.104
 3921TIP3    H211721   3.827   2.848   6.003
 3922TIP3   OH211722   7.035   0.205   4.435
 3922TIP3    H111723   7.013   0.147   4.509
 3922TIP3    H211724   7.014   0.293   4.467
 3923TIP3   OH211725   4.021   3.863   2.720
 3923TIP3    H111726   4.048   3.881   2.809
 3923TIP3    H211727   3.965   3.938   2.696
 3924TIP3   OH211728   8.134   7.096   4.856
 3924TIP3    H111729   8.071   7.042   4.904
 3924TIP3    H211730   8.218   7.054   4.871
 3925TIP3   OH211731   3.264   4.566   0.855
 3925TIP3    H111732   3.289   4.496   0.915
 3925TIP3    H211733   3.343   4.621   0.849
 3926TIP3   OH211734   0.766   7.420   5.644
 3926TIP3    H111735   0.764   7.330   5.611
 3926TIP3    H211736   0.799   7.471   5.570
 3927TIP3   OH211737   5.228   5.611   0.046
 3927TIP3    H111738   5.209   5.681  -0.016
 3927TIP3    H211739   5.150   5.555   0.043
 3928TIP3   OH211740   5.737   2.658   5.997
 3928TIP3    H111741   5.670   2.706   6.047
 3928TIP3    H211742   5.710   2.566   6.003
 3929TIP3   OH211743   6.216   7.545   5.115
 3929TIP3    H111744   6.205   7.451   5.129
 3929TIP3    H211745   6.277   7.572   5.184
 3930TIP3   OH211746   2.866   2.969   3.872
 3930TIP3    H111747   2.803   2.991   3.803
 3930TIP3    H211748   2.940   2.930   3.826
 3931TIP3   OH211749   5.477   5.477   1.554
 3931TIP3    H111750   5.465   5.513   1.467
 3931TIP3    H211751   5.392   5.488   1.597
 3932TIP3   OH211752   4.884   4.816   3.947
 3932TIP3    H111753   4.952   4.749   3.937
 3932TIP3    H211754   4.804   4.774   3.915
 3933TIP3   OH211755   1.454   3.103   3.369
 3933TIP3    H111756   1.407   3.181   3.399
 3933TIP3    H211757   1.535   3.137   3.330
 3934TIP3   OH211758   1.139   0.736   6.343
 3934TIP3    H111759   1.080   0.730   6.418
 3934TIP3    H211760   1.089   0.701   6.269
 3935TIP3   OH211761   7.640   2.668   4.359
 3935TIP3    H111762   7.689   2.719   4.295
 3935TIP3    H211763   7.548   2.689   4.341
 3936TIP3   OH211764   4.297   0.299   4.505
 3936TIP3    H111765   4.379   0.290   4.457
 3936TIP3    H211766   4.307   0.381   4.554
 3937TIP3   OH211767   5.088   7.705   5.515
 3937TIP3    H111768   5.178   7.732   5.529
 3937TIP3    H211769   5.081   7.690   5.421
 3938TIP3   OH211770   1.252   1.853   2.149
 3938TIP3    H111771   1.340   1.827   2.122
 3938TIP3    H211772   1.200   1.848   2.070
 3939TIP3   OH211773   7.389   0.962   5.164
 3939TIP3    H111774   7.331   1.008   5.224
 3939TIP3    H211775   7.361   0.991   5.077
 3940TIP3   OH211776   3.660   3.931   2.235
 3940TIP3    H111777   3.698   3.923   2.322
 3940TIP3    H211778   3.577   3.885   2.241
 3941TIP3   OH211779   5.247   7.219   0.515
 3941TIP3    H111780   5.338   7.209   0.487
 3941TIP3    H211781   5.228   7.139   0.564
 3942TIP3   OH211782   5.491   3.827   5.301
 3942TIP3    H111783   5.542   3.819   5.221
 3942TIP3    H211784   5.549   3.794   5.370
 3943TIP3   OH211785   6.592   2.386   2.876
 3943TIP3    H111786   6.585   2.481   2.880
 3943TIP3    H211787   6.501   2.355   2.873
 3944TIP3   OH211788   2.602   4.306   6.540
 3944TIP3    H111789   2.652   4.253   6.603
 3944TIP3    H211790   2.669   4.355   6.491
 3945TIP3   OH211791   1.537   0.628   5.499
 3945TIP3    H111792   1.482   0.567   5.450
 3945TIP3    H211793   1.626   0.606   5.473
 3946TIP3   OH211794   3.055   4.646   3.145
 3946TIP3    H111795   2.964   4.637   3.173
 3946TIP3    H211796   3.050   4.667   3.052
 3947TIP3   OH211797   5.772   0.710   0.685
 3947TIP3    H111798   5.808   0.752   0.607
 3947TIP3    H211799   5.677   0.716   0.675
 3948TIP3   OH211800   2.586   3.666   1.244
 3948TIP3    H111801   2.509   3.620   1.278
 3948TIP3    H211802   2.552   3.723   1.176
 3949TIP3   OH211803   3.126   4.548   3.929
 3949TIP3    H111804   3.128   4.498   3.848
 3949TIP3    H211805   3.034   4.548   3.956
 3950TIP3   OH211806   1.010   1.241   0.317
 3950TIP3    H111807   0.993   1.183   0.391
 3950TIP3    H211808   1.048   1.185   0.250
 3951TIP3   OH211809   8.240   1.113   1.100
 3951TIP3    H111810   8.181   1.152   1.035
 3951TIP3    H211811   8.236   1.019   1.082
 3952TIP3   OH211812   8.127   7.452   0.315
 3952TIP3    H111813   8.182   7.530   0.309
 3952TIP3    H211814   8.038   7.486   0.307
 3953TIP3   OH211815   7.924   0.795   6.175
 3953TIP3    H111816   7.846   0.845   6.197
 3953TIP3    H211817   7.930   0.728   6.243
 3954TIP3   OH211818   0.269   7.268   0.431
 3954TIP3    H111819   0.247   7.183   0.470
 3954TIP3    H211820   0.192   7.323   0.446
 3955TIP3   OH211821   5.548   1.251   1.520
 3955TIP3    H111822   5.492   1.190   1.569
 3955TIP3    H211823   5.571   1.203   1.441
 3956TIP3   OH211824   2.824   1.179   4.318
 3956TIP3    H111825   2.755   1.238   4.287
 3956TIP3    H211826   2.778   1.119   4.377
 3957TIP3   OH211827   7.683   0.645   0.364
 3957TIP3    H111828   7.702   0.655   0.270
 3957TIP3    H211829   7.747   0.582   0.395
 3958TIP3   OH211830   1.419   3.694   1.091
 3958TIP3    H111831   1.484   3.625   1.102
 3958TIP3    H211832   1.451   3.766   1.146
 3959TIP3   OH211833   6.761   0.824   0.265
 3959TIP3    H111834   6.695   0.842   0.198
 3959TIP3    H211835   6.788   0.911   0.296
 3960TIP3   OH211836   8.095   5.472   5.549
 3960TIP3    H111837   8.171   5.479   5.606
 3960TIP3    H211838   8.130   5.452   5.463
 3961TIP3   OH211839   7.933   5.139   4.456
 3961TIP3    H111840   7.957   5.211   4.515
 3961TIP3    H211841   8.000   5.072   4.472
 3962TIP3   OH211842   7.312   5.976   2.112
 3962TIP3    H111843   7.325   6.034   2.036
 3962TIP3    H211844   7.218   5.958   2.112
 3963TIP3   OH211845   2.078   7.596   1.091
 3963TIP3    H111846   2.160   7.548   1.103
 3963TIP3    H211847   2.010   7.528   1.097
 3964TIP3   OH211848   7.426   5.648   6.026
 3964TIP3    H111849   7.402   5.668   5.936
 3964TIP3    H211850   7.487   5.717   6.051
 3965TIP3   OH211851   8.203   0.374   5.526
 3965TIP3    H111852   8.172   0.463   5.539
 3965TIP3    H211853   8.124   0.323   5.513
 3966TIP3   OH211854   5.575   6.715   3.429
 3966TIP3    H111855   5.569   6.620   3.426
 3966TIP3    H211856   5.485   6.745   3.419
 3967TIP3   OH211857   7.238   2.694   3.950
 3967TIP3    H111858   7.297   2.745   4.005
 3967TIP3    H211859   7.212   2.755   3.881
 3968TIP3   OH211860   1.283   0.815   1.003
 3968TIP3    H111861   1.217   0.793   1.069
 3968TIP3    H211862   1.288   0.911   1.005
 3969TIP3   OH211863   7.586   4.731   4.125
 3969TIP3    H111864   7.527   4.791   4.171
 3969TIP3    H211865   7.673   4.755   4.155
 3970TIP3   OH211866   2.817   4.418   6.394
 3970TIP3    H111867   2.869   4.481   6.444
 3970TIP3    H211868   2.874   4.341   6.386
 3971TIP3   OH211869   4.484   0.672   2.422
 3971TIP3    H111870   4.531   0.742   2.467
 3971TIP3    H211871   4.474   0.603   2.488
 3972TIP3   OH211872   2.026   0.257   5.710
 3972TIP3    H111873   1.972   0.335   5.718
 3972TIP3    H211874   1.972   0.187   5.747
 3973TIP3   OH211875   1.236   3.117   4.673
 3973TIP3    H111876   1.302   3.160   4.727
 3973TIP3    H211877   1.222   3.032   4.714
 3974TIP3   OH211878   2.153   0.536   5.579
 3974TIP3    H111879   2.196   0.451   5.570
 3974TIP3    H211880   2.189   0.573   5.659
 3975TIP3   OH211881   4.998   7.286   3.134
 3975TIP3    H111882   4.974   7.377   3.156
 3975TIP3    H211883   5.065   7.263   3.199
 3976TIP3   OH211884   2.955   4.677   4.307
 3976TIP3    H111885   2.926   4.622   4.380
 3976TIP3    H211886   2.890   4.661   4.238
 3977TIP3   OH211887   3.612   6.595   6.711
 3977TIP3    H111888   3.706   6.575   6.708
 3977TIP3    H211889   3.591   6.596   6.804
 3978TIP3   OH211890   5.242   1.568   1.891
 3978TIP3    H111891   5.321   1.515   1.895
 3978TIP3    H211892   5.193   1.532   1.818
 3979TIP3   OH211893   7.544   1.992   3.037
 3979TIP3    H111894   7.517   1.949   3.118
 3979TIP3    H211895   7.634   1.961   3.023
 3980TIP3   OH211896   3.967   3.409   1.721
 3980TIP3    H111897   4.022   3.392   1.798
 3980TIP3    H211898   3.882   3.435   1.757
 3981TIP3   OH211899   1.584   3.440   1.114
 3981TIP3    H111900   1.582   3.446   1.019
 3981TIP3    H211901   1.503   3.395   1.137
 3982TIP3   OH211902   2.107   1.422   3.028
 3982TIP3    H111903   2.128   1.515   3.021
 3982TIP3    H211904   2.030   1.419   3.086
 3983TIP3   OH211905   4.880   3.046   0.767
 3983TIP3    H111906   4.822   3.000   0.827
 3983TIP3    H211907   4.866   3.004   0.682
 3984TIP3   OH211908   5.006   3.208   4.896
 3984TIP3    H111909   5.067   3.178   4.964
 3984TIP3    H211910   4.958   3.128   4.871
 3985TIP3   OH211911   0.109   1.275   0.533
 3985TIP3    H111912   0.183   1.294   0.475
 3985TIP3    H211913   0.045   1.232   0.477
 3986TIP3   OH211914   3.872   6.087   0.541
 3986TIP3    H111915   3.947   6.028   0.548
 3986TIP3    H211916   3.822   6.073   0.621
 3987TIP3   OH211917   6.078   1.974   4.584
 3987TIP3    H111918   6.073   2.003   4.493
 3987TIP3    H211919   6.018   2.032   4.631
 3988TIP3   OH211920   4.829   3.617   2.887
 3988TIP3    H111921   4.793   3.704   2.904
 3988TIP3    H211922   4.771   3.557   2.934
 3989TIP3   OH211923   7.283   6.832   3.231
 3989TIP3    H111924   7.373   6.859   3.250
 3989TIP3    H211925   7.280   6.740   3.255
 3990TIP3   OH211926   4.305   7.823   0.694
 3990TIP3    H111927   4.215   7.846   0.669
 3990TIP3    H211928   4.358   7.894   0.658
 3991TIP3   OH211929   6.511   6.696   4.469
 3991TIP3    H111930   6.574   6.641   4.515
 3991TIP3    H211931   6.552   6.712   4.384
 3992TIP3   OH211932   5.265   5.161   3.802
 3992TIP3    H111933   5.204   5.091   3.826
 3992TIP3    H211934   5.283   5.206   3.884
 3993TIP3   OH211935   0.341   6.073   1.532
 3993TIP3    H111936   0.396   6.097   1.458
 3993TIP3    H211937   0.394   6.095   1.609
 3994TIP3   OH211938   4.196   1.209   0.995
 3994TIP3    H111939   4.220   1.222   0.904
 3994TIP3    H211940   4.136   1.135   0.994
 3995TIP3   OH211941   6.779   0.351   2.881
 3995TIP3    H111942   6.723   0.296   2.937
 3995TIP3    H211943   6.847   0.383   2.940
 3996TIP3   OH211944   2.464   2.207   2.892
 3996TIP3    H111945   2.492   2.245   2.975
 3996TIP3    H211946   2.444   2.116   2.913
 3997TIP3   OH211947   7.492   4.744   5.242
 3997TIP3    H111948   7.454   4.821   5.199
 3997TIP3    H211949   7.582   4.770   5.262
 3998TIP3   OH211950   3.399   1.314   5.864
 3998TIP3    H111951   3.437   1.391   5.907
 3998TIP3    H211952   3.443   1.310   5.779
 3999TIP3   OH211953   7.593   1.157   0.233
 3999TIP3    H111954   7.621   1.112   0.153
 3999TIP3    H211955   7.511   1.200   0.209
 4000TIP3   OH211956   5.734   3.446   6.665
 4000TIP3    H111957   5.668   3.434   6.596
 4000TIP3    H211958   5.701   3.394   6.738
 4001TIP3   OH211959   3.281   4.681   0.183
 4001TIP3    H111960   3.216   4.663   0.251
 4001TIP3    H211961   3.238   4.743   0.124
 4002TIP3   OH211962   5.111   3.092   6.012
 4002TIP3    H111963   5.098   3.187   6.010
 4002TIP3    H211964   5.113   3.067   5.919
 4003TIP3   OH211965   3.226   7.369   0.412
 4003TIP3    H111966   3.169   7.391   0.486
 4003TIP3    H211967   3.225   7.273   0.409
 4004TIP3   OH211968   6.372   4.681   5.140
 4004TIP3    H111969   6.337   4.625   5.071
 4004TIP3    H211970   6.388   4.765   5.096
 4005TIP3   OH211971   3.107   1.475   1.807
 4005TIP3    H111972   3.113   1.468   1.712
 4005TIP3    H211973   3.109   1.569   1.824
 4006TIP3   OH211974   2.541   4.389   3.491
 4006TIP3    H111975   2.508   4.358   3.407
 4006TIP3    H211976   2.463   4.412   3.541
 4007TIP3   OH211977   4.569   7.516   1.719
 4007TIP3    H111978   4.521   7.598   1.706
 4007TIP3    H211979   4.506   7.447   1.699
 4008TIP3   OH211980   7.049   7.148   3.723
 4008TIP3    H111981   7.051   7.055   3.700
 4008TIP3    H211982   7.137   7.180   3.702
 4009TIP3   OH211983   6.586   1.045   5.511
 4009TIP3    H111984   6.599   0.964   5.462
 4009TIP3    H211985   6.577   1.017   5.602
 4010TIP3   OH211986   4.430   3.319   0.984
 4010TIP3    H111987   4.398   3.350   1.068
 4010TIP3    H211988   4.355   3.275   0.944
 4011TIP3   OH211989   1.923   4.663   1.517
 4011TIP3    H111990   1.900   4.754   1.499
 4011TIP3    H211991   1.993   4.669   1.583
 4012TIP3   OH211992   4.560   2.213   4.366
 4012TIP3    H111993   4.611   2.248   4.439
 4012TIP3    H211994   4.476   2.189   4.405
 4013TIP3   OH211995   3.055   3.093   6.061
 4013TIP3    H111996   3.120   3.028   6.089
 4013TIP3    H211997   3.047   3.153   6.135
 4014TIP3   OH211998   4.718   6.069   4.751
 4014TIP3    H111999   4.706   6.100   4.841
 4014TIP3    H212000   4.663   6.127   4.699
 4015TIP3   OH212001   7.641   1.418   3.724
 4015TIP3    H112002   7.556   1.458   3.708
 4015TIP3    H212003   7.631   1.327   3.696
 4016TIP3   OH212004   3.162   7.710   5.815
 4016TIP3    H112005   3.132   7.680   5.901
 4016TIP3    H212006   3.166   7.805   5.822
 4017TIP3   OH212007   4.150   3.139   0.474
 4017TIP3    H112008   4.108   3.053   0.465
 4017TIP3    H212009   4.218   3.125   0.539
 4018TIP3   OH212010   5.125   5.338   6.309
 4018TIP3    H112011   5.143   5.402   6.378
 4018TIP3    H212012   5.154   5.255   6.346
 4019TIP3   OH212013   4.466   2.614   1.123
 4019TIP3    H112014   4.442   2.603   1.031
 4019TIP3    H212015   4.507   2.531   1.147
 4020TIP3   OH212016   4.309   1.361   3.280
 4020TIP3    H112017   4.331   1.271   3.301
 4020TIP3    H212018   4.257   1.355   3.199
 4021TIP3   OH212019   4.275   5.372   0.520
 4021TIP3    H112020   4.293   5.332   0.435
 4021TIP3    H212021   4.186   5.404   0.512
 4022TIP3   OH212022   2.805   7.622   5.465
 4022TIP3    H112023   2.883   7.606   5.518
 4022TIP3    H212024   2.764   7.698   5.507
 4023TIP3   OH212025   3.160   3.043   1.128
 4023TIP3    H112026   3.164   3.041   1.224
 4023TIP3    H212027   3.252   3.048   1.101
 4024TIP3   OH212028   6.703   3.756   1.273
 4024TIP3    H112029   6.635   3.820   1.295
 4024TIP3    H212030   6.783   3.807   1.265
 4025TIP3   OH212031   3.461   7.271   2.693
 4025TIP3    H112032   3.477   7.324   2.771
 4025TIP3    H212033   3.465   7.334   2.621
 4026TIP3   OH212034   0.834   2.370   6.284
 4026TIP3    H112035   0.823   2.300   6.349
 4026TIP3    H212036   0.913   2.416   6.310
 4027TIP3   OH212037   1.144   1.455   3.858
 4027TIP3    H112038   1.169   1.515   3.788
 4027TIP3    H212039   1.158   1.505   3.939
 4028TIP3   OH212040   7.674   2.784   2.210
 4028TIP3    H112041   7.730   2.856   2.182
 4028TIP3    H212042   7.612   2.824   2.271
 4029TIP3   OH212043   7.582   0.187   4.201
 4029TIP3    H112044   7.536   0.130   4.264
 4029TIP3    H212045   7.574   0.141   4.117
 4030TIP3   OH212046   3.031   1.738   3.273
 4030TIP3    H112047   3.020   1.645   3.290
 4030TIP3    H212048   3.083   1.743   3.193
 4031TIP3   OH212049   7.754   6.718   5.209
 4031TIP3    H112050   7.720   6.683   5.127
 4031TIP3    H212051   7.708   6.669   5.278
 4032TIP3   OH212052   1.904   5.940   1.275
 4032TIP3    H112053   1.906   5.994   1.354
 4032TIP3    H212054   1.993   5.945   1.240
 4033TIP3   OH212055   1.676   4.154   5.666
 4033TIP3    H112056   1.759   4.149   5.713
 4033TIP3    H212057   1.610   4.136   5.732
 4034TIP3   OH212058   6.000   4.502   4.074
 4034TIP3    H112059   5.932   4.466   4.130
 4034TIP3    H212060   5.971   4.592   4.056
 4035TIP3   OH212061   4.615   5.287   1.613
 4035TIP3    H112062   4.659   5.371   1.601
 4035TIP3    H212063   4.546   5.286   1.547
 4036TIP3   OH212064   6.484   5.660   1.091
 4036TIP3    H112065   6.463   5.629   1.003
 4036TIP3    H212066   6.550   5.599   1.124
 4037TIP3   OH212067   1.886   7.603   2.881
 4037TIP3    H112068   1.795   7.599   2.911
 4037TIP3    H212069   1.939   7.592   2.960
 4038TIP3   OH212070   6.775   2.632   3.464
 4038TIP3    H112071   6.783   2.727   3.459
 4038TIP3    H212072   6.858   2.603   3.503
 4039TIP3   OH212073   6.991   6.312   0.843
 4039TIP3    H112074   6.973   6.321   0.936
 4039TIP3    H212075   6.949   6.230   0.818
 4040TIP3   OH212076   3.916   4.196   4.266
 4040TIP3    H112077   3.939   4.279   4.224
 4040TIP3    H212078   3.893   4.138   4.194
 4041TIP3   OH212079   3.981   1.765   6.329
 4041TIP3    H112080   3.980   1.670   6.344
 4041TIP3    H212081   4.026   1.800   6.406
 4042TIP3   OH212082   7.626   2.059   4.448
 4042TIP3    H112083   7.683   1.997   4.493
 4042TIP3    H212084   7.686   2.113   4.397
 4043TIP3   OH212085   4.758   2.762   0.309
 4043TIP3    H112086   4.680   2.725   0.350
 4043TIP3    H212087   4.807   2.686   0.278
 4044TIP3   OH212088   5.262   0.028   6.653
 4044TIP3    H112089   5.168   0.043   6.653
 4044TIP3    H212090   5.287   0.032   6.746
 4045TIP3   OH212091   1.376   3.678   0.696
 4045TIP3    H112092   1.413   3.709   0.613
 4045TIP3    H212093   1.370   3.758   0.750
 4046TIP3   OH212094   2.349   0.663   3.887
 4046TIP3    H112095   2.368   0.754   3.911
 4046TIP3    H212096   2.434   0.624   3.872
 4047TIP3   OH212097   5.094   5.842   5.120
 4047TIP3    H112098   5.051   5.879   5.043
 4047TIP3    H212099   5.144   5.768   5.086
 4048TIP3   OH212100   1.022   0.945   3.752
 4048TIP3    H112101   1.051   1.036   3.740
 4048TIP3    H212102   0.946   0.952   3.810
 4049TIP3   OH212103   1.154   7.289   5.443
 4049TIP3    H112104   1.202   7.273   5.524
 4049TIP3    H212105   1.209   7.351   5.395
 4050TIP3   OH212106   8.094   7.199   2.886
 4050TIP3    H112107   8.159   7.142   2.928
 4050TIP3    H212108   8.102   7.283   2.933
 4051TIP3   OH212109   8.192   2.066   1.959
 4051TIP3    H112110   8.255   2.126   1.918
 4051TIP3    H212111   8.218   1.979   1.927
 4052TIP3   OH212112   3.162   2.836   5.959
 4052TIP3    H112113   3.206   2.751   5.949
 4052TIP3    H212114   3.073   2.814   5.986
 4053TIP3   OH212115   5.515   5.884   2.108
 4053TIP3    H112116   5.543   5.976   2.117
 4053TIP3    H212117   5.588   5.833   2.143
 4054TIP3   OH212118   7.750   3.421   0.894
 4054TIP3    H112119   7.746   3.326   0.906
 4054TIP3    H212120   7.835   3.447   0.929
 4055TIP3   OH212121   6.781   0.838   5.448
 4055TIP3    H112122   6.748   0.751   5.469
 4055TIP3    H212123   6.859   0.821   5.394
 4056TIP3   OH212124   2.588   5.931   3.768
 4056TIP3    H112125   2.569   6.022   3.790
 4056TIP3    H212126   2.505   5.896   3.738
 4057TIP3   OH212127   7.345   3.632   3.669
 4057TIP3    H112128   7.391   3.669   3.593
 4057TIP3    H212129   7.325   3.542   3.643
 4058TIP3   OH212130   0.131   2.884   5.157
 4058TIP3    H112131   0.118   2.960   5.100
 4058TIP3    H212132   0.044   2.861   5.188
 4059TIP3   OH212133   2.176   4.047   6.753
 4059TIP3    H112134   2.264   4.010   6.744
 4059TIP3    H212135   2.142   4.048   6.663
 4060TIP3   OH212136   4.060   0.958   3.374
 4060TIP3    H112137   4.118   1.015   3.424
 4060TIP3    H212138   4.000   1.018   3.330
 4061TIP3   OH212139   2.387   1.050   0.804
 4061TIP3    H112140   2.387   1.016   0.893
 4061TIP3    H212141   2.357   0.977   0.750
 4062TIP3   OH212142   4.815   4.261   4.898
 4062TIP3    H112143   4.824   4.182   4.950
 4062TIP3    H212144   4.870   4.325   4.942
 4063TIP3   OH212145   1.032   1.872   1.955
 4063TIP3    H112146   1.003   1.893   1.866
 4063TIP3    H212147   0.956   1.893   2.010
 4064TIP3   OH212148   3.584   7.614   3.540
 4064TIP3    H112149   3.656   7.555   3.515
 4064TIP3    H212150   3.561   7.587   3.629
 4065TIP3   OH212151   7.076   2.361   4.815
 4065TIP3    H112152   7.083   2.275   4.774
 4065TIP3    H212153   7.112   2.349   4.903
 4066TIP3   OH212154   4.064   5.479   3.077
 4066TIP3    H112155   4.035   5.569   3.062
 4066TIP3    H212156   4.043   5.462   3.168
 4067TIP3   OH212157   4.863   5.502   1.921
 4067TIP3    H112158   4.768   5.508   1.913
 4067TIP3    H212159   4.893   5.593   1.926
 4068TIP3   OH212160   4.582   5.229   0.283
 4068TIP3    H112161   4.595   5.184   0.199
 4068TIP3    H212162   4.487   5.234   0.293
 4069TIP3   OH212163   4.385   5.573   4.871
 4069TIP3    H112164   4.349   5.547   4.786
 4069TIP3    H212165   4.333   5.650   4.896
 4070TIP3   OH212166   1.807   0.580   6.605
 4070TIP3    H112167   1.837   0.515   6.670
 4070TIP3    H212168   1.712   0.571   6.604
 4071TIP3   OH212169   3.268   3.795   0.230
 4071TIP3    H112170   3.251   3.748   0.312
 4071TIP3    H212171   3.275   3.887   0.256
 4072TIP3   OH212172   6.000   0.705   2.391
 4072TIP3    H112173   6.030   0.773   2.451
 4072TIP3    H212174   5.919   0.672   2.431
 4073TIP3   OH212175   5.273   4.723   5.983
 4073TIP3    H112176   5.286   4.654   6.047
 4073TIP3    H212177   5.255   4.801   6.036
 4074TIP3   OH212178   5.375   1.324   2.720
 4074TIP3    H112179   5.381   1.400   2.777
 4074TIP3    H212180   5.402   1.355   2.634
 4075TIP3   OH212181   1.601   5.937   1.522
 4075TIP3    H112182   1.511   5.968   1.534
 4075TIP3    H212183   1.642   5.949   1.607
 4076TIP3   OH212184   7.949   7.455   4.018
 4076TIP3    H112185   8.042   7.475   4.029
 4076TIP3    H212186   7.937   7.371   4.061
 4077TIP3   OH212187   3.951   3.309   5.283
 4077TIP3    H112188   3.951   3.293   5.378
 4077TIP3    H212189   3.860   3.295   5.256
 4078TIP3   OH212190   6.485   4.543   6.529
 4078TIP3    H112191   6.571   4.558   6.568
 4078TIP3    H212192   6.503   4.529   6.436
 4079TIP3   OH212193   7.195   0.863   0.672
 4079TIP3    H112194   7.105   0.834   0.683
 4079TIP3    H212195   7.190   0.934   0.608
 4080TIP3   OH212196   4.221   4.210   6.074
 4080TIP3    H112197   4.189   4.281   6.129
 4080TIP3    H212198   4.142   4.160   6.051
 4081TIP3   OH212199   1.011   0.091   5.158
 4081TIP3    H112200   1.030   0.037   5.235
 4081TIP3    H212201   1.063   0.170   5.169
 4082TIP3   OH212202   5.228   5.911   0.490
 4082TIP3    H112203   5.177   5.987   0.460
 4082TIP3    H212204   5.299   5.904   0.426
 4083TIP3   OH212205   7.219   0.200   0.572
 4083TIP3    H112206   7.247   0.270   0.630
 4083TIP3    H212207   7.192   0.245   0.492
 4084TIP3   OH212208   1.978   2.864   5.431
 4084TIP3    H112209   1.986   2.959   5.437
 4084TIP3    H212210   2.008   2.843   5.343
 4085TIP3   OH212211   1.301   1.606   4.602
 4085TIP3    H112212   1.255   1.690   4.609
 4085TIP3    H212213   1.366   1.608   4.672
 4086TIP3   OH212214   3.974   7.708   5.235
 4086TIP3    H112215   3.914   7.763   5.184
 4086TIP3    H212216   4.045   7.687   5.175
 4087TIP3   OH212217   2.476   4.658   4.960
 4087TIP3    H112218   2.516   4.579   4.923
 4087TIP3    H212219   2.435   4.629   5.041
 4088TIP3   OH212220   7.389   7.739   1.191
 4088TIP3    H112221   7.424   7.819   1.231
 4088TIP3    H212222   7.357   7.767   1.106
 4089TIP3   OH212223   3.898   4.619   1.244
 4089TIP3    H112224   3.810   4.590   1.268
 4089TIP3    H212225   3.939   4.542   1.205
 4090TIP3   OH212226   4.486   6.518   5.715
 4090TIP3    H112227   4.569   6.562   5.701
 4090TIP3    H212228   4.509   6.427   5.733
 4091TIP3   OH212229   2.539   2.454   6.646
 4091TIP3    H112230   2.514   2.498   6.728
 4091TIP3    H212231   2.633   2.472   6.638
 4092TIP3   OH212232   0.079   6.286   0.281
 4092TIP3    H112233   0.117   6.234   0.352
 4092TIP3    H212234   0.066   6.224   0.210
 4093TIP3   OH212235   6.426   6.356   0.580
 4093TIP3    H112236   6.465   6.272   0.559
 4093TIP3    H212237   6.496   6.420   0.566
 4094TIP3   OH212238   2.139   3.896   2.405
 4094TIP3    H112239   2.118   3.805   2.383
 4094TIP3    H212240   2.058   3.944   2.386
 4095TIP3   OH212241   1.138   2.945   0.071
 4095TIP3    H112242   1.157   3.037   0.050
 4095TIP3    H212243   1.044   2.937   0.058
 4096TIP3   OH212244   6.196   1.076   5.923
 4096TIP3    H112245   6.139   1.013   5.966
 4096TIP3    H212246   6.186   1.059   5.830
 4097TIP3   OH212247   5.289   3.681   1.744
 4097TIP3    H112248   5.281   3.759   1.799
 4097TIP3    H212249   5.367   3.636   1.776
 4098TIP3   OH212250   3.372   4.412   3.514
 4098TIP3    H112251   3.466   4.428   3.519
 4098TIP3    H212252   3.331   4.499   3.518
 4099TIP3   OH212253   5.679   4.590   4.306
 4099TIP3    H112254   5.608   4.597   4.370
 4099TIP3    H212255   5.657   4.655   4.239
 4100TIP3   OH212256   0.390   3.995   4.298
 4100TIP3    H112257   0.404   3.919   4.243
 4100TIP3    H212258   0.379   4.068   4.236
 4101TIP3   OH212259   1.354   1.314   1.127
 4101TIP3    H112260   1.387   1.321   1.217
 4101TIP3    H212261   1.388   1.392   1.083
 4102TIP3   OH212262   3.478   5.678   4.058
 4102TIP3    H112263   3.418   5.628   4.113
 4102TIP3    H212264   3.422   5.738   4.009
 4103TIP3   OH212265   7.306   2.956   1.227
 4103TIP3    H112266   7.262   2.979   1.145
 4103TIP3    H212267   7.313   3.039   1.274
 4104TIP3   OH212268   3.829   5.121   1.351
 4104TIP3    H112269   3.899   5.178   1.322
 4104TIP3    H212270   3.849   5.036   1.312
 4105TIP3   OH212271   3.366   1.740   6.654
 4105TIP3    H112272   3.283   1.772   6.690
 4105TIP3    H212273   3.359   1.759   6.561
 4106TIP3   OH212274   0.590   5.348   0.646
 4106TIP3    H112275   0.536   5.275   0.679
 4106TIP3    H212276   0.543   5.427   0.674
 4107TIP3   OH212277   6.623   2.952   6.147
 4107TIP3    H112278   6.674   2.906   6.214
 4107TIP3    H212279   6.609   2.887   6.078
 4108TIP3   OH212280   3.477   5.527   2.364
 4108TIP3    H112281   3.418   5.478   2.306
 4108TIP3    H212282   3.552   5.468   2.376
 4109TIP3   OH212283   5.832   3.812   2.401
 4109TIP3    H112284   5.818   3.779   2.489
 4109TIP3    H212285   5.909   3.765   2.369
 4110TIP3   OH212286   6.974   5.158   0.812
 4110TIP3    H112287   7.060   5.116   0.808
 4110TIP3    H212288   6.913   5.086   0.828
 4111TIP3   OH212289   5.653   7.147   4.456
 4111TIP3    H112290   5.685   7.212   4.393
 4111TIP3    H212291   5.592   7.093   4.405
 4112TIP3   OH212292   7.017   2.075   0.890
 4112TIP3    H112293   7.062   2.084   0.806
 4112TIP3    H212294   6.993   2.165   0.914
 4113TIP3   OH212295   4.248   4.135   0.993
 4113TIP3    H112296   4.155   4.134   1.017
 4113TIP3    H212297   4.266   4.226   0.970
 4114TIP3   OH212298   3.052   0.275   1.576
 4114TIP3    H112299   2.976   0.218   1.586
 4114TIP3    H212300   3.056   0.324   1.659
 4115TIP3   OH212301   8.138   3.379   4.004
 4115TIP3    H112302   8.136   3.336   3.919
 4115TIP3    H212303   8.078   3.453   3.995
 4116TIP3   OH212304   3.388   7.808   6.579
 4116TIP3    H112305   3.377   7.867   6.653
 4116TIP3    H212306   3.316   7.745   6.587
 4117TIP3   OH212307   0.220   1.768   1.431
 4117TIP3    H112308   0.250   1.678   1.417
 4117TIP3    H212309   0.257   1.793   1.515
 4118TIP3   OH212310   7.961   1.239   5.892
 4118TIP3    H112311   8.010   1.274   5.817
 4118TIP3    H212312   8.015   1.167   5.924
 4119TIP3   OH212313   0.286   4.985   1.595
 4119TIP3    H112314   0.223   4.913   1.608
 4119TIP3    H212315   0.235   5.053   1.551
 4120TIP3   OH212316   4.148   3.887   2.470
 4120TIP3    H112317   4.091   3.876   2.547
 4120TIP3    H212318   4.228   3.841   2.494
 4121TIP3   OH212319   0.831   0.792   5.811
 4121TIP3    H112320   0.756   0.776   5.753
 4121TIP3    H212321   0.848   0.708   5.852
 4122TIP3   OH212322   5.490   3.448   1.384
 4122TIP3    H112323   5.396   3.437   1.397
 4122TIP3    H212324   5.506   3.411   1.297
 4123TIP3   OH212325   1.131   2.482   3.733
 4123TIP3    H112326   1.118   2.439   3.817
 4123TIP3    H212327   1.224   2.507   3.733
 4124TIP3   OH212328   4.006   2.924   4.748
 4124TIP3    H112329   4.000   2.965   4.662
 4124TIP3    H212330   3.926   2.871   4.754
 4125TIP3   OH212331   4.458   1.264   5.538
 4125TIP3    H112332   4.454   1.284   5.445
 4125TIP3    H212333   4.411   1.336   5.581
 4126TIP3   OH212334   2.586   3.978   2.578
 4126TIP3    H112335   2.512   4.012   2.529
 4126TIP3    H212336   2.572   3.883   2.581
 4127TIP3   OH212337   4.745   6.716   6.427
 4127TIP3    H112338   4.752   6.668   6.510
 4127TIP3    H212339   4.818   6.683   6.374
 4128TIP3   OH212340   4.199   6.610   0.678
 4128TIP3    H112341   4.232   6.699   0.687
 4128TIP3    H212342   4.275   6.558   0.651
 4129TIP3   OH212343   1.098   3.424   2.702
 4129TIP3    H112344   1.003   3.422   2.699
 4129TIP3    H212345   1.121   3.516   2.717
 4130TIP3   OH212346   4.512   0.946   4.225
 4130TIP3    H112347   4.555   0.860   4.230
 4130TIP3    H212348   4.558   0.991   4.154
 4131TIP3   OH212349   6.260   1.333   0.592
 4131TIP3    H112350   6.289   1.423   0.606
 4131TIP3    H212351   6.314   1.302   0.520
 4132TIP3   OH212352   4.121   1.431   3.749
 4132TIP3    H112353   4.037   1.470   3.772
 4132TIP3    H212354   4.151   1.479   3.672
 4133TIP3   OH212355   0.350   4.818   4.665
 4133TIP3    H112356   0.353   4.870   4.746
 4133TIP3    H212357   0.439   4.823   4.630
 4134TIP3   OH212358   2.746   0.546   0.914
 4134TIP3    H112359   2.739   0.460   0.872
 4134TIP3    H212360   2.839   0.565   0.914
 4135TIP3   OH212361   7.575   2.341   0.526
 4135TIP3    H112362   7.572   2.309   0.616
 4135TIP3    H212363   7.639   2.412   0.528
 4136TIP3   OH212364   3.678   1.889   0.071
 4136TIP3    H112365   3.767   1.899   0.106
 4136TIP3    H212366   3.682   1.810   0.017
 4137TIP3   OH212367   1.475   4.039   0.111
 4137TIP3    H112368   1.505   4.093   0.039
 4137TIP3    H212369   1.412   3.978   0.072
 4138TIP3   OH212370   0.011   0.320   2.516
 4138TIP3    H112371  -0.042   0.253   2.472
 4138TIP3    H212372   0.085   0.333   2.457
 4139TIP3   OH212373   3.145   3.976   2.596
 4139TIP3    H112374   3.087   4.021   2.657
 4139TIP3    H212375   3.186   4.047   2.546
 4140TIP3   OH212376   6.919   7.334   0.229
 4140TIP3    H112377   6.869   7.315   0.308
 4140TIP3    H212378   6.886   7.271   0.164
 4141TIP3   OH212379   7.802   0.457   3.477
 4141TIP3    H112380   7.761   0.389   3.531
 4141TIP3    H212381   7.890   0.466   3.513
 4142TIP3   OH212382   2.572   0.282   6.477
 4142TIP3    H112383   2.657   0.300   6.517
 4142TIP3    H212384   2.565   0.186   6.477
 4143TIP3   OH212385   7.299   3.519   6.516
 4143TIP3    H112386   7.285   3.486   6.605
 4143TIP3    H212387   7.297   3.615   6.526
 4144TIP3   OH212388   8.019   3.122   3.132
 4144TIP3    H112389   7.984   3.088   3.214
 4144TIP3    H212390   7.972   3.075   3.063
 4145TIP3   OH212391   1.497   3.257   4.258
 4145TIP3    H112392   1.442   3.324   4.218
 4145TIP3    H212393   1.557   3.231   4.188
 4146TIP3   OH212394   0.348   1.900   0.278
 4146TIP3    H112395   0.390   1.844   0.213
 4146TIP3    H212396   0.416   1.962   0.304
 4147TIP3   OH212397   6.773   0.873   3.874
 4147TIP3    H112398   6.745   0.811   3.807
 4147TIP3    H212399   6.691   0.910   3.908
 4148TIP3   OH212400   2.491   4.911   5.923
 4148TIP3    H112401   2.427   4.892   5.991
 4148TIP3    H212402   2.441   4.909   5.842
 4149TIP3   OH212403   2.951   6.871   6.617
 4149TIP3    H112404   2.979   6.785   6.586
 4149TIP3    H212405   2.896   6.852   6.693
 4150TIP3   OH212406   6.609   1.110   5.992
 4150TIP3    H112407   6.660   1.185   5.961
 4150TIP3    H212408   6.675   1.052   6.030
 4151TIP3   OH212409   0.635   5.782   6.503
 4151TIP3    H112410   0.583   5.835   6.564
 4151TIP3    H212411   0.635   5.831   6.422
 4152TIP3   OH212412   2.113   0.901   5.427
 4152TIP3    H112413   2.031   0.864   5.459
 4152TIP3    H212414   2.106   0.897   5.331
 4153TIP3   OH212415   7.969   0.665   0.272
 4153TIP3    H112416   7.996   0.575   0.294
 4153TIP3    H212417   8.051   0.715   0.276
 4154TIP3   OH212418   4.961   6.444   3.671
 4154TIP3    H112419   4.962   6.379   3.742
 4154TIP3    H212420   4.965   6.528   3.716
 4155TIP3   OH212421   3.349   2.613   0.295
 4155TIP3    H112422   3.438   2.579   0.287
 4155TIP3    H212423   3.358   2.707   0.281
 4156TIP3   OH212424   2.575   1.901   3.982
 4156TIP3    H112425   2.578   1.942   3.896
 4156TIP3    H212426   2.579   1.807   3.965
 4157TIP3   OH212427   3.517   4.791   0.362
 4157TIP3    H112428   3.482   4.766   0.276
 4157TIP3    H212429   3.601   4.831   0.343
 4158TIP3   OH212430   0.685   0.695   1.777
 4158TIP3    H112431   0.729   0.754   1.716
 4158TIP3    H212432   0.755   0.668   1.838
 4159TIP3   OH212433   5.957   1.425   3.655
 4159TIP3    H112434   5.994   1.374   3.583
 4159TIP3    H212435   5.967   1.368   3.732
 4160TIP3   OH212436   3.315   5.738   6.548
 4160TIP3    H112437   3.300   5.770   6.637
 4160TIP3    H212438   3.331   5.818   6.496
 4161TIP3   OH212439   1.366   4.504   1.961
 4161TIP3    H112440   1.384   4.498   1.868
 4161TIP3    H212441   1.412   4.583   1.989
 4162TIP3   OH212442   4.791   7.764   0.166
 4162TIP3    H112443   4.827   7.715   0.091
 4162TIP3    H212444   4.850   7.838   0.177
 4163TIP3   OH212445   3.839   5.630   4.889
 4163TIP3    H112446   3.763   5.613   4.945
 4163TIP3    H212447   3.817   5.709   4.841
 4164TIP3   OH212448   0.705   4.284   4.292
 4164TIP3    H112449   0.672   4.270   4.203
 4164TIP3    H212450   0.675   4.372   4.315
 4165TIP3   OH212451   5.972   2.411   2.675
 4165TIP3    H112452   5.971   2.498   2.636
 4165TIP3    H212453   5.888   2.406   2.722
 4166TIP3   OH212454   3.407   4.979   1.966
 4166TIP3    H112455   3.393   4.907   1.905
 4166TIP3    H212456   3.500   5.001   1.957
 4167TIP3   OH212457   7.297   3.546   3.271
 4167TIP3    H112458   7.370   3.608   3.268
 4167TIP3    H212459   7.293   3.508   3.183
 4168TIP3   OH212460   4.878   2.231   0.708
 4168TIP3    H112461   4.920   2.145   0.714
 4168TIP3    H212462   4.788   2.216   0.737
 4169TIP3   OH212463   3.525   3.310   2.018
 4169TIP3    H112464   3.527   3.311   2.114
 4169TIP3    H212465   3.538   3.218   1.995
 4170TIP3   OH212466   0.450   0.067   5.715
 4170TIP3    H112467   0.503   0.145   5.699
 4170TIP3    H212468   0.360   0.094   5.698
 4171TIP3   OH212469   5.774   3.266   6.251
 4171TIP3    H112470   5.686   3.279   6.288
 4171TIP3    H212471   5.767   3.184   6.203
 4172TIP3   OH212472   4.763   6.259   3.252
 4172TIP3    H112473   4.817   6.322   3.203
 4172TIP3    H212474   4.718   6.312   3.317
 4173TIP3   OH212475   5.123   6.771   3.564
 4173TIP3    H112476   5.053   6.752   3.626
 4173TIP3    H212477   5.200   6.786   3.618
 4174TIP3   OH212478   2.745   3.323   6.249
 4174TIP3    H112479   2.704   3.236   6.252
 4174TIP3    H212480   2.682   3.378   6.203
 4175TIP3   OH212481   0.210   2.400   3.313
 4175TIP3    H112482   0.252   2.404   3.399
 4175TIP3    H212483   0.260   2.461   3.258
 4176TIP3   OH212484   6.362   7.441   0.354
 4176TIP3    H112485   6.332   7.528   0.379
 4176TIP3    H212486   6.289   7.404   0.303
 4177TIP3   OH212487   2.999   5.289   1.649
 4177TIP3    H112488   3.002   5.348   1.573
 4177TIP3    H212489   3.074   5.230   1.636
 4178TIP3   OH212490   0.181   2.584   2.896
 4178TIP3    H112491   0.226   2.558   2.977
 4178TIP3    H212492   0.221   2.530   2.828
 4179TIP3   OH212493   1.709   4.651   4.154
 4179TIP3    H112494   1.661   4.734   4.151
 4179TIP3    H212495   1.746   4.642   4.066
 4180TIP3   OH212496   5.216   5.860   5.792
 4180TIP3    H112497   5.259   5.814   5.719
 4180TIP3    H212498   5.125   5.830   5.788
 4181TIP3   OH212499   8.114   0.889   6.414
 4181TIP3    H112500   8.172   0.871   6.340
 4181TIP3    H212501   8.116   0.808   6.465
 4182TIP3   OH212502   7.740   5.130   0.558
 4182TIP3    H112503   7.806   5.146   0.491
 4182TIP3    H212504   7.676   5.073   0.517
 4183TIP3   OH212505  -0.035  -0.057   3.023
 4183TIP3    H112506  -0.054  -0.148   3.000
 4183TIP3    H212507   0.060  -0.050   3.017
 4184TIP3   OH212508   6.106   0.056   6.277
 4184TIP3    H112509   6.054   0.131   6.306
 4184TIP3    H212510   6.094   0.053   6.182
 4185TIP3   OH212511   3.011   4.619   1.458
 4185TIP3    H112512   2.976   4.641   1.371
 4185TIP3    H212513   2.944   4.650   1.519
 4186TIP3   OH212514   6.501   0.035   1.496
 4186TIP3    H112515   6.455  -0.011   1.425
 4186TIP3    H212516   6.546   0.107   1.453
 4187TIP3   OH212517   6.152   3.961   0.088
 4187TIP3    H112518   6.162   3.895   0.157
 4187TIP3    H212519   6.241   3.975   0.056
 4188TIP3   OH212520   2.569   0.431   1.487
 4188TIP3    H112521   2.645   0.390   1.446
 4188TIP3    H212522   2.576   0.524   1.464
 4189TIP3   OH212523   5.896   3.299   0.947
 4189TIP3    H112524   5.863   3.296   0.857
 4189TIP3    H212525   5.977   3.249   0.944
 4190TIP3   OH212526   7.660   4.557   1.948
 4190TIP3    H112527   7.624   4.640   1.916
 4190TIP3    H212528   7.699   4.579   2.032
 4191TIP3   OH212529   3.472   5.271   6.262
 4191TIP3    H112530   3.508   5.360   6.267
 4191TIP3    H212531   3.497   5.240   6.175
 4192TIP3   OH212532   2.936   3.967   2.236
 4192TIP3    H112533   2.874   4.015   2.292
 4192TIP3    H212534   2.898   3.972   2.149
 4193TIP3   OH212535   6.190   1.441   6.137
 4193TIP3    H112536   6.192   1.521   6.084
 4193TIP3    H212537   6.264   1.389   6.105
 4194TIP3   OH212538   4.625   3.792   2.935
 4194TIP3    H112539   4.672   3.874   2.917
 4194TIP3    H212540   4.538   3.820   2.964
 4195TIP3   OH212541   0.621   2.376   4.146
 4195TIP3    H112542   0.630   2.372   4.241
 4195TIP3    H212543   0.671   2.300   4.114
 4196TIP3   OH212544   3.846   2.548   3.411
 4196TIP3    H112545   3.910   2.507   3.353
 4196TIP3    H212546   3.870   2.517   3.498
 4197TIP3   OH212547   3.298   0.196   4.798
 4197TIP3    H112548   3.341   0.190   4.713
 4197TIP3    H212549   3.302   0.107   4.833
 4198TIP3   OH212550   6.949   0.252   0.158
 4198TIP3    H112551   6.989   0.175   0.117
 4198TIP3    H212552   7.008   0.272   0.231
 4199TIP3   OH212553   6.793   6.168   5.458
 4199TIP3    H112554   6.704   6.160   5.491
 4199TIP3    H212555   6.812   6.082   5.421
 4200TIP3   OH212556   7.913   5.433   6.243
 4200TIP3    H112557   7.979   5.382   6.196
 4200TIP3    H212558   7.830   5.410   6.201
 4201TIP3   OH212559   5.045   6.004   6.168
 4201TIP3    H112560   5.089   6.082   6.203
 4201TIP3    H212561   5.101   5.931   6.194
 4202TIP3   OH212562   5.454   6.870   5.921
 4202TIP3    H112563   5.537   6.822   5.916
 4202TIP3    H212564   5.390   6.804   5.948
 4203TIP3   OH212565   4.908   7.284   6.656
 4203TIP3    H112566   4.882   7.226   6.585
 4203TIP3    H212567   4.988   7.325   6.625
 4204TIP3   OH212568   6.185   0.260   5.692
 4204TIP3    H112569   6.235   0.325   5.743
 4204TIP3    H212570   6.193   0.291   5.601
 4205TIP3   OH212571   2.960   2.888   1.677
 4205TIP3    H112572   2.985   2.819   1.738
 4205TIP3    H212573   2.916   2.843   1.605
 4206TIP3   OH212574   6.556   5.934   6.400
 4206TIP3    H112575   6.628   5.900   6.454
 4206TIP3    H212576   6.551   5.873   6.326
 4207TIP3   OH212577   3.328   1.471   6.750
 4207TIP3    H112578   3.272   1.438   6.680
 4207TIP3    H212579   3.268   1.499   6.819
 4208TIP3   OH212580   7.132   7.642   4.036
 4208TIP3    H112581   7.173   7.634   3.950
 4208TIP3    H212582   7.151   7.559   4.079
 4209TIP3   OH212583   4.952   6.848   3.170
 4209TIP3    H112584   4.907   6.917   3.120
 4209TIP3    H212585   4.977   6.783   3.104
 4210TIP3   OH212586   2.323   1.904   1.859
 4210TIP3    H112587   2.296   1.816   1.886
 4210TIP3    H212588   2.386   1.931   1.925
 4211TIP3   OH212589   5.916   1.239   0.160
 4211TIP3    H112590   5.874   1.153   0.162
 4211TIP3    H212591   5.856   1.294   0.110
 4212TIP3   OH212592   2.405   3.799   1.704
 4212TIP3    H112593   2.324   3.749   1.711
 4212TIP3    H212594   2.459   3.750   1.642
 4213TIP3   OH212595   5.335   6.836   3.118
 4213TIP3    H112596   5.244   6.865   3.117
 4213TIP3    H212597   5.341   6.776   3.192
 4214TIP3   OH212598   6.118   5.495   6.495
 4214TIP3    H112599   6.093   5.451   6.576
 4214TIP3    H212600   6.095   5.586   6.509
 4215TIP3   OH212601   1.739   5.535   1.844
 4215TIP3    H112602   1.772   5.611   1.795
 4215TIP3    H212603   1.738   5.564   1.935
 4216TIP3   OH212604   2.184   5.628   1.797
 4216TIP3    H112605   2.090   5.615   1.805
 4216TIP3    H212606   2.217   5.544   1.765
 4217TIP3   OH212607   5.759   2.416   2.835
 4217TIP3    H112608   5.668   2.444   2.825
 4217TIP3    H212609   5.777   2.425   2.929
 4218TIP3   OH212610   8.260   2.599   4.831
 4218TIP3    H112611   8.288   2.617   4.741
 4218TIP3    H212612   8.169   2.631   4.835
 4219TIP3   OH212613   6.486   4.420   1.961
 4219TIP3    H112614   6.499   4.390   1.871
 4219TIP3    H212615   6.552   4.488   1.974
 4220TIP3   OH212616   3.394   7.190   1.615
 4220TIP3    H112617   3.316   7.152   1.574
 4220TIP3    H212618   3.467   7.157   1.562
 4221TIP3   OH212619   3.369   4.536   5.567
 4221TIP3    H112620   3.427   4.462   5.551
 4221TIP3    H212621   3.302   4.530   5.498
 4222TIP3   OH212622   7.879   6.252   2.073
 4222TIP3    H112623   7.860   6.194   2.147
 4222TIP3    H212624   7.833   6.333   2.093
 4223TIP3   OH212625   3.357   7.189   0.661
 4223TIP3    H112626   3.406   7.206   0.581
 4223TIP3    H212627   3.405   7.119   0.705
 4224TIP3   OH212628   8.059   7.493   5.281
 4224TIP3    H112629   8.079   7.446   5.200
 4224TIP3    H212630   8.038   7.582   5.252
 4225TIP3   OH212631   6.458   3.187   6.353
 4225TIP3    H112632   6.520   3.116   6.366
 4225TIP3    H212633   6.381   3.146   6.313
 4226TIP3   OH212634   2.291   5.508   4.599
 4226TIP3    H112635   2.219   5.445   4.596
 4226TIP3    H212636   2.348   5.476   4.669
 4227TIP3   OH212637   4.752   2.669   1.155
 4227TIP3    H112638   4.658   2.687   1.157
 4227TIP3    H212639   4.759   2.575   1.171
 4228TIP3   OH212640   5.940   6.119   5.759
 4228TIP3    H112641   5.922   6.167   5.678
 4228TIP3    H212642   5.857   6.076   5.780
 4229TIP3   OH212643   5.407   3.895   3.302
 4229TIP3    H112644   5.346   3.868   3.233
 4229TIP3    H212645   5.352   3.908   3.379
 4230TIP3   OH212646   0.164   1.985   3.573
 4230TIP3    H112647   0.210   1.995   3.657
 4230TIP3    H212648   0.085   2.037   3.583
 4231TIP3   OH212649   7.929   7.253   3.588
 4231TIP3    H112650   7.915   7.347   3.582
 4231TIP3    H212651   7.940   7.224   3.498
 4232TIP3   OH212652   6.153   5.265   3.880
 4232TIP3    H112653   6.170   5.185   3.830
 4232TIP3    H212654   6.236   5.313   3.877
 4233TIP3   OH212655   2.596   3.478   0.349
 4233TIP3    H112656   2.523   3.459   0.408
 4233TIP3    H212657   2.621   3.393   0.313
 4234TIP3   OH212658   7.283   5.795   2.974
 4234TIP3    H112659   7.348   5.743   3.022
 4234TIP3    H212660   7.329   5.824   2.895
 4235TIP3   OH212661   1.670   5.437   1.438
 4235TIP3    H112662   1.637   5.501   1.502
 4235TIP3    H212663   1.750   5.477   1.405
 4236TIP3   OH212664   5.614   5.792   2.638
 4236TIP3    H112665   5.530   5.830   2.612
 4236TIP3    H212666   5.593   5.702   2.662
 4237TIP3   OH212667   4.224   2.256   6.640
 4237TIP3    H112668   4.192   2.212   6.562
 4237TIP3    H212669   4.161   2.327   6.655
 4238TIP3   OH212670   4.166   6.258   2.760
 4238TIP3    H112671   4.177   6.248   2.665
 4238TIP3    H212672   4.077   6.229   2.777
 4239TIP3   OH212673   7.002   0.613   4.245
 4239TIP3    H112674   6.926   0.565   4.276
 4239TIP3    H212675   7.062   0.614   4.320
 4240TIP3   OH212676   6.318   6.607   4.065
 4240TIP3    H112677   6.271   6.689   4.081
 4240TIP3    H212678   6.364   6.588   4.146
 4241TIP3   OH212679   4.783   4.830   0.179
 4241TIP3    H112680   4.837   4.845   0.257
 4241TIP3    H212681   4.833   4.869   0.108
 4242TIP3   OH212682   4.738   5.799   6.656
 4242TIP3    H112683   4.719   5.717   6.612
 4242TIP3    H212684   4.704   5.788   6.744
 4243TIP3   OH212685   4.940   0.479   5.930
 4243TIP3    H112686   4.956   0.562   5.885
 4243TIP3    H212687   4.978   0.413   5.873
 4244TIP3   OH212688   3.803   0.651   0.100
 4244TIP3    H112689   3.782   0.741   0.075
 4244TIP3    H212690   3.870   0.624   0.038
 4245TIP3   OH212691   1.040   1.245   4.267
 4245TIP3    H112692   1.059   1.266   4.359
 4245TIP3    H212693   0.971   1.179   4.271
 4246TIP3   OH212694   3.832   4.047   4.061
 4246TIP3    H112695   3.785   4.123   4.027
 4246TIP3    H212696   3.821   3.980   3.994
 4247TIP3   OH212697   6.129   3.240   2.401
 4247TIP3    H112698   6.154   3.233   2.493
 4247TIP3    H212699   6.055   3.180   2.392
 4248TIP3   OH212700   7.211   2.393   1.103
 4248TIP3    H112701   7.134   2.373   1.051
 4248TIP3    H212702   7.225   2.487   1.091
 4249TIP3   OH212703   4.791   3.261   1.402
 4249TIP3    H112704   4.713   3.304   1.436
 4249TIP3    H212705   4.822   3.318   1.332
 4250TIP3   OH212706   2.326   7.203   0.248
 4250TIP3    H112707   2.282   7.196   0.333
 4250TIP3    H212708   2.280   7.274   0.203
 4251TIP3   OH212709   1.957   0.657   4.902
 4251TIP3    H112710   2.051   0.663   4.885
 4251TIP3    H212711   1.933   0.744   4.934
 4252TIP3   OH212712   7.977   1.653   5.303
 4252TIP3    H112713   8.043   1.687   5.364
 4252TIP3    H212714   7.944   1.730   5.258
 4253TIP3   OH212715   5.345   7.361   0.161
 4253TIP3    H112716   5.266   7.380   0.212
 4253TIP3    H212717   5.394   7.300   0.216
 4254TIP3   OH212718   0.185   7.527   0.247
 4254TIP3    H112719   0.204   7.433   0.246
 4254TIP3    H212720   0.135   7.543   0.167
 4255TIP3   OH212721   5.709   4.441   5.620
 4255TIP3    H112722   5.706   4.536   5.628
 4255TIP3    H212723   5.801   4.421   5.603
 4256TIP3   OH212724   1.298   7.765   5.991
 4256TIP3    H112725   1.303   7.797   6.081
 4256TIP3    H212726   1.387   7.739   5.970
 4257TIP3   OH212727   5.558   4.274   0.769
 4257TIP3    H112728   5.604   4.303   0.848
 4257TIP3    H212729   5.477   4.324   0.768
 4258TIP3   OH212730   5.956   2.574   4.770
 4258TIP3    H112731   5.976   2.661   4.735
 4258TIP3    H212732   6.039   2.544   4.808
 4259TIP3   OH212733   4.399   0.322   1.566
 4259TIP3    H112734   4.440   0.235   1.566
 4259TIP3    H212735   4.359   0.330   1.480
 4260TIP3   OH212736   8.097   4.138   1.257
 4260TIP3    H112737   8.033   4.203   1.227
 4260TIP3    H212738   8.174   4.190   1.279
 4261TIP3   OH212739   0.028   3.682   5.384
 4261TIP3    H112740   0.032   3.640   5.470
 4261TIP3    H212741   0.070   3.620   5.325
 4262TIP3   OH212742   0.833   3.419   3.607
 4262TIP3    H112743   0.754   3.423   3.662
 4262TIP3    H212744   0.801   3.389   3.522
 4263TIP3   OH212745   7.264   3.799   5.134
 4263TIP3    H112746   7.339   3.852   5.108
 4263TIP3    H212747   7.297   3.744   5.205
 4264TIP3   OH212748   0.595   7.499   5.305
 4264TIP3    H112749   0.573   7.591   5.294
 4264TIP3    H212750   0.691   7.497   5.311
 4265TIP3   OH212751   6.020   6.948   6.229
 4265TIP3    H112752   6.044   7.041   6.240
 4265TIP3    H212753   6.025   6.912   6.318
 4266TIP3   OH212754   7.627   5.054   1.435
 4266TIP3    H112755   7.546   5.005   1.433
 4266TIP3    H212756   7.681   5.014   1.367
 4267TIP3   OH212757   6.554   6.805   3.945
 4267TIP3    H112758   6.562   6.875   4.010
 4267TIP3    H212759   6.606   6.733   3.981
 4268TIP3   OH212760   4.714   3.253   2.953
 4268TIP3    H112761   4.746   3.183   2.896
 4268TIP3    H212762   4.655   3.304   2.898
 4269TIP3   OH212763   6.808   2.905   2.874
 4269TIP3    H112764   6.812   2.925   2.967
 4269TIP3    H212765   6.838   2.985   2.831
 4270TIP3   OH212766   2.882   2.093   4.013
 4270TIP3    H112767   2.832   2.024   4.056
 4270TIP3    H212768   2.830   2.173   4.027
 4271TIP3   OH212769   3.057   5.049   1.202
 4271TIP3    H112770   3.130   5.087   1.154
 4271TIP3    H212771   3.014   4.990   1.140
 4272TIP3   OH212772   3.019   5.915   0.493
 4272TIP3    H112773   2.977   5.862   0.561
 4272TIP3    H212774   3.077   5.855   0.447
 4273TIP3   OH212775   3.871   2.061   3.968
 4273TIP3    H112776   3.847   2.151   3.990
 4273TIP3    H212777   3.824   2.008   4.032
 4274TIP3   OH212778   0.325   7.474   6.188
 4274TIP3    H112779   0.413   7.452   6.157
 4274TIP3    H212780   0.337   7.493   6.281
 4275TIP3   OH212781   7.064   4.863   6.691
 4275TIP3    H112782   7.116   4.850   6.612
 4275TIP3    H212783   7.113   4.928   6.741
 4276TIP3   OH212784   8.028   1.106   5.248
 4276TIP3    H112785   8.082   1.152   5.312
 4276TIP3    H212786   8.089   1.085   5.177
 4277TIP3   OH212787   5.429   0.043   3.486
 4277TIP3    H112788   5.416   0.077   3.397
 4277TIP3    H212789   5.516   0.003   3.484
 4278TIP3   OH212790   2.014   2.039   1.844
 4278TIP3    H112791   1.928   2.081   1.853
 4278TIP3    H212792   2.022   2.020   1.750
 4279TIP3   OH212793   4.962   3.688   3.272
 4279TIP3    H112794   4.872   3.700   3.241
 4279TIP3    H212795   4.973   3.593   3.275
 4280TIP3   OH212796   3.686   1.471   5.018
 4280TIP3    H112797   3.619   1.427   5.071
 4280TIP3    H212798   3.727   1.400   4.968
 4281TIP3   OH212799   7.152   4.126   2.972
 4281TIP3    H112800   7.138   4.048   3.026
 4281TIP3    H212801   7.065   4.164   2.961
 4282TIP3   OH212802   3.101   1.926   6.547
 4282TIP3    H112803   3.178   1.905   6.493
 4282TIP3    H212804   3.027   1.893   6.496
 4283TIP3   OH212805   7.246   2.123   2.290
 4283TIP3    H112806   7.311   2.135   2.360
 4283TIP3    H212807   7.210   2.036   2.306
 4284TIP3   OH212808   2.009   3.044   4.603
 4284TIP3    H112809   1.994   2.965   4.551
 4284TIP3    H212810   2.062   3.101   4.547
 4285TIP3   OH212811   0.834   3.841   5.567
 4285TIP3    H112812   0.838   3.892   5.486
 4285TIP3    H212813   0.742   3.816   5.575
 4286TIP3   OH212814   3.985   6.076   0.924
 4286TIP3    H112815   3.978   6.061   1.018
 4286TIP3    H212816   4.034   6.000   0.891
 4287TIP3   OH212817   0.003   2.071   1.031
 4287TIP3    H112818   0.010   2.166   1.028
 4287TIP3    H212819   0.031   2.042   0.944
 4288TIP3   OH212820   0.251   0.349   2.315
 4288TIP3    H112821   0.215   0.321   2.231
 4288TIP3    H212822   0.289   0.435   2.297
 4289TIP3   OH212823   1.421   1.583   4.333
 4289TIP3    H112824   1.461   1.655   4.285
 4289TIP3    H212825   1.473   1.576   4.413
 4290TIP3   OH212826   3.290   5.175   6.786
 4290TIP3    H112827   3.372   5.135   6.815
 4290TIP3    H212828   3.295   5.173   6.690
 4291TIP3   OH212829   5.791   3.207   1.806
 4291TIP3    H112830   5.739   3.138   1.764
 4291TIP3    H212831   5.862   3.161   1.851
 4292TIP3   OH212832   4.875   7.012   0.718
 4292TIP3    H112833   4.952   7.011   0.661
 4292TIP3    H212834   4.890   6.941   0.780
 4293TIP3   OH212835   0.604   7.471   6.205
 4293TIP3    H112836   0.645   7.489   6.289
 4293TIP3    H212837   0.653   7.524   6.142
 4294TIP3   OH212838   1.554   7.093   3.151
 4294TIP3    H112839   1.626   7.144   3.189
 4294TIP3    H212840   1.597   7.032   3.091
 4295TIP3   OH212841   4.871   4.979   1.712
 4295TIP3    H112842   4.792   5.025   1.741
 4295TIP3    H212843   4.943   5.037   1.737
 4296TIP3   OH212844   5.871   7.305   2.996
 4296TIP3    H112845   5.794   7.291   2.940
 4296TIP3    H212846   5.940   7.253   2.956
 4297TIP3   OH212847   5.673  -0.007   6.315
 4297TIP3    H112848   5.630  -0.015   6.400
 4297TIP3    H212849   5.646   0.079   6.283
 4298TIP3   OH212850   1.731   4.316   5.322
 4298TIP3    H112851   1.638   4.294   5.319
 4298TIP3    H212852   1.733   4.412   5.330
 4299TIP3   OH212853   2.257   0.216   5.874
 4299TIP3    H112854   2.191   0.252   5.815
 4299TIP3    H212855   2.219   0.225   5.962
 4300TIP3   OH212856   6.606   5.795   2.631
 4300TIP3    H112857   6.661   5.717   2.627
 4300TIP3    H212858   6.521   5.768   2.598
 4301TIP3   OH212859   8.047   3.209   4.206
 4301TIP3    H112860   8.012   3.133   4.159
 4301TIP3    H212861   8.077   3.268   4.137
 4302TIP3   OH212862   7.756   0.685   5.181
 4302TIP3    H112863   7.818   0.667   5.251
 4302TIP3    H212864   7.707   0.761   5.211
 4303TIP3   OH212865   7.237   7.314   1.201
 4303TIP3    H112866   7.313   7.304   1.143
 4303TIP3    H212867   7.237   7.407   1.224
 4304TIP3   OH212868   5.778   2.146   4.278
 4304TIP3    H112869   5.857   2.103   4.248
 4304TIP3    H212870   5.807   2.232   4.309
 4305TIP3   OH212871   5.876   2.736   6.418
 4305TIP3    H112872   5.783   2.745   6.440
 4305TIP3    H212873   5.909   2.668   6.478
 4306TIP3   OH212874   7.672   1.347   4.245
 4306TIP3    H112875   7.611   1.283   4.208
 4306TIP3    H212876   7.654   1.427   4.196
 4307TIP3   OH212877   5.627   4.636   6.182
 4307TIP3    H112878   5.594   4.556   6.142
 4307TIP3    H212879   5.596   4.707   6.126
 4308TIP3   OH212880   7.356   6.420   2.112
 4308TIP3    H112881   7.395   6.507   2.100
 4308TIP3    H212882   7.339   6.388   2.024
 4309TIP3   OH212883   3.039   7.125   6.666
 4309TIP3    H112884   3.076   7.155   6.583
 4309TIP3    H212885   3.005   7.037   6.647
 4310TIP3   OH212886   4.577   7.721   4.214
 4310TIP3    H112887   4.578   7.796   4.272
 4310TIP3    H212888   4.568   7.758   4.126
 4311TIP3   OH212889   6.288   0.400   5.133
 4311TIP3    H112890   6.302   0.468   5.067
 4311TIP3    H212891   6.362   0.410   5.193
 4312TIP3   OH212892   1.000   4.816   4.472
 4312TIP3    H112893   1.069   4.868   4.431
 4312TIP3    H212894   0.937   4.880   4.504
 4313TIP3   OH212895   5.289   4.876   2.396
 4313TIP3    H112896   5.260   4.873   2.305
 4313TIP3    H212897   5.381   4.848   2.393
 4314TIP3   OH212898   2.277   7.110   3.397
 4314TIP3    H112899   2.253   7.197   3.429
 4314TIP3    H212900   2.245   7.050   3.465
 4315TIP3   OH212901   4.038   1.707   5.865
 4315TIP3    H112902   4.091   1.786   5.858
 4315TIP3    H212903   4.101   1.639   5.891
 4316TIP3   OH212904   7.683   1.931   1.800
 4316TIP3    H112905   7.672   1.994   1.872
 4316TIP3    H212906   7.718   1.852   1.842
 4317TIP3   OH212907   6.387   1.924   5.593
 4317TIP3    H112908   6.294   1.922   5.573
 4317TIP3    H212909   6.394   1.978   5.672
 4318TIP3   OH212910   1.337   6.239   2.776
 4318TIP3    H112911   1.387   6.162   2.805
 4318TIP3    H212912   1.400   6.290   2.724
 4319TIP3   OH212913   7.663   2.168   5.645
 4319TIP3    H112914   7.595   2.119   5.600
 4319TIP3    H212915   7.632   2.176   5.735
 4320TIP3   OH212916   2.687   5.161   6.187
 4320TIP3    H112917   2.698   5.199   6.274
 4320TIP3    H212918   2.683   5.067   6.203
 4321TIP3   OH212919   7.188   5.514   0.147
 4321TIP3    H112920   7.145   5.498   0.063
 4321TIP3    H212921   7.282   5.512   0.127
 4322TIP3   OH212922   2.896   7.498   6.511
 4322TIP3    H112923   2.959   7.427   6.500
 4322TIP3    H212924   2.939   7.575   6.472
 4323TIP3   OH212925   6.056   7.137   0.538
 4323TIP3    H112926   6.000   7.078   0.588
 4323TIP3    H212927   6.036   7.117   0.446
 4324TIP3   OH212928   1.537   0.489   6.232
 4324TIP3    H112929   1.597   0.435   6.283
 4324TIP3    H212930   1.465   0.430   6.209
 4325TIP3   OH212931   3.564   4.640   0.945
 4325TIP3    H112932   3.553   4.677   1.032
 4325TIP3    H212933   3.609   4.708   0.895
 4326TIP3   OH212934   4.678   6.038   3.049
 4326TIP3    H112935   4.676   5.960   3.105
 4326TIP3    H212936   4.724   6.103   3.102
 4327TIP3   OH212937   7.962   3.052   3.748
 4327TIP3    H112938   8.017   2.982   3.783
 4327TIP3    H212939   8.017   3.130   3.752
 4328TIP3   OH212940   4.710   1.716   4.333
 4328TIP3    H112941   4.723   1.788   4.394
 4328TIP3    H212942   4.695   1.640   4.389
 4329TIP3   OH212943   4.249   2.243   0.283
 4329TIP3    H112944   4.300   2.315   0.247
 4329TIP3    H212945   4.298   2.213   0.359
 4330TIP3   OH212946   4.932   3.931   1.770
 4330TIP3    H112947   5.007   3.897   1.720
 4330TIP3    H212948   4.971   3.969   1.849
 4331TIP3   OH212949   2.768   5.120   2.495
 4331TIP3    H112950   2.747   5.055   2.429
 4331TIP3    H212951   2.684   5.159   2.518
 4332TIP3   OH212952   6.077   0.127   6.026
 4332TIP3    H112953   6.162   0.121   5.984
 4332TIP3    H212954   6.015   0.132   5.953
 4333TIP3   OH212955   3.626   7.591   6.100
 4333TIP3    H112956   3.563   7.560   6.034
 4333TIP3    H212957   3.696   7.632   6.049
 4334TIP3   OH212958   4.233   1.005   4.214
 4334TIP3    H112959   4.316   0.957   4.223
 4334TIP3    H212960   4.252   1.093   4.249
 4335TIP3   OH212961   5.317   3.346   2.223
 4335TIP3    H112962   5.407   3.313   2.226
 4335TIP3    H212963   5.326   3.440   2.212
 4336TIP3   OH212964   4.310   2.335   2.788
 4336TIP3    H112965   4.238   2.288   2.746
 4336TIP3    H212966   4.324   2.289   2.870
 4337TIP3   OH212967   6.720   6.180   0.079
 4337TIP3    H112968   6.652   6.191   0.012
 4337TIP3    H212969   6.697   6.099   0.124
 4338TIP3   OH212970   2.708   2.830   6.103
 4338TIP3    H112971   2.748   2.818   6.190
 4338TIP3    H212972   2.614   2.837   6.121
 4339TIP3   OH212973   3.468   5.189   2.430
 4339TIP3    H112974   3.457   5.238   2.511
 4339TIP3    H212975   3.469   5.097   2.456
 4340TIP3   OH212976   8.140   3.467   4.816
 4340TIP3    H112977   8.196   3.391   4.825
 4340TIP3    H212978   8.052   3.431   4.802
 4341TIP3   OH212979   0.146   2.690   5.854
 4341TIP3    H112980   0.228   2.664   5.896
 4341TIP3    H212981   0.164   2.777   5.820
 4342TIP3   OH212982   6.293   0.345   6.657
 4342TIP3    H112983   6.215   0.295   6.684
 4342TIP3    H212984   6.289   0.425   6.709
 4343TIP3   OH212985   0.851   2.863   5.642
 4343TIP3    H112986   0.764   2.861   5.603
 4343TIP3    H212987   0.837   2.903   5.728
 4344TIP3   OH212988   7.320   3.652   5.378
 4344TIP3    H112989   7.335   3.558   5.375
 4344TIP3    H212990   7.262   3.665   5.453
 4345TIP3   OH212991   3.722   2.092   1.247
 4345TIP3    H112992   3.663   2.032   1.201
 4345TIP3    H212993   3.730   2.167   1.187
 4346TIP3   OH212994   2.419   1.814   2.547
 4346TIP3    H112995   2.507   1.850   2.552
 4346TIP3    H212996   2.374   1.847   2.625
 4347TIP3   OH212997   4.921   3.775   1.376
 4347TIP3    H112998   4.948   3.807   1.290
 4347TIP3    H212999   5.002   3.770   1.426
 4348TIP3   OH213000   0.253   0.375   1.743
 4348TIP3    H113001   0.284   0.413   1.660
 4348TIP3    H213002   0.320   0.312   1.767
 4349TIP3   OH213003   2.248   7.758   4.555
 4349TIP3    H113004   2.173   7.717   4.599
 4349TIP3    H213005   2.321   7.698   4.571
 4350TIP3   OH213006   6.302   4.791   2.955
 4350TIP3    H113007   6.384   4.772   3.000
 4350TIP3    H213008   6.316   4.762   2.865
 4351TIP3   OH213009   6.950   1.677   4.749
 4351TIP3    H113010   7.012   1.625   4.698
 4351TIP3    H213011   6.891   1.715   4.683
 4352TIP3   OH213012   5.738   1.836   6.675
 4352TIP3    H113013   5.714   1.750   6.640
 4352TIP3    H213014   5.714   1.898   6.606
 4353TIP3   OH213015   4.636   0.860   5.587
 4353TIP3    H113016   4.690   0.889   5.660
 4353TIP3    H213017   4.671   0.907   5.511
 4354TIP3   OH213018   4.642   4.622   0.763
 4354TIP3    H113019   4.617   4.548   0.817
 4354TIP3    H213020   4.617   4.597   0.674
 4355TIP3   OH213021   1.629   3.539   6.607
 4355TIP3    H113022   1.680   3.473   6.561
 4355TIP3    H213023   1.558   3.560   6.546
 4356TIP3   OH213024   2.606   4.797   3.900
 4356TIP3    H113025   2.559   4.720   3.932
 4356TIP3    H213026   2.572   4.811   3.812
 4357TIP3   OH213027   6.736   1.862   6.039
 4357TIP3    H113028   6.650   1.896   6.012
 4357TIP3    H213029   6.757   1.797   5.973
 4358TIP3   OH213030   7.083   6.422   4.261
 4358TIP3    H113031   7.108   6.346   4.209
 4358TIP3    H213032   7.166   6.463   4.285
 4359TIP3   OH213033   7.392   1.587   2.034
 4359TIP3    H113034   7.412   1.525   1.964
 4359TIP3    H213035   7.318   1.638   2.000
 4360TIP3   OH213036   5.959   6.323  -0.002
 4360TIP3    H113037   5.944   6.304   0.091
 4360TIP3    H213038   6.008   6.248  -0.034
 4361TIP3   OH213039   2.370   5.222   4.330
 4361TIP3    H113040   2.406   5.310   4.324
 4361TIP3    H213041   2.309   5.215   4.256
 4362TIP3   OH213042   6.987   7.133   0.522
 4362TIP3    H113043   6.997   7.225   0.495
 4362TIP3    H213044   6.902   7.131   0.567
 4363TIP3   OH213045   2.627   6.538   3.138
 4363TIP3    H113046   2.678   6.616   3.118
 4363TIP3    H213047   2.537   6.562   3.113
 4364TIP3   OH213048   2.971   1.391   4.519
 4364TIP3    H113049   2.928   1.476   4.522
 4364TIP3    H213050   2.922   1.342   4.453
 4365TIP3   OH213051   4.770   3.857   1.986
 4365TIP3    H113052   4.699   3.837   1.926
 4365TIP3    H213053   4.849   3.855   1.932
 4366TIP3   OH213054   7.263   6.718   6.175
 4366TIP3    H113055   7.209   6.641   6.156
 4366TIP3    H213056   7.325   6.722   6.103
 4367TIP3   OH213057   1.952   5.231   2.745
 4367TIP3    H113058   2.034   5.252   2.700
 4367TIP3    H213059   1.965   5.262   2.834
 4368TIP3   OH213060   8.088   4.672   2.415
 4368TIP3    H113061   8.112   4.711   2.331
 4368TIP3    H213062   8.124   4.584   2.411
 4369TIP3   OH213063   6.989   6.943   3.972
 4369TIP3    H113064   7.029   7.027   3.994
 4369TIP3    H213065   7.063   6.882   3.970
 4370TIP3   OH213066   2.005   6.244   3.035
 4370TIP3    H113067   1.944   6.200   2.976
 4370TIP3    H213068   2.091   6.209   3.011
 4371TIP3   OH213069   2.109   1.185   2.469
 4371TIP3    H113070   2.142   1.231   2.392
 4371TIP3    H213071   2.180   1.194   2.534
 4372TIP3   OH213072   7.225   7.036   3.541
 4372TIP3    H113073   7.294   6.972   3.527
 4372TIP3    H213074   7.264   7.100   3.601
 4373TIP3   OH213075   7.883   7.096   0.236
 4373TIP3    H113076   7.877   7.089   0.141
 4373TIP3    H213077   7.971   7.131   0.253
 4374TIP3   OH213078   0.974   3.091   6.136
 4374TIP3    H113079   0.956   3.151   6.064
 4374TIP3    H213080   1.047   3.132   6.183
 4375TIP3   OH213081   3.088   1.829   4.216
 4375TIP3    H113082   3.124   1.756   4.265
 4375TIP3    H213083   3.089   1.800   4.125
 4376TIP3   OH213084   3.367   0.273   3.821
 4376TIP3    H113085   3.384   0.334   3.749
 4376TIP3    H213086   3.289   0.308   3.864
 4377TIP3   OH213087   5.464   4.507   5.071
 4377TIP3    H113088   5.504   4.481   5.154
 4377TIP3    H213089   5.471   4.602   5.069
 4378TIP3   OH213090   0.329   1.014   5.279
 4378TIP3    H113091   0.326   1.081   5.210
 4378TIP3    H213092   0.244   0.971   5.275
 4379TIP3   OH213093   4.967   1.179   1.051
 4379TIP3    H113094   4.968   1.174   1.147
 4379TIP3    H213095   4.966   1.088   1.022
 4380TIP3   OH213096   7.088   6.153   0.562
 4380TIP3    H113097   7.166   6.204   0.586
 4380TIP3    H213098   7.120   6.063   0.556
 4381TIP3   OH213099   0.886   7.251   0.483
 4381TIP3    H113100   0.853   7.291   0.564
 4381TIP3    H213101   0.970   7.295   0.468
 4382TIP3   OH213102   7.383   6.059   4.407
 4382TIP3    H113103   7.386   5.979   4.460
 4382TIP3    H213104   7.370   6.129   4.470
 4383TIP3   OH213105   0.382   0.115   2.416
 4383TIP3    H113106   0.351   0.200   2.386
 4383TIP3    H213107   0.477   0.117   2.402
 4384TIP3   OH213108   4.202   1.743   1.746
 4384TIP3    H113109   4.205   1.681   1.674
 4384TIP3    H213110   4.189   1.689   1.824
 4385TIP3   OH213111   7.510   1.875   5.033
 4385TIP3    H113112   7.586   1.861   5.090
 4385TIP3    H213113   7.513   1.968   5.010
 4386TIP3   OH213114   1.011   0.624   4.246
 4386TIP3    H113115   1.059   0.549   4.281
 4386TIP3    H213116   1.075   0.668   4.189
 4387TIP3   OH213117   1.978   2.765   3.463
 4387TIP3    H113118   1.893   2.803   3.439
 4387TIP3    H213119   2.029   2.839   3.496
 4388TIP3   OH213120   7.102   1.390   4.937
 4388TIP3    H113121   7.021   1.349   4.965
 4388TIP3    H213122   7.108   1.470   4.989
 4389TIP3   OH213123   2.614   3.078   4.632
 4389TIP3    H113124   2.609   3.009   4.567
 4389TIP3    H213125   2.552   3.051   4.700
 4390TIP3   OH213126   3.836   4.133   4.937
 4390TIP3    H113127   3.865   4.085   5.015
 4390TIP3    H213128   3.856   4.224   4.956
 4391TIP3   OH213129   5.121   7.455   6.645
 4391TIP3    H113130   5.213   7.433   6.660
 4391TIP3    H213131   5.121   7.508   6.565
 4392TIP3   OH213132   1.689   3.972   3.686
 4392TIP3    H113133   1.759   3.911   3.663
 4392TIP3    H213134   1.722   4.018   3.763
 4393TIP3   OH213135   7.892   4.115   1.672
 4393TIP3    H113136   7.959   4.070   1.620
 4393TIP3    H213137   7.858   4.183   1.614
 4394TIP3   OH213138   4.304   5.386   3.297
 4394TIP3    H113139   4.360   5.455   3.261
 4394TIP3    H213140   4.324   5.309   3.245
 4395TIP3   OH213141   4.577   6.327   5.148
 4395TIP3    H113142   4.582   6.248   5.095
 4395TIP3    H213143   4.587   6.296   5.238
 4396TIP3   OH213144   4.197   0.295   5.717
 4396TIP3    H113145   4.138   0.267   5.646
 4396TIP3    H213146   4.140   0.300   5.794
 4397TIP3   OH213147   3.334   3.342   2.575
 4397TIP3    H113148   3.340   3.295   2.658
 4397TIP3    H213149   3.241   3.362   2.565
 4398TIP3   OH213150   3.177   1.754   0.221
 4398TIP3    H113151   3.140   1.709   0.145
 4398TIP3    H213152   3.258   1.794   0.188
 4399TIP3   OH213153   4.906   1.142   2.077
 4399TIP3    H113154   4.994   1.163   2.045
 4399TIP3    H213155   4.875   1.224   2.116
 4400TIP3   OH213156   1.638   5.285   5.042
 4400TIP3    H113157   1.603   5.370   5.067
 4400TIP3    H213158   1.721   5.278   5.090
 4401TIP3   OH213159   6.644   2.672   2.867
 4401TIP3    H113160   6.697   2.746   2.897
 4401TIP3    H213161   6.690   2.639   2.790
 4402TIP3   OH213162   1.524   7.063   6.000
 4402TIP3    H113163   1.575   7.130   5.953
 4402TIP3    H213164   1.468   7.024   5.932
 4403TIP3   OH213165   6.987   1.385   4.385
 4403TIP3    H113166   7.005   1.325   4.457
 4403TIP3    H213167   7.068   1.433   4.373
 4404TIP3   OH213168   5.974   2.241   0.836
 4404TIP3    H113169   5.963   2.147   0.853
 4404TIP3    H213170   5.945   2.252   0.746
 4405TIP3   OH213171   3.018   4.975   5.090
 4405TIP3    H113172   3.091   5.033   5.069
 4405TIP3    H213173   2.968   4.970   5.009
 4406TIP3   OH213174   3.495   2.363   0.720
 4406TIP3    H113175   3.585   2.396   0.717
 4406TIP3    H213176   3.445   2.423   0.664
 4407TIP3   OH213177   7.701   0.820   0.880
 4407TIP3    H113178   7.684   0.754   0.948
 4407TIP3    H213179   7.633   0.806   0.815
 4408TIP3   OH213180   3.886   1.391   6.563
 4408TIP3    H113181   3.902   1.340   6.642
 4408TIP3    H213182   3.970   1.434   6.546
 4409TIP3   OH213183   8.020   4.461   3.772
 4409TIP3    H113184   8.031   4.545   3.817
 4409TIP3    H213185   7.967   4.482   3.694
 4410TIP3   OH213186   2.707   3.505   2.256
 4410TIP3    H113187   2.631   3.563   2.257
 4410TIP3    H213188   2.781   3.561   2.280
 4411TIP3   OH213189   1.058   5.314   4.168
 4411TIP3    H113190   0.980   5.321   4.223
 4411TIP3    H213191   1.064   5.222   4.145
 4412TIP3   OH213192   3.021   2.440   4.859
 4412TIP3    H113193   2.957   2.468   4.794
 4412TIP3    H213194   2.976   2.449   4.943
 4413TIP3   OH213195  -0.034   2.943   0.150
 4413TIP3    H113196  -0.118   2.976   0.117
 4413TIP3    H213197  -0.025   2.984   0.236
 4414TIP3   OH213198   2.571   6.370   6.332
 4414TIP3    H113199   2.487   6.363   6.377
 4414TIP3    H213200   2.615   6.287   6.350
 4415TIP3   OH213201   7.166   5.780   4.041
 4415TIP3    H113202   7.135   5.835   3.969
 4415TIP3    H213203   7.223   5.838   4.092
 4416TIP3   OH213204   5.201   6.985   1.880
 4416TIP3    H113205   5.126   6.926   1.873
 4416TIP3    H213206   5.186   7.049   1.810
 4417TIP3   OH213207   2.864   4.002   4.345
 4417TIP3    H113208   2.849   3.916   4.305
 4417TIP3    H213209   2.889   4.058   4.272
 4418TIP3   OH213210   2.374   2.889   1.734
 4418TIP3    H113211   2.438   2.830   1.774
 4418TIP3    H213212   2.380   2.970   1.785
 4419TIP3   OH213213   2.380   0.144   2.052
 4419TIP3    H113214   2.395   0.236   2.073
 4419TIP3    H213215   2.292   0.126   2.086
 4420TIP3   OH213216   1.453   6.196   5.928
 4420TIP3    H113217   1.505   6.122   5.898
 4420TIP3    H213218   1.368   6.185   5.888
 4421TIP3   OH213219   6.453   4.951   5.731
 4421TIP3    H113220   6.547   4.961   5.748
 4421TIP3    H213221   6.448   4.873   5.675
 4422TIP3   OH213222   2.419   7.680   4.850
 4422TIP3    H113223   2.345   7.619   4.851
 4422TIP3    H213224   2.383   7.762   4.885
 4423TIP3   OH213225   5.462   0.514   0.889
 4423TIP3    H113226   5.469   0.530   0.983
 4423TIP3    H213227   5.386   0.565   0.862
 4424TIP3   OH213228   8.142   0.117   1.051
 4424TIP3    H113229   8.145   0.210   1.026
 4424TIP3    H213230   8.119   0.072   0.970
 4425TIP3   OH213231   4.415   7.109   4.418
 4425TIP3    H113232   4.365   7.186   4.390
 4425TIP3    H213233   4.466   7.139   4.493
 4426TIP3   OH213234   3.772   2.343   6.050
 4426TIP3    H113235   3.741   2.412   6.108
 4426TIP3    H213236   3.833   2.387   5.991
 4427TIP3   OH213237   5.883   3.960   3.346
 4427TIP3    H113238   5.867   3.881   3.398
 4427TIP3    H213239   5.968   3.945   3.304
 4428TIP3   OH213240   4.861   2.486   1.693
 4428TIP3    H113241   4.782   2.528   1.727
 4428TIP3    H213242   4.930   2.509   1.756
 4429TIP3   OH213243   3.888   5.881   0.174
 4429TIP3    H113244   3.945   5.932   0.116
 4429TIP3    H213245   3.947   5.846   0.241
 4430TIP3   OH213246   6.261   3.049   6.223
 4430TIP3    H113247   6.296   2.967   6.187
 4430TIP3    H213248   6.178   3.023   6.264
 4431TIP3   OH213249   0.378   0.251   0.743
 4431TIP3    H113250   0.472   0.232   0.734
 4431TIP3    H213251   0.335   0.166   0.732
 4432TIP3   OH213252   4.894   3.296   5.501
 4432TIP3    H113253   4.923   3.377   5.460
 4432TIP3    H213254   4.879   3.319   5.593
 4433TIP3   OH213255   0.656   7.662   4.047
 4433TIP3    H113256   0.683   7.702   4.129
 4433TIP3    H213257   0.592   7.596   4.073
 4434TIP3   OH213258   3.266   2.147   5.710
 4434TIP3    H113259   3.195   2.128   5.771
 4434TIP3    H213260   3.346   2.129   5.759
 4435TIP3   OH213261   0.611   0.748   3.470
 4435TIP3    H113262   0.556   0.735   3.393
 4435TIP3    H213263   0.624   0.843   3.475
 4436TIP3   OH213264   6.114   0.394   1.909
 4436TIP3    H113265   6.077   0.334   1.973
 4436TIP3    H213266   6.209   0.385   1.920
 4437TIP3   OH213267   3.572   4.059   0.015
 4437TIP3    H113268   3.502   4.010   0.057
 4437TIP3    H213269   3.647   4.049   0.075
 4438TIP3   OH213270   3.926   1.625   2.307
 4438TIP3    H113271   4.013   1.602   2.338
 4438TIP3    H213272   3.903   1.703   2.358
 4439TIP3   OH213273   6.929   5.125   4.610
 4439TIP3    H113274   6.871   5.061   4.651
 4439TIP3    H213275   6.973   5.168   4.683
 4440TIP3   OH213276   1.260   5.600   3.886
 4440TIP3    H113277   1.166   5.589   3.881
 4440TIP3    H213278   1.285   5.635   3.801
 4441TIP3   OH213279   5.350   5.236   5.985
 4441TIP3    H113280   5.330   5.329   5.997
 4441TIP3    H213281   5.434   5.236   5.940
 4442TIP3   OH213282   3.575   7.136   5.361
 4442TIP3    H113283   3.664   7.119   5.329
 4442TIP3    H213284   3.586   7.209   5.422
 4443TIP3   OH213285   7.742   7.622   2.004
 4443TIP3    H113286   7.666   7.589   1.956
 4443TIP3    H213287   7.706   7.655   2.086
 4444TIP3   OH213288   7.928   5.126   5.470
 4444TIP3    H113289   7.843   5.137   5.512
 4444TIP3    H213290   7.950   5.034   5.484
 4445TIP3   OH213291   6.168   2.005   5.296
 4445TIP3    H113292   6.237   1.948   5.262
 4445TIP3    H213293   6.087   1.966   5.263
 4446TIP3   OH213294   5.529   0.424   0.167
 4446TIP3    H113295   5.457   0.406   0.106
 4446TIP3    H213296   5.489   0.478   0.235
 4447TIP3   OH213297   6.610   5.723   3.479
 4447TIP3    H113298   6.522   5.758   3.492
 4447TIP3    H213299   6.616   5.705   3.385
 4448TIP3   OH213300   4.499   3.084   2.284
 4448TIP3    H113301   4.542   3.028   2.349
 4448TIP3    H213302   4.566   3.098   2.217
 4449TIP3   OH213303   4.512   0.878   4.865
 4449TIP3    H113304   4.530   0.926   4.784
 4449TIP3    H213305   4.418   0.889   4.879
 4450TIP3   OH213306   0.365   2.614   3.161
 4450TIP3    H113307   0.307   2.687   3.184
 4450TIP3    H213308   0.407   2.590   3.243
 4451TIP3   OH213309   7.764   5.224   0.994
 4451TIP3    H113310   7.714   5.249   0.917
 4451TIP3    H213311   7.698   5.195   1.057
 4452TIP3   OH213312   8.161   0.917   0.133
 4452TIP3    H113313   8.082   0.918   0.188
 4452TIP3    H213314   8.193   1.007   0.137
 4453TIP3   OH213315   1.314   7.525   3.731
 4453TIP3    H113316   1.221   7.540   3.742
 4453TIP3    H213317   1.355   7.570   3.805
 4454TIP3   OH213318   0.779   5.385   4.339
 4454TIP3    H113319   0.715   5.357   4.404
 4454TIP3    H213320   0.792   5.478   4.355
 4455TIP3   OH213321   1.705   5.839   6.610
 4455TIP3    H113322   1.642   5.808   6.675
 4455TIP3    H213323   1.788   5.800   6.636
 4456TIP3   OH213324   0.716   3.950   0.200
 4456TIP3    H113325   0.724   3.966   0.294
 4456TIP3    H213326   0.627   3.980   0.178
 4457TIP3   OH213327   4.266   0.634   4.564
 4457TIP3    H113328   4.263   0.620   4.659
 4457TIP3    H213329   4.176   0.655   4.540
 4458TIP3   OH213330   6.980   5.615   2.001
 4458TIP3    H113331   7.056   5.672   1.989
 4458TIP3    H213332   6.932   5.654   2.074
 4459TIP3   OH213333   6.143   7.210   2.205
 4459TIP3    H113334   6.184   7.267   2.269
 4459TIP3    H213335   6.106   7.138   2.257
 4460TIP3   OH213336   4.919   6.960   4.367
 4460TIP3    H113337   4.974   6.882   4.380
 4460TIP3    H213338   4.953   7.023   4.430
 4461TIP3   OH213339   5.581   1.196   3.444
 4461TIP3    H113340   5.509   1.258   3.453
 4461TIP3    H213341   5.658   1.244   3.475
 4462TIP3   OH213342   1.690   6.674   2.312
 4462TIP3    H113343   1.634   6.717   2.247
 4462TIP3    H213344   1.697   6.738   2.383
 4463TIP3   OH213345   0.946   0.643   6.121
 4463TIP3    H113346   0.980   0.625   6.033
 4463TIP3    H213347   0.912   0.558   6.151
 4464TIP3   OH213348   1.561   4.541   4.367
 4464TIP3    H113349   1.607   4.568   4.288
 4464TIP3    H213350   1.629   4.537   4.434
 4465TIP3   OH213351   7.278   3.875   3.321
 4465TIP3    H113352   7.338   3.842   3.388
 4465TIP3    H213353   7.334   3.895   3.246
 4466TIP3   OH213354   5.506   0.405   3.411
 4466TIP3    H113355   5.439   0.356   3.363
 4466TIP3    H213356   5.559   0.445   3.342
 4467TIP3   OH213357   5.849  -0.002   4.023
 4467TIP3    H113358   5.808  -0.088   4.016
 4467TIP3    H213359   5.869   0.008   4.116
 4468TIP3   OH213360   6.467   7.403   6.573
 4468TIP3    H113361   6.491   7.485   6.617
 4468TIP3    H213362   6.505   7.335   6.628
 4469TIP3   OH213363   5.748   7.855   2.616
 4469TIP3    H113364   5.778   7.906   2.540
 4469TIP3    H213365   5.659   7.830   2.594
 4470TIP3   OH213366   1.235   4.648   6.587
 4470TIP3    H113367   1.221   4.672   6.679
 4470TIP3    H213368   1.269   4.727   6.547
 4471TIP3   OH213369   4.745   5.161   3.650
 4471TIP3    H113370   4.827   5.198   3.683
 4471TIP3    H213371   4.727   5.210   3.569
 4472TIP3   OH213372   2.474   0.832   0.380
 4472TIP3    H113373   2.501   0.860   0.293
 4472TIP3    H213374   2.548   0.781   0.413
 4473TIP3   OH213375   1.848   5.153   5.221
 4473TIP3    H113376   1.923   5.195   5.180
 4473TIP3    H213377   1.881   5.068   5.251
 4474TIP3   OH213378   2.356   6.374   6.701
 4474TIP3    H113379   2.277   6.428   6.713
 4474TIP3    H213380   2.416   6.405   6.768
 4475TIP3   OH213381   1.896   3.995   2.357
 4475TIP3    H113382   1.836   3.948   2.414
 4475TIP3    H213383   1.868   3.974   2.268
 4476TIP3   OH213384   6.871   5.898   1.585
 4476TIP3    H113385   6.859   5.888   1.680
 4476TIP3    H213386   6.783   5.894   1.549
 4477TIP3   OH213387   0.870   5.891   2.874
 4477TIP3    H113388   0.807   5.954   2.910
 4477TIP3    H213389   0.933   5.946   2.827
 4478TIP3   OH213390   0.275   5.953   0.392
 4478TIP3    H113391   0.293   5.950   0.298
 4478TIP3    H213392   0.204   5.890   0.405
 4479TIP3   OH213393   3.344   7.643   5.437
 4479TIP3    H113394   3.329   7.737   5.448
 4479TIP3    H213395   3.386   7.615   5.518
 4480TIP3   OH213396   6.614   5.062   0.869
 4480TIP3    H113397   6.612   5.136   0.930
 4480TIP3    H213398   6.605   5.102   0.782
 4481TIP3   OH213399   4.579   1.161   5.061
 4481TIP3    H113400   4.620   1.245   5.084
 4481TIP3    H213401   4.581   1.111   5.142
 4482TIP3   OH213402   0.878   5.917   5.486
 4482TIP3    H113403   0.831   5.923   5.569
 4482TIP3    H213404   0.898   5.824   5.477
 4483TIP3   OH213405   2.200   6.974   3.628
 4483TIP3    H113406   2.137   7.038   3.663
 4483TIP3    H213407   2.242   6.937   3.706
 4484TIP3   OH213408   1.411   2.990   6.449
 4484TIP3    H113409   1.454   3.074   6.459
 4484TIP3    H213410   1.443   2.956   6.366
 4485TIP3   OH213411   4.888   2.168   5.454
 4485TIP3    H113412   4.814   2.125   5.497
 4485TIP3    H213413   4.965   2.131   5.495
 4486TIP3   OH213414   8.259   7.129   2.414
 4486TIP3    H113415   8.273   7.038   2.441
 4486TIP3    H213416   8.344   7.170   2.423
 4487TIP3   OH213417   5.943   7.188   3.296
 4487TIP3    H113418   5.902   7.264   3.338
 4487TIP3    H213419   5.870   7.135   3.264
 4488TIP3   OH213420   2.747   0.372   0.517
 4488TIP3    H113421   2.762   0.278   0.516
 4488TIP3    H213422   2.751   0.398   0.425
 4489TIP3   OH213423   4.622   4.552   3.415
 4489TIP3    H113424   4.608   4.635   3.370
 4489TIP3    H213425   4.661   4.576   3.499
 4490TIP3   OH213426   4.751   6.472   3.933
 4490TIP3    H113427   4.751   6.392   3.881
 4490TIP3    H213428   4.662   6.477   3.969
 4491TIP3   OH213429   7.223   1.482   0.901
 4491TIP3    H113430   7.274   1.563   0.906
 4491TIP3    H213431   7.179   1.475   0.986
 4492TIP3   OH213432   3.042   5.181   3.718
 4492TIP3    H113433   3.028   5.087   3.730
 4492TIP3    H213434   3.048   5.216   3.807
 4493TIP3   OH213435   1.445   2.713   5.735
 4493TIP3    H113436   1.464   2.665   5.816
 4493TIP3    H213437   1.463   2.805   5.757
 4494TIP3   OH213438   4.231   3.060   4.842
 4494TIP3    H113439   4.150   3.016   4.816
 4494TIP3    H213440   4.222   3.149   4.807
 4495TIP3   OH213441   1.615   3.673   5.215
 4495TIP3    H113442   1.598   3.630   5.131
 4495TIP3    H213443   1.676   3.744   5.194
 4496TIP3   OH213444   1.565   2.006   2.863
 4496TIP3    H113445   1.516   1.958   2.796
 4496TIP3    H213446   1.566   1.947   2.939
 4497TIP3   OH213447   0.152   6.608   3.581
 4497TIP3    H113448   0.237   6.625   3.540
 4497TIP3    H213449   0.098   6.683   3.555
 4498TIP3   OH213450   2.548   6.598   2.491
 4498TIP3    H113451   2.567   6.506   2.476
 4498TIP3    H213452   2.501   6.626   2.412
 4499TIP3   OH213453   2.695   2.477   4.475
 4499TIP3    H113454   2.620   2.442   4.426
 4499TIP3    H213455   2.760   2.497   4.407
 4500TIP3   OH213456   0.963   7.366   2.351
 4500TIP3    H113457   0.971   7.272   2.365
 4500TIP3    H213458   0.876   7.388   2.383
 4501TIP3   OH213459   0.803   7.158   2.047
 4501TIP3    H113460   0.753   7.238   2.061
 4501TIP3    H213461   0.768   7.096   2.111
 4502TIP3   OH213462   8.272   5.053   1.750
 4502TIP3    H113463   8.261   5.027   1.659
 4502TIP3    H213464   8.224   4.986   1.800
 4503TIP3   OH213465   6.106   3.632   4.274
 4503TIP3    H113466   6.134   3.686   4.201
 4503TIP3    H213467   6.046   3.688   4.324
 4504TIP3   OH213468   2.297   2.701   3.231
 4504TIP3    H113469   2.309   2.734   3.320
 4504TIP3    H213470   2.249   2.619   3.243
 4505TIP3   OH213471   3.870   4.291   3.167
 4505TIP3    H113472   3.792   4.346   3.156
 4505TIP3    H213473   3.872   4.236   3.089
 4506TIP3   OH213474   5.242   6.528   4.977
 4506TIP3    H113475   5.191   6.500   5.053
 4506TIP3    H213476   5.327   6.552   5.013
 4507TIP3   OH213477   6.818   0.641   2.000
 4507TIP3    H113478   6.828   0.712   1.936
 4507TIP3    H213479   6.905   0.601   2.005
 4508TIP3   OH213480   4.501   6.763   3.626
 4508TIP3    H113481   4.538   6.850   3.612
 4508TIP3    H213482   4.416   6.779   3.668
 4509TIP3   OH213483   6.300   0.583   1.457
 4509TIP3    H113484   6.376   0.628   1.494
 4509TIP3    H213485   6.314   0.491   1.479
 4510TIP3   OH213486   1.991   4.826   5.905
 4510TIP3    H113487   1.959   4.762   5.841
 4510TIP3    H213488   1.959   4.794   5.989
 4511TIP3   OH213489   4.758   2.136   4.860
 4511TIP3    H113490   4.752   2.047   4.894
 4511TIP3    H213491   4.669   2.159   4.835
 4512TIP3   OH213492   2.300   5.832   2.357
 4512TIP3    H113493   2.385   5.830   2.312
 4512TIP3    H213494   2.318   5.794   2.443
 4513TIP3   OH213495   3.259   0.135   1.868
 4513TIP3    H113496   3.303   0.150   1.785
 4513TIP3    H213497   3.297   0.053   1.901
 4514TIP3   OH213498   2.332   6.112   6.297
 4514TIP3    H113499   2.377   6.123   6.213
 4514TIP3    H213500   2.242   6.091   6.273
 4515TIP3   OH213501   1.568   0.179   6.265
 4515TIP3    H113502   1.600   0.164   6.354
 4515TIP3    H213503   1.623   0.123   6.210
 4516TIP3   OH213504   2.358   3.225   2.781
 4516TIP3    H113505   2.425   3.244   2.715
 4516TIP3    H213506   2.282   3.195   2.731
 4517TIP3   OH213507   6.412   7.285   3.451
 4517TIP3    H113508   6.323   7.256   3.470
 4517TIP3    H213509   6.408   7.317   3.361
 4518TIP3   OH213510   2.541   4.446   1.053
 4518TIP3    H113511   2.588   4.449   1.137
 4518TIP3    H213512   2.457   4.489   1.071
 4519TIP3   OH213513   3.656   1.080   4.789
 4519TIP3    H113514   3.675   0.986   4.793
 4519TIP3    H213515   3.580   1.086   4.731
 4520TIP3   OH213516   2.011   1.852   0.168
 4520TIP3    H113517   2.073   1.910   0.123
 4520TIP3    H213518   2.030   1.864   0.261
 4521TIP3   OH213519   2.627   1.172   6.580
 4521TIP3    H113520   2.584   1.103   6.630
 4521TIP3    H213521   2.580   1.252   6.603
 4522TIP3   OH213522   2.297   4.332   3.990
 4522TIP3    H113523   2.318   4.413   3.944
 4522TIP3    H213524   2.380   4.301   4.024
 4523TIP3   OH213525   7.795   5.951   1.585
 4523TIP3    H113526   7.713   5.953   1.635
 4523TIP3    H213527   7.813   6.042   1.563
 4524TIP3   OH213528   2.857   0.379   4.027
 4524TIP3    H113529   2.798   0.318   3.982
 4524TIP3    H213530   2.810   0.462   4.029
 4525TIP3   OH213531   6.492   6.816   6.154
 4525TIP3    H113532   6.400   6.840   6.171
 4525TIP3    H213533   6.539   6.848   6.231
 4526TIP3   OH213534   4.790   0.733   6.353
 4526TIP3    H113535   4.828   0.663   6.301
 4526TIP3    H213536   4.719   0.768   6.298
 4527TIP3   OH213537   6.919   6.022   2.886
 4527TIP3    H113538   6.991   6.052   2.942
 4527TIP3    H213539   6.853   5.989   2.947
 4528TIP3   OH213540   1.982   1.128   2.876
 4528TIP3    H113541   1.999   1.101   2.966
 4528TIP3    H213542   2.069   1.145   2.840
 4529TIP3   OH213543   0.626   3.264   6.376
 4529TIP3    H113544   0.641   3.186   6.323
 4529TIP3    H213545   0.637   3.235   6.466
 4530TIP3   OH213546   6.637   0.412   6.401
 4530TIP3    H113547   6.658   0.319   6.415
 4530TIP3    H213548   6.596   0.440   6.483
 4531TIP3   OH213549   2.207   3.221   0.623
 4531TIP3    H113550   2.118   3.250   0.601
 4531TIP3    H213551   2.264   3.279   0.572
 4532TIP3   OH213552   0.228   1.719   0.573
 4532TIP3    H113553   0.177   1.794   0.542
 4532TIP3    H213554   0.312   1.756   0.598
 4533TIP3   OH213555   2.816   6.074   0.429
 4533TIP3    H113556   2.842   6.135   0.498
 4533TIP3    H213557   2.884   6.007   0.429
 4534TIP3   OH213558   1.972   3.902   4.003
 4534TIP3    H113559   2.042   3.884   3.939
 4534TIP3    H213560   1.916   3.966   3.959
 4535TIP3   OH213561   6.379   4.489   1.277
 4535TIP3    H113562   6.336   4.512   1.359
 4535TIP3    H213563   6.307   4.472   1.216
 4536TIP3   OH213564   3.014   5.751   0.217
 4536TIP3    H113565   3.031   5.678   0.158
 4536TIP3    H213566   3.085   5.813   0.201
 4537TIP3   OH213567   6.049   2.857   2.800
 4537TIP3    H113568   6.022   2.878   2.711
 4537TIP3    H213569   6.045   2.940   2.848
 4538TIP3   OH213570   5.812   6.770   1.694
 4538TIP3    H113571   5.772   6.694   1.736
 4538TIP3    H213572   5.744   6.803   1.635
 4539TIP3   OH213573   6.868   2.751   1.479
 4539TIP3    H113574   6.961   2.734   1.492
 4539TIP3    H213575   6.850   2.722   1.390
 4540TIP3   OH213576   0.057   6.704   0.911
 4540TIP3    H113577   0.091   6.624   0.869
 4540TIP3    H213578   0.036   6.762   0.838
 4541TIP3   OH213579   6.585   2.731   5.981
 4541TIP3    H113580   6.574   2.778   5.898
 4541TIP3    H213581   6.556   2.641   5.961
 4542TIP3   OH213582   7.429   6.353   2.693
 4542TIP3    H113583   7.404   6.310   2.774
 4542TIP3    H213584   7.524   6.350   2.692
 4543TIP3   OH213585   3.027   3.815   1.877
 4543TIP3    H113586   3.045   3.762   1.954
 4543TIP3    H213587   2.969   3.884   1.908
 4544TIP3   OH213588   5.297   1.173   5.670
 4544TIP3    H113589   5.292   1.265   5.645
 4544TIP3    H213590   5.316   1.175   5.763
 4545TIP3   OH213591   3.554   3.287   6.484
 4545TIP3    H113592   3.566   3.382   6.475
 4545TIP3    H213593   3.511   3.261   6.402
 4546TIP3   OH213594   3.363   3.920   4.376
 4546TIP3    H113595   3.406   3.958   4.453
 4546TIP3    H213596   3.278   3.891   4.409
 4547TIP3   OH213597   2.809   7.053   3.617
 4547TIP3    H113598   2.723   7.030   3.653
 4547TIP3    H213599   2.794   7.058   3.522
 4548TIP3   OH213600   0.243   7.616   2.293
 4548TIP3    H113601   0.158   7.625   2.336
 4548TIP3    H213602   0.223   7.578   2.207
 4549TIP3   OH213603   5.373   3.340   1.123
 4549TIP3    H113604   5.412   3.256   1.097
 4549TIP3    H213605   5.303   3.316   1.183
 4550TIP3   OH213606   0.490  -0.054   4.790
 4550TIP3    H113607   0.562  -0.014   4.839
 4550TIP3    H213608   0.426   0.017   4.780
 4551TIP3   OH213609   3.183   0.126   6.698
 4551TIP3    H113610   3.248   0.100   6.762
 4551TIP3    H213611   3.199   0.219   6.683
 4552TIP3   OH213612   1.927   3.115   2.682
 4552TIP3    H113613   1.864   3.057   2.640
 4552TIP3    H213614   1.940   3.077   2.770
 4553TIP3   OH213615   6.012   2.584   0.099
 4553TIP3    H113616   5.974   2.644   0.035
 4553TIP3    H213617   6.095   2.557   0.060
 4554TIP3   OH213618   4.561   3.376   5.517
 4554TIP3    H113619   4.648   3.341   5.534
 4554TIP3    H213620   4.566   3.468   5.541
 4555TIP3   OH213621   0.063   4.285   5.454
 4555TIP3    H113622   0.099   4.264   5.367
 4555TIP3    H213623   0.070   4.204   5.503
 4556TIP3   OH213624   7.074   2.021   1.288
 4556TIP3    H113625   6.998   2.075   1.268
 4556TIP3    H213626   7.093   2.039   1.380
 4557TIP3   OH213627   1.488   4.991   4.360
 4557TIP3    H113628   1.477   4.919   4.422
 4557TIP3    H213629   1.573   5.029   4.381
 4558TIP3   OH213630   4.068   2.430   1.063
 4558TIP3    H113631   4.102   2.448   0.975
 4558TIP3    H213632   4.095   2.340   1.082
 4559TIP3   OH213633   1.801   3.055   1.990
 4559TIP3    H113634   1.736   3.104   1.939
 4559TIP3    H213635   1.755   3.029   2.069
 4560TIP3   OH213636   5.515   0.075   2.366
 4560TIP3    H113637   5.434   0.077   2.417
 4560TIP3    H213638   5.505   0.146   2.303
 4561TIP3   OH213639   3.673   4.659   6.207
 4561TIP3    H113640   3.600   4.641   6.148
 4561TIP3    H213641   3.725   4.725   6.161
 4562TIP3   OH213642   1.655   5.496   0.245
 4562TIP3    H113643   1.595   5.546   0.190
 4562TIP3    H213644   1.649   5.538   0.331
 4563TIP3   OH213645   5.919   3.414   6.426
 4563TIP3    H113646   5.886   3.346   6.367
 4563TIP3    H213647   5.854   3.421   6.495
 4564TIP3   OH213648   0.361   0.109   2.881
 4564TIP3    H113649   0.403   0.062   2.810
 4564TIP3    H213650   0.329   0.190   2.841
 4565TIP3   OH213651   7.603   7.005   0.182
 4565TIP3    H113652   7.593   7.098   0.166
 4565TIP3    H213653   7.682   6.998   0.236
 4566TIP3   OH213654   5.988   4.967   2.166
 4566TIP3    H113655   5.907   4.927   2.196
 4566TIP3    H213656   5.965   5.058   2.147
 4567TIP3   OH213657   0.049   3.804   6.332
 4567TIP3    H113658   0.072   3.748   6.406
 4567TIP3    H213659   0.101   3.770   6.259
 4568TIP3   OH213660   2.439   5.897   3.126
 4568TIP3    H113661   2.440   5.808   3.093
 4568TIP3    H213662   2.511   5.899   3.189
 4569TIP3   OH213663   1.363   2.943   2.721
 4569TIP3    H113664   1.294   2.997   2.682
 4569TIP3    H213665   1.379   2.875   2.655
 4570TIP3   OH213666   5.743   7.699   5.694
 4570TIP3    H113667   5.709   7.710   5.783
 4570TIP3    H213668   5.793   7.617   5.698
 4571TIP3   OH213669   2.471   2.701   3.024
 4571TIP3    H113670   2.423   2.686   3.106
 4571TIP3    H213671   2.428   2.646   2.960
 4572TIP3   OH213672   5.954   3.005   5.955
 4572TIP3    H113673   5.886   3.064   5.924
 4572TIP3    H213674   5.936   2.922   5.912
 4573TIP3   OH213675   6.201   4.775   1.187
 4573TIP3    H113676   6.193   4.721   1.266
 4573TIP3    H213677   6.295   4.788   1.176
 4574TIP3   OH213678   0.675   7.252   3.583
 4574TIP3    H113679   0.661   7.173   3.635
 4574TIP3    H213680   0.766   7.276   3.601
 4575TIP3   OH213681   4.445   5.846   4.085
 4575TIP3    H113682   4.430   5.755   4.111
 4575TIP3    H213683   4.363   5.890   4.108
 4576TIP3   OH213684   8.049   2.481   3.545
 4576TIP3    H113685   8.060   2.393   3.582
 4576TIP3    H213686   8.080   2.540   3.613
 4577TIP3   OH213687   1.666   2.020   2.135
 4577TIP3    H113688   1.654   1.996   2.043
 4577TIP3    H213689   1.577   2.029   2.169
 4578TIP3   OH213690   5.053   2.274   3.908
 4578TIP3    H113691   5.078   2.221   3.833
 4578TIP3    H213692   5.005   2.214   3.966
 4579TIP3   OH213693   6.292   3.408   6.409
 4579TIP3    H113694   6.255   3.382   6.494
 4579TIP3    H213695   6.358   3.342   6.391
 4580TIP3   OH213696   3.164   6.534   2.781
 4580TIP3    H113697   3.123   6.450   2.759
 4580TIP3    H213698   3.221   6.515   2.855
 4581TIP3   OH213699   0.304   1.237   1.814
 4581TIP3    H113700   0.342   1.211   1.730
 4581TIP3    H213701   0.373   1.219   1.878
 4582TIP3   OH213702   4.656   5.106   3.101
 4582TIP3    H113703   4.712   5.171   3.058
 4582TIP3    H213704   4.679   5.023   3.059
 4583TIP3   OH213705   1.456   4.194   4.400
 4583TIP3    H113706   1.483   4.104   4.384
 4583TIP3    H213707   1.366   4.187   4.432
 4584TIP3   OH213708   3.103   2.947   1.405
 4584TIP3    H113709   3.080   3.016   1.467
 4584TIP3    H213710   3.141   2.878   1.459
 4585TIP3   OH213711   1.762   4.096   0.946
 4585TIP3    H113712   1.824   4.046   0.999
 4585TIP3    H213713   1.744   4.040   0.870
 4586TIP3   OH213714   6.888   2.889   3.574
 4586TIP3    H113715   6.810   2.927   3.533
 4586TIP3    H213716   6.854   2.821   3.632
 4587TIP3   OH213717   0.935   7.323   6.120
 4587TIP3    H113718   0.942   7.228   6.120
 4587TIP3    H213719   0.936   7.347   6.027
 4588TIP3   OH213720   1.237   5.734   1.802
 4588TIP3    H113721   1.312   5.709   1.855
 4588TIP3    H213722   1.259   5.708   1.713
 4589TIP3   OH213723   3.545   6.448   2.299
 4589TIP3    H113724   3.463   6.420   2.257
 4589TIP3    H213725   3.542   6.544   2.296
 4590TIP3   OH213726   3.855   1.442   0.401
 4590TIP3    H113727   3.924   1.449   0.467
 4590TIP3    H213728   3.774   1.437   0.451
 4591TIP3   OH213729   3.999   4.307   3.859
 4591TIP3    H113730   3.909   4.280   3.877
 4591TIP3    H213731   4.052   4.253   3.917
 4592TIP3   OH213732   3.378   4.411   5.241
 4592TIP3    H113733   3.342   4.500   5.230
 4592TIP3    H213734   3.302   4.358   5.266
 4593TIP3   OH213735   6.806   5.706   5.166
 4593TIP3    H113736   6.765   5.765   5.103
 4593TIP3    H213737   6.746   5.704   5.241
 4594TIP3   OH213738   0.309   5.573   1.428
 4594TIP3    H113739   0.296   5.599   1.337
 4594TIP3    H213740   0.259   5.636   1.479
 4595TIP3   OH213741   0.143   5.137   4.104
 4595TIP3    H113742   0.199   5.202   4.148
 4595TIP3    H213743   0.086   5.104   4.172
 4596TIP3   OH213744   6.382   0.158   6.437
 4596TIP3    H113745   6.373   0.226   6.504
 4596TIP3    H213746   6.476   0.144   6.429
 4597TIP3   OH213747   0.973   5.521   3.802
 4597TIP3    H113748   1.005   5.431   3.802
 4597TIP3    H213749   0.907   5.524   3.871
 4598TIP3   OH213750   3.313   5.168   1.534
 4598TIP3    H113751   3.343   5.219   1.458
 4598TIP3    H213752   3.332   5.224   1.609
 4599TIP3   OH213753   7.150   3.760   1.070
 4599TIP3    H113754   7.195   3.700   1.129
 4599TIP3    H213755   7.086   3.805   1.125
 4600TIP3   OH213756   4.551   2.929   2.515
 4600TIP3    H113757   4.576   2.847   2.558
 4600TIP3    H213758   4.493   2.972   2.578
 4601TIP3   OH213759   7.026   2.111   4.255
 4601TIP3    H113760   7.000   2.132   4.344
 4601TIP3    H213761   7.122   2.111   4.258
 4602TIP3   OH213762   7.369   6.491   4.733
 4602TIP3    H113763   7.317   6.539   4.797
 4602TIP3    H213764   7.443   6.457   4.782
 4603TIP3   OH213765   3.515   1.429   3.475
 4603TIP3    H113766   3.428   1.390   3.481
 4603TIP3    H213767   3.538   1.450   3.566
 4604TIP3   OH213768   6.933   6.675   2.891
 4604TIP3    H113769   6.935   6.761   2.850
 4604TIP3    H213770   6.873   6.684   2.966
 4605TIP3   OH213771   7.010   5.226   4.083
 4605TIP3    H113772   7.021   5.174   4.004
 4605TIP3    H213773   6.952   5.298   4.057
 4606TIP3   OH213774   6.398   5.181   2.404
 4606TIP3    H113775   6.331   5.138   2.350
 4606TIP3    H213776   6.479   5.134   2.384
 4607TIP3   OH213777   6.596   1.342   1.933
 4607TIP3    H113778   6.683   1.374   1.954
 4607TIP3    H213779   6.603   1.247   1.940
 4608TIP3   OH213780   4.953   3.471   4.957
 4608TIP3    H113781   4.986   3.389   4.919
 4608TIP3    H213782   4.913   3.444   5.040
 4609TIP3   OH213783   6.175   2.265   4.818
 4609TIP3    H113784   6.104   2.271   4.754
 4609TIP3    H213785   6.181   2.354   4.854
 4610TIP3   OH213786   5.067   7.329   4.480
 4610TIP3    H113787   4.985   7.308   4.524
 4610TIP3    H213788   5.054   7.298   4.390
 4611TIP3   OH213789   7.514   4.660   6.574
 4611TIP3    H113790   7.424   4.632   6.554
 4611TIP3    H213791   7.552   4.683   6.490
 4612TIP3   OH213792   0.122   6.139   5.326
 4612TIP3    H113793   0.122   6.192   5.405
 4612TIP3    H213794   0.137   6.201   5.254
 4613TIP3   OH213795   8.061   4.904   1.240
 4613TIP3    H113796   8.059   4.851   1.320
 4613TIP3    H213797   7.969   4.913   1.215
 4614TIP3   OH213798   0.880   2.927   2.960
 4614TIP3    H113799   0.807   2.867   2.973
 4614TIP3    H213800   0.896   2.925   2.865
 4615TIP3   OH213801   4.963   2.635   4.044
 4615TIP3    H113802   5.008   2.553   4.063
 4615TIP3    H213803   4.870   2.612   4.045
 4616TIP3   OH213804   0.540   0.344   5.647
 4616TIP3    H113805   0.629   0.362   5.680
 4616TIP3    H213806   0.546   0.360   5.553
 4617TIP3   OH213807   5.210   1.107   6.247
 4617TIP3    H113808   5.289   1.086   6.296
 4617TIP3    H213809   5.194   1.199   6.265
 4618TIP3   OH213810   0.812   0.439   5.666
 4618TIP3    H113811   0.873   0.401   5.603
 4618TIP3    H213812   0.775   0.515   5.621
 4619TIP3   OH213813   3.923   7.674   1.271
 4619TIP3    H113814   3.952   7.710   1.188
 4619TIP3    H213815   3.827   7.681   1.269
 4620TIP3   OH213816   8.315   4.486   1.447
 4620TIP3    H113817   8.296   4.557   1.385
 4620TIP3    H213818   8.268   4.510   1.526
 4621TIP3   OH213819   7.800   6.391   2.475
 4621TIP3    H113820   7.711   6.409   2.442
 4621TIP3    H213821   7.843   6.346   2.402
 4622TIP3   OH213822   4.272   7.386   5.368
 4622TIP3    H113823   4.311   7.453   5.424
 4622TIP3    H213824   4.178   7.395   5.381
 4623TIP3   OH213825   7.195   5.046   1.957
 4623TIP3    H113826   7.203   5.034   2.052
 4623TIP3    H213827   7.128   5.112   1.946
 4624TIP3   OH213828   6.317   7.154   1.998
 4624TIP3    H113829   6.371   7.091   2.046
 4624TIP3    H213830   6.250   7.180   2.061
 4625TIP3   OH213831   0.909   5.421   1.740
 4625TIP3    H113832   0.848   5.350   1.760
 4625TIP3    H213833   0.979   5.379   1.691
 4626TIP3   OH213834   2.224   0.824   1.483
 4626TIP3    H113835   2.154   0.789   1.538
 4626TIP3    H213836   2.305   0.802   1.529
 4627TIP3   OH213837   5.699   7.368   5.378
 4627TIP3    H113838   5.777   7.319   5.351
 4627TIP3    H213839   5.697   7.359   5.473
 4628TIP3   OH213840   6.031   1.180   3.009
 4628TIP3    H113841   5.978   1.101   3.020
 4628TIP3    H213842   5.972   1.251   3.036
 4629TIP3   OH213843   0.052   7.601   3.883
 4629TIP3    H113844   0.146   7.604   3.868
 4629TIP3    H213845   0.032   7.508   3.894
 4630TIP3   OH213846   7.396   1.494   6.783
 4630TIP3    H113847   7.428   1.584   6.789
 4630TIP3    H213848   7.410   1.470   6.692
 4631TIP3   OH213849   7.772   3.747   0.706
 4631TIP3    H113850   7.712   3.719   0.776
 4631TIP3    H213851   7.729   3.718   0.625
 4632TIP3   OH213852   1.985   3.344   3.239
 4632TIP3    H113853   2.047   3.377   3.174
 4632TIP3    H213854   1.949   3.265   3.199
 4633TIP3   OH213855   7.560   2.964   2.964
 4633TIP3    H113856   7.555   3.048   3.011
 4633TIP3    H213857   7.483   2.916   2.994
 4634TIP3   OH213858   4.659   1.756   2.744
 4634TIP3    H113859   4.656   1.709   2.828
 4634TIP3    H213860   4.753   1.765   2.726
 4635TIP3   OH213861   2.921   6.665   3.679
 4635TIP3    H113862   2.939   6.692   3.589
 4635TIP3    H213863   2.998   6.693   3.729
 4636TIP3   OH213864   8.033   3.959   1.474
 4636TIP3    H113865   8.107   3.942   1.533
 4636TIP3    H213866   8.074   3.993   1.394
 4637TIP3   OH213867   4.975   1.133   4.632
 4637TIP3    H113868   4.942   1.183   4.707
 4637TIP3    H213869   4.913   1.151   4.562
 4638TIP3   OH213870   4.569   1.233   6.411
 4638TIP3    H113871   4.577   1.179   6.490
 4638TIP3    H213872   4.500   1.192   6.360
 4639TIP3   OH213873   0.209   1.717   4.566
 4639TIP3    H113874   0.220   1.786   4.631
 4639TIP3    H213875   0.145   1.752   4.504
 4640TIP3   OH213876   2.820   5.501   4.339
 4640TIP3    H113877   2.795   5.480   4.429
 4640TIP3    H213878   2.796   5.593   4.329
 4641TIP3   OH213879   0.233   6.298   3.528
 4641TIP3    H113880   0.243   6.393   3.531
 4641TIP3    H213881   0.291   6.271   3.457
 4642TIP3   OH213882   6.356   2.714   1.385
 4642TIP3    H113883   6.420   2.680   1.448
 4642TIP3    H213884   6.405   2.727   1.305
 4643TIP3   OH213885   5.418   1.356   1.908
 4643TIP3    H113886   5.513   1.366   1.905
 4643TIP3    H213887   5.403   1.282   1.966
 4644TIP3   OH213888   7.950   4.191   3.478
 4644TIP3    H113889   7.870   4.225   3.437
 4644TIP3    H213890   7.955   4.235   3.562
 4645TIP3   OH213891   5.234   1.544   4.278
 4645TIP3    H113892   5.285   1.618   4.310
 4645TIP3    H213893   5.167   1.530   4.345
 4646TIP3   OH213894   3.430   3.042   2.051
 4646TIP3    H113895   3.362   3.042   1.984
 4646TIP3    H213896   3.489   2.971   2.025
 4647TIP3   OH213897   2.177   2.259   1.927
 4647TIP3    H113898   2.123   2.186   1.898
 4647TIP3    H213899   2.238   2.273   1.855
 4648TIP3   OH213900   5.010   1.702   6.319
 4648TIP3    H113901   4.973   1.646   6.388
 4648TIP3    H213902   4.939   1.761   6.296
 4649TIP3   OH213903   4.116   0.417   0.290
 4649TIP3    H113904   4.063   0.373   0.357
 4649TIP3    H213905   4.077   0.504   0.283
 4650TIP3   OH213906   7.054   5.565   4.183
 4650TIP3    H113907   6.959   5.566   4.191
 4650TIP3    H213908   7.076   5.650   4.145
 4651TIP3   OH213909   7.532   6.445   1.622
 4651TIP3    H113910   7.499   6.417   1.537
 4651TIP3    H213911   7.552   6.538   1.611
 4652TIP3   OH213912   1.884   3.916   1.593
 4652TIP3    H113913   1.944   3.917   1.518
 4652TIP3    H213914   1.894   4.003   1.632
 4653TIP3   OH213915   4.446   1.759   1.583
 4653TIP3    H113916   4.385   1.795   1.647
 4653TIP3    H213917   4.454   1.667   1.606
 4654TIP3   OH213918   8.119   0.099   2.756
 4654TIP3    H113919   8.199   0.148   2.775
 4654TIP3    H213920   8.146   0.030   2.696
 4655TIP3   OH213921   7.980   2.324   5.735
 4655TIP3    H113922   7.886   2.341   5.727
 4655TIP3    H213923   7.987   2.262   5.808
 4656TIP3   OH213924   1.661   0.652   5.761
 4656TIP3    H113925   1.601   0.650   5.687
 4656TIP3    H213926   1.605   0.662   5.838
 4657TIP3   OH213927   1.330   3.994   0.422
 4657TIP3    H113928   1.260   4.052   0.454
 4657TIP3    H213929   1.292   3.948   0.348
 4658TIP3   OH213930   3.226   4.703   1.619
 4658TIP3    H113931   3.206   4.790   1.652
 4658TIP3    H213932   3.150   4.679   1.566
 4659TIP3   OH213933   3.030   0.413   6.358
 4659TIP3    H113934   2.973   0.359   6.304
 4659TIP3    H213935   3.009   0.388   6.448
 4660TIP3   OH213936   7.976   3.404   6.452
 4660TIP3    H113937   7.995   3.476   6.393
 4660TIP3    H213938   7.891   3.371   6.423
 4661TIP3   OH213939   6.246   0.861   4.127
 4661TIP3    H113940   6.204   0.857   4.041
 4661TIP3    H213941   6.219   0.781   4.172
 4662TIP3   OH213942   6.008   2.604   6.620
 4662TIP3    H113943   6.040   2.548   6.691
 4662TIP3    H213944   6.031   2.692   6.648
 4663TIP3   OH213945   8.285   2.518   6.108
 4663TIP3    H113946   8.340   2.568   6.047
 4663TIP3    H213947   8.196   2.544   6.085
 4664TIP3   OH213948   5.280   6.979   2.653
 4664TIP3    H113949   5.336   7.023   2.589
 4664TIP3    H213950   5.192   7.013   2.635
 4665TIP3   OH213951   4.738   6.402   0.350
 4665TIP3    H113952   4.716   6.348   0.274
 4665TIP3    H213953   4.732   6.492   0.319
 4666TIP3   OH213954   6.105   1.712   4.540
 4666TIP3    H113955   6.123   1.697   4.447
 4666TIP3    H213956   6.118   1.806   4.552
 4667TIP3   OH213957   1.963   1.911   4.150
 4667TIP3    H113958   1.970   1.969   4.225
 4667TIP3    H213959   2.046   1.922   4.103
 4668TIP3   OH213960   7.388   6.486   1.089
 4668TIP3    H113961   7.322   6.554   1.072
 4668TIP3    H213962   7.461   6.510   1.032
 4669TIP3   OH213963   4.313   4.806   2.443
 4669TIP3    H113964   4.251   4.845   2.504
 4669TIP3    H213965   4.358   4.882   2.404
 4670TIP3   OH213966   2.945   4.598   5.584
 4670TIP3    H113967   2.856   4.628   5.562
 4670TIP3    H213968   2.952   4.612   5.679
 4671TIP3   OH213969   1.415   0.338   1.233
 4671TIP3    H113970   1.333   0.302   1.200
 4671TIP3    H213971   1.398   0.431   1.242
 4672TIP3   OH213972   6.016   2.717   0.931
 4672TIP3    H113973   6.061   2.780   0.874
 4672TIP3    H213974   6.064   2.721   1.014
 4673TIP3   OH213975   3.512   3.240   0.345
 4673TIP3    H113976   3.523   3.309   0.279
 4673TIP3    H213977   3.484   3.287   0.424
 4674TIP3   OH213978   2.351   4.736   3.611
 4674TIP3    H113979   2.288   4.808   3.603
 4674TIP3    H213980   2.335   4.681   3.535
 4675TIP3   OH213981   2.277   6.076   2.463
 4675TIP3    H113982   2.264   5.988   2.429
 4675TIP3    H213983   2.189   6.108   2.482
 4676TIP3   OH213984   7.565   4.448   1.376
 4676TIP3    H113985   7.554   4.428   1.283
 4676TIP3    H213986   7.482   4.421   1.415
 4677TIP3   OH213987   3.660   4.569   5.308
 4677TIP3    H113988   3.671   4.631   5.380
 4677TIP3    H213989   3.704   4.489   5.339
 4678TIP3   OH213990   2.957   1.777   5.348
 4678TIP3    H113991   2.998   1.727   5.277
 4678TIP3    H213992   3.029   1.805   5.403
 4679TIP3   OH213993   0.218   3.629   1.186
 4679TIP3    H113994   0.184   3.562   1.127
 4679TIP3    H213995   0.190   3.601   1.273
 4680TIP3   OH213996   7.874   4.296   6.001
 4680TIP3    H113997   7.788   4.279   6.040
 4680TIP3    H213998   7.856   4.354   5.927
 4681TIP3   OH213999   2.006   7.260   5.162
 4681TIP3    H114000   2.019   7.351   5.135
 4681TIP3    H214001   2.076   7.242   5.224
 4682TIP3   OH214002   2.408   2.954   6.204
 4682TIP3    H114003   2.389   2.972   6.296
 4682TIP3    H214004   2.429   3.040   6.167
 4683TIP3   OH214005   0.153   1.964   3.303
 4683TIP3    H114006   0.146   1.954   3.398
 4683TIP3    H214007   0.139   2.057   3.287
 4684TIP3   OH214008   6.554   1.505   1.493
 4684TIP3    H114009   6.522   1.509   1.584
 4684TIP3    H214010   6.630   1.563   1.492
 4685TIP3   OH214011   4.077   7.825   5.534
 4685TIP3    H114012   4.125   7.863   5.607
 4685TIP3    H214013   4.088   7.731   5.544
 4686TIP3   OH214014   8.180   4.427   2.375
 4686TIP3    H114015   8.159   4.416   2.282
 4686TIP3    H214016   8.165   4.341   2.414
 4687TIP3   OH214017   4.771   0.097   5.688
 4687TIP3    H114018   4.802   0.152   5.760
 4687TIP3    H214019   4.711   0.035   5.730
 4688TIP3   OH214020   1.669   1.494   0.470
 4688TIP3    H114021   1.747   1.545   0.448
 4688TIP3    H214022   1.610   1.557   0.511
 4689TIP3   OH214023   1.717   7.379   2.229
 4689TIP3    H114024   1.775   7.305   2.213
 4689TIP3    H214025   1.676   7.360   2.314
 4690TIP3   OH214026   4.632   3.770   5.918
 4690TIP3    H114027   4.541   3.789   5.943
 4690TIP3    H214028   4.627   3.685   5.875
 4691TIP3   OH214029   7.548   6.291   0.130
 4691TIP3    H114030   7.555   6.244   0.213
 4691TIP3    H214031   7.549   6.223   0.063
 4692TIP3   OH214032   0.809   0.111   6.085
 4692TIP3    H114033   0.834   0.076   6.170
 4692TIP3    H214034   0.885   0.093   6.029
 4693TIP3   OH214035   3.414   3.482   0.236
 4693TIP3    H114036   3.412   3.513   0.327
 4693TIP3    H214037   3.329   3.507   0.200
 4694TIP3   OH214038   5.958   3.537   1.981
 4694TIP3    H114039   5.949   3.515   1.888
 4694TIP3    H214040   5.911   3.468   2.027
 4695TIP3   OH214041   3.813   0.881   5.533
 4695TIP3    H114042   3.863   0.919   5.606
 4695TIP3    H214043   3.853   0.795   5.520
 4696TIP3   OH214044   5.153   6.020   2.940
 4696TIP3    H114045   5.150   6.104   2.895
 4696TIP3    H214046   5.144   6.042   3.033
 4697TIP3   OH214047   0.127   3.973   5.859
 4697TIP3    H114048   0.155   4.027   5.785
 4697TIP3    H214049   0.188   3.899   5.859
 4698TIP3   OH214050   1.686   5.120   2.249
 4698TIP3    H114051   1.731   5.169   2.180
 4698TIP3    H214052   1.669   5.185   2.317
 4699TIP3   OH214053   0.920   7.212   5.365
 4699TIP3    H114054   1.003   7.233   5.407
 4699TIP3    H214055   0.930   7.244   5.275
 4700TIP3   OH214056   6.546   0.203   0.497
 4700TIP3    H114057   6.609   0.236   0.433
 4700TIP3    H214058   6.553   0.263   0.571
 4701TIP3   OH214059   6.678   7.070   0.417
 4701TIP3    H114060   6.749   7.081   0.355
 4701TIP3    H214061   6.654   7.159   0.444
 4702TIP3   OH214062   3.993   5.818   2.629
 4702TIP3    H114063   4.050   5.883   2.672
 4702TIP3    H214064   3.932   5.870   2.577
 4703TIP3   OH214065   4.450   2.717   6.373
 4703TIP3    H114066   4.393   2.665   6.315
 4703TIP3    H214067   4.436   2.679   6.460
 4704TIP3   OH214068   3.812   0.148   5.992
 4704TIP3    H114069   3.720   0.149   6.018
 4704TIP3    H214070   3.815   0.086   5.919
 4705TIP3   OH214071   0.318   3.385   1.684
 4705TIP3    H114072   0.239   3.335   1.662
 4705TIP3    H214073   0.326   3.376   1.779
 4706TIP3   OH214074   6.360   2.234   2.280
 4706TIP3    H114075   6.413   2.261   2.355
 4706TIP3    H214076   6.399   2.279   2.206
 4707TIP3   OH214077   3.494   4.479   0.040
 4707TIP3    H114078   3.523   4.434   0.120
 4707TIP3    H214079   3.460   4.563   0.071
 4708TIP3   OH214080   0.217   6.504   0.144
 4708TIP3    H114081   0.238   6.431   0.085
 4708TIP3    H214082   0.175   6.462   0.219
 4709TIP3   OH214083   6.386   7.109   2.754
 4709TIP3    H114084   6.452   7.112   2.822
 4709TIP3    H214085   6.362   7.016   2.748
 4710TIP3   OH214086   3.532   4.267   2.987
 4710TIP3    H114087   3.488   4.189   3.021
 4710TIP3    H214088   3.561   4.242   2.900
 4711TIP3   OH214089   5.820   7.387   3.714
 4711TIP3    H114090   5.811   7.383   3.619
 4711TIP3    H214091   5.821   7.481   3.734
 4712TIP3   OH214092   8.250   6.137   3.942
 4712TIP3    H114093   8.176   6.145   3.882
 4712TIP3    H214094   8.326   6.157   3.888
 4713TIP3   OH214095   7.270   6.257   3.209
 4713TIP3    H114096   7.301   6.209   3.286
 4713TIP3    H214097   7.309   6.344   3.218
 4714TIP3   OH214098   0.675   2.448   4.416
 4714TIP3    H114099   0.615   2.514   4.383
 4714TIP3    H214100   0.623   2.394   4.475
 4715TIP3   OH214101   4.797   5.377   4.572
 4715TIP3    H114102   4.790   5.394   4.478
 4715TIP3    H214103   4.890   5.358   4.585
 4716TIP3   OH214104   1.838   5.697   1.632
 4716TIP3    H114105   1.808   5.709   1.542
 4716TIP3    H214106   1.871   5.783   1.658
 4717TIP3   OH214107   6.939   3.549   0.386
 4717TIP3    H114108   6.938   3.627   0.442
 4717TIP3    H214109   7.021   3.505   0.408
 4718TIP3   OH214110   3.567   3.653   6.244
 4718TIP3    H114111   3.609   3.625   6.163
 4718TIP3    H214112   3.483   3.691   6.217
 4719TIP3   OH214113   3.013   2.792   6.555
 4719TIP3    H114114   3.056   2.706   6.548
 4719TIP3    H214115   3.084   2.853   6.574
 4720TIP3   OH214116   0.545   7.677   2.559
 4720TIP3    H114117   0.586   7.737   2.621
 4720TIP3    H214118   0.510   7.606   2.613
 4721TIP3   OH214119   7.700   1.701   4.101
 4721TIP3    H114120   7.740   1.686   4.015
 4721TIP3    H214121   7.693   1.797   4.107
 4722TIP3   OH214122   7.990   4.070   2.492
 4722TIP3    H114123   8.020   4.140   2.550
 4722TIP3    H214124   7.991   3.992   2.548
 4723TIP3   OH214125   6.278   5.876   4.332
 4723TIP3    H114126   6.348   5.942   4.331
 4723TIP3    H214127   6.323   5.793   4.323
 4724TIP3   OH214128   6.208   4.063   2.931
 4724TIP3    H114129   6.240   4.148   2.901
 4724TIP3    H214130   6.287   4.010   2.942
 4725TIP3   OH214131   4.223   7.603   1.750
 4725TIP3    H114132   4.249   7.610   1.658
 4725TIP3    H214133   4.142   7.552   1.748
 4726TIP3   OH214134   2.911   5.588   2.068
 4726TIP3    H114135   2.916   5.516   2.131
 4726TIP3    H214136   2.862   5.551   1.994
 4727TIP3   OH214137   0.021   7.004   5.763
 4727TIP3    H114138   0.019   6.911   5.741
 4727TIP3    H214139   0.070   7.008   5.845
 4728TIP3   OH214140   2.407   6.350   3.188
 4728TIP3    H114141   2.376   6.427   3.141
 4728TIP3    H214142   2.377   6.364   3.278
 4729TIP3   OH214143   0.421   3.174   4.121
 4729TIP3    H114144   0.385   3.098   4.167
 4729TIP3    H214145   0.391   3.163   4.030
 4730TIP3   OH214146   4.559   7.459   2.372
 4730TIP3    H114147   4.547   7.412   2.455
 4730TIP3    H214148   4.499   7.414   2.311
 4731TIP3   OH214149   4.053   6.539   5.557
 4731TIP3    H114150   4.077   6.502   5.641
 4731TIP3    H214151   4.014   6.466   5.508
 4732TIP3   OH214152   6.448   7.831   2.995
 4732TIP3    H114153   6.423   7.766   3.060
 4732TIP3    H214154   6.369   7.843   2.942
 4733TIP3   OH214155   0.982   6.501   0.565
 4733TIP3    H114156   1.063   6.505   0.515
 4733TIP3    H214157   1.003   6.446   0.640
 4734TIP3   OH214158   7.354   3.521   2.787
 4734TIP3    H114159   7.387   3.594   2.839
 4734TIP3    H214160   7.424   3.502   2.725
 4735TIP3   OH214161   3.594   4.092   5.375
 4735TIP3    H114162   3.548   4.045   5.306
 4735TIP3    H214163   3.603   4.028   5.446
 4736TIP3   OH214164   1.966   3.228   6.741
 4736TIP3    H114165   1.910   3.154   6.717
 4736TIP3    H214166   1.908   3.286   6.792
 4737TIP3   OH214167   0.943   2.521   4.403
 4737TIP3    H114168   0.850   2.500   4.404
 4737TIP3    H214169   0.982   2.462   4.468
 4738TIP3   OH214170   0.943   3.996   0.462
 4738TIP3    H114171   0.877   4.056   0.425
 4738TIP3    H214172   1.018   4.052   0.480
 4739TIP3   OH214173   5.114   1.659   3.593
 4739TIP3    H114174   5.087   1.716   3.665
 4739TIP3    H214175   5.107   1.571   3.628
 4740TIP3   OH214176   4.152   6.533   4.880
 4740TIP3    H114177   4.243   6.561   4.881
 4740TIP3    H214178   4.152   6.452   4.828
 4741TIP3   OH214179   0.703   7.407   2.334
 4741TIP3    H114180   0.724   7.468   2.405
 4741TIP3    H214181   0.625   7.361   2.365
 4742TIP3   OH214182   1.598   0.202   3.618
 4742TIP3    H114183   1.645   0.156   3.687
 4742TIP3    H214184   1.507   0.203   3.647
 4743TIP3   OH214185   0.316   1.942   1.778
 4743TIP3    H114186   0.373   1.894   1.717
 4743TIP3    H214187   0.246   1.977   1.723
 4744TIP3   OH214188   5.389   3.744   2.689
 4744TIP3    H114189   5.444   3.726   2.613
 4744TIP3    H214190   5.383   3.661   2.735
 4745TIP3   OH214191   2.143   2.462   5.535
 4745TIP3    H114192   2.214   2.518   5.568
 4745TIP3    H214193   2.063   2.503   5.567
 4746TIP3   OH214194   5.106   6.186   3.451
 4746TIP3    H114195   5.114   6.185   3.546
 4746TIP3    H214196   5.012   6.179   3.435
 4747TIP3   OH214197   4.997   0.296   2.857
 4747TIP3    H114198   5.070   0.247   2.819
 4747TIP3    H214199   5.033   0.335   2.937
 4748TIP3   OH214200   4.872   1.682   5.859
 4748TIP3    H114201   4.830   1.603   5.825
 4748TIP3    H214202   4.885   1.665   5.952
 4749TIP3   OH214203   0.361   6.790   3.518
 4749TIP3    H114204   0.446   6.775   3.560
 4749TIP3    H214205   0.345   6.884   3.528
 4750TIP3   OH214206   2.598   2.925   5.475
 4750TIP3    H114207   2.625   2.935   5.567
 4750TIP3    H214208   2.600   2.830   5.461
 4751TIP3   OH214209   7.146   3.336   3.867
 4751TIP3    H114210   7.232   3.295   3.860
 4751TIP3    H214211   7.105   3.322   3.782
 4752TIP3   OH214212   3.053   0.298   0.812
 4752TIP3    H114213   3.071   0.265   0.724
 4752TIP3    H214214   2.960   0.278   0.827
 4753TIP3   OH214215   5.418   0.115   0.117
 4753TIP3    H114216   5.432   0.155   0.031
 4753TIP3    H214217   5.403   0.189   0.176
 4754TIP3   OH214218   8.036   2.621   4.269
 4754TIP3    H114219   8.059   2.714   4.267
 4754TIP3    H214220   8.069   2.586   4.187
 4755TIP3   OH214221   1.408   1.279   2.836
 4755TIP3    H114222   1.474   1.266   2.768
 4755TIP3    H214223   1.402   1.194   2.881
 4756TIP3   OH214224   4.529   3.196   3.173
 4756TIP3    H114225   4.592   3.209   3.102
 4756TIP3    H214226   4.444   3.221   3.135
 4757TIP3   OH214227   0.389   4.805   4.163
 4757TIP3    H114228   0.335   4.800   4.242
 4757TIP3    H214229   0.361   4.731   4.110
 4758TIP3   OH214230   6.111   1.032   0.405
 4758TIP3    H114231   6.042   0.985   0.359
 4758TIP3    H214232   6.129   0.979   0.482
 4759TIP3   OH214233   7.108   2.135   6.432
 4759TIP3    H114234   7.046   2.066   6.455
 4759TIP3    H214235   7.093   2.204   6.497
 4760TIP3   OH214236   7.401   3.748   2.929
 4760TIP3    H114237   7.429   3.805   2.857
 4760TIP3    H214238   7.465   3.763   2.998
 4761TIP3   OH214239   3.117   0.421   6.095
 4761TIP3    H114240   3.126   0.467   6.179
 4761TIP3    H214241   3.195   0.447   6.046
 4762TIP3   OH214242   5.002   5.473   5.792
 4762TIP3    H114243   5.011   5.445   5.883
 4762TIP3    H214244   4.950   5.553   5.796
 4763TIP3   OH214245   6.417   1.538   0.687
 4763TIP3    H114246   6.485   1.478   0.716
 4763TIP3    H214247   6.385   1.578   0.768
 4764TIP3   OH214248   1.785   1.897   4.457
 4764TIP3    H114249   1.700   1.938   4.471
 4764TIP3    H214250   1.835   1.961   4.406
 4765TIP3   OH214251   1.215   4.431   3.735
 4765TIP3    H114252   1.226   4.343   3.771
 4765TIP3    H214253   1.131   4.461   3.771
 4766TIP3   OH214254   4.436   2.934   4.958
 4766TIP3    H114255   4.444   2.854   4.907
 4766TIP3    H214256   4.364   2.982   4.917
 4767TIP3   OH214257   7.376   6.422   6.318
 4767TIP3    H114258   7.450   6.465   6.277
 4767TIP3    H214259   7.358   6.346   6.262
 4768TIP3   OH214260   6.218   5.059   6.330
 4768TIP3    H114261   6.267   5.140   6.332
 4768TIP3    H214262   6.279   4.994   6.295
 4769TIP3   OH214263   5.810   2.388   3.111
 4769TIP3    H114264   5.732   2.333   3.120
 4769TIP3    H214265   5.862   2.367   3.189
 4770TIP3   OH214266   8.245   0.238   1.295
 4770TIP3    H114267   8.224   0.194   1.213
 4770TIP3    H214268   8.314   0.300   1.272
 4771TIP3   OH214269   2.497   4.218   2.869
 4771TIP3    H114270   2.466   4.272   2.796
 4771TIP3    H214271   2.584   4.189   2.841
 4772TIP3   OH214272   1.114   7.262   5.141
 4772TIP3    H114273   1.178   7.293   5.205
 4772TIP3    H214274   1.167   7.216   5.075
 4773TIP3   OH214275   3.564   4.284   1.385
 4773TIP3    H114276   3.518   4.356   1.428
 4773TIP3    H214277   3.625   4.251   1.451
 4774TIP3   OH214278   4.141   4.355   3.192
 4774TIP3    H114279   4.048   4.334   3.199
 4774TIP3    H214280   4.143   4.450   3.181
 4775TIP3   OH214281   4.370   5.061   6.397
 4775TIP3    H114282   4.413   5.090   6.317
 4775TIP3    H214283   4.435   5.006   6.440
 4776TIP3   OH214284   5.690   2.007   3.612
 4776TIP3    H114285   5.753   2.077   3.596
 4776TIP3    H214286   5.627   2.046   3.673
 4777TIP3   OH214287   4.175   7.447   2.427
 4777TIP3    H114288   4.112   7.424   2.495
 4777TIP3    H214289   4.238   7.504   2.471
 4778TIP3   OH214290   1.596   5.527   2.335
 4778TIP3    H114291   1.502   5.547   2.329
 4778TIP3    H214292   1.622   5.510   2.244
 4779TIP3   OH214293   1.677   2.146   4.762
 4779TIP3    H114294   1.767   2.121   4.786
 4779TIP3    H214295   1.670   2.237   4.789
 4780TIP3   OH214296   3.065   1.863   4.575
 4780TIP3    H114297   3.039   1.921   4.647
 4780TIP3    H214298   3.147   1.900   4.544
 4781TIP3   OH214299   3.505   2.365   4.343
 4781TIP3    H114300   3.595   2.335   4.332
 4781TIP3    H214301   3.470   2.371   4.254
 4782TIP3   OH214302   0.976   1.047   0.511
 4782TIP3    H114303   0.932   0.968   0.482
 4782TIP3    H214304   0.990   1.034   0.605
 4783TIP3   OH214305   1.105   1.204   4.833
 4783TIP3    H114306   1.169   1.146   4.793
 4783TIP3    H214307   1.153   1.286   4.849
 4784TIP3   OH214308   1.501   3.475   0.843
 4784TIP3    H114309   1.470   3.556   0.801
 4784TIP3    H214310   1.424   3.442   0.889
 4785TIP3   OH214311   0.184   7.535   2.046
 4785TIP3    H114312   0.172   7.563   1.955
 4785TIP3    H214313   0.218   7.446   2.039
 4786TIP3   OH214314   6.258   2.962   2.586
 4786TIP3    H114315   6.217   3.037   2.630
 4786TIP3    H214316   6.296   2.910   2.657
 4787TIP3   OH214317   2.905   7.070   4.291
 4787TIP3    H114318   2.910   7.110   4.377
 4787TIP3    H214319   2.890   7.143   4.231
 4788TIP3   OH214320   4.032   7.339   6.647
 4788TIP3    H114321   3.946   7.371   6.675
 4788TIP3    H214322   4.086   7.418   6.640
 4789TIP3   OH214323   8.040   7.450   1.389
 4789TIP3    H114324   7.968   7.400   1.350
 4789TIP3    H214325   8.013   7.465   1.480
 4790TIP3   OH214326   4.292   3.843   1.467
 4790TIP3    H114327   4.357   3.829   1.398
 4790TIP3    H214328   4.287   3.759   1.512
 4791TIP3   OH214329   4.292   5.943   1.155
 4791TIP3    H114330   4.349   5.957   1.231
 4791TIP3    H214331   4.240   5.866   1.178
 4792TIP3   OH214332   2.029   7.675   1.492
 4792TIP3    H114333   2.029   7.582   1.472
 4792TIP3    H214334   2.033   7.679   1.588
 4793TIP3   OH214335   7.759   3.179   0.275
 4793TIP3    H114336   7.670   3.150   0.254
 4793TIP3    H214337   7.792   3.217   0.194
 4794TIP3   OH214338   5.670   1.771   0.876
 4794TIP3    H114339   5.628   1.798   0.958
 4794TIP3    H214340   5.610   1.800   0.808
 4795TIP3   OH214341   3.186   6.314   1.163
 4795TIP3    H114342   3.244   6.252   1.207
 4795TIP3    H214343   3.226   6.329   1.078
 4796TIP3   OH214344   2.662   1.930   2.564
 4796TIP3    H114345   2.758   1.931   2.556
 4796TIP3    H214346   2.637   2.022   2.555
 4797TIP3   OH214347   6.092   5.708   2.000
 4797TIP3    H114348   6.151   5.636   1.979
 4797TIP3    H214349   6.102   5.721   2.094
 4798TIP3   OH214350   7.949   6.956   1.625
 4798TIP3    H114351   7.945   7.047   1.595
 4798TIP3    H214352   8.006   6.913   1.561
 4799TIP3   OH214353   3.774   4.845   6.674
 4799TIP3    H114354   3.792   4.793   6.596
 4799TIP3    H214355   3.684   4.821   6.698
 4800TIP3   OH214356   6.644   7.389   2.691
 4800TIP3    H114357   6.674   7.387   2.782
 4800TIP3    H214358   6.701   7.452   2.648
 4801TIP3   OH214359   1.390   2.356   5.305
 4801TIP3    H114360   1.436   2.304   5.371
 4801TIP3    H214361   1.366   2.437   5.350
 4802TIP3   OH214362   6.341   3.806   2.608
 4802TIP3    H114363   6.429   3.769   2.617
 4802TIP3    H214364   6.321   3.795   2.515
 4803TIP3   OH214365   6.102   7.455   6.021
 4803TIP3    H114366   6.109   7.445   6.116
 4803TIP3    H214367   6.014   7.490   6.007
 4804TIP3   OH214368   4.594   5.073   1.763
 4804TIP3    H114369   4.582   5.008   1.694
 4804TIP3    H214370   4.614   5.154   1.716
 4805TIP3   OH214371   0.044   5.333   4.545
 4805TIP3    H114372   0.006   5.378   4.620
 4805TIP3    H214373   0.133   5.312   4.573
 4806TIP3   OH214374   8.237   6.764   4.233
 4806TIP3    H114375   8.316   6.761   4.287
 4806TIP3    H214376   8.242   6.685   4.179
 4807TIP3   OH214377   4.084   3.274   5.768
 4807TIP3    H114378   4.146   3.339   5.737
 4807TIP3    H214379   4.032   3.252   5.690
 4808TIP3   OH214380   3.653   6.099   4.761
 4808TIP3    H114381   3.621   6.152   4.688
 4808TIP3    H214382   3.724   6.150   4.798
 4809TIP3   OH214383   3.980   2.370   4.083
 4809TIP3    H114384   3.963   2.459   4.112
 4809TIP3    H214385   4.047   2.379   4.015
 4810TIP3   OH214386   0.975   2.787   4.391
 4810TIP3    H114387   0.976   2.691   4.399
 4810TIP3    H214388   1.045   2.807   4.329
 4811TIP3   OH214389   1.920   4.243   4.505
 4811TIP3    H114390   2.014   4.258   4.511
 4811TIP3    H214391   1.898   4.265   4.415
 4812TIP3   OH214392   3.070   3.427   2.580
 4812TIP3    H114393   3.047   3.431   2.487
 4812TIP3    H214394   3.074   3.519   2.607
 4813TIP3   OH214395   6.503   6.095   1.835
 4813TIP3    H114396   6.459   6.178   1.816
 4813TIP3    H214397   6.591   6.106   1.798
 4814TIP3   OH214398   6.096   2.469   0.361
 4814TIP3    H114399   6.059   2.555   0.340
 4814TIP3    H214400   6.021   2.417   0.389
 4815TIP3   OH214401   6.151   2.809   3.225
 4815TIP3    H114402   6.176   2.760   3.304
 4815TIP3    H214403   6.182   2.754   3.152
 4816TIP3   OH214404   5.251  -0.022   2.933
 4816TIP3    H114405   5.319  -0.033   3.000
 4816TIP3    H214406   5.170  -0.008   2.983
 4817TIP3   OH214407   0.422   0.951   1.996
 4817TIP3    H114408   0.445   1.042   1.978
 4817TIP3    H214409   0.363   0.956   2.072
 4818TIP3   OH214410   1.925   0.666   1.070
 4818TIP3    H114411   1.862   0.706   1.010
 4818TIP3    H214412   2.003   0.721   1.065
 4819TIP3   OH214413   6.520   5.791   6.159
 4819TIP3    H114414   6.424   5.790   6.151
 4819TIP3    H214415   6.550   5.744   6.081
 4820TIP3   OH214416   0.803   0.063   3.393
 4820TIP3    H114417   0.851   0.071   3.475
 4820TIP3    H214418   0.822  -0.026   3.363
 4821TIP3   OH214419   7.658   6.439   3.123
 4821TIP3    H114420   7.723   6.381   3.084
 4821TIP3    H214421   7.677   6.526   3.087
 4822TIP3   OH214422   4.080   3.775   3.593
 4822TIP3    H114423   4.098   3.755   3.685
 4822TIP3    H214424   4.159   3.820   3.562
 4823TIP3   OH214425   6.540   2.505   4.871
 4823TIP3    H114426   6.554   2.447   4.796
 4823TIP3    H214427   6.504   2.585   4.833
 4824TIP3   OH214428   7.658   2.833   6.754
 4824TIP3    H114429   7.722   2.802   6.818
 4824TIP3    H214430   7.573   2.804   6.789
 4825TIP3   OH214431   4.847   5.337   3.231
 4825TIP3    H114432   4.885   5.261   3.275
 4825TIP3    H214433   4.839   5.310   3.139
 4826TIP3   OH214434   6.632   6.727   2.757
 4826TIP3    H114435   6.661   6.752   2.844
 4826TIP3    H214436   6.691   6.775   2.698
 4827TIP3   OH214437   7.167   1.805   5.741
 4827TIP3    H114438   7.191   1.894   5.768
 4827TIP3    H214439   7.233   1.782   5.675
 4828TIP3   OH214440   3.428   0.383   2.947
 4828TIP3    H114441   3.421   0.477   2.959
 4828TIP3    H214442   3.337   0.352   2.947
 4829TIP3   OH214443   7.060   6.747   4.321
 4829TIP3    H114444   7.029   6.729   4.409
 4829TIP3    H214445   7.003   6.816   4.288
 4830TIP3   OH214446   5.430   7.128   2.464
 4830TIP3    H114447   5.359   7.154   2.405
 4830TIP3    H214448   5.440   7.203   2.524
 4831TIP3   OH214449   4.551   1.007   5.269
 4831TIP3    H114450   4.479   1.045   5.319
 4831TIP3    H214451   4.529   0.914   5.263
 4832TIP3   OH214452   2.625   3.425   6.667
 4832TIP3    H114453   2.614   3.418   6.762
 4832TIP3    H214454   2.545   3.466   6.637
 4833TIP3   OH214455   0.866   7.319   1.767
 4833TIP3    H114456   0.834   7.341   1.680
 4833TIP3    H214457   0.880   7.224   1.764
 4834TIP3   OH214458   4.104   6.370   3.031
 4834TIP3    H114459   4.164   6.362   3.106
 4834TIP3    H214460   4.158   6.347   2.956
 4835TIP3   OH214461   2.503   6.887   5.164
 4835TIP3    H114462   2.589   6.875   5.123
 4835TIP3    H214463   2.445   6.830   5.113
 4836TIP3   OH214464   4.923   6.653   0.287
 4836TIP3    H114465   4.997   6.592   0.284
 4836TIP3    H214466   4.888   6.645   0.375
 4837TIP3   OH214467   3.730   1.532   0.957
 4837TIP3    H114468   3.647   1.485   0.954
 4837TIP3    H214469   3.772   1.499   1.037
 4838TIP3   OH214470   7.880   4.690   2.803
 4838TIP3    H114471   7.832   4.671   2.883
 4838TIP3    H214472   7.928   4.771   2.822
 4839TIP3   OH214473   3.109   0.575   3.655
 4839TIP3    H114474   3.026   0.605   3.619
 4839TIP3    H214475   3.119   0.623   3.737
 4840TIP3   OH214476   6.283   1.309   3.212
 4840TIP3    H114477   6.248   1.398   3.219
 4840TIP3    H214478   6.295   1.296   3.118
 4841TIP3   OH214479   4.484   5.788   2.698
 4841TIP3    H114480   4.426   5.768   2.771
 4841TIP3    H214481   4.556   5.837   2.737
 4842TIP3   OH214482   0.445   7.154   6.355
 4842TIP3    H114483   0.351   7.142   6.347
 4842TIP3    H214484   0.478   7.146   6.265
 4843TIP3   OH214485   2.485   2.669   0.948
 4843TIP3    H114486   2.477   2.628   1.034
 4843TIP3    H214487   2.513   2.598   0.890
 4844TIP3   OH214488   3.240   0.592   5.878
 4844TIP3    H114489   3.264   0.680   5.848
 4844TIP3    H214490   3.164   0.606   5.935
 4845TIP3   OH214491   1.003   0.729   5.287
 4845TIP3    H114492   0.986   0.798   5.351
 4845TIP3    H214493   1.076   0.679   5.325
 4846TIP3   OH214494   3.127   4.199   4.557
 4846TIP3    H114495   3.032   4.206   4.558
 4846TIP3    H214496   3.145   4.115   4.599
 4847TIP3   OH214497   8.221   0.067   4.001
 4847TIP3    H114498   8.146   0.118   4.031
 4847TIP3    H214499   8.190  -0.024   4.004
 4848TIP3   OH214500   5.503   6.870   0.144
 4848TIP3    H114501   5.480   6.941   0.084
 4848TIP3    H214502   5.531   6.799   0.086
 4849TIP3   OH214503   3.966   6.083   3.053
 4849TIP3    H114504   3.960   5.987   3.062
 4849TIP3    H214505   4.055   6.104   3.082
 4850TIP3   OH214506   5.956   5.179   5.191
 4850TIP3    H114507   5.976   5.154   5.281
 4850TIP3    H214508   5.878   5.233   5.198
 4851TIP3   OH214509   0.945   1.901   2.757
 4851TIP3    H114510   0.909   1.938   2.838
 4851TIP3    H214511   0.870   1.893   2.699
 4852TIP3   OH214512   4.585   6.738   5.986
 4852TIP3    H114513   4.622   6.816   6.028
 4852TIP3    H214514   4.526   6.771   5.919
 4853TIP3   OH214515   5.768   0.566   6.196
 4853TIP3    H114516   5.784   0.537   6.106
 4853TIP3    H214517   5.852   0.602   6.225
 4854TIP3   OH214518   6.931   6.267   3.462
 4854TIP3    H114519   6.963   6.178   3.474
 4854TIP3    H214520   6.838   6.262   3.486
 4855TIP3   OH214521   5.223   5.610   2.926
 4855TIP3    H114522   5.142   5.657   2.945
 4855TIP3    H214523   5.205   5.564   2.844
 4856TIP3   OH214524   3.254   2.583   3.825
 4856TIP3    H114525   3.205   2.501   3.826
 4856TIP3    H214526   3.233   2.625   3.908
 4857TIP3   OH214527   4.956   2.455   5.753
 4857TIP3    H114528   5.028   2.401   5.787
 4857TIP3    H214529   4.878   2.419   5.794
 4858TIP3   OH214530   4.602   2.223   0.558
 4858TIP3    H114531   4.559   2.309   0.560
 4858TIP3    H214532   4.695   2.243   0.571
 4859TIP3   OH214533   1.138   5.517   1.999
 4859TIP3    H114534   1.127   5.583   1.930
 4859TIP3    H214535   1.231   5.496   1.998
 4860TIP3   OH214536   5.183   6.787   2.406
 4860TIP3    H114537   5.133   6.799   2.486
 4860TIP3    H214538   5.213   6.875   2.383
 4861TIP3   OH214539   7.755   1.698   5.524
 4861TIP3    H114540   7.753   1.765   5.592
 4861TIP3    H214541   7.849   1.681   5.510
 4862TIP3   OH214542   2.071   2.989   0.389
 4862TIP3    H114543   2.029   3.075   0.385
 4862TIP3    H214544   2.152   3.000   0.339
 4863TIP3   OH214545   4.961   7.633   4.307
 4863TIP3    H114546   4.893   7.583   4.353
 4863TIP3    H214547   4.964   7.717   4.354
 4864TIP3   OH214548   6.263   5.467   1.988
 4864TIP3    H114549   6.272   5.437   2.079
 4864TIP3    H214550   6.308   5.400   1.937
 4865TIP3   OH214551   0.611   5.046   5.081
 4865TIP3    H114552   0.538   5.104   5.104
 4865TIP3    H214553   0.572   4.958   5.083
 4866TIP3   OH214554   7.515   4.760   0.477
 4866TIP3    H114555   7.554   4.820   0.414
 4866TIP3    H214556   7.589   4.706   0.507
 4867TIP3   OH214557   7.076   2.848   0.140
 4867TIP3    H114558   7.086   2.938   0.112
 4867TIP3    H214559   7.164   2.810   0.132
 4868TIP3   OH214560   3.954   5.491   2.716
 4868TIP3    H114561   3.946   5.567   2.773
 4868TIP3    H214562   4.031   5.508   2.662
 4869TIP3   OH214563   3.922   0.713   5.960
 4869TIP3    H114564   3.972   0.692   5.881
 4869TIP3    H214565   3.964   0.792   5.994
 4870TIP3   OH214566   5.868   1.263   5.714
 4870TIP3    H114567   5.774   1.244   5.710
 4870TIP3    H214568   5.885   1.315   5.636
 4871TIP3   OH214569   5.579   4.802   0.263
 4871TIP3    H114570   5.635   4.743   0.313
 4871TIP3    H214571   5.624   4.886   0.266
 4872TIP3   OH214572   7.833   1.086   4.751
 4872TIP3    H114573   7.779   1.077   4.830
 4872TIP3    H214574   7.903   1.022   4.763
 4873TIP3   OH214575   2.372   0.264   1.401
 4873TIP3    H114576   2.429   0.337   1.425
 4873TIP3    H214577   2.412   0.188   1.443
 4874TIP3   OH214578   0.883   2.932   6.474
 4874TIP3    H114579   0.971   2.969   6.460
 4874TIP3    H214580   0.867   2.946   6.567
 4875TIP3   OH214581   0.342   5.588   4.689
 4875TIP3    H114582   0.310   5.603   4.778
 4875TIP3    H214583   0.308   5.662   4.639
 4876TIP3   OH214584   6.344   4.516   2.454
 4876TIP3    H114585   6.305   4.508   2.367
 4876TIP3    H214586   6.439   4.508   2.439
 4877TIP3   OH214587   4.736   3.145   2.134
 4877TIP3    H114588   4.780   3.149   2.219
 4877TIP3    H214589   4.786   3.205   2.078
 4878TIP3   OH214590   1.584   5.680   5.757
 4878TIP3    H114591   1.648   5.616   5.789
 4878TIP3    H214592   1.520   5.627   5.709
 4879TIP3   OH214593   8.071   1.460   0.206
 4879TIP3    H114594   8.035   1.399   0.142
 4879TIP3    H214595   8.150   1.494   0.164
 4880TIP3   OH214596   0.638   0.653   6.202
 4880TIP3    H114597   0.627   0.687   6.113
 4880TIP3    H214598   0.704   0.584   6.193
 4881TIP3   OH214599   8.058   5.186   2.679
 4881TIP3    H114600   8.009   5.204   2.599
 4881TIP3    H214601   8.149   5.183   2.651
 4882TIP3   OH214602   8.216   6.799   2.000
 4882TIP3    H114603   8.201   6.888   1.969
 4882TIP3    H214604   8.130   6.768   2.029
 4883TIP3   OH214605   4.237   1.092   0.281
 4883TIP3    H114606   4.221   1.185   0.294
 4883TIP3    H214607   4.283   1.087   0.197
 4884TIP3   OH214608   6.232   3.236   2.135
 4884TIP3    H114609   6.195   3.271   2.216
 4884TIP3    H214610   6.322   3.212   2.158
 4885TIP3   OH214611   4.703   7.255   4.250
 4885TIP3    H114612   4.722   7.203   4.329
 4885TIP3    H214613   4.719   7.345   4.276
 4886TIP3   OH214614   3.425   6.345   1.758
 4886TIP3    H114615   3.459   6.311   1.840
 4886TIP3    H214616   3.364   6.277   1.728
 4887TIP3   OH214617   2.369   0.952   2.121
 4887TIP3    H114618   2.440   0.947   2.056
 4887TIP3    H214619   2.293   0.918   2.075
 4888TIP3   OH214620   1.046   1.192   5.624
 4888TIP3    H114621   1.066   1.279   5.590
 4888TIP3    H214622   0.980   1.157   5.564
 4889TIP3   OH214623   6.611   2.165   4.960
 4889TIP3    H114624   6.621   2.218   5.040
 4889TIP3    H214625   6.547   2.098   4.985
 4890TIP3   OH214626   6.622   1.764   3.100
 4890TIP3    H114627   6.580   1.726   3.177
 4890TIP3    H214628   6.565   1.836   3.074
 4891TIP3   OH214629   7.805   2.726   6.221
 4891TIP3    H114630   7.826   2.813   6.255
 4891TIP3    H214631   7.837   2.726   6.131
 4892TIP3   OH214632   5.285   1.078   2.628
 4892TIP3    H114633   5.337   1.157   2.636
 4892TIP3    H214634   5.197   1.103   2.656
 4893TIP3   OH214635   0.417   5.335   3.210
 4893TIP3    H114636   0.468   5.320   3.131
 4893TIP3    H214637   0.481   5.367   3.274
 4894TIP3   OH214638   2.322   1.246   6.495
 4894TIP3    H114639   2.286   1.334   6.505
 4894TIP3    H214640   2.273   1.193   6.557
 4895TIP3   OH214641   0.172   0.244   5.758
 4895TIP3    H114642   0.190   0.325   5.805
 4895TIP3    H214643   0.135   0.272   5.675
 4896TIP3   OH214644   1.818   6.966   1.165
 4896TIP3    H114645   1.836   6.876   1.191
 4896TIP3    H214646   1.873   6.981   1.088
 4897TIP3   OH214647   3.409   7.434   6.326
 4897TIP3    H114648   3.369   7.350   6.302
 4897TIP3    H214649   3.335   7.490   6.349
 4898TIP3   OH214650   2.197   7.913   2.520
 4898TIP3    H114651   2.281   7.892   2.560
 4898TIP3    H214652   2.170   7.833   2.475
 4899TIP3   OH214653   1.607   6.984   2.647
 4899TIP3    H114654   1.521   7.024   2.630
 4899TIP3    H214655   1.586   6.901   2.691
 4900TIP3   OH214656   0.417   2.827   0.858
 4900TIP3    H114657   0.408   2.769   0.783
 4900TIP3    H214658   0.474   2.780   0.919
 4901TIP3   OH214659   2.755   0.980   5.700
 4901TIP3    H114660   2.843   0.999   5.732
 4901TIP3    H214661   2.742   1.041   5.628
 4902TIP3   OH214662   5.570   4.100   6.088
 4902TIP3    H114663   5.613   4.087   6.172
 4902TIP3    H214664   5.480   4.124   6.110
 4903TIP3   OH214665   4.113   3.007   3.009
 4903TIP3    H114666   4.041   3.029   3.069
 4903TIP3    H214667   4.166   3.087   3.005
 4904TIP3   OH214668   3.548   7.287   1.007
 4904TIP3    H114669   3.548   7.382   1.004
 4904TIP3    H214670   3.491   7.265   1.080
 4905TIP3   OH214671   6.685   5.691   1.467
 4905TIP3    H114672   6.675   5.636   1.390
 4905TIP3    H214673   6.732   5.636   1.530
 4906TIP3   OH214674   7.655   7.744   5.383
 4906TIP3    H114675   7.630   7.791   5.462
 4906TIP3    H214676   7.711   7.673   5.414
 4907TIP3   OH214677   4.467   5.533   2.453
 4907TIP3    H114678   4.502   5.616   2.483
 4907TIP3    H214679   4.544   5.476   2.445
 4908TIP3   OH214680   8.105   0.079   5.321
 4908TIP3    H114681   8.163   0.125   5.260
 4908TIP3    H214682   8.066   0.009   5.268
 4909TIP3   OH214683   3.074   5.063   0.174
 4909TIP3    H114684   3.150   5.116   0.198
 4909TIP3    H214685   3.110   4.990   0.123
 4910TIP3   OH214686   2.769   4.621   4.097
 4910TIP3    H114687   2.680   4.644   4.073
 4910TIP3    H214688   2.785   4.538   4.052
 4911TIP3   OH214689   1.729   4.622   4.947
 4911TIP3    H114690   1.781   4.672   4.884
 4911TIP3    H214691   1.770   4.641   5.031
 4912TIP3   OH214692   6.433   0.990   4.290
 4912TIP3    H114693   6.399   0.952   4.209
 4912TIP3    H214694   6.525   0.962   4.293
 4913TIP3   OH214695   4.127   4.653   6.015
 4913TIP3    H114696   4.188   4.583   5.995
 4913TIP3    H214697   4.072   4.660   5.938
 4914TIP3   OH214698   4.863   4.912   2.950
 4914TIP3    H114699   4.912   4.968   3.011
 4914TIP3    H214700   4.886   4.945   2.863
 4915TIP3   OH214701   2.879   7.036   4.593
 4915TIP3    H114702   2.786   7.024   4.608
 4915TIP3    H214703   2.909   6.950   4.561
 4916TIP3   OH214704   3.204   5.634   3.360
 4916TIP3    H114705   3.150   5.710   3.338
 4916TIP3    H214706   3.245   5.657   3.444
 4917TIP3   OH214707   6.923   5.782   5.986
 4917TIP3    H114708   6.920   5.830   6.069
 4917TIP3    H214709   6.967   5.700   6.008
 4918TIP3   OH214710   7.816   5.569   3.269
 4918TIP3    H114711   7.819   5.494   3.329
 4918TIP3    H214712   7.850   5.642   3.321
 4919TIP3   OH214713   1.962   5.831   4.386
 4919TIP3    H114714   2.050   5.801   4.411
 4919TIP3    H214715   1.912   5.824   4.467
 4920TIP3   OH214716   3.512   2.056   0.440
 4920TIP3    H114717   3.603   2.031   0.424
 4920TIP3    H214718   3.507   2.065   0.535
 4921TIP3   OH214719   0.968   5.695   1.794
 4921TIP3    H114720   1.064   5.691   1.789
 4921TIP3    H214721   0.939   5.610   1.761
 4922TIP3   OH214722   5.021   4.839   3.669
 4922TIP3    H114723   5.069   4.767   3.710
 4922TIP3    H214724   5.015   4.906   3.737
 4923TIP3   OH214725   2.817   6.775   5.804
 4923TIP3    H114726   2.789   6.684   5.810
 4923TIP3    H214727   2.847   6.797   5.892
 4924TIP3   OH214728   0.759   6.579   4.628
 4924TIP3    H114729   0.800   6.549   4.546
 4924TIP3    H214730   0.733   6.669   4.610
 4925TIP3   OH214731   4.633   4.673   4.169
 4925TIP3    H114732   4.713   4.723   4.186
 4925TIP3    H214733   4.628   4.612   4.242
 4926TIP3   OH214734   1.921   4.482   6.549
 4926TIP3    H114735   2.001   4.439   6.519
 4926TIP3    H214736   1.852   4.445   6.494
 4927TIP3   OH214737   1.021   2.868   2.696
 4927TIP3    H114738   1.061   2.794   2.740
 4927TIP3    H214739   1.026   2.847   2.603
 4928TIP3   OH214740   8.022   5.217   2.386
 4928TIP3    H114741   8.024   5.124   2.406
 4928TIP3    H214742   7.998   5.221   2.294
 4929TIP3   OH214743   3.051   5.955   6.410
 4929TIP3    H114744   3.038   5.914   6.325
 4929TIP3    H214745   3.111   6.028   6.393
 4930TIP3   OH214746   4.753   7.718   5.960
 4930TIP3    H114747   4.827   7.706   5.901
 4930TIP3    H214748   4.748   7.813   5.973
 4931TIP3   OH214749   5.249   7.110   4.709
 4931TIP3    H114750   5.155   7.105   4.696
 4931TIP3    H214751   5.262   7.086   4.801
 4932TIP3   OH214752   3.735   5.774   4.060
 4932TIP3    H114753   3.723   5.827   4.139
 4932TIP3    H214754   3.650   5.731   4.047
 4933TIP3   OH214755   5.362   4.648   2.943
 4933TIP3    H114756   5.281   4.603   2.966
 4933TIP3    H214757   5.407   4.661   3.027
 4934TIP3   OH214758   2.191   7.011   5.695
 4934TIP3    H114759   2.112   6.986   5.648
 4934TIP3    H214760   2.224   7.088   5.649
 4935TIP3   OH214761   1.226   2.229   5.588
 4935TIP3    H114762   1.189   2.304   5.635
 4935TIP3    H214763   1.299   2.200   5.642
 4936TIP3   OH214764   7.570   2.021   3.402
 4936TIP3    H114765   7.577   1.957   3.473
 4936TIP3    H214766   7.487   1.999   3.359
 4937TIP3   OH214767   4.115   1.357   4.552
 4937TIP3    H114768   4.032   1.317   4.527
 4937TIP3    H214769   4.112   1.357   4.648
 4938TIP3   OH214770   7.347   0.708   2.532
 4938TIP3    H114771   7.254   0.716   2.554
 4938TIP3    H214772   7.349   0.650   2.456
 4939TIP3   OH214773   5.779   6.976   6.786
 4939TIP3    H114774   5.774   6.883   6.761
 4939TIP3    H214775   5.827   7.017   6.714
 4940TIP3   OH214776   3.661   5.762   1.219
 4940TIP3    H114777   3.626   5.770   1.131
 4940TIP3    H214778   3.614   5.828   1.270
 4941TIP3   OH214779   7.908   7.499   6.410
 4941TIP3    H114780   7.847   7.476   6.340
 4941TIP3    H214781   7.960   7.571   6.373
 4942TIP3   OH214782   2.386   0.789   5.237
 4942TIP3    H114783   2.437   0.722   5.282
 4942TIP3    H214784   2.399   0.868   5.289
 4943TIP3   OH214785   5.949   2.571   4.057
 4943TIP3    H114786   5.991   2.619   3.986
 4943TIP3    H214787   5.951   2.479   4.028
 4944TIP3   OH214788   1.522   4.716   6.698
 4944TIP3    H114789   1.456   4.779   6.669
 4944TIP3    H214790   1.593   4.771   6.733
 4945TIP3   OH214791   7.816   6.785   4.188
 4945TIP3    H114792   7.840   6.704   4.232
 4945TIP3    H214793   7.720   6.787   4.193
 4946TIP3   OH214794   7.036   5.948   2.635
 4946TIP3    H114795   7.095   6.023   2.643
 4946TIP3    H214796   6.968   5.963   2.701
 4947TIP3   OH214797   2.722   1.414   6.706
 4947TIP3    H114798   2.700   1.333   6.751
 4947TIP3    H214799   2.652   1.426   6.641
 4948TIP3   OH214800   0.661   4.175   6.496
 4948TIP3    H114801   0.604   4.218   6.559
 4948TIP3    H214802   0.729   4.133   6.549
 4949TIP3   OH214803   2.627   1.379   6.086
 4949TIP3    H114804   2.563   1.355   6.153
 4949TIP3    H214805   2.616   1.315   6.016
 4950TIP3   OH214806   7.467   6.944   5.048
 4950TIP3    H114807   7.390   6.928   4.994
 4950TIP3    H214808   7.447   6.900   5.131
 4951TIP3   OH214809   7.344   5.372   1.678
 4951TIP3    H114810   7.293   5.325   1.612
 4951TIP3    H214811   7.423   5.400   1.632
 4952TIP3   OH214812   1.056   4.970   2.227
 4952TIP3    H114813   1.025   5.056   2.199
 4952TIP3    H214814   1.001   4.948   2.302
 4953TIP3   OH214815   5.442   3.123   3.723
 4953TIP3    H114816   5.468   3.115   3.815
 4953TIP3    H214817   5.511   3.077   3.674
 4954TIP3   OH214818   6.707   1.600   2.171
 4954TIP3    H114819   6.693   1.692   2.153
 4954TIP3    H214820   6.719   1.596   2.266
 4955TIP3   OH214821   3.320   0.173   2.172
 4955TIP3    H114822   3.250   0.151   2.234
 4955TIP3    H214823   3.392   0.114   2.196
 4956TIP3   OH214824   4.154   7.446   2.778
 4956TIP3    H114825   4.187   7.516   2.834
 4956TIP3    H214826   4.135   7.489   2.695
 4957TIP3   OH214827   3.809   5.771   5.247
 4957TIP3    H114828   3.763   5.855   5.239
 4957TIP3    H214829   3.901   5.794   5.246
 4958TIP3   OH214830   7.239   3.848   0.175
 4958TIP3    H114831   7.277   3.861   0.262
 4958TIP3    H214832   7.308   3.805   0.124
 4959TIP3   OH214833   3.940   4.265   6.271
 4959TIP3    H114834   3.876   4.285   6.340
 4959TIP3    H214835   3.982   4.348   6.253
 4960TIP3   OH214836   7.462   0.802   4.811
 4960TIP3    H114837   7.409   0.877   4.838
 4960TIP3    H214838   7.533   0.840   4.758
 4961TIP3   OH214839   6.102   4.766   6.019
 4961TIP3    H114840   6.034   4.710   5.982
 4961TIP3    H214841   6.184   4.729   5.986
 4962TIP3   OH214842   4.056   5.350   3.982
 4962TIP3    H114843   3.997   5.311   4.046
 4962TIP3    H214844   4.055   5.444   4.003
 4963TIP3   OH214845   5.923   4.263   0.797
 4963TIP3    H114846   5.910   4.340   0.740
 4963TIP3    H214847   6.009   4.229   0.771
 4964TIP3   OH214848   5.075   5.690   1.279
 4964TIP3    H114849   5.080   5.670   1.372
 4964TIP3    H214850   4.981   5.697   1.261
 4965TIP3   OH214851   2.644   5.422   1.495
 4965TIP3    H114852   2.693   5.454   1.571
 4965TIP3    H214853   2.618   5.501   1.448
 4966TIP3   OH214854   3.851   7.387   3.954
 4966TIP3    H114855   3.910   7.324   3.913
 4966TIP3    H214856   3.807   7.430   3.880
 4967TIP3   OH214857   8.187   0.320   1.566
 4967TIP3    H114858   8.215   0.302   1.476
 4967TIP3    H214859   8.113   0.380   1.557
 4968TIP3   OH214860   3.996   6.548   1.121
 4968TIP3    H114861   3.979   6.482   1.053
 4968TIP3    H214862   3.909   6.570   1.155
 4969TIP3   OH214863   5.160   6.360   4.058
 4969TIP3    H114864   5.237   6.392   4.011
 4969TIP3    H214865   5.177   6.383   4.150
 4970TIP3   OH214866   7.799   2.099   4.761
 4970TIP3    H114867   7.785   2.139   4.847
 4970TIP3    H214868   7.770   2.008   4.772
 4971TIP3   OH214869   7.373   6.425   4.075
 4971TIP3    H114870   7.427   6.439   4.152
 4971TIP3    H214871   7.431   6.440   4.001
 4972TIP3   OH214872   0.323   3.931   2.743
 4972TIP3    H114873   0.405   3.976   2.759
 4972TIP3    H214874   0.256   3.990   2.778
 4973TIP3   OH214875   3.443   3.808   0.016
 4973TIP3    H114876   3.382   3.805   0.089
 4973TIP3    H214877   3.397   3.762  -0.055
 4974TIP3   OH214878   3.325   3.056   0.444
 4974TIP3    H114879   3.235   3.086   0.432
 4974TIP3    H214880   3.379   3.132   0.422
 4975TIP3   OH214881   4.673   2.599   4.373
 4975TIP3    H114882   4.577   2.601   4.368
 4975TIP3    H214883   4.698   2.519   4.326
 4976TIP3   OH214884   8.218   7.185   3.279
 4976TIP3    H114885   8.124   7.164   3.282
 4976TIP3    H214886   8.249   7.170   3.368
 4977TIP3   OH214887   1.930   3.341   5.644
 4977TIP3    H114888   1.991   3.279   5.684
 4977TIP3    H214889   1.897   3.393   5.718
 4978TIP3   OH214890   4.473   1.685   1.053
 4978TIP3    H114891   4.408   1.700   0.984
 4978TIP3    H214892   4.554   1.666   1.005
 4979TIP3   OH214893   7.980   6.670   4.924
 4979TIP3    H114894   7.955   6.626   4.843
 4979TIP3    H214895   7.906   6.654   4.983
 4980TIP3   OH214896   8.191   7.144   5.979
 4980TIP3    H114897   8.182   7.239   5.987
 4980TIP3    H214898   8.283   7.130   5.957
 4981TIP3   OH214899   0.253   4.797   0.027
 4981TIP3    H114900   0.300   4.822   0.107
 4981TIP3    H214901   0.182   4.861   0.020
 4982TIP3   OH214902   5.786   5.092   1.069
 4982TIP3    H114903   5.855   5.121   1.010
 4982TIP3    H214904   5.705   5.103   1.019
 4983TIP3   OH214905   1.411   4.973   3.372
 4983TIP3    H114906   1.490   5.025   3.387
 4983TIP3    H214907   1.354   5.029   3.320
 4984TIP3   OH214908   7.671   4.994   3.877
 4984TIP3    H114909   7.743   4.930   3.877
 4984TIP3    H214910   7.645   5.000   3.969
 4985TIP3   OH214911   5.504   0.555   6.283
 4985TIP3    H114912   5.461   0.503   6.215
 4985TIP3    H214913   5.592   0.571   6.249
 4986TIP3   OH214914   1.648   2.531   2.046
 4986TIP3    H114915   1.701   2.524   1.967
 4986TIP3    H214916   1.677   2.613   2.087
 4987TIP3   OH214917   0.174   2.596   5.291
 4987TIP3    H114918   0.193   2.640   5.374
 4987TIP3    H214919   0.256   2.554   5.267
 4988TIP3   OH214920   8.275   1.684   3.050
 4988TIP3    H114921   8.267   1.608   2.992
 4988TIP3    H214922   8.187   1.694   3.087
 4989TIP3   OH214923   4.531   0.679   4.522
 4989TIP3    H114924   4.437   0.683   4.543
 4989TIP3    H214925   4.570   0.631   4.594
 4990TIP3   OH214926   0.669   4.219   2.645
 4990TIP3    H114927   0.659   4.136   2.692
 4990TIP3    H214928   0.699   4.194   2.558
 4991TIP3   OH214929   0.030   5.370   4.213
 4991TIP3    H114930   0.114   5.390   4.254
 4991TIP3    H214931   0.048   5.370   4.119
 4992TIP3   OH214932   2.942   2.767   2.503
 4992TIP3    H114933   2.912   2.678   2.482
 4992TIP3    H214934   2.877   2.825   2.463
 4993TIP3   OH214935   4.739   4.788   5.724
 4993TIP3    H114936   4.784   4.714   5.684
 4993TIP3    H214937   4.801   4.861   5.717
 4994TIP3   OH214938   3.924   5.143   6.524
 4994TIP3    H114939   3.846   5.176   6.567
 4994TIP3    H214940   3.900   5.054   6.496
 4995TIP3   OH214941   2.632   3.836   3.802
 4995TIP3    H114942   2.536   3.831   3.807
 4995TIP3    H214943   2.662   3.751   3.833
 4996TIP3   OH214944   2.100   1.709   3.019
 4996TIP3    H114945   2.023   1.692   2.964
 4996TIP3    H214946   2.086   1.797   3.053
 4997TIP3   OH214947   2.122   3.739   3.259
 4997TIP3    H114948   2.146   3.652   3.289
 4997TIP3    H214949   2.112   3.790   3.340
 4998TIP3   OH214950   2.032   4.240   3.429
 4998TIP3    H114951   2.051   4.192   3.509
 4998TIP3    H214952   1.937   4.252   3.430
 4999TIP3   OH214953   4.878   6.789   0.858
 4999TIP3    H114954   4.941   6.722   0.883
 4999TIP3    H214955   4.819   6.796   0.933
 5000TIP3   OH214956   3.945   6.080   5.966
 5000TIP3    H114957   4.037   6.067   5.987
 5000TIP3    H214958   3.939   6.169   5.933
 5001TIP3   OH214959   6.173   0.302   5.383
 5001TIP3    H114960   6.146   0.348   5.304
 5001TIP3    H214961   6.238   0.238   5.353
 5002TIP3   OH214962   3.364   1.596   6.166
 5002TIP3    H114963   3.414   1.518   6.191
 5002TIP3    H214964   3.385   1.661   6.234
 5003TIP3   OH214965   3.451   2.745   2.021
 5003TIP3    H114966   3.478   2.681   1.956
 5003TIP3    H214967   3.472   2.704   2.105
 5004TIP3   OH214968   1.021   5.340   6.145
 5004TIP3    H114969   0.938   5.360   6.101
 5004TIP3    H214970   1.010   5.250   6.176
 5005TIP3   OH214971   0.375   1.646   6.052
 5005TIP3    H114972   0.453   1.604   6.089
 5005TIP3    H214973   0.400   1.667   5.962
 5006TIP3   OH214974   4.632   1.450   6.624
 5006TIP3    H114975   4.648   1.495   6.707
 5006TIP3    H214976   4.699   1.485   6.565
 5007TIP3   OH214977   0.199   6.295   0.576
 5007TIP3    H114978   0.266   6.346   0.531
 5007TIP3    H214979   0.237   6.208   0.586
 5008TIP3   OH214980   1.424   6.622   1.938
 5008TIP3    H114981   1.361   6.587   1.875
 5008TIP3    H214982   1.495   6.559   1.938
 5009TIP3   OH214983   7.499   2.668   3.628
 5009TIP3    H114984   7.588   2.648   3.599
 5009TIP3    H214985   7.475   2.746   3.578
 5010TIP3   OH214986   5.684   7.789   5.446
 5010TIP3    H114987   5.734   7.871   5.437
 5010TIP3    H214988   5.714   7.752   5.529
 5011TIP3   OH214989   5.509   3.960   4.913
 5011TIP3    H114990   5.429   4.010   4.931
 5011TIP3    H214991   5.503   3.941   4.819
 5012TIP3   OH214992   6.864   4.783   2.553
 5012TIP3    H114993   6.944   4.730   2.561
 5012TIP3    H214994   6.860   4.833   2.635
 5013TIP3   OH214995   1.741   1.663   3.138
 5013TIP3    H114996   1.763   1.756   3.138
 5013TIP3    H214997   1.647   1.660   3.123
 5014TIP3   OH214998   4.568   7.455   4.936
 5014TIP3    H114999   4.541   7.491   4.851
 5014TIP3    H215000   4.511   7.379   4.948
 5015TIP3   OH215001   1.741   2.500   5.336
 5015TIP3    H115002   1.769   2.568   5.398
 5015TIP3    H215003   1.817   2.486   5.281
 5016TIP3   OH215004   1.663   2.529   0.826
 5016TIP3    H115005   1.650   2.593   0.897
 5016TIP3    H215006   1.737   2.564   0.776
 5017TIP3   OH215007   7.794   6.563   1.589
 5017TIP3    H115008   7.722   6.501   1.602
 5017TIP3    H215009   7.826   6.582   1.677
 5018TIP3   OH215010   1.789   3.694   6.112
 5018TIP3    H115011   1.730   3.727   6.180
 5018TIP3    H215012   1.839   3.771   6.085
 5019TIP3   OH215013   7.879   3.081   5.253
 5019TIP3    H115014   7.798   3.068   5.302
 5019TIP3    H215015   7.934   3.135   5.311
 5020TIP3   OH215016   5.368   2.137   5.301
 5020TIP3    H115017   5.352   2.208   5.363
 5020TIP3    H215018   5.283   2.122   5.260
 5021TIP3   OH215019   8.192   5.411   5.296
 5021TIP3    H115020   8.287   5.405   5.296
 5021TIP3    H215021   8.171   5.467   5.221
 5022TIP3   OH215022   3.831   3.216   0.303
 5022TIP3    H115023   3.916   3.173   0.291
 5022TIP3    H215024   3.789   3.167   0.374
 5023TIP3   OH215025   3.611   2.776   4.847
 5023TIP3    H115026   3.573   2.694   4.876
 5023TIP3    H215027   3.558   2.844   4.888
 5024TIP3   OH215028   3.575   1.894   1.140
 5024TIP3    H115029   3.539   1.813   1.177
 5024TIP3    H215030   3.509   1.922   1.077
 5025TIP3   OH215031   2.357   3.927   3.423
 5025TIP3    H115032   2.438   3.961   3.460
 5025TIP3    H215033   2.384   3.875   3.347
 5026TIP3   OH215034   7.295   7.604   6.202
 5026TIP3    H115035   7.219   7.581   6.256
 5026TIP3    H215036   7.362   7.629   6.265
 5027TIP3   OH215037   5.649   0.269   3.615
 5027TIP3    H115038   5.602   0.324   3.553
 5027TIP3    H215039   5.706   0.215   3.560
 5028TIP3   OH215040   5.110   6.103   5.210
 5028TIP3    H115041   5.071   6.091   5.297
 5028TIP3    H215042   5.096   6.019   5.166
 5029TIP3   OH215043   7.855   5.929   2.537
 5029TIP3    H115044   7.862   5.834   2.546
 5029TIP3    H215045   7.817   5.958   2.620
 5030TIP3   OH215046   4.368   1.900   4.072
 5030TIP3    H115047   4.360   1.919   3.979
 5030TIP3    H215048   4.374   1.805   4.077
 5031TIP3   OH215049   0.824   0.645   4.772
 5031TIP3    H115050   0.839   0.722   4.718
 5031TIP3    H215051   0.802   0.680   4.858
 5032TIP3   OH215052   4.397   1.677   3.805
 5032TIP3    H115053   4.460   1.656   3.736
 5032TIP3    H215054   4.356   1.759   3.777
 5033TIP3   OH215055   0.421   2.044   6.211
 5033TIP3    H115056   0.427   1.984   6.286
 5033TIP3    H215057   0.381   2.123   6.247
 5034TIP3   OH215058   6.499   3.425   2.270
 5034TIP3    H115059   6.497   3.422   2.175
 5034TIP3    H215060   6.410   3.452   2.295
 5035TIP3   OH215061   4.438   6.882   2.030
 5035TIP3    H115062   4.425   6.973   2.058
 5035TIP3    H215063   4.514   6.852   2.079
 5036TIP3   OH215064   1.189   2.353   5.994
 5036TIP3    H115065   1.164   2.262   5.978
 5036TIP3    H215066   1.164   2.370   6.085
 5037TIP3   OH215067   1.230   0.079   6.166
 5037TIP3    H115068   1.279   0.139   6.110
 5037TIP3    H215069   1.170   0.034   6.107
 5038TIP3   OH215070   2.330   0.559   2.393
 5038TIP3    H115071   2.389   0.504   2.445
 5038TIP3    H215072   2.318   0.511   2.311
 5039TIP3   OH215073   1.990   5.235   3.931
 5039TIP3    H115074   1.912   5.187   3.958
 5039TIP3    H215075   1.964   5.327   3.934
 5040TIP3   OH215076   2.305   4.747   5.418
 5040TIP3    H115077   2.343   4.662   5.397
 5040TIP3    H215078   2.219   4.726   5.457
 5041TIP3   OH215079   1.362   2.394   3.541
 5041TIP3    H115080   1.427   2.363   3.603
 5041TIP3    H215081   1.300   2.321   3.533
 5042TIP3   OH215082   5.323   6.390   1.459
 5042TIP3    H115083   5.248   6.390   1.519
 5042TIP3    H215084   5.294   6.442   1.384
 5043TIP3   OH215085   7.687   1.882   6.779
 5043TIP3    H115086   7.758   1.820   6.766
 5043TIP3    H215087   7.668   1.916   6.691
 5044TIP3   OH215088   3.917   1.066   1.271
 5044TIP3    H115089   3.966   1.040   1.350
 5044TIP3    H215090   3.961   1.145   1.241
 5045TIP3   OH215091   7.071   6.928   2.134
 5045TIP3    H115092   7.050   6.848   2.086
 5045TIP3    H215093   7.074   6.901   2.226
 5046TIP3   OH215094   2.471   4.959   0.163
 5046TIP3    H115095   2.539   4.971   0.229
 5046TIP3    H215096   2.431   5.045   0.154
 5047TIP3   OH215097   0.460   6.659   5.810
 5047TIP3    H115098   0.460   6.730   5.745
 5047TIP3    H215099   0.378   6.613   5.794
 5048TIP3   OH215100   3.545   1.776   2.250
 5048TIP3    H115101   3.503   1.861   2.237
 5048TIP3    H215102   3.629   1.796   2.290
 5049TIP3   OH215103   0.736   6.899   5.830
 5049TIP3    H115104   0.728   6.861   5.918
 5049TIP3    H215105   0.654   6.875   5.786
 5050TIP3   OH215106   6.991   1.819   4.176
 5050TIP3    H115107   6.922   1.810   4.110
 5050TIP3    H215108   6.962   1.893   4.230
 5051TIP3   OH215109   2.995   6.809   4.356
 5051TIP3    H115110   3.047   6.785   4.279
 5051TIP3    H215111   2.952   6.891   4.331
 5052TIP3   OH215112   6.760   4.734   2.939
 5052TIP3    H115113   6.856   4.730   2.938
 5052TIP3    H215114   6.739   4.822   2.909
 5053TIP3   OH215115   3.049   1.298   0.090
 5053TIP3    H115116   3.066   1.276  -0.001
 5053TIP3    H215117   2.973   1.245   0.114
 5054TIP3   OH215118   0.063   0.171   5.161
 5054TIP3    H115119   0.112   0.217   5.094
 5054TIP3    H215120   0.089   0.079   5.151
 5055TIP3   OH215121   1.403   6.409   6.585
 5055TIP3    H115122   1.389   6.483   6.644
 5055TIP3    H215123   1.471   6.357   6.627
 5056TIP3   OH215124   8.093   1.788   3.625
 5056TIP3    H115125   8.119   1.704   3.663
 5056TIP3    H215126   8.051   1.835   3.697
 5057TIP3   OH215127   7.762   6.504   2.117
 5057TIP3    H115128   7.786   6.571   2.181
 5057TIP3    H215129   7.713   6.552   2.050
 5058TIP3   OH215130   3.468   5.252   5.987
 5058TIP3    H115131   3.505   5.165   5.996
 5058TIP3    H215132   3.382   5.238   5.946
 5059TIP3   OH215133   2.052   0.660   1.614
 5059TIP3    H115134   2.093   0.574   1.613
 5059TIP3    H215135   1.992   0.657   1.688
 5060TIP3   OH215136   4.020   5.438   6.010
 5060TIP3    H115137   4.017   5.428   6.105
 5060TIP3    H215138   4.112   5.424   5.987
 5061TIP3   OH215139   5.928   7.072   3.686
 5061TIP3    H115140   5.858   7.102   3.743
 5061TIP3    H215141   5.889   7.000   3.635
 5062TIP3   OH215142   0.058   2.207   2.553
 5062TIP3    H115143   0.031   2.217   2.644
 5062TIP3    H215144   0.045   2.293   2.514
 5063TIP3   OH215145   4.542   3.233   4.905
 5063TIP3    H115146   4.536   3.328   4.910
 5063TIP3    H215147   4.480   3.202   4.972
 5064TIP3   OH215148   6.942   3.115   3.763
 5064TIP3    H115149   6.979   3.170   3.694
 5064TIP3    H215150   6.877   3.061   3.719
 5065TIP3   OH215151   6.023   4.628   0.721
 5065TIP3    H115152   6.019   4.636   0.816
 5065TIP3    H215153   5.967   4.554   0.700
 5066TIP3   OH215154   7.562   6.887   2.317
 5066TIP3    H115155   7.575   6.842   2.401
 5066TIP3    H215156   7.561   6.817   2.252
 5067TIP3   OH215157   1.486   3.875   4.999
 5067TIP3    H115158   1.571   3.887   5.041
 5067TIP3    H215159   1.456   3.964   4.980
 5068TIP3   OH215160   1.006   4.728   4.148
 5068TIP3    H115161   0.995   4.635   4.167
 5068TIP3    H215162   1.070   4.732   4.077
 5069TIP3   OH215163   1.021   6.461   1.983
 5069TIP3    H115164   1.043   6.494   1.896
 5069TIP3    H215165   1.046   6.368   1.981
 5070TIP3   OH215166   6.425   1.641   4.708
 5070TIP3    H115167   6.374   1.628   4.788
 5070TIP3    H215168   6.458   1.731   4.715
 5071TIP3   OH215169   0.492   1.215   2.017
 5071TIP3    H115170   0.468   1.214   2.110
 5071TIP3    H215171   0.560   1.283   2.010
 5072TIP3   OH215172   5.918   6.983   4.671
 5072TIP3    H115173   6.002   6.981   4.625
 5072TIP3    H215174   5.932   7.044   4.743
 5073TIP3   OH215175   7.416   7.694   4.917
 5073TIP3    H115176   7.448   7.742   4.841
 5073TIP3    H215177   7.367   7.621   4.880
 5074TIP3   OH215178   5.780   5.481   0.039
 5074TIP3    H115179   5.691   5.516   0.044
 5074TIP3    H215180   5.836   5.558   0.027
 5075TIP3   OH215181   1.825   2.242   6.654
 5075TIP3    H115182   1.775   2.201   6.583
 5075TIP3    H215183   1.880   2.172   6.688
 5076TIP3   OH215184   1.341   5.176   5.520
 5076TIP3    H115185   1.252   5.150   5.544
 5076TIP3    H215186   1.331   5.231   5.443
 5077TIP3   OH215187   2.580   2.263   1.647
 5077TIP3    H115188   2.639   2.199   1.608
 5077TIP3    H215189   2.565   2.328   1.578
 5078TIP3   OH215190   3.037   5.901   4.002
 5078TIP3    H115191   3.099   5.954   3.951
 5078TIP3    H215192   3.065   5.811   3.987
 5079TIP3   OH215193   0.883   1.359   0.965
 5079TIP3    H115194   0.829   1.282   0.949
 5079TIP3    H215195   0.918   1.382   0.879
 5080TIP3   OH215196   7.020   1.002   6.553
 5080TIP3    H115197   7.113   1.023   6.567
 5080TIP3    H215198   6.981   1.086   6.526
 5081TIP3   OH215199   7.838   6.136   5.434
 5081TIP3    H115200   7.764   6.091   5.475
 5081TIP3    H215201   7.857   6.210   5.493
 5082TIP3   OH215202   4.280   3.964   5.498
 5082TIP3    H115203   4.360   3.916   5.519
 5082TIP3    H215204   4.248   3.997   5.582
 5083TIP3   OH215205   2.012   6.206   2.440
 5083TIP3    H115206   1.957   6.176   2.368
 5083TIP3    H215207   1.982   6.154   2.515
 5084TIP3   OH215208   5.345   1.910   1.241
 5084TIP3    H115209   5.340   1.820   1.208
 5084TIP3    H215210   5.314   1.904   1.332
 5085TIP3   OH215211   2.734   4.146   1.368
 5085TIP3    H115212   2.823   4.169   1.339
 5085TIP3    H215213   2.682   4.147   1.288
 5086TIP3   OH215214   0.541   1.689   1.165
 5086TIP3    H115215   0.564   1.634   1.090
 5086TIP3    H215216   0.487   1.632   1.221
 5087TIP3   OH215217   8.238   4.182   6.450
 5087TIP3    H115218   8.305   4.211   6.512
 5087TIP3    H215219   8.169   4.146   6.505
 5088TIP3   OH215220   3.792   2.485   1.580
 5088TIP3    H115221   3.742   2.403   1.581
 5088TIP3    H215222   3.770   2.525   1.496
 5089TIP3   OH215223   1.436   7.816   2.037
 5089TIP3    H115224   1.487   7.747   2.079
 5089TIP3    H215225   1.405   7.870   2.110
 5090TIP3   OH215226   3.844   5.720   5.542
 5090TIP3    H115227   3.891   5.754   5.466
 5090TIP3    H215228   3.784   5.656   5.505
 5091TIP3   OH215229   0.619   4.047   3.357
 5091TIP3    H115230   0.679   4.119   3.374
 5091TIP3    H215231   0.543   4.066   3.413
 5092TIP3   OH215232   5.544   2.654   6.189
 5092TIP3    H115233   5.556   2.640   6.283
 5092TIP3    H215234   5.451   2.669   6.179
 5093TIP3   OH215235   5.938   4.517   1.224
 5093TIP3    H115236   5.895   4.451   1.277
 5093TIP3    H215237   5.916   4.600   1.267
 5094TIP3   OH215238   3.649   5.850   3.618
 5094TIP3    H115239   3.603   5.932   3.637
 5094TIP3    H215240   3.717   5.874   3.556
 5095TIP3   OH215241   0.809   2.603   2.932
 5095TIP3    H115242   0.748   2.537   2.966
 5095TIP3    H215243   0.782   2.684   2.976
 5096TIP3   OH215244   6.126   3.973   1.207
 5096TIP3    H115245   6.194   3.951   1.144
 5096TIP3    H215246   6.136   3.910   1.278
 5097TIP3   OH215247   1.994   4.896   2.873
 5097TIP3    H115248   2.084   4.926   2.884
 5097TIP3    H215249   1.951   4.968   2.826
 5098TIP3   OH215250   7.405   3.353   0.148
 5098TIP3    H115251   7.326   3.399   0.121
 5098TIP3    H215252   7.451   3.415   0.205
 5099TIP3   OH215253   3.748   1.743   1.418
 5099TIP3    H115254   3.714   1.722   1.505
 5099TIP3    H215255   3.676   1.722   1.359
 5100TIP3   OH215256   1.332   5.138   0.452
 5100TIP3    H115257   1.358   5.170   0.366
 5100TIP3    H215258   1.397   5.071   0.474
 5101TIP3   OH215259   1.965   6.751   1.536
 5101TIP3    H115260   2.049   6.712   1.561
 5101TIP3    H215261   1.901   6.703   1.589
 5102TIP3   OH215262   4.700   0.240   3.958
 5102TIP3    H115263   4.782   0.288   3.962
 5102TIP3    H215264   4.683   0.230   3.864
 5103TIP3   OH215265   2.421   1.879   5.471
 5103TIP3    H115266   2.326   1.884   5.461
 5103TIP3    H215267   2.439   1.788   5.492
 5104TIP3   OH215268   4.801   5.304   0.455
 5104TIP3    H115269   4.790   5.229   0.513
 5104TIP3    H215270   4.730   5.296   0.391
 5105TIP3   OH215271   7.007   2.171   5.028
 5105TIP3    H115272   7.030   2.084   5.060
 5105TIP3    H215273   7.061   2.230   5.079
 5106TIP3   OH215274   5.018   0.281   5.729
 5106TIP3    H115275   5.029   0.187   5.712
 5106TIP3    H215276   5.020   0.322   5.642
 5107TIP3   OH215277   7.414   1.392   6.517
 5107TIP3    H115278   7.452   1.362   6.435
 5107TIP3    H215279   7.321   1.402   6.499
 5108TIP3   OH215280   0.058   2.468   3.935
 5108TIP3    H115281   0.022   2.444   4.020
 5108TIP3    H215282   0.153   2.463   3.947
 5109TIP3   OH215283   2.945   2.891   5.058
 5109TIP3    H115284   2.872   2.847   5.102
 5109TIP3    H215285   2.907   2.926   4.977
 5110TIP3   OH215286   3.412   7.010   2.829
 5110TIP3    H115287   3.422   7.091   2.779
 5110TIP3    H215288   3.466   6.946   2.784
 5111TIP3   OH215289   4.603   7.556   1.372
 5111TIP3    H115290   4.655   7.518   1.443
 5111TIP3    H215291   4.669   7.587   1.308
 5112TIP3   OH215292   3.505   0.556   5.363
 5112TIP3    H115293   3.542   0.604   5.437
 5112TIP3    H215294   3.554   0.473   5.361
 5113TIP3   OH215295   7.467   4.341   1.118
 5113TIP3    H115296   7.522   4.284   1.065
 5113TIP3    H215297   7.410   4.281   1.167
 5114TIP3   OH215298   5.963   5.098   3.700
 5114TIP3    H115299   6.031   5.056   3.648
 5114TIP3    H215300   5.922   5.026   3.749
 5115TIP3   OH215301   3.998   1.913   2.497
 5115TIP3    H115302   4.005   1.925   2.592
 5115TIP3    H215303   3.909   1.883   2.483
 5116TIP3   OH215304   3.061   5.532   1.803
 5116TIP3    H115305   3.059   5.560   1.895
 5116TIP3    H215306   3.048   5.437   1.807
 5117TIP3   OH215307   4.286   7.343   0.500
 5117TIP3    H115308   4.307   7.250   0.509
 5117TIP3    H215309   4.313   7.381   0.584
 5118TIP3   OH215310   6.003   4.677   0.998
 5118TIP3    H115311   6.059   4.729   1.055
 5118TIP3    H215312   5.970   4.607   1.053
 5119TIP3   OH215313   6.289   5.093   0.647
 5119TIP3    H115314   6.344   5.029   0.602
 5119TIP3    H215315   6.290   5.169   0.589
 5120TIP3   OH215316   0.990   6.224   1.746
 5120TIP3    H115317   0.927   6.213   1.817
 5120TIP3    H215318   0.988   6.141   1.699
 5121TIP3   OH215319   2.751   2.483   1.822
 5121TIP3    H115320   2.842   2.513   1.817
 5121TIP3    H215321   2.756   2.388   1.814
 5122TIP3   OH215322   4.858   7.511   4.699
 5122TIP3    H115323   4.786   7.572   4.689
 5122TIP3    H215324   4.823   7.427   4.670
 5123TIP3   OH215325   1.841   1.482   4.049
 5123TIP3    H115326   1.811   1.547   3.985
 5123TIP3    H215327   1.764   1.427   4.065
 5124TIP3   OH215328   4.876   6.062   3.648
 5124TIP3    H115329   4.902   6.084   3.738
 5124TIP3    H215330   4.800   6.004   3.659
 5125TIP3   OH215331   8.023   5.657   1.741
 5125TIP3    H115332   7.982   5.701   1.815
 5125TIP3    H215333   8.079   5.591   1.782
 5126TIP3   OH215334   5.102   6.759   4.337
 5126TIP3    H115335   5.110   6.762   4.242
 5126TIP3    H215336   5.117   6.667   4.360
 5127TIP3   OH215337   7.748   0.876   2.804
 5127TIP3    H115338   7.730   0.817   2.730
 5127TIP3    H215339   7.713   0.961   2.777
 5128TIP3   OH215340   1.262   3.198   6.201
 5128TIP3    H115341   1.267   3.293   6.210
 5128TIP3    H215342   1.336   3.176   6.144
 5129TIP3   OH215343   4.751   5.515   6.567
 5129TIP3    H115344   4.760   5.452   6.496
 5129TIP3    H215345   4.666   5.495   6.607
 5130TIP3   OH215346   3.240   5.207   5.846
 5130TIP3    H115347   3.242   5.117   5.880
 5130TIP3    H215348   3.241   5.196   5.750
 5131TIP3   OH215349   0.104   3.476   1.993
 5131TIP3    H115350   0.046   3.436   1.928
 5131TIP3    H215351   0.054   3.549   2.028
 5132TIP3   OH215352   4.285   1.839   6.733
 5132TIP3    H115353   4.275   1.802   6.821
 5132TIP3    H215354   4.370   1.884   6.736
 5133TIP3   OH215355   5.931   4.583   4.379
 5133TIP3    H115356   5.840   4.584   4.349
 5133TIP3    H215357   5.960   4.494   4.361
 5134TIP3   OH215358   4.265   1.542   0.895
 5134TIP3    H115359   4.214   1.561   0.817
 5134TIP3    H215360   4.201   1.510   0.958
 5135TIP3   OH215361   2.231   2.184   0.371
 5135TIP3    H115362   2.238   2.212   0.463
 5135TIP3    H215363   2.296   2.114   0.362
 5136TIP3   OH215364   8.171   1.112   3.345
 5136TIP3    H115365   8.241   1.078   3.402
 5136TIP3    H215366   8.113   1.160   3.404
 5137TIP3   OH215367   7.587   4.004   3.257
 5137TIP3    H115368   7.636   4.046   3.186
 5137TIP3    H215369   7.499   4.040   3.249
 5138TIP3   OH215370   6.424   7.094   5.115
 5138TIP3    H115371   6.467   7.171   5.151
 5138TIP3    H215372   6.468   7.079   5.031
 5139TIP3   OH215373   6.407   6.937   3.697
 5139TIP3    H115374   6.461   6.915   3.773
 5139TIP3    H215375   6.321   6.956   3.733
 5140TIP3   OH215376   1.106   0.570   3.887
 5140TIP3    H115377   1.069   0.525   3.811
 5140TIP3    H215378   1.058   0.533   3.961
 5141TIP3   OH215379   5.101   5.084   5.980
 5141TIP3    H115380   5.121   5.002   6.026
 5141TIP3    H215381   5.185   5.129   5.975
 5142TIP3   OH215382   4.292   0.365   2.490
 5142TIP3    H115383   4.381   0.336   2.473
 5142TIP3    H215384   4.301   0.433   2.557
 5143TIP3   OH215385   4.381   7.064   0.539
 5143TIP3    H115386   4.427   7.040   0.459
 5143TIP3    H215387   4.441   7.124   0.584
 5144TIP3   OH215388   1.276   0.872   1.673
 5144TIP3    H115389   1.215   0.944   1.655
 5144TIP3    H215390   1.290   0.876   1.768
 5145TIP3   OH215391   5.912   2.495   5.306
 5145TIP3    H115392   5.852   2.527   5.238
 5145TIP3    H215393   5.999   2.511   5.271
 5146TIP3   OH215394   4.075   3.448   0.692
 5146TIP3    H115395   4.090   3.521   0.751
 5146TIP3    H215396   4.122   3.375   0.731
 5147TIP3   OH215397   4.393   6.659   4.872
 5147TIP3    H115398   4.483   6.646   4.841
 5147TIP3    H215399   4.400   6.727   4.939
 5148TIP3   OH215400   1.136   4.432   2.375
 5148TIP3    H115401   1.155   4.365   2.440
 5148TIP3    H215402   1.053   4.470   2.403
 5149TIP3   OH215403   6.349   5.451   3.175
 5149TIP3    H115404   6.279   5.493   3.125
 5149TIP3    H215405   6.305   5.380   3.222
 5150TIP3   OH215406   1.859   6.413   0.759
 5150TIP3    H115407   1.831   6.504   0.752
 5150TIP3    H215408   1.915   6.399   0.682
 5151TIP3   OH215409   7.005   0.170   3.194
 5151TIP3    H115410   7.048   0.110   3.132
 5151TIP3    H215411   7.019   0.257   3.156
 5152TIP3   OH215412   6.998   5.987   0.815
 5152TIP3    H115413   6.953   6.048   0.757
 5152TIP3    H215414   7.040   5.924   0.756
 5153TIP3   OH215415   2.117   3.812   4.824
 5153TIP3    H115416   2.103   3.900   4.789
 5153TIP3    H215417   2.152   3.826   4.912
 5154TIP3   OH215418   1.785   1.460   1.187
 5154TIP3    H115419   1.878   1.443   1.170
 5154TIP3    H215420   1.784   1.515   1.265
 5155TIP3   OH215421   7.243   1.700   0.069
 5155TIP3    H115422   7.334   1.719   0.048
 5155TIP3    H215423   7.245   1.614   0.110
 5156TIP3   OH215424   1.496   0.056   3.344
 5156TIP3    H115425   1.540   0.008   3.414
 5156TIP3    H215426   1.410   0.079   3.381
 5157TIP3   OH215427   5.669   5.061   3.184
 5157TIP3    H115428   5.690   5.153   3.169
 5157TIP3    H215429   5.665   5.023   3.096
 5158TIP3   OH215430   6.453   1.335   5.345
 5158TIP3    H115431   6.382   1.272   5.333
 5158TIP3    H215432   6.409   1.420   5.353
 5159TIP3   OH215433   5.342   0.244   4.814
 5159TIP3    H115434   5.329   0.174   4.878
 5159TIP3    H215435   5.406   0.208   4.752
 5160TIP3   OH215436   1.936   5.690   6.714
 5160TIP3    H115437   1.933   5.663   6.622
 5160TIP3    H215438   2.029   5.707   6.731
 5161TIP3   OH215439   2.010   6.028   2.650
 5161TIP3    H115440   2.100   6.003   2.672
 5161TIP3    H215441   1.957   5.989   2.720
 5162TIP3   OH215442   1.619   4.244   2.249
 5162TIP3    H115443   1.530   4.277   2.262
 5162TIP3    H215444   1.606   4.155   2.217
 5163TIP3   OH215445   3.419   6.011   0.893
 5163TIP3    H115446   3.452   5.924   0.914
 5163TIP3    H215447   3.485   6.071   0.930
 5164TIP3   OH215448   3.763   6.527   2.108
 5164TIP3    H115449   3.694   6.489   2.163
 5164TIP3    H215450   3.721   6.602   2.067
 5165TIP3   OH215451   6.724   0.235   0.301
 5165TIP3    H115452   6.802   0.219   0.249
 5165TIP3    H215453   6.674   0.299   0.251
 5166TIP3   OH215454   0.746   7.575   3.798
 5166TIP3    H115455   0.763   7.668   3.782
 5166TIP3    H215456   0.729   7.569   3.892
 5167TIP3   OH215457   2.970   7.354   2.013
 5167TIP3    H115458   2.921   7.297   1.954
 5167TIP3    H215459   2.938   7.442   1.995
 5168TIP3   OH215460   4.473  -0.077   4.290
 5168TIP3    H115461   4.484  -0.026   4.210
 5168TIP3    H215462   4.385  -0.054   4.321
 5169TIP3   OH215463   6.494   6.818   0.188
 5169TIP3    H115464   6.500   6.754   0.259
 5169TIP3    H215465   6.584   6.827   0.156
 5170TIP3   OH215466   3.538   1.932   4.915
 5170TIP3    H115467   3.602   2.003   4.908
 5170TIP3    H215468   3.580   1.857   4.873
 5171TIP3   OH215469   7.846   2.445   4.682
 5171TIP3    H115470   7.903   2.375   4.715
 5171TIP3    H215471   7.840   2.427   4.588
 5172TIP3   OH215472   3.614   0.181   2.889
 5172TIP3    H115473   3.584   0.268   2.915
 5172TIP3    H215474   3.685   0.198   2.827
 5173TIP3   OH215475   1.953   6.286   5.821
 5173TIP3    H115476   1.864   6.271   5.855
 5173TIP3    H215477   2.009   6.281   5.898
 5174TIP3   OH215478   6.055   6.177   5.223
 5174TIP3    H115479   5.984   6.176   5.159
 5174TIP3    H215480   6.134   6.188   5.170
 5175TIP3   OH215481   1.973   4.950   4.300
 5175TIP3    H115482   2.034   4.975   4.370
 5175TIP3    H215483   1.919   4.880   4.339
 5176TIP3   OH215484   7.686   3.517   5.249
 5176TIP3    H115485   7.594   3.512   5.274
 5176TIP3    H215486   7.706   3.431   5.213
 5177TIP3   OH215487   1.962   2.404   4.415
 5177TIP3    H115488   2.046   2.385   4.455
 5177TIP3    H215489   1.903   2.420   4.489
 5178TIP3   OH215490   5.129   0.093   3.477
 5178TIP3    H115491   5.222   0.070   3.486
 5178TIP3    H215492   5.127   0.156   3.405
 5179TIP3   OH215493   0.927   6.569   4.388
 5179TIP3    H115494   0.987   6.504   4.351
 5179TIP3    H215495   0.976   6.651   4.383
 5180TIP3   OH215496   0.234   1.728   3.129
 5180TIP3    H115497   0.256   1.677   3.207
 5180TIP3    H215498   0.149   1.695   3.102
 5181TIP3   OH215499   2.847   3.282   5.924
 5181TIP3    H115500   2.925   3.298   5.976
 5181TIP3    H215501   2.846   3.354   5.860
 5182TIP3   OH215502   6.271   4.187   4.325
 5182TIP3    H115503   6.288   4.260   4.266
 5182TIP3    H215504   6.210   4.130   4.276
 5183TIP3   OH215505   5.274   6.815   6.318
 5183TIP3    H115506   5.281   6.911   6.313
 5183TIP3    H215507   5.217   6.800   6.394
 5184TIP3   OH215508   3.247   5.196   0.344
 5184TIP3    H115509   3.188   5.249   0.397
 5184TIP3    H215510   3.268   5.120   0.398
 5185TIP3   OH215511   7.492   2.383   5.304
 5185TIP3    H115512   7.587   2.394   5.305
 5185TIP3    H215513   7.477   2.302   5.353
 5186TIP3   OH215514   3.601   3.851   3.864
 5186TIP3    H115515   3.636   3.934   3.832
 5186TIP3    H215516   3.511   3.871   3.889
 5187TIP3   OH215517   3.627   3.689   5.753
 5187TIP3    H115518   3.550   3.736   5.786
 5187TIP3    H215519   3.682   3.676   5.831
 5188TIP3   OH215520   0.259   5.033   5.394
 5188TIP3    H115521   0.197   5.058   5.463
 5188TIP3    H215522   0.217   4.960   5.348
 5189TIP3   OH215523   7.760   2.797   3.296
 5189TIP3    H115524   7.811   2.779   3.375
 5189TIP3    H215525   7.824   2.834   3.235
 5190TIP3   OH215526   7.862   5.069   4.731
 5190TIP3    H115527   7.934   5.132   4.726
 5190TIP3    H215528   7.800   5.098   4.664
 5191TIP3   OH215529   1.599   2.551   3.492
 5191TIP3    H115530   1.615   2.623   3.553
 5191TIP3    H215531   1.515   2.515   3.519
 5192TIP3   OH215532   6.494   7.124   1.598
 5192TIP3    H115533   6.451   7.048   1.635
 5192TIP3    H215534   6.459   7.198   1.648
 5193TIP3   OH215535   1.567   7.776   2.735
 5193TIP3    H115536   1.506   7.797   2.665
 5193TIP3    H215537   1.559   7.681   2.747
 5194TIP3   OH215538   7.811   2.043   5.442
 5194TIP3    H115539   7.749   2.075   5.377
 5194TIP3    H215540   7.776   2.073   5.526
 5195TIP3   OH215541   2.400   1.392   2.318
 5195TIP3    H115542   2.402   1.436   2.403
 5195TIP3    H215543   2.471   1.328   2.321
 5196TIP3   OH215544   3.486   7.477   4.453
 5196TIP3    H115545   3.428   7.405   4.429
 5196TIP3    H215546   3.527   7.503   4.371
 5197TIP3   OH215547   0.063   6.465   2.446
 5197TIP3    H115548   0.047   6.539   2.388
 5197TIP3    H215549   0.072   6.504   2.533
 5198TIP3   OH215550   0.928   4.820   1.635
 5198TIP3    H115551   0.949   4.883   1.704
 5198TIP3    H215552   1.007   4.817   1.581
 5199TIP3   OH215553   3.603   1.506   2.115
 5199TIP3    H115554   3.530   1.505   2.053
 5199TIP3    H215555   3.561   1.509   2.201
 5200TIP3   OH215556   3.695   5.115   2.868
 5200TIP3    H115557   3.662   5.030   2.896
 5200TIP3    H215558   3.723   5.158   2.949
 5201TIP3   OH215559   5.464   1.028   1.669
 5201TIP3    H115560   5.535   1.058   1.725
 5201TIP3    H215561   5.498   0.950   1.625
 5202TIP3   OH215562   5.124   3.219   6.421
 5202TIP3    H115563   5.030   3.227   6.436
 5202TIP3    H215564   5.162   3.212   6.509
 5203TIP3   OH215565   8.138   7.756   6.419
 5203TIP3    H115566   8.213   7.705   6.448
 5203TIP3    H215567   8.160   7.782   6.330
 5204TIP3   OH215568   1.702   3.199   4.030
 5204TIP3    H115569   1.730   3.245   3.951
 5204TIP3    H215570   1.688   3.109   4.002
 5205TIP3   OH215571   7.289   3.858   3.984
 5205TIP3    H115572   7.290   3.870   4.079
 5205TIP3    H215573   7.197   3.846   3.962
 5206TIP3   OH215574   8.167   3.275   3.754
 5206TIP3    H115575   8.157   3.355   3.702
 5206TIP3    H215576   8.260   3.253   3.746
 5207TIP3   OH215577   4.890   6.127   2.656
 5207TIP3    H115578   4.867   6.213   2.621
 5207TIP3    H215579   4.974   6.139   2.700
 5208TIP3   OH215580   2.201   2.607   4.516
 5208TIP3    H115581   2.231   2.518   4.533
 5208TIP3    H215582   2.281   2.659   4.513
 5209TIP3   OH215583   5.604   3.857   1.159
 5209TIP3    H115584   5.678   3.916   1.150
 5209TIP3    H215585   5.626   3.802   1.234
 5210TIP3   OH215586   7.505   5.328   1.895
 5210TIP3    H115587   7.427   5.363   1.852
 5210TIP3    H215588   7.546   5.405   1.936
 5211TIP3   OH215589   7.383   0.123   1.057
 5211TIP3    H115590   7.290   0.101   1.048
 5211TIP3    H215591   7.396   0.139   1.150
 5212TIP3   OH215592   6.658   4.669   2.005
 5212TIP3    H115593   6.725   4.685   2.072
 5212TIP3    H215594   6.594   4.740   2.018
 5213TIP3   OH215595   1.565   6.250   3.269
 5213TIP3    H115596   1.523   6.193   3.204
 5213TIP3    H215597   1.493   6.280   3.324
 5214TIP3   OH215598   7.277   5.515   6.300
 5214TIP3    H115599   7.305   5.552   6.383
 5214TIP3    H215600   7.358   5.504   6.250
 5215TIP3   OH215601   3.262   4.766   5.678
 5215TIP3    H115602   3.183   4.778   5.625
 5215TIP3    H215603   3.292   4.678   5.658
 5216TIP3   OH215604   7.617   3.493   2.660
 5216TIP3    H115605   7.690   3.432   2.673
 5216TIP3    H215606   7.616   3.509   2.566
 5217TIP3   OH215607   1.865   3.119   1.296
 5217TIP3    H115608   1.914   3.181   1.242
 5217TIP3    H215609   1.775   3.152   1.296
 5218TIP3   OH215610   1.221   4.951   6.013
 5218TIP3    H115611   1.283   5.023   6.028
 5218TIP3    H215612   1.269   4.890   5.957
 5219TIP3   OH215613   1.363   2.425   4.794
 5219TIP3    H115614   1.367   2.407   4.888
 5219TIP3    H215615   1.342   2.340   4.754
 5220TIP3   OH215616   4.151   0.553   3.649
 5220TIP3    H115617   4.128   0.605   3.572
 5220TIP3    H215618   4.241   0.578   3.669
 5221TIP3   OH215619   7.833   5.148   0.249
 5221TIP3    H115620   7.890   5.114   0.319
 5221TIP3    H215621   7.856   5.241   0.243
 5222TIP3   OH215622   3.995   3.795   1.341
 5222TIP3    H115623   3.906   3.816   1.367
 5222TIP3    H215624   4.048   3.869   1.371
 5223TIP3   OH215625   4.053   1.997   2.760
 5223TIP3    H115626   4.078   2.076   2.711
 5223TIP3    H215627   4.125   1.984   2.822
 5224TIP3   OH215628   7.554   6.887   6.340
 5224TIP3    H115629   7.603   6.923   6.414
 5224TIP3    H215630   7.462   6.903   6.362
 5225TIP3   OH215631   6.290   4.677   1.881
 5225TIP3    H115632   6.341   4.689   1.801
 5225TIP3    H215633   6.312   4.589   1.911
 5226TIP3   OH215634   1.566   1.270   1.599
 5226TIP3    H115635   1.639   1.232   1.551
 5226TIP3    H215636   1.592   1.265   1.691
 5227TIP3   OH215637   2.187   0.434   3.952
 5227TIP3    H115638   2.226   0.353   3.919
 5227TIP3    H215639   2.232   0.503   3.904
 5228TIP3   OH215640   6.331   3.138   3.706
 5228TIP3    H115641   6.341   3.179   3.791
 5228TIP3    H215642   6.368   3.201   3.644
 5229TIP3   OH215643   1.277   4.110   4.060
 5229TIP3    H115644   1.221   4.051   4.111
 5229TIP3    H215645   1.235   4.114   3.974
 5230TIP3   OH215646   5.267   0.453   6.612
 5230TIP3    H115647   5.271   0.378   6.553
 5230TIP3    H215648   5.358   0.468   6.638
 5231TIP3   OH215649   3.094   7.413   2.816
 5231TIP3    H115650   3.030   7.453   2.756
 5231TIP3    H215651   3.136   7.344   2.764
 5232TIP3   OH215652   1.893   1.171   4.163
 5232TIP3    H115653   1.812   1.215   4.138
 5232TIP3    H215654   1.867   1.108   4.230
 5233TIP3   OH215655   3.002   5.667   1.038
 5233TIP3    H115656   3.027   5.690   0.948
 5233TIP3    H215657   2.964   5.748   1.073
 5234TIP3   OH215658   3.700   3.451   1.817
 5234TIP3    H115659   3.662   3.368   1.845
 5234TIP3    H215660   3.701   3.505   1.896
 5235TIP3   OH215661   6.990   5.680   2.523
 5235TIP3    H115662   7.064   5.657   2.467
 5235TIP3    H215663   7.024   5.748   2.581
 5236TIP3   OH215664   3.386   6.680   3.350
 5236TIP3    H115665   3.411   6.606   3.407
 5236TIP3    H215666   3.337   6.639   3.279
 5237TIP3   OH215667   5.811   7.605   0.694
 5237TIP3    H115668   5.845   7.528   0.649
 5237TIP3    H215669   5.744   7.571   0.753
 5238TIP3   OH215670   4.829   5.391   5.231
 5238TIP3    H115671   4.784   5.427   5.307
 5238TIP3    H215672   4.919   5.420   5.241
 5239TIP3   OH215673   6.920   6.941   6.326
 5239TIP3    H115674   6.920   7.037   6.316
 5239TIP3    H215675   6.990   6.924   6.389
 5240TIP3   OH215676   8.233   4.505   5.608
 5240TIP3    H115677   8.302   4.442   5.629
 5240TIP3    H215678   8.280   4.585   5.582
 5241TIP3   OH215679   5.582   0.977   0.275
 5241TIP3    H115680   5.493   0.966   0.241
 5241TIP3    H215681   5.622   1.041   0.216
 5242TIP3   OH215682   6.563   0.094   1.787
 5242TIP3    H115683   6.549   0.080   1.693
 5242TIP3    H215684   6.619   0.021   1.814
 5243TIP3   OH215685   5.297   6.792   2.077
 5243TIP3    H115686   5.292   6.877   2.034
 5243TIP3    H215687   5.227   6.793   2.142
 5244TIP3   OH215688   3.228   4.992   6.013
 5244TIP3    H115689   3.270   4.924   6.065
 5244TIP3    H215690   3.134   4.975   6.022
 5245TIP3   OH215691   2.347   2.827   3.496
 5245TIP3    H115692   2.429   2.859   3.534
 5245TIP3    H215693   2.279   2.875   3.544
 5246TIP3   OH215694   5.724   1.090   5.441
 5246TIP3    H115695   5.759   1.148   5.509
 5246TIP3    H215696   5.659   1.143   5.395
 5247TIP3   OH215697   4.823   7.261   4.590
 5247TIP3    H115698   4.727   7.267   4.591
 5247TIP3    H215699   4.844   7.184   4.641
 5248TIP3   OH215700   1.518   3.241   4.517
 5248TIP3    H115701   1.519   3.223   4.423
 5248TIP3    H215702   1.530   3.155   4.558
 5249TIP3   OH215703   3.012   3.781   2.991
 5249TIP3    H115704   3.101   3.804   2.966
 5249TIP3    H215705   3.020   3.699   3.039
 5250TIP3   OH215706   1.110   3.845   5.840
 5250TIP3    H115707   1.106   3.830   5.745
 5250TIP3    H215708   1.055   3.922   5.854
 5251TIP3   OH215709   7.485   1.229   2.785
 5251TIP3    H115710   7.520   1.214   2.873
 5251TIP3    H215711   7.557   1.205   2.727
 5252TIP3   OH215712   4.144   5.891   1.742
 5252TIP3    H115713   4.208   5.954   1.775
 5252TIP3    H215714   4.113   5.845   1.821
 5253TIP3   OH215715   4.219   6.054   5.958
 5253TIP3    H115716   4.225   5.963   5.929
 5253TIP3    H215717   4.267   6.056   6.041
 5254TIP3   OH215718   7.297   5.086   5.411
 5254TIP3    H115719   7.228   5.143   5.444
 5254TIP3    H215720   7.327   5.128   5.330
 5255TIP3   OH215721   4.390   2.080   2.491
 5255TIP3    H115722   4.369   1.989   2.510
 5255TIP3    H215723   4.304   2.124   2.488
 5256TIP3   OH215724   1.791   7.188   4.497
 5256TIP3    H115725   1.874   7.207   4.540
 5256TIP3    H215726   1.754   7.274   4.478
 5257TIP3   OH215727   2.613   5.453   6.565
 5257TIP3    H115728   2.651   5.538   6.586
 5257TIP3    H215729   2.536   5.473   6.511
 5258TIP3   OH215730   0.165   0.857   4.898
 5258TIP3    H115731   0.136   0.920   4.832
 5258TIP3    H215732   0.089   0.799   4.909
 5259TIP3   OH215733   2.210   0.007   4.694
 5259TIP3    H115734   2.117   0.021   4.681
 5259TIP3    H215735   2.244  -0.019   4.608
 5260TIP3   OH215736   4.419   7.459   3.359
 5260TIP3    H115737   4.504   7.494   3.335
 5260TIP3    H215738   4.432   7.424   3.448
 5261TIP3   OH215739   4.218   4.994   4.651
 5261TIP3    H115740   4.174   5.073   4.684
 5261TIP3    H215741   4.155   4.954   4.593
 5262TIP3   OH215742   2.636   4.037   5.606
 5262TIP3    H115743   2.705   4.092   5.643
 5262TIP3    H215744   2.644   4.048   5.511
 5263TIP3   OH215745   6.369   0.361   2.149
 5263TIP3    H115746   6.321   0.380   2.229
 5263TIP3    H215747   6.430   0.434   2.139
 5264TIP3   OH215748   4.438   1.897   5.441
 5264TIP3    H115749   4.472   1.810   5.421
 5264TIP3    H215750   4.354   1.880   5.485
 5265TIP3   OH215751   1.261   1.726   5.838
 5265TIP3    H115752   1.316   1.677   5.899
 5265TIP3    H215753   1.200   1.775   5.894
 5266TIP3   OH215754   5.875   6.872   0.485
 5266TIP3    H115755   5.848   6.923   0.561
 5266TIP3    H215756   5.793   6.841   0.447
 5267TIP3   OH215757   6.174   2.812   5.075
 5267TIP3    H115758   6.138   2.847   4.994
 5267TIP3    H215759   6.114   2.843   5.143
 5268TIP3   OH215760   5.691   1.777   5.206
 5268TIP3    H115761   5.605   1.820   5.197
 5268TIP3    H215762   5.685   1.700   5.149
 5269TIP3   OH215763   4.327   5.468   5.906
 5269TIP3    H115764   4.311   5.562   5.916
 5269TIP3    H215765   4.420   5.457   5.923
 5270TIP3   OH215766   8.201   4.600   6.086
 5270TIP3    H115767   8.144   4.572   6.015
 5270TIP3    H215768   8.289   4.574   6.057
 5271TIP3   OH215769   6.684   4.245   3.227
 5271TIP3    H115770   6.635   4.310   3.278
 5271TIP3    H215771   6.617   4.182   3.200
 5272TIP3   OH215772   6.245   2.060   2.032
 5272TIP3    H115773   6.235   1.974   2.073
 5272TIP3    H215774   6.233   2.122   2.103
 5273TIP3   OH215775   0.443   7.339   6.578
 5273TIP3    H115776   0.421   7.314   6.488
 5273TIP3    H215777   0.531   7.305   6.592
 5274TIP3   OH215778   7.474   5.510   1.253
 5274TIP3    H115779   7.384   5.519   1.222
 5274TIP3    H215780   7.526   5.568   1.197
 5275TIP3   OH215781   6.994   7.430   2.989
 5275TIP3    H115782   7.019   7.489   2.917
 5275TIP3    H215783   7.038   7.466   3.066
 5276TIP3   OH215784   0.057   2.051   5.599
 5276TIP3    H115785   0.126   2.114   5.579
 5276TIP3    H215786  -0.024   2.102   5.595
 5277TIP3   OH215787   6.300   1.457   2.012
 5277TIP3    H115788   6.338   1.375   2.043
 5277TIP3    H215789   6.242   1.431   1.941
 5278TIP3   OH215790   1.633   2.898   3.197
 5278TIP3    H115791   1.625   2.920   3.105
 5278TIP3    H215792   1.574   2.824   3.210
 5279TIP3   OH215793   2.551   0.915   4.164
 5279TIP3    H115794   2.525   0.847   4.226
 5279TIP3    H215795   2.579   0.988   4.219
 5280TIP3   OH215796   4.240   4.659   5.301
 5280TIP3    H115797   4.237   4.713   5.222
 5280TIP3    H215798   4.163   4.602   5.294
 5281TIP3   OH215799   5.287   3.418   6.276
 5281TIP3    H115800   5.251   3.362   6.345
 5281TIP3    H215801   5.261   3.507   6.301
 5282TIP3   OH215802   7.589   2.395   0.080
 5282TIP3    H115803   7.592   2.490   0.093
 5282TIP3    H215804   7.594   2.359   0.168
 5283TIP3   OH215805   5.343   4.688   3.513
 5283TIP3    H115806   5.325   4.597   3.490
 5283TIP3    H215807   5.328   4.692   3.607
 5284TIP3   OH215808   5.926   7.682   0.348
 5284TIP3    H115809   5.995   7.737   0.310
 5284TIP3    H215810   5.938   7.596   0.309
 5285TIP3   OH215811   5.523   2.229   3.121
 5285TIP3    H115812   5.508   2.267   3.034
 5285TIP3    H215813   5.465   2.277   3.179
 5286TIP3   OH215814   5.488   4.015   2.139
 5286TIP3    H115815   5.514   3.977   2.223
 5286TIP3    H215816   5.459   4.104   2.161
 5287TIP3   OH215817   2.485   3.610   2.335
 5287TIP3    H115818   2.415   3.551   2.363
 5287TIP3    H215819   2.491   3.675   2.405
 5288TIP3   OH215820   3.778   4.972   5.665
 5288TIP3    H115821   3.851   4.942   5.719
 5288TIP3    H215822   3.703   4.969   5.724
 5289TIP3   OH215823   2.491   6.520   4.575
 5289TIP3    H115824   2.460   6.603   4.611
 5289TIP3    H215825   2.474   6.526   4.481
 5290TIP3   OH215826   5.226   3.974   3.498
 5290TIP3    H115827   5.278   3.976   3.578
 5290TIP3    H215828   5.196   3.883   3.491
 5291TIP3   OH215829   6.579   5.701   5.378
 5291TIP3    H115830   6.640   5.757   5.425
 5291TIP3    H215831   6.498   5.751   5.373
 5292TIP3   OH215832   0.869   4.413   0.590
 5292TIP3    H115833   0.794   4.355   0.599
 5292TIP3    H215834   0.906   4.391   0.504
 5293TIP3   OH215835   1.558   1.013   6.257
 5293TIP3    H115836   1.583   0.922   6.271
 5293TIP3    H215837   1.557   1.024   6.162
 5294TIP3   OH215838   0.949   1.360   4.666
 5294TIP3    H115839   0.998   1.285   4.700
 5294TIP3    H215840   0.890   1.322   4.601
 5295TIP3   OH215841   0.118   0.227   5.451
 5295TIP3    H115842   0.051   0.283   5.489
 5295TIP3    H215843   0.101   0.229   5.357
 5296TIP3   OH215844   6.090   4.880   1.516
 5296TIP3    H115845   6.116   4.904   1.605
 5296TIP3    H215846   6.037   4.954   1.486
 5297TIP3   OH215847   0.858   7.060   6.081
 5297TIP3    H115848   0.851   7.011   6.163
 5297TIP3    H215849   0.768   7.067   6.049
 5298TIP3   OH215850   3.133   7.495   1.135
 5298TIP3    H115851   3.076   7.565   1.106
 5298TIP3    H215852   3.145   7.510   1.228
 5299TIP3   OH215853   8.158   5.642   3.150
 5299TIP3    H115854   8.083   5.597   3.189
 5299TIP3    H215855   8.193   5.696   3.221
 5300TIP3   OH215856   4.770   3.561   5.259
 5300TIP3    H115857   4.781   3.654   5.276
 5300TIP3    H215858   4.694   3.555   5.202
 5301TIP3   OH215859   3.817   7.480   6.733
 5301TIP3    H115860   3.795   7.433   6.814
 5301TIP3    H215861   3.758   7.555   6.732
 5302TIP3   OH215862   1.302   2.873   3.828
 5302TIP3    H115863   1.288   2.784   3.861
 5302TIP3    H215864   1.348   2.918   3.899
 5303TIP3   OH215865   6.868   4.774   5.140
 5303TIP3    H115866   6.872   4.779   5.044
 5303TIP3    H215867   6.870   4.866   5.168
 5304TIP3   OH215868   0.786   1.800   0.538
 5304TIP3    H115869   0.879   1.822   0.524
 5304TIP3    H215870   0.745   1.884   0.559
 5305TIP3   OH215871   5.776   2.201   0.299
 5305TIP3    H115872   5.811   2.290   0.293
 5305TIP3    H215873   5.682   2.212   0.314
 5306TIP3   OH215874   0.889   3.059   5.353
 5306TIP3    H115875   0.895   3.018   5.266
 5306TIP3    H215876   0.973   3.103   5.364
 5307TIP3   OH215877   2.605   6.592   3.428
 5307TIP3    H115878   2.632   6.559   3.342
 5307TIP3    H215879   2.686   6.603   3.477
 5308TIP3   OH215880   4.630   1.909   0.612
 5308TIP3    H115881   4.594   1.997   0.610
 5308TIP3    H215882   4.641   1.890   0.706
 5309TIP3   OH215883   2.573   2.908   0.815
 5309TIP3    H115884   2.483   2.934   0.831
 5309TIP3    H215885   2.581   2.821   0.855
 5310TIP3   OH215886   0.587   6.907   6.570
 5310TIP3    H115887   0.528   6.907   6.645
 5310TIP3    H215888   0.577   6.994   6.531
 5311TIP3   OH215889   7.807   6.980   1.859
 5311TIP3    H115890   7.840   6.986   1.770
 5311TIP3    H215891   7.842   6.898   1.893
 5312TIP3   OH215892   3.064   2.770   0.935
 5312TIP3    H115893   3.043   2.779   1.028
 5312TIP3    H215894   3.115   2.849   0.914
 5313TIP3   OH215895   2.970   3.682   1.029
 5313TIP3    H115896   2.933   3.627   1.098
 5313TIP3    H215897   3.060   3.697   1.057
 5314TIP3   OH215898   1.315   1.780   3.636
 5314TIP3    H115899   1.221   1.774   3.649
 5314TIP3    H215900   1.340   1.693   3.603
 5315TIP3   OH215901   2.673   3.041   1.163
 5315TIP3    H115902   2.695   2.973   1.099
 5315TIP3    H215903   2.738   3.110   1.148
 5316TIP3   OH215904   5.545   0.766   2.555
 5316TIP3    H115905   5.516   0.822   2.482
 5316TIP3    H215906   5.560   0.681   2.515
 5317TIP3   OH215907   0.328   0.492   5.233
 5317TIP3    H115908   0.312   0.417   5.176
 5317TIP3    H215909   0.384   0.458   5.303
 5318TIP3   OH215910   2.186   4.737   0.632
 5318TIP3    H115911   2.136   4.662   0.662
 5318TIP3    H215912   2.156   4.753   0.543
 5319TIP3   OH215913   7.680   5.102   2.912
 5319TIP3    H115914   7.607   5.129   2.856
 5319TIP3    H215915   7.754   5.156   2.885
 5320TIP3   OH215916   1.342   2.019   0.760
 5320TIP3    H115917   1.328   2.079   0.833
 5320TIP3    H215918   1.296   1.939   0.785
 5321TIP3   OH215919   5.338   7.283   6.425
 5321TIP3    H115920   5.316   7.196   6.391
 5321TIP3    H215921   5.395   7.265   6.500
 5322TIP3   OH215922   6.672   2.855   1.033
 5322TIP3    H115923   6.648   2.934   0.984
 5322TIP3    H215924   6.702   2.888   1.118
 5323TIP3   OH215925   6.817   3.607   0.970
 5323TIP3    H115926   6.775   3.554   1.037
 5323TIP3    H215927   6.759   3.682   0.958
 5324TIP3   OH215928   2.827   1.937   3.451
 5324TIP3    H115929   2.748   1.990   3.464
 5324TIP3    H215930   2.870   1.975   3.375
 5325TIP3   OH215931   5.618   3.146   0.076
 5325TIP3    H115932   5.648   3.142   0.167
 5325TIP3    H215933   5.682   3.204   0.032
 5326TIP3   OH215934   0.174   1.369   1.622
 5326TIP3    H115935   0.214   1.335   1.702
 5326TIP3    H215936   0.125   1.446   1.650
 5327TIP3   OH215937   7.738   2.042   0.707
 5327TIP3    H115938   7.699   2.127   0.729
 5327TIP3    H215939   7.828   2.063   0.682
 5328TIP3   OH215940   7.602   1.462   1.205
 5328TIP3    H115941   7.633   1.389   1.153
 5328TIP3    H215942   7.665   1.468   1.278
 5329TIP3   OH215943   7.655   1.562   1.478
 5329TIP3    H115944   7.666   1.657   1.476
 5329TIP3    H215945   7.691   1.535   1.563
 5330TIP3   OH215946   3.656   6.454   5.353
 5330TIP3    H115947   3.660   6.412   5.268
 5330TIP3    H215948   3.595   6.401   5.404
 5331TIP3   OH215949   4.951   3.471   1.285
 5331TIP3    H115950   4.982   3.550   1.329
 5331TIP3    H215951   4.954   3.493   1.192
 5332TIP3   OH215952   2.632   5.463   3.616
 5332TIP3    H115953   2.652   5.390   3.675
 5332TIP3    H215954   2.716   5.505   3.600
 5333TIP3   OH215955   0.101   6.307   6.024
 5333TIP3    H115956   0.071   6.289   5.935
 5333TIP3    H215957   0.048   6.381   6.053
 5334TIP3   OH215958   5.035   0.892   6.801
 5334TIP3    H115959   4.945   0.885   6.769
 5334TIP3    H215960   5.086   0.915   6.723
 5335TIP3   OH215961   7.539   1.602   5.396
 5335TIP3    H115962   7.615   1.619   5.452
 5335TIP3    H215963   7.564   1.526   5.343
 5336TIP3   OH215964   7.252   2.679   1.013
 5336TIP3    H115965   7.221   2.744   0.949
 5336TIP3    H215966   7.347   2.679   1.003
 5337TIP3   OH215967   0.384   6.130   3.074
 5337TIP3    H115968   0.414   6.040   3.086
 5337TIP3    H215969   0.404   6.150   2.982
 5338TIP3   OH215970   8.169   5.048   5.921
 5338TIP3    H115971   8.147   5.088   5.837
 5338TIP3    H215972   8.198   4.960   5.898
 5339TIP3   OH215973   6.160   0.856   2.605
 5339TIP3    H115974   6.183   0.918   2.536
 5339TIP3    H215975   6.156   0.909   2.685
 5340TIP3   OH215976   0.939   1.518   6.372
 5340TIP3    H115977   0.975   1.601   6.405
 5340TIP3    H215978   0.986   1.451   6.421
 5341TIP3   OH215979   4.485   0.766   0.490
 5341TIP3    H115980   4.406   0.718   0.514
 5341TIP3    H215981   4.537   0.770   0.570
 5342TIP3   OH215982   0.008   1.107   0.698
 5342TIP3    H115983   0.043   1.184   0.653
 5342TIP3    H215984  -0.055   1.069   0.637
 5343TIP3   OH215985   5.925   4.859   0.520
 5343TIP3    H115986   5.975   4.791   0.565
 5343TIP3    H215987   5.838   4.821   0.509
 5344TIP3   OH215988   3.374   4.880   1.458
 5344TIP3    H115989   3.352   4.962   1.503
 5344TIP3    H215990   3.305   4.819   1.482
 5345TIP3   OH215991   6.761   7.503   0.605
 5345TIP3    H115992   6.697   7.555   0.557
 5345TIP3    H215993   6.716   7.478   0.686
 5346TIP3   OH215994   4.145   2.715   0.298
 5346TIP3    H115995   4.185   2.760   0.224
 5346TIP3    H215996   4.217   2.699   0.359
 5347TIP3   OH215997   5.794   7.420   4.630
 5347TIP3    H115998   5.748   7.425   4.546
 5347TIP3    H215999   5.770   7.501   4.675
 5348TIP3   OH216000   3.330   5.744   4.494
 5348TIP3    H116001   3.292   5.793   4.421
 5348TIP3    H216002   3.260   5.686   4.522
 5349TIP3   OH216003   5.784   5.822   4.794
 5349TIP3    H116004   5.842   5.757   4.833
 5349TIP3    H216005   5.737   5.860   4.869
 5350TIP3   OH216006   5.270   7.588   5.179
 5350TIP3    H116007   5.242   7.667   5.131
 5350TIP3    H216008   5.363   7.578   5.155
 5351TIP3   OH216009   2.266   4.918   2.666
 5351TIP3    H116010   2.347   4.942   2.621
 5351TIP3    H216011   2.198   4.927   2.599
 5352TIP3   OH216012   5.831   7.298   6.684
 5352TIP3    H116013   5.896   7.228   6.688
 5352TIP3    H216014   5.835   7.330   6.594
 5353TIP3   OH216015   4.708   7.330   3.738
 5353TIP3    H116016   4.802   7.322   3.748
 5353TIP3    H216017   4.679   7.376   3.817
 5354TIP3   OH216018   5.650   0.060   5.911
 5354TIP3    H116019   5.585   0.088   5.975
 5354TIP3    H216020   5.723   0.121   5.923
 5355TIP3   OH216021   2.651   0.915   1.420
 5355TIP3    H116022   2.659   0.899   1.326
 5355TIP3    H216023   2.681   1.005   1.432
 5356TIP3   OH216024   0.291   5.178   6.594
 5356TIP3    H116025   0.320   5.248   6.653
 5356TIP3    H216026   0.206   5.208   6.561
 5357TIP3   OH216027   2.762   2.971   2.678
 5357TIP3    H116028   2.848   2.939   2.650
 5357TIP3    H216029   2.707   2.959   2.601
 5358TIP3   OH216030   0.269   6.323   6.374
 5358TIP3    H116031   0.185   6.365   6.393
 5358TIP3    H216032   0.267   6.243   6.427
 5359TIP3   OH216033   1.978   2.338   1.618
 5359TIP3    H116034   1.968   2.310   1.527
 5359TIP3    H216035   2.072   2.358   1.627
 5360TIP3   OH216036   0.812   0.797   5.060
 5360TIP3    H116037   0.889   0.753   5.095
 5360TIP3    H216038   0.837   0.889   5.054
 5361TIP3   OH216039   1.566   1.032   5.985
 5361TIP3    H116040   1.485   1.059   5.941
 5361TIP3    H216041   1.630   1.098   5.960
 5362TIP3   OH216042   6.435   0.963   0.605
 5362TIP3    H116043   6.451   1.028   0.673
 5362TIP3    H216044   6.436   1.013   0.523
 5363TIP3   OH216045   3.115   0.648   4.378
 5363TIP3    H116046   3.201   0.631   4.415
 5363TIP3    H216047   3.130   0.654   4.283
 5364TIP3   OH216048   6.708   2.286   1.504
 5364TIP3    H116049   6.734   2.297   1.595
 5364TIP3    H216050   6.616   2.313   1.501
 5365TIP3   OH216051   6.152   4.782   3.795
 5365TIP3    H116052   6.116   4.809   3.711
 5365TIP3    H216053   6.124   4.691   3.806
 5366TIP3   OH216054   2.205   5.031   4.419
 5366TIP3    H116055   2.256   5.102   4.380
 5366TIP3    H216056   2.240   5.022   4.508
 5367TIP3   OH216057   4.507   3.716   5.236
 5367TIP3    H116058   4.525   3.731   5.143
 5367TIP3    H216059   4.463   3.631   5.239
 5368TIP3   OH216060   4.669   0.424   5.922
 5368TIP3    H116061   4.751   0.471   5.908
 5368TIP3    H216062   4.631   0.465   5.999
 5369TIP3   OH216063   8.220   6.631   2.963
 5369TIP3    H116064   8.291   6.688   2.935
 5369TIP3    H216065   8.226   6.630   3.058
 5370TIP3   OH216066   5.247   7.246   3.812
 5370TIP3    H116067   5.252   7.339   3.794
 5370TIP3    H216068   5.333   7.224   3.850
 5371TIP3   OH216069   7.327   7.858   3.135
 5371TIP3    H116070   7.275   7.781   3.113
 5371TIP3    H216071   7.361   7.889   3.051
 5372TIP3   OH216072   0.127   2.815   0.442
 5372TIP3    H116073   0.089   2.752   0.381
 5372TIP3    H216074   0.068   2.813   0.517
 5373TIP3   OH216075   0.740   4.201   1.328
 5373TIP3    H116076   0.741   4.106   1.335
 5373TIP3    H216077   0.707   4.231   1.412
 5374TIP3   OH216078   6.028   2.796   4.571
 5374TIP3    H116079   6.004   2.876   4.524
 5374TIP3    H216080   5.970   2.729   4.535
 5375TIP3   OH216081   3.749   1.434   5.583
 5375TIP3    H116082   3.788   1.346   5.588
 5375TIP3    H216083   3.655   1.418   5.583
 5376TIP3   OH216084   0.085   0.668   3.975
 5376TIP3    H116085   0.101   0.637   3.886
 5376TIP3    H216086   0.010   0.617   4.006
 5377TIP3   OH216087   3.672   3.638   1.168
 5377TIP3    H116088   3.699   3.563   1.222
 5377TIP3    H216089   3.603   3.680   1.219
 5378TIP3   OH216090   5.794   0.330   0.190
 5378TIP3    H116091   5.711   0.347   0.146
 5378TIP3    H216092   5.793   0.389   0.266
 5379TIP3   OH216093   7.317   3.943   2.391
 5379TIP3    H116094   7.294   4.035   2.386
 5379TIP3    H216095   7.281   3.904   2.312
 5380TIP3   OH216096   0.110   4.431   3.345
 5380TIP3    H116097   0.046   4.495   3.375
 5380TIP3    H216098   0.083   4.349   3.387
 5381TIP3   OH216099   3.313   6.901   0.088
 5381TIP3    H116100   3.336   6.873   0.177
 5381TIP3    H216101   3.314   6.996   0.091
 5382TIP3   OH216102   2.830   6.746   4.045
 5382TIP3    H116103   2.802   6.768   3.956
 5382TIP3    H216104   2.749   6.724   4.091
 5383TIP3   OH216105   3.508   2.112   6.468
 5383TIP3    H116106   3.546   2.060   6.397
 5383TIP3    H216107   3.451   2.175   6.424
 5384TIP3   OH216108   2.458   0.140   4.870
 5384TIP3    H116109   2.388   0.075   4.868
 5384TIP3    H216110   2.474   0.160   4.778
 5385TIP3   OH216111   2.417   3.236   6.149
 5385TIP3    H116112   2.404   3.287   6.229
 5385TIP3    H216113   2.491   3.279   6.105
 5386TIP3   OH216114   0.825   0.466   0.388
 5386TIP3    H116115   0.836   0.433   0.478
 5386TIP3    H216116   0.752   0.527   0.394
 5387TIP3   OH216117   8.272   1.979   0.222
 5387TIP3    H116118   8.191   1.989   0.171
 5387TIP3    H216119   8.332   2.043   0.184
 5388TIP3   OH216120   1.999   5.495   2.024
 5388TIP3    H116121   1.951   5.549   2.087
 5388TIP3    H216122   1.968   5.406   2.041
 5389TIP3   OH216123   1.695   2.881   3.472
 5389TIP3    H116124   1.653   2.872   3.387
 5389TIP3    H216125   1.703   2.975   3.485
 5390TIP3   OH216126   0.024   5.907   5.406
 5390TIP3    H116127  -0.043   5.877   5.346
 5390TIP3    H216128   0.073   5.973   5.357
 5391TIP3   OH216129   0.881   6.752   1.957
 5391TIP3    H116130   0.894   6.841   1.990
 5391TIP3    H216131   0.853   6.702   2.034
 5392TIP3   OH216132   1.551   1.152   0.931
 5392TIP3    H116133   1.606   1.153   1.009
 5392TIP3    H216134   1.563   1.238   0.892
 5393TIP3   OH216135   6.058   7.627   1.797
 5393TIP3    H116136   6.093   7.710   1.766
 5393TIP3    H216137   6.081   7.624   1.890
 5394TIP3   OH216138   0.493   6.864   0.233
 5394TIP3    H116139   0.494   6.876   0.138
 5394TIP3    H216140   0.524   6.774   0.246
 5395TIP3   OH216141   2.756   4.100   5.075
 5395TIP3    H116142   2.763   4.086   4.981
 5395TIP3    H216143   2.845   4.124   5.102
 5396TIP3   OH216144   4.786   0.488   0.558
 5396TIP3    H116145   4.852   0.469   0.624
 5396TIP3    H216146   4.823   0.558   0.505
 5397TIP3   OH216147   1.091   3.283   0.102
 5397TIP3    H116148   1.081   3.299   0.196
 5397TIP3    H216149   1.182   3.305   0.083
 5398TIP3   OH216150   4.991   6.222   0.997
 5398TIP3    H116151   5.011   6.300   1.049
 5398TIP3    H216152   5.020   6.244   0.909
 5399TIP3   OH216153   5.882   0.840   5.087
 5399TIP3    H116154   5.804   0.892   5.066
 5399TIP3    H216155   5.954   0.903   5.080
 5400TIP3   OH216156   7.810   4.306   0.862
 5400TIP3    H116157   7.773   4.337   0.780
 5400TIP3    H216158   7.734   4.281   0.915
 5401TIP3   OH216159   2.399   4.401   5.736
 5401TIP3    H116160   2.400   4.444   5.651
 5401TIP3    H216161   2.473   4.341   5.734
 5402TIP3   OH216162   5.686   1.015   1.345
 5402TIP3    H116163   5.741   1.060   1.410
 5402TIP3    H216164   5.646   0.943   1.393
 5403TIP3   OH216165   8.081   5.625   4.239
 5403TIP3    H116166   8.141   5.609   4.167
 5403TIP3    H216167   8.105   5.562   4.306
 5404TIP3   OH216168   6.885   6.554   0.308
 5404TIP3    H116169   6.922   6.481   0.357
 5404TIP3    H216170   6.797   6.525   0.283
 5405TIP3   OH216171   2.474   3.821   1.040
 5405TIP3    H116172   2.547   3.872   1.006
 5405TIP3    H216173   2.396   3.862   1.003
 5406TIP3   OH216174   1.956   3.592   6.382
 5406TIP3    H116175   1.873   3.636   6.362
 5406TIP3    H216176   1.930   3.506   6.415
 5407TIP3   OH216177   4.361   3.232   4.486
 5407TIP3    H116178   4.300   3.170   4.447
 5407TIP3    H216179   4.428   3.177   4.527
 5408TIP3   OH216180   7.970   3.350   1.636
 5408TIP3    H116181   8.003   3.297   1.562
 5408TIP3    H216182   7.875   3.351   1.624
 5409TIP3   OH216183   5.529   1.302   3.731
 5409TIP3    H116184   5.553   1.388   3.764
 5409TIP3    H216185   5.611   1.254   3.726
 5410TIP3   OH216186   1.773   3.537   3.904
 5410TIP3    H116187   1.777   3.570   3.994
 5410TIP3    H216188   1.711   3.595   3.860
 5411TIP3   OH216189   0.237   4.467   0.191
 5411TIP3    H116190   0.262   4.530   0.259
 5411TIP3    H216191   0.142   4.466   0.193
 5412TIP3   OH216192   5.852   0.859   3.713
 5412TIP3    H116193   5.816   0.812   3.788
 5412TIP3    H216194   5.909   0.795   3.670
 5413TIP3   OH216195   1.079   5.306   4.977
 5413TIP3    H116196   1.144   5.365   4.939
 5413TIP3    H216197   1.130   5.237   5.019
 5414TIP3   OH216198   3.833   6.506   5.078
 5414TIP3    H116199   3.811   6.426   5.030
 5414TIP3    H216200   3.902   6.480   5.139
 5415TIP3   OH216201   3.507   5.967   1.310
 5415TIP3    H116202   3.427   5.957   1.258
 5415TIP3    H216203   3.502   6.056   1.344
 5416TIP3   OH216204   3.686   3.370   3.463
 5416TIP3    H116205   3.719   3.280   3.467
 5416TIP3    H216206   3.703   3.406   3.550
 5417TIP3   OH216207   5.518   0.765   0.577
 5417TIP3    H116208   5.510   0.858   0.599
 5417TIP3    H216209   5.432   0.728   0.598
 5418TIP3   OH216210   6.157   1.450   4.072
 5418TIP3    H116211   6.172   1.411   3.986
 5418TIP3    H216212   6.093   1.392   4.113
 5419TIP3   OH216213   3.638   0.844   0.686
 5419TIP3    H116214   3.641   0.796   0.769
 5419TIP3    H216215   3.628   0.936   0.711
 5420TIP3   OH216216   8.253   1.339   1.273
 5420TIP3    H116217   8.185   1.404   1.254
 5420TIP3    H216218   8.251   1.280   1.198
 5421TIP3   OH216219   6.555   5.629   2.121
 5421TIP3    H116220   6.534   5.674   2.202
 5421TIP3    H216221   6.512   5.543   2.129
 5422TIP3   OH216222   5.447   5.202   1.512
 5422TIP3    H116223   5.450   5.298   1.509
 5422TIP3    H216224   5.433   5.182   1.605
 5423TIP3   OH216225   7.769   1.244   3.310
 5423TIP3    H116226   7.795   1.186   3.238
 5423TIP3    H216227   7.707   1.305   3.270
 5424TIP3   OH216228   7.478   3.191   1.524
 5424TIP3    H116229   7.420   3.218   1.452
 5424TIP3    H216230   7.421   3.141   1.583
 5425TIP3   OH216231   5.235   2.111   3.408
 5425TIP3    H116232   5.257   2.018   3.407
 5425TIP3    H216233   5.306   2.152   3.459
 5426TIP3   OH216234   7.717   0.672   4.470
 5426TIP3    H116235   7.720   0.595   4.412
 5426TIP3    H216236   7.791   0.661   4.529
 5427TIP3   OH216237   6.651   2.642   0.156
 5427TIP3    H116238   6.681   2.713   0.213
 5427TIP3    H216239   6.559   2.630   0.177
 5428TIP3   OH216240   0.458   6.688   6.482
 5428TIP3    H116241   0.434   6.711   6.392
 5428TIP3    H216242   0.503   6.766   6.515
 5429TIP3   OH216243   5.189   2.114   2.902
 5429TIP3    H116244   5.184   2.173   2.977
 5429TIP3    H216245   5.103   2.120   2.860
 5430TIP3   OH216246   4.144   7.582   4.076
 5430TIP3    H116247   4.121   7.610   3.987
 5430TIP3    H216248   4.089   7.505   4.091
 5431TIP3   OH216249   1.334   7.125   5.008
 5431TIP3    H116250   1.389   7.158   4.938
 5431TIP3    H216251   1.395   7.102   5.079
 5432TIP3   OH216252   7.131   2.919   4.174
 5432TIP3    H116253   7.068   2.847   4.183
 5432TIP3    H216254   7.093   2.977   4.109
 5433TIP3   OH216255   6.529   5.387   2.940
 5433TIP3    H116256   6.505   5.387   3.032
 5433TIP3    H216257   6.617   5.426   2.938
 5434TIP3   OH216258   0.677   5.598   3.194
 5434TIP3    H116259   0.714   5.514   3.221
 5434TIP3    H216260   0.702   5.607   3.102
 5435TIP3   OH216261   3.010   4.369   6.660
 5435TIP3    H116262   3.004   4.441   6.596
 5435TIP3    H216263   3.074   4.309   6.623
 5436TIP3   OH216264   3.765   4.845   0.987
 5436TIP3    H116265   3.813   4.795   1.053
 5436TIP3    H216266   3.818   4.923   0.971
 5437TIP3   OH216267   7.893   4.917   3.097
 5437TIP3    H116268   7.972   4.921   3.043
 5437TIP3    H216269   7.926   4.902   3.186
 5438TIP3   OH216270   7.959   5.154   3.661
 5438TIP3    H116271   7.877   5.175   3.704
 5438TIP3    H216272   7.981   5.233   3.611
 5439TIP3   OH216273   0.127   4.324   5.738
 5439TIP3    H116274   0.094   4.250   5.686
 5439TIP3    H216275   0.220   4.305   5.750
 5440TIP3   OH216276   2.269   4.942   2.989
 5440TIP3    H116277   2.254   5.012   3.053
 5440TIP3    H216278   2.358   4.956   2.959
 5441TIP3   OH216279   3.838   7.776   0.711
 5441TIP3    H116280   3.916   7.792   0.658
 5441TIP3    H216281   3.782   7.722   0.656
 5442TIP3   OH216282   6.285   1.096   1.509
 5442TIP3    H116283   6.217   1.160   1.488
 5442TIP3    H216284   6.367   1.141   1.488
 5443TIP3   OH216285   0.140   5.320   5.328
 5443TIP3    H116286   0.143   5.242   5.385
 5443TIP3    H216287   0.209   5.377   5.362
 5444TIP3   OH216288   1.836   6.038   3.977
 5444TIP3    H116289   1.898   6.027   4.049
 5444TIP3    H216290   1.765   6.091   4.014
 5445TIP3   OH216291   0.480   4.419   2.649
 5445TIP3    H116292   0.553   4.357   2.642
 5445TIP3    H216293   0.402   4.365   2.639
 5446TIP3   OH216294   6.487   7.871   0.006
 5446TIP3    H116295   6.433   7.836   0.077
 5446TIP3    H216296   6.451   7.958  -0.011
 5447TIP3   OH216297   6.253   3.718   4.896
 5447TIP3    H116298   6.310   3.688   4.825
 5447TIP3    H216299   6.210   3.638   4.927
 5448TIP3   OH216300   1.485   3.731   4.088
 5448TIP3    H116301   1.421   3.782   4.137
 5448TIP3    H216302   1.559   3.789   4.077
 5449TIP3   OH216303   3.109   4.774   6.770
 5449TIP3    H116304   3.021   4.742   6.788
 5449TIP3    H216305   3.096   4.857   6.725
 5450TIP3   OH216306   7.348   4.460   4.173
 5450TIP3    H116307   7.437   4.458   4.137
 5450TIP3    H216308   7.313   4.545   4.149
 5451TIP3   OH216309   7.157   4.754   4.944
 5451TIP3    H116310   7.189   4.670   4.910
 5451TIP3    H216311   7.208   4.769   5.023
 5452TIP3   OH216312   1.478   1.740   4.780
 5452TIP3    H116313   1.541   1.668   4.779
 5452TIP3    H216314   1.450   1.747   4.871
 5453TIP3   OH216315   0.547   2.128   1.227
 5453TIP3    H116316   0.613   2.123   1.158
 5453TIP3    H216317   0.500   2.045   1.221
 5454TIP3   OH216318   5.530   6.367   6.250
 5454TIP3    H116319   5.551   6.384   6.342
 5454TIP3    H216320   5.438   6.390   6.241
 5455TIP3   OH216321   7.624   1.685   2.645
 5455TIP3    H116322   7.629   1.606   2.591
 5455TIP3    H216323   7.677   1.749   2.598
 5456TIP3   OH216324   7.719   1.667   3.585
 5456TIP3    H116325   7.767   1.645   3.506
 5456TIP3    H216326   7.712   1.585   3.633
 5457TIP3   OH216327   0.414   0.742   5.180
 5457TIP3    H116328   0.375   0.659   5.204
 5457TIP3    H216329   0.427   0.788   5.263
 5458TIP3   OH216330   1.667   3.628  -0.015
 5458TIP3    H116331   1.698   3.545   0.021
 5458TIP3    H216332   1.668   3.688   0.060
 5459TIP3   OH216333   4.459   1.240  -0.021
 5459TIP3    H116334   4.472   1.176   0.049
 5459TIP3    H216335   4.371   1.274  -0.007
 5460TIP3   OH216336   2.294   6.496   5.068
 5460TIP3    H116337   2.309   6.485   5.162
 5460TIP3    H216338   2.364   6.446   5.027
 5461TIP3   OH216339   1.319   3.032   1.125
 5461TIP3    H116340   1.276   2.973   1.063
 5461TIP3    H216341   1.248   3.079   1.167
 5462TIP3   OH216342   2.303   4.971   4.666
 5462TIP3    H116343   2.316   4.884   4.630
 5462TIP3    H216344   2.344   4.967   4.752
 5463TIP3   OH216345   6.274   5.056   3.717
 5463TIP3    H116346   6.352   5.055   3.771
 5463TIP3    H216347   6.226   4.978   3.742
 5464TIP3   OH216348   0.964   2.722   1.282
 5464TIP3    H116349   0.954   2.636   1.322
 5464TIP3    H216350   0.972   2.704   1.188
 5465TIP3   OH216351   5.761   6.768   4.159
 5465TIP3    H116352   5.838   6.811   4.122
 5465TIP3    H216353   5.755   6.803   4.248
 5466TIP3   OH216354   7.275   4.905   3.880
 5466TIP3    H116355   7.197   4.892   3.826
 5466TIP3    H216356   7.345   4.923   3.817
 5467TIP3   OH216357   5.969   7.588   1.353
 5467TIP3    H116358   6.012   7.540   1.281
 5467TIP3    H216359   5.993   7.539   1.432
 5468TIP3   OH216360   1.206   0.985   3.399
 5468TIP3    H116361   1.168   1.056   3.450
 5468TIP3    H216362   1.299   1.005   3.395
 5469TIP3   OH216363   5.790   0.853   6.453
 5469TIP3    H116364   5.870   0.904   6.450
 5469TIP3    H216365   5.730   0.899   6.395
 5470TIP3   OH216366   6.034   5.255   1.375
 5470TIP3    H116367   6.046   5.175   1.325
 5470TIP3    H216368   6.084   5.241   1.455
 5471TIP3   OH216369   2.236   1.190   3.149
 5471TIP3    H116370   2.321   1.175   3.108
 5471TIP3    H216371   2.197   1.262   3.099
 5472TIP3   OH216372   5.460   3.932   1.679
 5472TIP3    H116373   5.447   4.026   1.673
 5472TIP3    H216374   5.518   3.920   1.754
 5473TIP3   OH216375   8.149   5.062   3.851
 5473TIP3    H116376   8.118   5.102   3.932
 5473TIP3    H216377   8.090   5.095   3.783
 5474TIP3   OH216378   5.610   0.584   2.278
 5474TIP3    H116379   5.528   0.562   2.232
 5474TIP3    H216380   5.615   0.520   2.349
 5475TIP3   OH216381   4.162   4.708   4.831
 5475TIP3    H116382   4.162   4.787   4.778
 5475TIP3    H216383   4.108   4.646   4.782
 5476TIP3   OH216384   5.231   0.402   4.296
 5476TIP3    H116385   5.300   0.468   4.300
 5476TIP3    H216386   5.219   0.385   4.202
 5477TIP3   OH216387   2.492   6.920   2.050
 5477TIP3    H116388   2.398   6.915   2.067
 5477TIP3    H216389   2.499   6.973   1.970
 5478TIP3   OH216390   6.930   7.153   4.288
 5478TIP3    H116391   6.896   7.239   4.314
 5478TIP3    H216392   6.939   7.105   4.371
 5479TIP3   OH216393   5.354   2.835   0.858
 5479TIP3    H116394   5.443   2.856   0.885
 5479TIP3    H216395   5.357   2.742   0.835
 5480TIP3   OH216396   8.158   0.405   6.643
 5480TIP3    H116397   8.141   0.348   6.568
 5480TIP3    H216398   8.254   0.412   6.647
 5481TIP3   OH216399   3.537   4.957   6.468
 5481TIP3    H116400   3.454   4.949   6.422
 5481TIP3    H216401   3.521   4.918   6.554
 5482TIP3   OH216402   4.502   2.597   5.984
 5482TIP3    H116403   4.445   2.674   5.991
 5482TIP3    H216404   4.482   2.545   6.062
 5483TIP3   OH216405   1.235   6.819   1.702
 5483TIP3    H116406   1.208   6.901   1.661
 5483TIP3    H216407   1.323   6.838   1.736
 5484TIP3   OH216408   3.957   1.188   6.197
 5484TIP3    H116409   3.970   1.241   6.119
 5484TIP3    H216410   3.874   1.218   6.234
 5485TIP3   OH216411   0.807   6.733   5.005
 5485TIP3    H116412   0.763   6.779   4.934
 5485TIP3    H216413   0.899   6.730   4.979
 5486TIP3   OH216414   3.623   6.862  -0.033
 5486TIP3    H116415   3.633   6.773   0.002
 5486TIP3    H216416   3.653   6.919   0.038
 5487TIP3   OH216417   1.984   0.832   5.774
 5487TIP3    H116418   1.914   0.851   5.712
 5487TIP3    H216419   2.032   0.915   5.781
 5488TIP3   OH216420   0.647   6.472   5.514
 5488TIP3    H116421   0.653   6.558   5.555
 5488TIP3    H216422   0.615   6.489   5.426
 5489TIP3   OH216423   6.810   4.868   0.066
 5489TIP3    H116424   6.866   4.805   0.111
 5489TIP3    H216425   6.735   4.817   0.036
 5490TIP3   OH216426   5.462   1.694   6.737
 5490TIP3    H116427   5.532   1.633   6.760
 5490TIP3    H216428   5.382   1.653   6.768
 5491TIP3   OH216429   6.362   3.657   6.525
 5491TIP3    H116430   6.329   3.612   6.602
 5491TIP3    H216431   6.377   3.588   6.460
 5492TIP3   OH216432   1.431   0.876   4.448
 5492TIP3    H116433   1.404   0.805   4.390
 5492TIP3    H216434   1.526   0.879   4.440
 5493TIP3   OH216435   7.185   4.176   3.996
 5493TIP3    H116436   7.268   4.220   3.980
 5493TIP3    H216437   7.178   4.111   3.927
 5494TIP3   OH216438   1.714   0.024   1.762
 5494TIP3    H116439   1.706   0.110   1.803
 5494TIP3    H216440   1.662   0.031   1.682
 5495TIP3   OH216441   2.658   6.333   2.469
 5495TIP3    H116442   2.596   6.277   2.516
 5495TIP3    H216443   2.658   6.299   2.379
 5496TIP3   OH216444   7.156   0.568   1.756
 5496TIP3    H116445   7.137   0.561   1.850
 5496TIP3    H216446   7.092   0.510   1.715
 5497TIP3   OH216447   2.313   5.298   6.287
 5497TIP3    H116448   2.264   5.218   6.306
 5497TIP3    H216449   2.281   5.327   6.201
 5498TIP3   OH216450   1.562   6.078   3.949
 5498TIP3    H116451   1.521   6.093   4.034
 5498TIP3    H216452   1.563   6.164   3.907
 5499TIP3   OH216453   6.346   1.935   5.911
 5499TIP3    H116454   6.278   2.002   5.919
 5499TIP3    H216455   6.422   1.973   5.956
 5500TIP3   OH216456   0.156   5.358   4.985
 5500TIP3    H116457   0.191   5.441   4.954
 5500TIP3    H216458   0.228   5.318   5.033
 5501TIP3   OH216459   2.462   6.558   5.668
 5501TIP3    H116460   2.529   6.604   5.618
 5501TIP3    H216461   2.434   6.620   5.734
 5502TIP3   OH216462   6.809   5.151   6.577
 5502TIP3    H116463   6.769   5.064   6.582
 5502TIP3    H216464   6.755   5.198   6.513
 5503TIP3   OH216465   3.571   0.702   5.577
 5503TIP3    H116466   3.545   0.673   5.665
 5503TIP3    H216467   3.643   0.763   5.593
 5504TIP3   OH216468   3.449   6.100   2.530
 5504TIP3    H116469   3.415   6.134   2.613
 5504TIP3    H216470   3.529   6.150   2.515
 5505TIP3   OH216471   1.493   1.012   1.240
 5505TIP3    H116472   1.511   0.957   1.164
 5505TIP3    H216473   1.557   1.083   1.235
 5506TIP3   OH216474   2.492   4.707   2.428
 5506TIP3    H116475   2.401   4.676   2.438
 5506TIP3    H216476   2.515   4.743   2.514
 5507TIP3   OH216477   1.335   0.287   1.602
 5507TIP3    H116478   1.249   0.270   1.641
 5507TIP3    H216479   1.371   0.201   1.585
 5508TIP3   OH216480   7.888   4.656   5.753
 5508TIP3    H116481   7.915   4.609   5.674
 5508TIP3    H216482   7.806   4.700   5.728
 5509TIP3   OH216483   8.212   5.195   2.028
 5509TIP3    H116484   8.264   5.146   2.091
 5509TIP3    H216485   8.216   5.143   1.948
 5510TIP3   OH216486   5.837   6.157   1.091
 5510TIP3    H116487   5.916   6.116   1.126
 5510TIP3    H216488   5.841   6.141   0.997
 5511TIP3   OH216489   2.357   6.300   0.772
 5511TIP3    H116490   2.403   6.327   0.851
 5511TIP3    H216491   2.347   6.205   0.782
 5512TIP3   OH216492   2.457   0.565   3.309
 5512TIP3    H116493   2.403   0.588   3.233
 5512TIP3    H216494   2.444   0.470   3.320
 5513TIP3   OH216495   3.546   6.625   3.673
 5513TIP3    H116496   3.607   6.605   3.744
 5513TIP3    H216497   3.505   6.708   3.698
 5514TIP3   OH216498   3.219   6.533   4.296
 5514TIP3    H116499   3.131   6.497   4.286
 5514TIP3    H216500   3.234   6.579   4.213
 5515TIP3   OH216501   5.389   5.226   3.576
 5515TIP3    H116502   5.329   5.207   3.648
 5515TIP3    H216503   5.414   5.140   3.542
 5516TIP3   OH216504   4.871   7.295   0.749
 5516TIP3    H116505   4.887   7.204   0.724
 5516TIP3    H216506   4.910   7.347   0.679
 5517TIP3   OH216507   4.079   0.801   4.362
 5517TIP3    H116508   4.145   0.857   4.321
 5517TIP3    H216509   4.035   0.758   4.289
 5518TIP3   OH216510   4.940   7.376   1.382
 5518TIP3    H116511   5.012   7.373   1.445
 5518TIP3    H216512   4.861   7.372   1.435
 5519TIP3   OH216513   0.645   5.266   1.748
 5519TIP3    H116514   0.611   5.311   1.825
 5519TIP3    H216515   0.640   5.173   1.770
 5520TIP3   OH216516   0.001   6.073   0.140
 5520TIP3    H116517   0.011   5.978   0.125
 5520TIP3    H216518  -0.047   6.104   0.063
 5521TIP3   OH216519   1.714   5.718   2.074
 5521TIP3    H116520   1.723   5.774   1.997
 5521TIP3    H216521   1.795   5.734   2.124
 5522TIP3   OH216522   7.701   1.802   0.844
 5522TIP3    H116523   7.715   1.883   0.794
 5522TIP3    H216524   7.710   1.733   0.779
 5523TIP3   OH216525   6.267   2.801   0.195
 5523TIP3    H116526   6.269   2.805   0.290
 5523TIP3    H216527   6.314   2.720   0.173
 5524TIP3   OH216528   0.698   3.032   5.029
 5524TIP3    H116529   0.784   2.990   5.030
 5524TIP3    H216530   0.717   3.125   5.035
 5525TIP3   OH216531   7.253   6.828   5.879
 5525TIP3    H116532   7.179   6.869   5.835
 5525TIP3    H216533   7.315   6.899   5.894
 5526TIP3   OH216534   7.912   6.511   1.857
 5526TIP3    H116535   7.840   6.454   1.832
 5526TIP3    H216536   7.991   6.464   1.831
 5527TIP3   OH216537   7.627   6.573   5.387
 5527TIP3    H116538   7.608   6.552   5.296
 5527TIP3    H216539   7.563   6.521   5.437
 5528TIP3   OH216540   4.394   4.357   2.686
 5528TIP3    H116541   4.460   4.371   2.617
 5528TIP3    H216542   4.444   4.363   2.768
 5529TIP3   OH216543   7.548   7.542   1.095
 5529TIP3    H116544   7.495   7.531   1.016
 5529TIP3    H216545   7.488   7.581   1.159
 5530TIP3   OH216546   3.679   3.330   5.175
 5530TIP3    H116547   3.696   3.253   5.120
 5530TIP3    H216548   3.588   3.353   5.156
 5531TIP3   OH216549   7.491   4.826   2.164
 5531TIP3    H116550   7.501   4.865   2.077
 5531TIP3    H216551   7.576   4.785   2.181
 5532TIP3   OH216552   4.503   3.414   2.846
 5532TIP3    H116553   4.419   3.374   2.868
 5532TIP3    H216554   4.486   3.508   2.842
 5533TIP3   OH216555   7.745   4.768   1.001
 5533TIP3    H116556   7.765   4.739   0.912
 5533TIP3    H216557   7.651   4.753   1.011
 5534TIP3   OH216558   3.760   7.336   5.714
 5534TIP3    H116559   3.852   7.364   5.720
 5534TIP3    H216560   3.758   7.253   5.763
 5535TIP3   OH216561   7.295   1.062   1.705
 5535TIP3    H116562   7.340   1.116   1.640
 5535TIP3    H216563   7.340   1.079   1.787
 5536TIP3   OH216564   7.903   5.852   1.916
 5536TIP3    H116565   7.816   5.879   1.886
 5536TIP3    H216566   7.958   5.929   1.906
 5537TIP3   OH216567   2.470   1.156   4.989
 5537TIP3    H116568   2.560   1.162   5.021
 5537TIP3    H216569   2.475   1.095   4.915
 5538TIP3   OH216570   0.323   5.856   0.111
 5538TIP3    H116571   0.313   5.783   0.172
 5538TIP3    H216572   0.296   5.821   0.026
 5539TIP3   OH216573   6.902   2.753   4.120
 5539TIP3    H116574   6.864   2.731   4.035
 5539TIP3    H216575   6.845   2.822   4.155
 5540TIP3   OH216576   0.427   1.916   3.305
 5540TIP3    H116577   0.420   1.903   3.400
 5540TIP3    H216578   0.338   1.902   3.272
 5541TIP3   OH216579   7.694   3.627   5.508
 5541TIP3    H116580   7.630   3.673   5.562
 5541TIP3    H216581   7.654   3.623   5.422
 5542TIP3   OH216582   3.787   5.828   0.817
 5542TIP3    H116583   3.713   5.767   0.826
 5542TIP3    H216584   3.746   5.911   0.792
 5543TIP3   OH216585   2.884   7.842   5.261
 5543TIP3    H116586   2.922   7.923   5.296
 5543TIP3    H216587   2.865   7.789   5.339
 5544TIP3   OH216588   7.986   4.868   5.540
 5544TIP3    H116589   7.899   4.866   5.581
 5544TIP3    H216590   7.999   4.779   5.507
 5545TIP3   OH216591   4.145   3.224   3.829
 5545TIP3    H116592   4.090   3.300   3.849
 5545TIP3    H216593   4.150   3.175   3.911
 5546TIP3   OH216594   0.867   5.082   2.051
 5546TIP3    H116595   0.922   5.160   2.065
 5546TIP3    H216596   0.813   5.077   2.130
 5547TIP3   OH216597   2.951   2.603   6.333
 5547TIP3    H116598   2.985   2.692   6.336
 5547TIP3    H216599   2.998   2.556   6.401
 5548TIP3   OH216600   3.995   7.440   5.040
 5548TIP3    H116601   3.922   7.422   5.100
 5548TIP3    H216602   3.980   7.382   4.966
 5549TIP3   OH216603   5.144   0.878   4.651
 5549TIP3    H116604   5.100   0.839   4.726
 5549TIP3    H216605   5.141   0.811   4.583
 5550TIP3   OH216606   1.800   0.680   1.766
 5550TIP3    H116607   1.780   0.586   1.769
 5550TIP3    H216608   1.762   0.710   1.683
 5551TIP3   OH216609   0.285   4.378   1.732
 5551TIP3    H116610   0.335   4.384   1.651
 5551TIP3    H216611   0.232   4.457   1.734
 5552TIP3   OH216612   3.091   2.868   0.202
 5552TIP3    H116613   3.030   2.917   0.147
 5552TIP3    H216614   3.177   2.901   0.177
 5553TIP3   OH216615   1.779   7.352   2.974
 5553TIP3    H116616   1.771   7.394   2.888
 5553TIP3    H216617   1.779   7.424   3.037
 5554TIP3   OH216618   1.944   0.697   4.590
 5554TIP3    H116619   2.015   0.667   4.646
 5554TIP3    H216620   1.889   0.751   4.647
 5555TIP3   OH216621   2.130   4.146   3.655
 5555TIP3    H116622   2.105   4.183   3.740
 5555TIP3    H216623   2.211   4.099   3.672
 5556TIP3   OH216624   3.465   3.448   0.857
 5556TIP3    H116625   3.461   3.543   0.863
 5556TIP3    H216626   3.469   3.418   0.948
 5557TIP3   OH216627   6.707   1.413   5.741
 5557TIP3    H116628   6.758   1.402   5.661
 5557TIP3    H216629   6.619   1.382   5.719
 5558TIP3   OH216630   6.398   2.211   3.629
 5558TIP3    H116631   6.363   2.140   3.683
 5558TIP3    H216632   6.321   2.250   3.588
 5559TIP3   OH216633   6.501   6.184   6.717
 5559TIP3    H116634   6.407   6.167   6.726
 5559TIP3    H216635   6.506   6.265   6.666
 5560TIP3   OH216636   5.321   4.776   5.314
 5560TIP3    H116637   5.328   4.847   5.378
 5560TIP3    H216638   5.332   4.696   5.365
 5561TIP3   OH216639   2.746   7.763   0.449
 5561TIP3    H116640   2.671   7.747   0.391
 5561TIP3    H216641   2.757   7.858   0.448
 5562TIP3   OH216642   0.552   1.203   2.779
 5562TIP3    H116643   0.502   1.160   2.848
 5562TIP3    H216644   0.529   1.155   2.699
 5563TIP3   OH216645   4.529   7.726   3.771
 5563TIP3    H116646   4.489   7.664   3.831
 5563TIP3    H216647   4.604   7.678   3.734
 5564TIP3   OH216648   0.042   1.905   6.619
 5564TIP3    H116649  -0.008   1.959   6.681
 5564TIP3    H216650   0.119   1.959   6.598
 5565TIP3   OH216651   1.207   5.879   3.162
 5565TIP3    H116652   1.142   5.808   3.165
 5565TIP3    H216653   1.196   5.918   3.075
 5566TIP3   OH216654   2.097   6.066   4.645
 5566TIP3    H116655   2.158   6.130   4.682
 5566TIP3    H216656   2.142   6.032   4.567
 5567TIP3   OH216657   6.818   5.680   2.223
 5567TIP3    H116658   6.828   5.771   2.250
 5567TIP3    H216659   6.723   5.664   2.228
 5568TIP3   OH216660   8.272   2.957   4.293
 5568TIP3    H116661   8.332   3.013   4.343
 5568TIP3    H216662   8.279   2.990   4.203
 5569TIP3   OH216663   2.101   1.550   3.534
 5569TIP3    H116664   2.065   1.610   3.468
 5569TIP3    H216665   2.055   1.574   3.615
 5570TIP3   OH216666   5.072   0.320   4.785
 5570TIP3    H116667   5.047   0.296   4.696
 5570TIP3    H216668   5.164   0.296   4.792
 5571TIP3   OH216669   7.461   6.209   5.756
 5571TIP3    H116670   7.398   6.260   5.705
 5571TIP3    H216671   7.408   6.164   5.822
 5572TIP3   OH216672   1.410   3.749   6.175
 5572TIP3    H116673   1.427   3.696   6.097
 5572TIP3    H216674   1.383   3.834   6.141
 5573TIP3   OH216675   5.239   4.220   0.967
 5573TIP3    H116676   5.317   4.197   1.017
 5573TIP3    H216677   5.247   4.315   0.952
 5574TIP3   OH216678   4.414   2.990   4.214
 5574TIP3    H116679   4.470   2.930   4.166
 5574TIP3    H216680   4.457   3.075   4.204
 5575TIP3   OH216681   2.146   5.471   6.126
 5575TIP3    H116682   2.137   5.503   6.215
 5575TIP3    H216683   2.081   5.520   6.076
 5576TIP3   OH216684   1.637   1.857   0.724
 5576TIP3    H116685   1.700   1.902   0.780
 5576TIP3    H216686   1.629   1.770   0.763
 5577TIP3   OH216687   4.248   6.457   0.939
 5577TIP3    H116688   4.199   6.486   0.862
 5577TIP3    H216689   4.233   6.362   0.942
 5578TIP3   OH216690   7.517   2.938   2.691
 5578TIP3    H116691   7.547   2.948   2.782
 5578TIP3    H216692   7.425   2.964   2.693
 5579TIP3   OH216693   3.588   2.895   4.120
 5579TIP3    H116694   3.572   2.885   4.026
 5579TIP3    H216695   3.517   2.951   4.150
 5580TIP3   OH216696   1.735   1.651   4.545
 5580TIP3    H116697   1.770   1.585   4.485
 5580TIP3    H216698   1.754   1.735   4.503
 5581TIP3   OH216699   3.767   0.921   1.632
 5581TIP3    H116700   3.740   0.906   1.541
 5581TIP3    H216701   3.842   0.864   1.645
 5582TIP3   OH216702   6.578   1.894   1.805
 5582TIP3    H116703   6.524   1.873   1.881
 5582TIP3    H216704   6.533   1.966   1.762
 5583TIP3   OH216705   6.961   0.069   5.305
 5583TIP3    H116706   7.041   0.086   5.355
 5583TIP3    H216707   6.895   0.051   5.372
 5584TIP3   OH216708   5.007   1.557   4.434
 5584TIP3    H116709   4.979   1.639   4.475
 5584TIP3    H216710   5.025   1.499   4.507
 5585TIP3   OH216711   3.881   1.043   2.073
 5585TIP3    H116712   3.835   1.069   1.993
 5585TIP3    H216713   3.974   1.053   2.051
 5586TIP3   OH216714   3.304   0.263   0.462
 5586TIP3    H116715   3.357   0.342   0.470
 5586TIP3    H216716   3.361   0.199   0.419
 5587TIP3   OH216717   5.157   1.610   4.031
 5587TIP3    H116718   5.179   1.576   4.118
 5587TIP3    H216719   5.147   1.532   3.976
 5588TIP3   OH216720   0.076   1.062   4.744
 5588TIP3    H116721  -0.006   1.112   4.751
 5588TIP3    H216722   0.141   1.118   4.786
 5589TIP3   OH216723   1.065   7.720   5.836
 5589TIP3    H116724   1.140   7.717   5.895
 5589TIP3    H216725   1.011   7.646   5.863
 5590TIP3   OH216726   2.983   2.308   6.535
 5590TIP3    H116727   2.914   2.281   6.474
 5590TIP3    H216728   2.947   2.289   6.621
 5591TIP3   OH216729   7.761   6.944   6.522
 5591TIP3    H116730   7.709   7.000   6.579
 5591TIP3    H216731   7.844   6.932   6.569
 5592TIP3   OH216732   2.581   5.813   0.779
 5592TIP3    H116733   2.600   5.722   0.800
 5592TIP3    H216734   2.586   5.818   0.684
 5593TIP3   OH216735   2.230   5.941   5.453
 5593TIP3    H116736   2.246   5.937   5.358
 5593TIP3    H216737   2.175   5.865   5.471
 5594TIP3   OH216738   6.456   1.916   4.985
 5594TIP3    H116739   6.422   1.877   5.065
 5594TIP3    H216740   6.381   1.962   4.947
 5595TIP3   OH216741   3.617   5.524   6.257
 5595TIP3    H116742   3.679   5.527   6.330
 5595TIP3    H216743   3.672   5.534   6.179
 5596TIP3   OH216744   7.098   6.085   4.223
 5596TIP3    H116745   7.053   6.109   4.304
 5596TIP3    H216746   7.192   6.091   4.245
 5597TIP3   OH216747   2.442   7.326   2.391
 5597TIP3    H116748   2.466   7.384   2.463
 5597TIP3    H216749   2.353   7.298   2.411
 5598TIP3   OH216750   1.637   6.182   5.678
 5598TIP3    H116751   1.618   6.253   5.739
 5598TIP3    H216752   1.563   6.182   5.618
 5599TIP3   OH216753   0.716   6.913   4.057
 5599TIP3    H116754   0.710   6.825   4.096
 5599TIP3    H216755   0.806   6.940   4.072
 5600TIP3   OH216756   2.183   5.578   2.493
 5600TIP3    H116757   2.107   5.616   2.536
 5600TIP3    H216758   2.192   5.628   2.412
 5601TIP3   OH216759   1.183   6.704   0.749
 5601TIP3    H116760   1.161   6.611   0.745
 5601TIP3    H216761   1.205   6.720   0.841
 5602TIP3   OH216762   2.824   2.221   1.803
 5602TIP3    H116763   2.912   2.202   1.836
 5602TIP3    H216764   2.786   2.135   1.784
 5603TIP3   OH216765   5.165   1.363   1.393
 5603TIP3    H116766   5.145   1.456   1.397
 5603TIP3    H216767   5.254   1.356   1.427
 5604TIP3   OH216768   6.474   3.094   0.910
 5604TIP3    H116769   6.497   3.185   0.923
 5604TIP3    H216770   6.452   3.088   0.817
 5605TIP3   OH216771   1.056   6.344   5.069
 5605TIP3    H116772   1.115   6.352   4.994
 5605TIP3    H216773   0.986   6.406   5.051
 5606TIP3   OH216774   5.155   5.400   4.000
 5606TIP3    H116775   5.125   5.450   4.076
 5606TIP3    H216776   5.170   5.312   4.034
 5607TIP3   OH216777   1.799   0.898   0.751
 5607TIP3    H116778   1.770   0.820   0.704
 5607TIP3    H216779   1.739   0.967   0.721
 5608TIP3   OH216780   0.426   7.543   5.006
 5608TIP3    H116781   0.363   7.607   4.973
 5608TIP3    H216782   0.380   7.500   5.079
 5609TIP3   OH216783   7.099   4.560   3.990
 5609TIP3    H116784   7.177   4.606   4.020
 5609TIP3    H216785   7.034   4.629   3.976
 5610TIP3   OH216786   6.198   6.167   1.622
 5610TIP3    H116787   6.168   6.196   1.536
 5610TIP3    H216788   6.209   6.072   1.613
 5611TIP3   OH216789   3.426   7.504   3.777
 5611TIP3    H116790   3.451   7.431   3.720
 5611TIP3    H216791   3.338   7.483   3.806
 5612TIP3   OH216792   1.739   6.919   4.461
 5612TIP3    H116793   1.756   7.013   4.448
 5612TIP3    H216794   1.800   6.875   4.401
 5613TIP3   OH216795   2.881   7.141   0.534
 5613TIP3    H116796   2.963   7.172   0.571
 5613TIP3    H216797   2.878   7.178   0.446
 5614TIP3   OH216798   7.144   1.369   3.292
 5614TIP3    H116799   7.151   1.286   3.245
 5614TIP3    H216800   7.159   1.435   3.224
 5615TIP3   OH216801   0.056   2.504   3.659
 5615TIP3    H116802   0.065   2.475   3.749
 5615TIP3    H216803   0.122   2.455   3.611
 5616TIP3   OH216804   0.177   6.558   3.200
 5616TIP3    H116805   0.095   6.606   3.212
 5616TIP3    H216806   0.246   6.619   3.226
 5617TIP3   OH216807   3.218   4.986   5.452
 5617TIP3    H116808   3.282   5.050   5.483
 5617TIP3    H216809   3.265   4.934   5.386
 5618TIP3   OH216810   5.521   4.111   2.609
 5618TIP3    H116811   5.546   4.203   2.611
 5618TIP3    H216812   5.576   4.069   2.675
 5619TIP3   OH216813   2.416   7.639   2.222
 5619TIP3    H116814   2.505   7.606   2.215
 5619TIP3    H216815   2.388   7.613   2.310
 5620TIP3   OH216816   5.343   0.429   3.637
 5620TIP3    H116817   5.394   0.419   3.556
 5620TIP3    H216818   5.365   0.351   3.688
 5621TIP3   OH216819   2.440   5.485   4.359
 5621TIP3    H116820   2.479   5.492   4.446
 5621TIP3    H216821   2.454   5.571   4.320
 5622TIP3   OH216822   7.610   6.043   5.606
 5622TIP3    H116823   7.608   5.982   5.679
 5622TIP3    H216824   7.550   6.113   5.631
 5623TIP3   OH216825   1.208   1.552   0.875
 5623TIP3    H116826   1.294   1.549   0.833
 5623TIP3    H216827   1.168   1.468   0.853
 5624TIP3   OH216828   7.917   3.023   4.053
 5624TIP3    H116829   7.992   3.012   3.995
 5624TIP3    H216830   7.841   3.019   3.996
 5625TIP3   OH216831   5.988   1.388   1.650
 5625TIP3    H116832   6.058   1.419   1.593
 5625TIP3    H216833   6.030   1.323   1.707
 5626TIP3   OH216834   7.908   3.360   4.854
 5626TIP3    H116835   7.824   3.386   4.817
 5626TIP3    H216836   7.894   3.271   4.885
 5627TIP3   OH216837   6.779   3.321   3.374
 5627TIP3    H116838   6.729   3.363   3.304
 5627TIP3    H216839   6.844   3.268   3.328
 5628TIP3   OH216840   5.510   2.481   1.536
 5628TIP3    H116841   5.503   2.420   1.610
 5628TIP3    H216842   5.604   2.489   1.521
 5629TIP3   OH216843   6.162   0.174   2.392
 5629TIP3    H116844   6.111   0.105   2.434
 5629TIP3    H216845   6.247   0.172   2.437
 5630TIP3   OH216846   2.661   4.678   5.546
 5630TIP3    H116847   2.659   4.770   5.519
 5630TIP3    H216848   2.626   4.630   5.471
 5631TIP3   OH216849   2.587   7.154   0.172
 5631TIP3    H116850   2.575   7.211   0.096
 5631TIP3    H216851   2.513   7.173   0.229
 5632TIP3   OH216852   3.208   2.574   3.019
 5632TIP3    H116853   3.117   2.568   3.049
 5632TIP3    H216854   3.260   2.547   3.094
 5633TIP3   OH216855   1.764   6.874   3.981
 5633TIP3    H116856   1.738   6.874   3.889
 5633TIP3    H216857   1.787   6.783   3.999
 5634TIP3   OH216858   1.412   4.546   5.579
 5634TIP3    H116859   1.334   4.590   5.545
 5634TIP3    H216860   1.397   4.542   5.674
 5635TIP3   OH216861   4.429   2.266   6.333
 5635TIP3    H116862   4.409   2.173   6.344
 5635TIP3    H216863   4.373   2.310   6.397
 5636TIP3   OH216864   4.434   1.329   3.619
 5636TIP3    H116865   4.421   1.415   3.577
 5636TIP3    H216866   4.350   1.285   3.609
 5637TIP3   OH216867   6.969   4.060   4.592
 5637TIP3    H116868   6.950   4.092   4.504
 5637TIP3    H216869   6.910   3.987   4.605
 5638TIP3   OH216870   7.795   1.418   6.273
 5638TIP3    H116871   7.852   1.472   6.328
 5638TIP3    H216872   7.794   1.463   6.188
 5639TIP3   OH216873   1.538   1.608   0.813
 5639TIP3    H116874   1.622   1.563   0.812
 5639TIP3    H216875   1.515   1.612   0.906
 5640TIP3   OH216876   0.357   2.864   3.506
 5640TIP3    H116877   0.262   2.874   3.499
 5640TIP3    H216878   0.384   2.936   3.563
 5641TIP3   OH216879   5.945   4.633   2.786
 5641TIP3    H116880   6.029   4.637   2.741
 5641TIP3    H216881   5.905   4.551   2.755
 5642TIP3   OH216882   0.571   2.008   3.051
 5642TIP3    H116883   0.547   2.022   3.143
 5642TIP3    H216884   0.570   2.096   3.013
 5643TIP3   OH216885   2.836   2.437   5.346
 5643TIP3    H116886   2.923   2.459   5.379
 5643TIP3    H216887   2.810   2.513   5.293
 5644TIP3   OH216888   4.125   2.756   4.193
 5644TIP3    H116889   4.179   2.682   4.164
 5644TIP3    H216890   4.164   2.781   4.277
 5645TIP3   OH216891   2.034   4.907   1.812
 5645TIP3    H116892   2.058   4.860   1.733
 5645TIP3    H216893   2.114   4.910   1.864
 5646TIP3   OH216894   3.362   0.499   4.194
 5646TIP3    H116895   3.375   0.468   4.283
 5646TIP3    H216896   3.411   0.436   4.140
 5647TIP3   OH216897   7.805   2.690   5.480
 5647TIP3    H116898   7.784   2.608   5.524
 5647TIP3    H216899   7.880   2.724   5.528
 5648TIP3   OH216900   3.726   6.283   5.682
 5648TIP3    H116901   3.657   6.295   5.617
 5648TIP3    H216902   3.692   6.216   5.741
 5649TIP3   OH216903   2.514   5.198   3.223
 5649TIP3    H116904   2.452   5.247   3.276
 5649TIP3    H216905   2.510   5.108   3.257
 5650TIP3   OH216906   0.841   6.478   1.290
 5650TIP3    H116907   0.919   6.476   1.346
 5650TIP3    H216908   0.810   6.568   1.294
 5651TIP3   OH216909   2.018   1.337   1.428
 5651TIP3    H116910   2.110   1.356   1.446
 5651TIP3    H216911   2.017   1.307   1.337
 5652TIP3   OH216912   0.386   3.500   3.979
 5652TIP3    H116913   0.294   3.485   3.959
 5652TIP3    H216914   0.403   3.446   4.057
 5653TIP3   OH216915   1.149   2.387   4.602
 5653TIP3    H116916   1.167   2.464   4.657
 5653TIP3    H216917   1.188   2.314   4.651
 5654TIP3   OH216918   3.072   3.410   2.308
 5654TIP3    H116919   3.072   3.485   2.248
 5654TIP3    H216920   3.102   3.337   2.255
 5655TIP3   OH216921   5.424   7.519   1.852
 5655TIP3    H116922   5.482   7.586   1.817
 5655TIP3    H216923   5.336   7.556   1.845
 5656TIP3   OH216924   4.915   1.553   4.919
 5656TIP3    H116925   4.950   1.574   5.005
 5656TIP3    H216926   4.917   1.457   4.915
 5657TIP3   OH216927   0.029   4.770   4.221
 5657TIP3    H116928   0.113   4.789   4.264
 5657TIP3    H216929  -0.024   4.728   4.289
 5658TIP3   OH216930   3.345   6.067   0.513
 5658TIP3    H116931   3.324   5.975   0.497
 5658TIP3    H216932   3.433   6.077   0.476
 5659TIP3   OH216933   6.998   1.413   2.852
 5659TIP3    H116934   6.941   1.472   2.902
 5659TIP3    H216935   7.058   1.472   2.807
 5660TIP3   OH216936   1.494   5.745   1.069
 5660TIP3    H116937   1.527   5.826   1.108
 5660TIP3    H216938   1.454   5.698   1.142
 5661TIP3   OH216939   7.605   4.229   2.467
 5661TIP3    H116940   7.698   4.242   2.445
 5661TIP3    H216941   7.599   4.137   2.490
 5662TIP3   OH216942   2.343   2.240   3.337
 5662TIP3    H116943   2.289   2.231   3.415
 5662TIP3    H216944   2.423   2.283   3.367
 5663TIP3   OH216945   2.015   7.679   0.845
 5663TIP3    H116946   2.045   7.668   0.935
 5663TIP3    H216947   2.087   7.724   0.801
 5664TIP3   OH216948   2.463   0.033   5.594
 5664TIP3    H116949   2.524   0.004   5.662
 5664TIP3    H216950   2.377   0.020   5.633
 5665TIP3   OH216951   5.010   1.984   0.709
 5665TIP3    H116952   5.020   1.969   0.803
 5665TIP3    H216953   4.975   1.902   0.675
 5666TIP3   OH216954   5.042   7.504   2.211
 5666TIP3    H116955   5.062   7.422   2.165
 5666TIP3    H216956   5.092   7.570   2.164
 5667TIP3   OH216957   1.075   2.092   3.773
 5667TIP3    H116958   0.989   2.128   3.793
 5667TIP3    H216959   1.086   2.018   3.834
 5668TIP3   OH216960   3.967   2.716   0.551
 5668TIP3    H116961   3.996   2.634   0.591
 5668TIP3    H216962   3.875   2.701   0.530
 5669TIP3   OH216963   7.254   0.455   2.690
 5669TIP3    H116964   7.328   0.472   2.747
 5669TIP3    H216965   7.292   0.453   2.602
 5670TIP3   OH216966   6.896   6.088   4.055
 5670TIP3    H116967   6.954   6.126   4.121
 5670TIP3    H216968   6.955   6.057   3.986
 5671TIP3   OH216969   0.726   4.715   3.303
 5671TIP3    H116970   0.798   4.738   3.362
 5671TIP3    H216971   0.737   4.774   3.228
 5672TIP3   OH216972   5.300   3.693   6.399
 5672TIP3    H116973   5.225   3.751   6.390
 5672TIP3    H216974   5.361   3.740   6.455
 5673TIP3   OH216975   1.368   3.786   5.307
 5673TIP3    H116976   1.331   3.741   5.231
 5673TIP3    H216977   1.457   3.809   5.281
 5674TIP3   OH216978   6.717   3.369   3.835
 5674TIP3    H116979   6.688   3.402   3.750
 5674TIP3    H216980   6.790   3.426   3.860
 5675TIP3   OH216981   4.222   0.857   6.444
 5675TIP3    H116982   4.174   0.940   6.438
 5675TIP3    H216983   4.274   0.865   6.524
 5676TIP3   OH216984   2.193   6.091   6.780
 5676TIP3    H116985   2.188   6.181   6.748
 5676TIP3    H216986   2.182   6.099   6.875
 5677TIP3   OH216987   6.425   0.665   4.406
 5677TIP3    H116988   6.480   0.724   4.355
 5677TIP3    H216989   6.436   0.694   4.496
 5678TIP3   OH216990   2.710   3.486   2.535
 5678TIP3    H116991   2.757   3.549   2.590
 5678TIP3    H216992   2.726   3.515   2.446
 5679TIP3   OH216993   5.360   1.962   0.880
 5679TIP3    H116994   5.272   1.977   0.846
 5679TIP3    H216995   5.367   2.018   0.956
 5680TIP3   OH216996   6.927   2.511   4.996
 5680TIP3    H116997   6.987   2.464   4.937
 5680TIP3    H216998   6.924   2.600   4.960
 5681TIP3   OH216999   0.961   7.298   0.088
 5681TIP3    H117000   1.051   7.330   0.086
 5681TIP3    H217001   0.959   7.235   0.159
 5682TIP3   OH217002   1.212   7.239   6.417
 5682TIP3    H117003   1.239   7.223   6.326
 5682TIP3    H217004   1.124   7.277   6.409
 5683TIP3   OH217005   7.193   6.425   6.088
 5683TIP3    H117006   7.121   6.378   6.129
 5683TIP3    H217007   7.268   6.367   6.099
 5684TIP3   OH217008   3.002   7.752   2.800
 5684TIP3    H117009   3.005   7.708   2.885
 5684TIP3    H217010   3.087   7.797   2.794
 5685TIP3   OH217011   1.904   5.109   0.719
 5685TIP3    H117012   1.852   5.069   0.649
 5685TIP3    H217013   1.932   5.193   0.684
 5686TIP3   OH217014   6.667   1.104   2.155
 5686TIP3    H117015   6.731   1.173   2.175
 5686TIP3    H217016   6.656   1.057   2.238
 5687TIP3   OH217017   7.723   0.826   3.624
 5687TIP3    H117018   7.666   0.764   3.578
 5687TIP3    H217019   7.663   0.885   3.668
 5688TIP3   OH217020   7.386   6.512   0.248
 5688TIP3    H117021   7.347   6.427   0.268
 5688TIP3    H217022   7.472   6.492   0.212
 5689TIP3   OH217023   5.112   1.365   6.339
 5689TIP3    H117024   5.037   1.333   6.288
 5689TIP3    H217025   5.074   1.398   6.420
 5690TIP3   OH217026   4.165   2.116   0.030
 5690TIP3    H117027   4.210   2.156   0.104
 5690TIP3    H217028   4.151   2.188  -0.031
 5691TIP3   OH217029   1.029   5.155   2.926
 5691TIP3    H117030   1.119   5.171   2.953
 5691TIP3    H217031   0.988   5.242   2.925
 5692TIP3   OH217032   8.023   2.308   0.861
 5692TIP3    H117033   8.096   2.255   0.830
 5692TIP3    H217034   7.957   2.301   0.792
 5693TIP3   OH217035   5.901   0.390   4.221
 5693TIP3    H117036   5.865   0.473   4.189
 5693TIP3    H217037   5.852   0.372   4.301
 5694TIP3   OH217038   2.972   1.463   2.980
 5694TIP3    H117039   3.007   1.469   3.069
 5694TIP3    H217040   2.915   1.539   2.972
 5695TIP3   OH217041   5.288   3.920   2.841
 5695TIP3    H117042   5.298   3.844   2.898
 5695TIP3    H217043   5.334   3.896   2.761
 5696TIP3   OH217044   2.721   6.085   6.339
 5696TIP3    H117045   2.794   6.063   6.282
 5696TIP3    H217046   2.762   6.112   6.421
 5697TIP3   OH217047   8.190   2.656   5.339
 5697TIP3    H117048   8.280   2.630   5.319
 5697TIP3    H217049   8.167   2.719   5.271
 5698TIP3   OH217050   6.098   7.614   2.121
 5698TIP3    H117051   6.185   7.622   2.159
 5698TIP3    H217052   6.049   7.688   2.157
 5699TIP3   OH217053   4.694   7.687   2.336
 5699TIP3    H117054   4.642   7.609   2.354
 5699TIP3    H217055   4.657   7.723   2.256
 5700TIP3   OH217056   1.591   2.739   2.420
 5700TIP3    H117057   1.497   2.722   2.423
 5700TIP3    H217058   1.604   2.785   2.337
 5701TIP3   OH217059   1.480   5.026   3.702
 5701TIP3    H117060   1.421   4.969   3.653
 5701TIP3    H217061   1.448   5.022   3.792
 5702TIP3   OH217062   0.784   0.237   1.300
 5702TIP3    H117063   0.790   0.307   1.235
 5702TIP3    H217064   0.833   0.269   1.375
 5703TIP3   OH217065   0.694   6.661   4.267
 5703TIP3    H117066   0.714   6.645   4.175
 5703TIP3    H217067   0.775   6.640   4.313
 5704TIP3   OH217068   8.240   6.702   3.266
 5704TIP3    H117069   8.149   6.675   3.272
 5704TIP3    H217070   8.250   6.770   3.333
 5705TIP3   OH217071   6.535   7.476   1.957
 5705TIP3    H117072   6.558   7.383   1.961
 5705TIP3    H217073   6.541   7.505   2.048
 5706TIP3   OH217074   3.341   4.672   0.546
 5706TIP3    H117075   3.415   4.684   0.487
 5706TIP3    H217076   3.319   4.579   0.538
 5707TIP3   OH217077   1.311   7.646   0.952
 5707TIP3    H117078   1.392   7.601   0.929
 5707TIP3    H217079   1.292   7.701   0.876
 5708TIP3   OH217080   7.497   7.808   1.647
 5708TIP3    H117081   7.427   7.831   1.708
 5708TIP3    H217082   7.558   7.882   1.651
 5709TIP3   OH217083   6.422   6.378   2.927
 5709TIP3    H117084   6.480   6.412   2.994
 5709TIP3    H217085   6.440   6.284   2.924
 5710TIP3   OH217086   7.508   5.643   2.563
 5710TIP3    H117087   7.545   5.571   2.513
 5710TIP3    H217088   7.480   5.706   2.497
 5711TIP3   OH217089   4.859   2.899   2.442
 5711TIP3    H117090   4.946   2.871   2.415
 5711TIP3    H217091   4.848   2.985   2.401
 5712TIP3   OH217092   0.033   1.620   5.737
 5712TIP3    H117093   0.073   1.534   5.724
 5712TIP3    H217094   0.097   1.682   5.701
 5713TIP3   OH217095   2.421   4.482   6.319
 5713TIP3    H117096   2.444   4.530   6.239
 5713TIP3    H217097   2.433   4.546   6.389
 5714TIP3   OH217098   2.905   7.041   3.258
 5714TIP3    H117099   2.883   7.134   3.260
 5714TIP3    H217100   2.820   6.997   3.249
 5715TIP3   OH217101   7.958   0.692   5.930
 5715TIP3    H117102   7.883   0.708   5.873
 5715TIP3    H217103   7.927   0.713   6.018
 5716TIP3   OH217104   4.520   7.250   0.112
 5716TIP3    H117105   4.549   7.333   0.149
 5716TIP3    H217106   4.433   7.236   0.149
 5717TIP3   OH217107   4.106   1.561   1.166
 5717TIP3    H117108   4.031   1.599   1.120
 5717TIP3    H217109   4.172   1.631   1.167
 5718TIP3   OH217110   2.484   6.181   2.612
 5718TIP3    H117111   2.437   6.237   2.674
 5718TIP3    H217112   2.415   6.146   2.555
 5719TIP3   OH217113   5.133   3.529   0.646
 5719TIP3    H117114   5.221   3.492   0.637
 5719TIP3    H217115   5.130   3.564   0.735
 5720TIP3   OH217116   0.365   1.537   2.763
 5720TIP3    H117117   0.359   1.478   2.838
 5720TIP3    H217118   0.399   1.618   2.799
 5721TIP3   OH217119   8.331   3.252   4.133
 5721TIP3    H117120   8.318   3.266   4.227
 5721TIP3    H217121   8.264   3.307   4.092
 5722TIP3   OH217122   4.864   4.681   1.311
 5722TIP3    H117123   4.915   4.600   1.314
 5722TIP3    H217124   4.853   4.699   1.218
 5723TIP3   OH217125   6.018   0.571   6.379
 5723TIP3    H117126   6.082   0.624   6.332
 5723TIP3    H217127   6.044   0.578   6.471
 5724TIP3   OH217128   7.829   6.285   3.671
 5724TIP3    H117129   7.886   6.283   3.594
 5724TIP3    H217130   7.809   6.193   3.689
 5725TIP3   OH217131   7.169   2.157   0.688
 5725TIP3    H117132   7.215   2.108   0.619
 5725TIP3    H217133   7.232   2.225   0.714
 5726TIP3   OH217134   6.952   1.278   6.471
 5726TIP3    H117135   7.036   1.321   6.454
 5726TIP3    H217136   6.905   1.285   6.388
 5727TIP3   OH217137   2.758   7.207   4.028
 5727TIP3    H117138   2.671   7.195   4.067
 5727TIP3    H217139   2.750   7.288   3.977
 5728TIP3   OH217140  -0.063   7.262   6.700
 5728TIP3    H117141  -0.023   7.285   6.616
 5728TIP3    H217142  -0.116   7.185   6.680
 5729TIP3   OH217143   1.261   6.365   4.869
 5729TIP3    H117144   1.193   6.312   4.828
 5729TIP3    H217145   1.311   6.401   4.795
 5730TIP3   OH217146   7.132   3.431   4.587
 5730TIP3    H117147   7.063   3.377   4.549
 5730TIP3    H217148   7.104   3.521   4.570
 5731TIP3   OH217149   2.965   4.942   1.879
 5731TIP3    H117150   2.935   4.861   1.920
 5731TIP3    H217151   2.920   4.945   1.795
 5732TIP3   OH217152   5.401   2.941   3.374
 5732TIP3    H117153   5.395   3.015   3.313
 5732TIP3    H217154   5.311   2.919   3.395
 5733TIP3   OH217155   4.843   5.497   1.188
 5733TIP3    H117156   4.856   5.549   1.109
 5733TIP3    H217157   4.826   5.408   1.155
 5734TIP3   OH217158   6.929   0.348   4.092
 5734TIP3    H117159   6.884   0.353   4.176
 5734TIP3    H217160   6.963   0.437   4.077
 5735TIP3   OH217161   8.108   1.074   0.502
 5735TIP3    H117162   8.124   1.144   0.438
 5735TIP3    H217163   8.045   1.016   0.459
 5736TIP3   OH217164   2.275   1.561   5.304
 5736TIP3    H117165   2.266   1.638   5.361
 5736TIP3    H217166   2.201   1.568   5.243
 5737TIP3   OH217167   1.931   7.401   4.256
 5737TIP3    H117168   1.926   7.313   4.218
 5737TIP3    H217169   1.840   7.422   4.280
 5738TIP3   OH217170   0.983   1.621   3.359
 5738TIP3    H117171   0.893   1.625   3.329
 5738TIP3    H217172   1.022   1.548   3.312
 5739TIP3   OH217173   1.641   4.607   2.251
 5739TIP3    H117174   1.579   4.550   2.297
 5739TIP3    H217175   1.585   4.662   2.196
 5740TIP3   OH217176   5.341   1.640   0.148
 5740TIP3    H117177   5.329   1.548   0.170
 5740TIP3    H217178   5.253   1.675   0.139
 5741TIP3   OH217179   3.483   6.262   5.488
 5741TIP3    H117180   3.419   6.287   5.422
 5741TIP3    H217181   3.454   6.176   5.519
 5742TIP3   OH217182   6.704   5.814   3.732
 5742TIP3    H117183   6.640   5.879   3.758
 5742TIP3    H217184   6.710   5.822   3.637
 5743TIP3   OH217185   0.434   4.826   5.154
 5743TIP3    H117186   0.487   4.786   5.223
 5743TIP3    H217187   0.346   4.831   5.191
 5744TIP3   OH217188   2.728   0.828   4.812
 5744TIP3    H117189   2.781   0.822   4.892
 5744TIP3    H217190   2.769   0.766   4.752
 5745TIP3   OH217191   1.786   0.950   2.766
 5745TIP3    H117192   1.802   0.943   2.672
 5745TIP3    H217193   1.854   1.010   2.798
 5746TIP3   OH217194   3.947   1.347   5.974
 5746TIP3    H117195   3.996   1.383   5.899
 5746TIP3    H217196   3.873   1.407   5.984
 5747TIP3   OH217197   1.155   5.107   0.835
 5747TIP3    H117198   1.108   5.126   0.916
 5747TIP3    H217199   1.222   5.043   0.860
 5748TIP3   OH217200   5.598   0.273   1.371
 5748TIP3    H117201   5.534   0.208   1.341
 5748TIP3    H217202   5.644   0.300   1.292
 5749TIP3   OH217203   3.503   4.454   2.135
 5749TIP3    H117204   3.435   4.520   2.125
 5749TIP3    H217205   3.515   4.445   2.229
 5750TIP3   OH217206   5.860   4.975   4.199
 5750TIP3    H117207   5.891   4.890   4.168
 5750TIP3    H217208   5.824   5.018   4.121
 5751TIP3   OH217209   3.123   3.995   3.685
 5751TIP3    H117210   3.036   4.021   3.717
 5751TIP3    H217211   3.125   4.027   3.595
 5752TIP3   OH217212   4.913   3.323   0.754
 5752TIP3    H117213   5.005   3.299   0.765
 5752TIP3    H217214   4.864   3.244   0.777
 5753TIP3   OH217215   0.937   4.871   2.475
 5753TIP3    H117216   0.847   4.878   2.508
 5753TIP3    H217217   0.992   4.895   2.550
 5754TIP3   OH217218   3.557   6.943   3.041
 5754TIP3    H117219   3.533   7.017   2.985
 5754TIP3    H217220   3.554   6.867   2.982
 5755TIP3   OH217221   6.602   2.697   0.613
 5755TIP3    H117222   6.651   2.615   0.620
 5755TIP3    H217223   6.519   2.678   0.656
 5756TIP3   OH217224   7.604   5.278   0.766
 5756TIP3    H117225   7.647   5.227   0.696
 5756TIP3    H217226   7.588   5.364   0.727
 5757TIP3   OH217227   5.749   5.830   5.601
 5757TIP3    H117228   5.722   5.918   5.629
 5757TIP3    H217229   5.725   5.774   5.674
 5758TIP3   OH217230   6.064   5.020   1.237
 5758TIP3    H117231   6.006   5.047   1.166
 5758TIP3    H217232   6.078   4.927   1.224
 5759TIP3   OH217233   2.376   6.164   1.191
 5759TIP3    H117234   2.356   6.242   1.138
 5759TIP3    H217235   2.419   6.104   1.130
 5760TIP3   OH217236   6.399   2.098   6.650
 5760TIP3    H117237   6.357   2.182   6.670
 5760TIP3    H217238   6.434   2.110   6.561
 5761TIP3   OH217239   3.269   6.434   0.923
 5761TIP3    H117240   3.258   6.423   0.829
 5761TIP3    H217241   3.300   6.525   0.933
 5762TIP3   OH217242   1.849   1.480   1.796
 5762TIP3    H117243   1.895   1.560   1.822
 5762TIP3    H217244   1.910   1.434   1.740
 5763TIP3   OH217245   2.317   2.170   0.892
 5763TIP3    H117246   2.318   2.129   0.805
 5763TIP3    H217247   2.315   2.097   0.953
 5764TIP3   OH217248   1.863   4.438   3.715
 5764TIP3    H117249   1.940   4.395   3.752
 5764TIP3    H217250   1.796   4.432   3.783
 5765TIP3   OH217251   6.349   1.313   2.917
 5765TIP3    H117252   6.416   1.267   2.968
 5765TIP3    H217253   6.390   1.395   2.891
 5766TIP3   OH217254   7.448   1.572   2.376
 5766TIP3    H117255   7.353   1.560   2.376
 5766TIP3    H217256   7.461   1.656   2.421
 5767TIP3   OH217257   4.706   2.937   3.842
 5767TIP3    H117258   4.710   2.999   3.914
 5767TIP3    H217259   4.623   2.956   3.798
 5768TIP3   OH217260   4.527   4.295   4.897
 5768TIP3    H117261   4.619   4.295   4.869
 5768TIP3    H217262   4.529   4.326   4.987
 5769TIP3   OH217263   5.618   3.977   1.886
 5769TIP3    H117264   5.575   4.006   1.966
 5769TIP3    H217265   5.619   4.055   1.830
 5770TIP3   OH217266   5.244   1.364   0.244
 5770TIP3    H117267   5.322   1.309   0.253
 5770TIP3    H217268   5.222   1.358   0.151
 5771TIP3   OH217269   1.412   0.028   4.817
 5771TIP3    H117270   1.440   0.107   4.863
 5771TIP3    H217271   1.484   0.009   4.757
 5772TIP3   OH217272   2.499   5.033   3.748
 5772TIP3    H117273   2.421   4.987   3.781
 5772TIP3    H217274   2.526   5.088   3.822
 5773TIP3   OH217275   3.662   4.383   3.501
 5773TIP3    H117276   3.755   4.387   3.481
 5773TIP3    H217277   3.650   4.297   3.543
 5774TIP3   OH217278   5.455   0.989   2.850
 5774TIP3    H117279   5.428   0.897   2.858
 5774TIP3    H217280   5.401   1.025   2.780
 5775TIP3   OH217281   0.385   5.179   5.180
 5775TIP3    H117282   0.334   5.128   5.242
 5775TIP3    H217283   0.394   5.265   5.221
 5776TIP3   OH217284   1.848   3.558   1.146
 5776TIP3    H117285   1.852   3.606   1.063
 5776TIP3    H217286   1.761   3.518   1.146
 5777TIP3   OH217287   7.120   3.789   3.700
 5777TIP3    H117288   7.161   3.875   3.710
 5777TIP3    H217289   7.193   3.730   3.679
 5778TIP3   OH217290   4.166   3.446   3.579
 5778TIP3    H117291   4.108   3.379   3.542
 5778TIP3    H217292   4.124   3.529   3.557
 5779TIP3   OH217293   3.372   6.583   4.526
 5779TIP3    H117294   3.334   6.542   4.603
 5779TIP3    H217295   3.305   6.573   4.458
 5780TIP3   OH217296   2.954   5.372   6.498
 5780TIP3    H117297   2.932   5.318   6.574
 5780TIP3    H217298   2.949   5.462   6.530
 5781TIP3   OH217299   1.795   1.992   6.225
 5781TIP3    H117300   1.828   2.081   6.231
 5781TIP3    H217301   1.749   1.989   6.141
 5782TIP3   OH217302   3.187   1.331   3.572
 5782TIP3    H117303   3.183   1.259   3.509
 5782TIP3    H217304   3.244   1.300   3.642
 5783TIP3   OH217305   7.094   6.327   2.421
 5783TIP3    H117306   7.074   6.315   2.328
 5783TIP3    H217307   7.061   6.415   2.442
 5784TIP3   OH217308   0.891   6.744   3.281
 5784TIP3    H117309   0.851   6.828   3.259
 5784TIP3    H217310   0.888   6.694   3.200
 5785TIP3   OH217311   0.103   3.137   1.142
 5785TIP3    H117312   0.139   3.197   1.208
 5785TIP3    H217313   0.165   3.144   1.069
 5786TIP3   OH217314   1.789   7.548   1.727
 5786TIP3    H117315   1.875   7.585   1.748
 5786TIP3    H217316   1.726   7.606   1.770
 5787TIP3   OH217317   7.185   0.543   0.444
 5787TIP3    H117318   7.273   0.575   0.465
 5787TIP3    H217319   7.200   0.474   0.380
 5788TIP3   OH217320   4.972   6.840   6.154
 5788TIP3    H117321   4.951   6.809   6.065
 5788TIP3    H217322   4.965   6.935   6.148
 5789TIP3   OH217323   5.098   7.107   4.003
 5789TIP3    H117324   5.173   7.061   4.039
 5789TIP3    H217325   5.135   7.170   3.941
 5790TIP3   OH217326   5.506   3.197   5.167
 5790TIP3    H117327   5.566   3.234   5.232
 5790TIP3    H217328   5.468   3.120   5.210
 5791TIP3   OH217329   0.054   4.721   4.999
 5791TIP3    H117330  -0.016   4.659   4.979
 5791TIP3    H217331   0.066   4.771   4.918
 5792TIP3   OH217332   1.658   6.683   0.223
 5792TIP3    H117333   1.666   6.613   0.288
 5792TIP3    H217334   1.564   6.687   0.204
 5793TIP3   OH217335   7.617   0.581   4.953
 5793TIP3    H117336   7.664   0.597   5.036
 5793TIP3    H217337   7.580   0.666   4.930
 5794TIP3   OH217338   1.277   5.171   3.278
 5794TIP3    H117339   1.214   5.232   3.240
 5794TIP3    H217340   1.268   5.182   3.372
 5795TIP3   OH217341   0.059   1.553   0.435
 5795TIP3    H117342   0.080   1.576   0.345
 5795TIP3    H217343   0.103   1.620   0.488
 5796TIP3   OH217344   0.973   7.129   6.828
 5796TIP3    H117345   1.003   7.104   6.741
 5796TIP3    H217346   0.905   7.066   6.849
 5797TIP3   OH217347   1.045   2.536   5.313
 5797TIP3    H117348   1.005   2.522   5.398
 5797TIP3    H217349   1.135   2.565   5.333
 5798TIP3   OH217350   6.250   6.842   2.557
 5798TIP3    H117351   6.253   6.846   2.652
 5798TIP3    H217352   6.317   6.777   2.534
 5799TIP3   OH217353   1.176   0.777   2.654
 5799TIP3    H117354   1.254   0.829   2.637
 5799TIP3    H217355   1.206   0.686   2.651
 5800TIP3   OH217356   7.690   5.245   0.031
 5800TIP3    H117357   7.727   5.191   0.101
 5800TIP3    H217358   7.632   5.306   0.076
 5801TIP3   OH217359   2.646   2.640   5.395
 5801TIP3    H117360   2.687   2.599   5.472
 5801TIP3    H217361   2.562   2.594   5.387
 5802TIP3   OH217362   3.356   2.247   1.937
 5802TIP3    H117363   3.300   2.313   1.977
 5802TIP3    H217364   3.349   2.172   1.996
 5803TIP3   OH217365   7.720   1.815   4.584
 5803TIP3    H117366   7.644   1.770   4.546
 5803TIP3    H217367   7.708   1.808   4.678
 5804TIP3   OH217368   7.701   6.665   3.300
 5804TIP3    H117369   7.724   6.649   3.391
 5804TIP3    H217370   7.661   6.584   3.270
 5805TIP3   OH217371   0.538   5.766   5.018
 5805TIP3    H117372   0.565   5.757   4.926
 5805TIP3    H217373   0.607   5.819   5.058
 5806TIP3   OH217374   7.976   3.621   0.242
 5806TIP3    H117375   7.983   3.616   0.146
 5806TIP3    H217376   8.063   3.596   0.273
 5807TIP3   OH217377   5.489   7.426   3.600
 5807TIP3    H117378   5.530   7.340   3.592
 5807TIP3    H217379   5.562   7.486   3.613
 5808TIP3   OH217380   3.282   1.540   0.945
 5808TIP3    H117381   3.283   1.508   1.035
 5808TIP3    H217382   3.369   1.519   0.911
 5809TIP3   OH217383   5.774   5.098   6.614
 5809TIP3    H117384   5.715   5.106   6.539
 5809TIP3    H217385   5.860   5.083   6.575
 5810TIP3   OH217386   3.300   0.083   0.179
 5810TIP3    H117387   3.366   0.057   0.243
 5810TIP3    H217388   3.293   0.178   0.189
 5811TIP3   OH217389   7.005   3.784   4.026
 5811TIP3    H117390   6.980   3.827   3.944
 5811TIP3    H217391   6.921   3.764   4.069
 5812TIP3   OH217392   8.267   4.883   0.828
 5812TIP3    H117393   8.237   4.946   0.894
 5812TIP3    H217394   8.332   4.830   0.873
 5813TIP3   OH217395   3.951   7.714   3.234
 5813TIP3    H117396   3.896   7.663   3.174
 5813TIP3    H217397   4.037   7.673   3.229
 5814TIP3   OH217398   2.265   7.681   3.478
 5814TIP3    H117399   2.194   7.688   3.414
 5814TIP3    H217400   2.292   7.771   3.494
 5815TIP3   OH217401   5.825   1.337   1.192
 5815TIP3    H117402   5.822   1.263   1.131
 5815TIP3    H217403   5.898   1.390   1.162
 5816TIP3   OH217404   3.502   2.395   1.087
 5816TIP3    H117405   3.497   2.475   1.035
 5816TIP3    H217406   3.569   2.342   1.044
 5817TIP3   OH217407   1.511   0.922   5.416
 5817TIP3    H117408   1.418   0.922   5.438
 5817TIP3    H217409   1.543   0.837   5.444
 5818TIP3   OH217410   7.313   5.632   0.805
 5818TIP3    H117411   7.350   5.645   0.892
 5818TIP3    H217412   7.387   5.643   0.745
 5819TIP3   OH217413   7.153   2.926   1.980
 5819TIP3    H117414   7.240   2.967   1.981
 5819TIP3    H217415   7.161   2.856   1.916
 5820TIP3   OH217416   1.447   3.918   6.644
 5820TIP3    H117417   1.475   3.839   6.596
 5820TIP3    H217418   1.528   3.952   6.682
 5821TIP3   OH217419   6.902   7.727   5.182
 5821TIP3    H117420   6.921   7.816   5.153
 5821TIP3    H217421   6.835   7.696   5.121
 5822TIP3   OH217422   7.866   0.993   2.443
 5822TIP3    H117423   7.938   0.943   2.480
 5822TIP3    H217424   7.823   0.932   2.382
 5823TIP3   OH217425   2.387   3.789   0.140
 5823TIP3    H117426   2.467   3.743   0.114
 5823TIP3    H217427   2.361   3.839   0.063
 5824TIP3   OH217428   8.161   1.194   6.529
 5824TIP3    H117429   8.099   1.129   6.562
 5824TIP3    H217430   8.179   1.166   6.439
 5825TIP3   OH217431   0.862   5.249   2.392
 5825TIP3    H117432   0.791   5.190   2.418
 5825TIP3    H217433   0.833   5.335   2.421
 5826TIP3   OH217434   0.550   0.347   6.460
 5826TIP3    H117435   0.485   0.394   6.408
 5826TIP3    H217436   0.565   0.402   6.536
 5827TIP3   OH217437   7.633   4.564   5.881
 5827TIP3    H117438   7.706   4.518   5.838
 5827TIP3    H217439   7.555   4.526   5.841
 5828TIP3   OH217440   2.746   6.404   2.917
 5828TIP3    H117441   2.686   6.451   2.859
 5828TIP3    H217442   2.719   6.431   3.005
 5829TIP3   OH217443   4.538   2.989   5.778
 5829TIP3    H117444   4.491   3.053   5.725
 5829TIP3    H217445   4.630   3.010   5.764
 5830TIP3   OH217446   0.550   3.220   1.696
 5830TIP3    H117447   0.493   3.296   1.708
 5830TIP3    H217448   0.497   3.158   1.646
 5831TIP3   OH217449   7.565   5.516   5.544
 5831TIP3    H117450   7.640   5.461   5.520
 5831TIP3    H217451   7.600   5.605   5.540
 5832TIP3   OH217452   6.455   5.918   0.875
 5832TIP3    H117453   6.454   5.930   0.970
 5832TIP3    H217454   6.510   5.842   0.861
 5833TIP3   OH217455   2.570   7.590   0.915
 5833TIP3    H117456   2.524   7.538   0.980
 5833TIP3    H217457   2.651   7.542   0.898
 5834TIP3   OH217458   0.507   6.525   4.999
 5834TIP3    H117459   0.425   6.561   4.965
 5834TIP3    H217460   0.553   6.492   4.921
 5835TIP3   OH217461   2.895   1.715   0.752
 5835TIP3    H117462   2.901   1.634   0.701
 5835TIP3    H217463   2.870   1.781   0.688
 5836TIP3   OH217464   4.241   2.973   4.008
 5836TIP3    H117465   4.177   2.928   4.063
 5836TIP3    H217466   4.311   2.999   4.068
 5837TIP3   OH217467   2.108   7.129   1.307
 5837TIP3    H117468   2.047   7.148   1.235
 5837TIP3    H217469   2.062   7.064   1.360
 5838TIP3   OH217470   3.838   0.578   3.798
 5838TIP3    H117471   3.921   0.606   3.836
 5838TIP3    H217472   3.807   0.654   3.749
 5839TIP3   OH217473   0.458   3.213   0.886
 5839TIP3    H117474   0.510   3.153   0.833
 5839TIP3    H217475   0.368   3.185   0.873
 5840TIP3   OH217476   5.237   6.100   2.322
 5840TIP3    H117477   5.156   6.115   2.370
 5840TIP3    H217478   5.208   6.074   2.234
 5841TIP3   OH217479   6.671   5.154   0.623
 5841TIP3    H117480   6.759   5.192   0.619
 5841TIP3    H217481   6.645   5.145   0.531
 5842TIP3   OH217482   8.014   5.850   5.744
 5842TIP3    H117483   8.103   5.822   5.722
 5842TIP3    H217484   8.020   5.945   5.752
 5843TIP3   OH217485   1.134   5.831   4.566
 5843TIP3    H117486   1.131   5.925   4.547
 5843TIP3    H217487   1.055   5.814   4.617
 5844TIP3   OH217488   7.707   2.516   1.654
 5844TIP3    H117489   7.713   2.460   1.732
 5844TIP3    H217490   7.663   2.463   1.589
 5845TIP3   OH217491   0.145   6.618   2.664
 5845TIP3    H117492   0.218   6.674   2.636
 5845TIP3    H217493   0.173   6.585   2.750
 5846TIP3   OH217494   4.047   5.976   1.497
 5846TIP3    H117495   4.087   5.928   1.570
 5846TIP3    H217496   3.959   5.997   1.528
 5847TIP3   OH217497   2.221   7.252   0.530
 5847TIP3    H117498   2.290   7.192   0.557
 5847TIP3    H217499   2.158   7.250   0.602
 5848TIP3   OH217500   5.887   6.443   5.655
 5848TIP3    H117501   5.951   6.452   5.725
 5848TIP3    H217502   5.926   6.378   5.595
 5849TIP3   OH217503   0.849   2.765   0.553
 5849TIP3    H117504   0.864   2.859   0.561
 5849TIP3    H217505   0.755   2.758   0.537
 5850TIP3   OH217506   1.583   6.493   5.705
 5850TIP3    H117507   1.629   6.545   5.640
 5850TIP3    H217508   1.614   6.527   5.789
 5851TIP3   OH217509   3.392   3.638   4.615
 5851TIP3    H117510   3.310   3.593   4.634
 5851TIP3    H217511   3.396   3.710   4.678
 5852TIP3   OH217512   0.556   0.533   0.403
 5852TIP3    H117513   0.502   0.529   0.482
 5852TIP3    H217514   0.498   0.564   0.334
 5853TIP3   OH217515   2.375   0.329   2.820
 5853TIP3    H117516   2.442   0.274   2.861
 5853TIP3    H217517   2.397   0.418   2.847
 5854TIP3   OH217518   5.502   5.359   4.914
 5854TIP3    H117519   5.539   5.314   4.837
 5854TIP3    H217520   5.578   5.394   4.960
 5855TIP3   OH217521   6.710   1.123   4.437
 5855TIP3    H117522   6.659   1.163   4.368
 5855TIP3    H217523   6.794   1.101   4.396
 5856TIP3   OH217524   5.781   4.862   6.263
 5856TIP3    H117525   5.751   4.859   6.173
 5856TIP3    H217526   5.813   4.951   6.276
 5857TIP3   OH217527   0.570   7.488   0.901
 5857TIP3    H117528   0.584   7.517   0.811
 5857TIP3    H217529   0.634   7.419   0.914
 5858TIP3   OH217530   7.896   6.533   4.718
 5858TIP3    H117531   7.861   6.448   4.692
 5858TIP3    H217532   7.941   6.566   4.640
 5859TIP3   OH217533   7.131   1.644   3.400
 5859TIP3    H117534   7.095   1.556   3.411
 5859TIP3    H217535   7.058   1.703   3.421
 5860TIP3   OH217536   2.908   6.768   4.851
 5860TIP3    H117537   2.987   6.804   4.893
 5860TIP3    H217538   2.942   6.716   4.778
 5861TIP3   OH217539   4.934   2.528   6.724
 5861TIP3    H117540   4.878   2.491   6.792
 5861TIP3    H217541   4.895   2.613   6.703
 5862TIP3   OH217542   8.114   0.182   2.108
 5862TIP3    H117543   8.084   0.225   2.028
 5862TIP3    H217544   8.169   0.110   2.077
 5863TIP3   OH217545   6.653   7.240   1.077
 5863TIP3    H117546   6.570   7.200   1.101
 5863TIP3    H217547   6.715   7.205   1.141
 5864TIP3   OH217548   2.316   4.472   0.059
 5864TIP3    H117549   2.410   4.466   0.077
 5864TIP3    H217550   2.307   4.554   0.010
 5865TIP3   OH217551   7.911   0.599   6.408
 5865TIP3    H117552   7.869   0.522   6.370
 5865TIP3    H217553   7.991   0.565   6.448
 5866TIP3   OH217554   3.826   6.512   4.700
 5866TIP3    H117555   3.781   6.460   4.633
 5866TIP3    H217556   3.890   6.452   4.737
 5867TIP3   OH217557   7.246   6.059   5.905
 5867TIP3    H117558   7.233   5.965   5.915
 5867TIP3    H217559   7.158   6.096   5.906
 5868TIP3   OH217560   0.724   4.550   6.087
 5868TIP3    H117561   0.808   4.504   6.093
 5868TIP3    H217562   0.720   4.603   6.167
 5869TIP3   OH217563   8.076   1.269   0.931
 5869TIP3    H117564   8.006   1.204   0.923
 5869TIP3    H217565   8.040   1.348   0.891
 5870TIP3   OH217566   8.175   5.304   5.001
 5870TIP3    H117567   8.139   5.374   5.055
 5870TIP3    H217568   8.249   5.344   4.956
 5871TIP3   OH217569   7.236   5.959   3.618
 5871TIP3    H117570   7.253   5.998   3.532
 5871TIP3    H217571   7.295   5.884   3.623
 5872TIP3   OH217572   1.686   5.058   3.399
 5872TIP3    H117573   1.693   5.113   3.477
 5872TIP3    H217574   1.730   4.976   3.425
 5873TIP3   OH217575   0.743   3.652   6.524
 5873TIP3    H117576   0.730   3.692   6.610
 5873TIP3    H217577   0.776   3.723   6.469
 5874TIP3   OH217578   0.208   0.412   4.043
 5874TIP3    H117579   0.214   0.447   4.132
 5874TIP3    H217580   0.121   0.438   4.014
 5875TIP3   OH217581   6.622   4.267   3.641
 5875TIP3    H117582   6.688   4.206   3.609
 5875TIP3    H217583   6.630   4.343   3.584
 5876TIP3   OH217584   5.116   2.445   1.036
 5876TIP3    H117585   5.120   2.529   1.084
 5876TIP3    H217586   5.206   2.425   1.015
 5877TIP3   OH217587   1.593   6.126   5.069
 5877TIP3    H117588   1.651   6.173   5.128
 5877TIP3    H217589   1.590   6.037   5.104
 5878TIP3   OH217590   7.145   6.411   3.607
 5878TIP3    H117591   7.085   6.435   3.678
 5878TIP3    H217592   7.090   6.366   3.543
 5879TIP3   OH217593   8.098   2.194   6.001
 5879TIP3    H117594   8.169   2.231   6.054
 5879TIP3    H217595   8.064   2.122   6.053
 5880TIP3   OH217596   7.896   6.152   4.453
 5880TIP3    H117597   7.944   6.214   4.397
 5880TIP3    H217598   7.949   6.073   4.453
 5881TIP3   OH217599   2.335   7.463   1.117
 5881TIP3    H117600   2.378   7.541   1.153
 5881TIP3    H217601   2.361   7.392   1.176
 5882TIP3   OH217602   4.551   2.102   2.774
 5882TIP3    H117603   4.517   2.094   2.685
 5882TIP3    H217604   4.598   2.019   2.788
 5883TIP3   OH217605   5.459   5.676   3.051
 5883TIP3    H117606   5.369   5.669   3.019
 5883TIP3    H217607   5.455   5.648   3.142
 5884TIP3   OH217608   1.485   0.971   3.341
 5884TIP3    H117609   1.553   0.951   3.405
 5884TIP3    H217610   1.456   0.886   3.309
 5885TIP3   OH217611   2.750   6.558   0.149
 5885TIP3    H117612   2.723   6.640   0.107
 5885TIP3    H217613   2.830   6.581   0.197
 5886TIP3   OH217614   2.237   5.744   4.395
 5886TIP3    H117615   2.295   5.719   4.324
 5886TIP3    H217616   2.252   5.679   4.464
 5887TIP3   OH217617   4.395   3.869   3.038
 5887TIP3    H117618   4.367   3.874   3.129
 5887TIP3    H217619   4.327   3.817   2.995
 5888TIP3   OH217620   4.879   1.379   4.228
 5888TIP3    H117621   4.901   1.298   4.274
 5888TIP3    H217622   4.909   1.449   4.285
 5889TIP3   OH217623   7.734   2.451   3.068
 5889TIP3    H117624   7.743   2.435   3.162
 5889TIP3    H217625   7.675   2.382   3.037
 5890TIP3   OH217626   0.101   5.729   3.877
 5890TIP3    H117627   0.129   5.794   3.941
 5890TIP3    H217628   0.168   5.730   3.810
 5891TIP3   OH217629   3.527   5.625   5.388
 5891TIP3    H117630   3.537   5.598   5.297
 5891TIP3    H217631   3.488   5.712   5.383
 5892TIP3   OH217632   1.419   3.013   4.038
 5892TIP3    H117633   1.415   3.106   4.061
 5892TIP3    H217634   1.376   2.969   4.111
 5893TIP3   OH217635   2.183   4.218   3.211
 5893TIP3    H117636   2.157   4.130   3.182
 5893TIP3    H217637   2.142   4.228   3.297
 5894TIP3   OH217638   3.430   1.552   2.332
 5894TIP3    H117639   3.450   1.558   2.426
 5894TIP3    H217640   3.468   1.630   2.294
 5895TIP3   OH217641   6.158   2.528   5.201
 5895TIP3    H117642   6.249   2.514   5.175
 5895TIP3    H217643   6.162   2.595   5.269
 5896TIP3   OH217644   1.567   1.718   0.237
 5896TIP3    H117645   1.574   1.759   0.324
 5896TIP3    H217646   1.600   1.784   0.177
 5897TIP3   OH217647   4.694   6.964   2.449
 5897TIP3    H117648   4.651   6.967   2.364
 5897TIP3    H217649   4.628   6.997   2.510
 5898TIP3   OH217650   2.556   6.285   4.664
 5898TIP3    H117651   2.634   6.297   4.719
 5898TIP3    H217652   2.536   6.373   4.632
 5899TIP3   OH217653   6.508   0.825   3.583
 5899TIP3    H117654   6.480   0.774   3.659
 5899TIP3    H217655   6.596   0.793   3.564
 5900TIP3   OH217656   5.344   6.405   2.552
 5900TIP3    H117657   5.346   6.483   2.609
 5900TIP3    H217658   5.251   6.388   2.538
 5901TIP3   OH217659   0.595   4.781   0.116
 5901TIP3    H117660   0.599   4.702   0.170
 5901TIP3    H217661   0.686   4.797   0.090
 5902TIP3   OH217662   0.088   5.386   0.042
 5902TIP3    H117663   0.057   5.363   0.130
 5902TIP3    H217664   0.183   5.379   0.047
 5903TIP3   OH217665   2.993   0.206   4.988
 5903TIP3    H117666   2.915   0.150   4.990
 5903TIP3    H217667   3.054   0.160   4.929
 5904TIP3   OH217668   0.485   4.597   2.877
 5904TIP3    H117669   0.549   4.534   2.912
 5904TIP3    H217670   0.441   4.549   2.807
 5905TIP3   OH217671   1.562   5.022   1.432
 5905TIP3    H117672   1.516   4.964   1.372
 5905TIP3    H217673   1.507   5.100   1.439
 5906TIP3   OH217674   2.775   7.838   3.923
 5906TIP3    H117675   2.854   7.883   3.954
 5906TIP3    H217676   2.754   7.776   3.992
 5907TIP3   OH217677   0.343   1.928   1.148
 5907TIP3    H117678   0.256   1.899   1.124
 5907TIP3    H217679   0.395   1.848   1.154
 5908TIP3   OH217680   4.566   0.057   5.872
 5908TIP3    H117681   4.569  -0.027   5.919
 5908TIP3    H217682   4.642   0.105   5.904
 5909TIP3   OH217683   4.610   7.058   1.600
 5909TIP3    H117684   4.573   6.974   1.626
 5909TIP3    H217685   4.648   7.042   1.513
 5910TIP3   OH217686   0.969   4.492   3.815
 5910TIP3    H117687   0.932   4.569   3.859
 5910TIP3    H217688   0.952   4.419   3.874
 5911TIP3   OH217689   7.225   3.400   2.083
 5911TIP3    H117690   7.208   3.354   2.000
 5911TIP3    H217691   7.312   3.370   2.110
 5912TIP3   OH217692   3.682   5.789   1.679
 5912TIP3    H117693   3.734   5.823   1.752
 5912TIP3    H217694   3.712   5.839   1.603
 5913TIP3   OH217695   2.597   4.656   2.834
 5913TIP3    H117696   2.591   4.732   2.777
 5913TIP3    H217697   2.506   4.626   2.844
 5914TIP3   OH217698   3.586   7.064   1.466
 5914TIP3    H117699   3.645   7.034   1.396
 5914TIP3    H217700   3.627   7.032   1.547
 5915TIP3   OH217701   4.682   5.698   0.423
 5915TIP3    H117702   4.732   5.638   0.479
 5915TIP3    H217703   4.615   5.734   0.481
 5916TIP3   OH217704   7.874   7.127   0.659
 5916TIP3    H117705   7.818   7.127   0.582
 5916TIP3    H217706   7.870   7.036   0.691
 5917TIP3   OH217707   7.100   1.897   4.581
 5917TIP3    H117708   7.009   1.871   4.565
 5917TIP3    H217709   7.149   1.858   4.509
 5918TIP3   OH217710   1.044   3.114   2.067
 5918TIP3    H117711   1.122   3.161   2.041
 5918TIP3    H217712   1.002   3.171   2.132
 5919TIP3   OH217713   7.598   7.644   3.054
 5919TIP3    H117714   7.535   7.574   3.073
 5919TIP3    H217715   7.587   7.663   2.961
 5920TIP3   OH217716   8.078   2.085   0.050
 5920TIP3    H117717   8.044   2.050  -0.033
 5920TIP3    H217718   8.019   2.158   0.071
 5921TIP3   OH217719   3.513   6.373   0.755
 5921TIP3    H117720   3.423   6.386   0.726
 5921TIP3    H217721   3.555   6.329   0.681
 5922TIP3   OH217722   6.616   3.221   6.053
 5922TIP3    H117723   6.521   3.229   6.042
 5922TIP3    H217724   6.629   3.129   6.077
 5923TIP3   OH217725   6.993   4.602   6.412
 5923TIP3    H117726   6.930   4.657   6.459
 5923TIP3    H217727   6.983   4.627   6.320
 5924TIP3   OH217728   4.472   0.483   5.114
 5924TIP3    H117729   4.521   0.412   5.074
 5924TIP3    H217730   4.415   0.440   5.178
 5925TIP3   OH217731   3.737   6.634   3.127
 5925TIP3    H117732   3.699   6.622   3.214
 5925TIP3    H217733   3.681   6.583   3.069
 5926TIP3   OH217734   5.100   2.121   0.242
 5926TIP3    H117735   5.087   2.031   0.273
 5926TIP3    H217736   5.183   2.119   0.196
 5927TIP3   OH217737   1.291   7.377   4.329
 5927TIP3    H117738   1.328   7.455   4.287
 5927TIP3    H217739   1.364   7.342   4.381
 5928TIP3   OH217740   3.919   2.433   3.668
 5928TIP3    H117741   3.871   2.467   3.743
 5928TIP3    H217742   3.966   2.357   3.702
 5929TIP3   OH217743   0.237   3.578   3.695
 5929TIP3    H117744   0.189   3.531   3.762
 5929TIP3    H217745   0.209   3.538   3.613
 5930TIP3   OH217746   3.642   2.651   4.289
 5930TIP3    H117747   3.635   2.719   4.222
 5930TIP3    H217748   3.649   2.698   4.372
 5931TIP3   OH217749   0.147   5.274   3.030
 5931TIP3    H117750   0.099   5.203   3.073
 5931TIP3    H217751   0.170   5.334   3.102
 5932TIP3   OH217752   2.763   7.735   5.743
 5932TIP3    H117753   2.815   7.782   5.808
 5932TIP3    H217754   2.687   7.704   5.791
 5933TIP3   OH217755   1.135   2.132   2.145
 5933TIP3    H117756   1.141   2.057   2.086
 5933TIP3    H217757   1.047   2.168   2.129
 5934TIP3   OH217758   0.635   1.822   1.411
 5934TIP3    H117759   0.620   1.800   1.320
 5934TIP3    H217760   0.699   1.894   1.409
 5935TIP3   OH217761   2.919   0.354   5.888
 5935TIP3    H117762   2.998   0.359   5.942
 5935TIP3    H217763   2.948   0.384   5.801
 5936TIP3   OH217764   1.367   6.998   6.448
 5936TIP3    H117765   1.303   7.068   6.438
 5936TIP3    H217766   1.323   6.934   6.505
 5937TIP3   OH217767   7.730   4.552   3.014
 5937TIP3    H117768   7.769   4.479   3.060
 5937TIP3    H217769   7.636   4.542   3.029
 5938TIP3   OH217770   6.170   6.149   1.033
 5938TIP3    H117771   6.142   6.079   1.092
 5938TIP3    H217772   6.257   6.173   1.064
 5939TIP3   OH217773   4.051   5.229   3.613
 5939TIP3    H117774   4.002   5.146   3.607
 5939TIP3    H217775   4.142   5.202   3.621
 5940TIP3   OH217776   2.948   3.948   6.700
 5940TIP3    H117777   2.991   3.982   6.779
 5940TIP3    H217778   2.995   3.867   6.680
 5941TIP3   OH217779   5.513   5.075   0.096
 5941TIP3    H117780   5.604   5.077   0.066
 5941TIP3    H217781   5.487   4.984   0.088
 5942TIP3   OH217782   4.152   5.947   2.145
 5942TIP3    H117783   4.085   6.015   2.133
 5942TIP3    H217784   4.140   5.919   2.236
 5943TIP3   OH217785   6.371   4.285   6.462
 5943TIP3    H117786   6.438   4.216   6.455
 5943TIP3    H217787   6.421   4.365   6.479
 5944TIP3   OH217788   2.190   4.583   4.362
 5944TIP3    H117789   2.206   4.649   4.295
 5944TIP3    H217790   2.102   4.602   4.394
 5945TIP3   OH217791   7.232   2.251   2.058
 5945TIP3    H117792   7.303   2.307   2.028
 5945TIP3    H217793   7.255   2.228   2.148
 5946TIP3   OH217794   2.900   3.694   2.311
 5946TIP3    H117795   2.895   3.775   2.259
 5946TIP3    H217796   2.966   3.713   2.378
 5947TIP3   OH217797   0.510   2.105   1.921
 5947TIP3    H117798   0.442   2.076   1.860
 5947TIP3    H217799   0.466   2.112   2.005
 5948TIP3   OH217800   4.948   1.090   5.734
 5948TIP3    H117801   4.984   1.177   5.749
 5948TIP3    H217802   4.855   1.105   5.719
 5949TIP3   OH217803   1.445   7.567   1.232
 5949TIP3    H117804   1.517   7.606   1.182
 5949TIP3    H217805   1.422   7.634   1.296
 5950TIP3   OH217806   6.286   6.885   4.800
 5950TIP3    H117807   6.282   6.837   4.717
 5950TIP3    H217808   6.358   6.947   4.787
 5951TIP3   OH217809   2.920   1.364   2.708
 5951TIP3    H117810   2.945   1.376   2.799
 5951TIP3    H217811   2.827   1.386   2.705
 5952TIP3   OH217812   6.206   2.123   6.211
 5952TIP3    H117813   6.250   2.052   6.258
 5952TIP3    H217814   6.115   2.118   6.241
 5953TIP3   OH217815   8.149   3.184   3.413
 5953TIP3    H117816   8.158   3.093   3.441
 5953TIP3    H217817   8.066   3.213   3.451
 5954TIP3   OH217818   1.948   6.471   0.369
 5954TIP3    H117819   1.865   6.514   0.391
 5954TIP3    H217820   1.923   6.381   0.346
 5955TIP3   OH217821   0.231   5.602   2.041
 5955TIP3    H117822   0.255   5.589   1.949
 5955TIP3    H217823   0.144   5.563   2.049
 5956TIP3   OH217824   2.803   5.309   5.941
 5956TIP3    H117825   2.787   5.221   5.975
 5956TIP3    H217826   2.792   5.367   6.017
 5957TIP3   OH217827   7.530   2.699   1.008
 5957TIP3    H117828   7.570   2.786   1.011
 5957TIP3    H217829   7.593   2.642   1.051
 5958TIP3   OH217830   0.166   5.336   1.118
 5958TIP3    H117831   0.137   5.424   1.143
 5958TIP3    H217832   0.260   5.336   1.137
 5959TIP3   OH217833   1.934   0.454   3.259
 5959TIP3    H117834   2.000   0.394   3.294
 5959TIP3    H217835   1.864   0.455   3.324
 5960TIP3   OH217836   5.801   7.619   1.026
 5960TIP3    H117837   5.710   7.621   0.998
 5960TIP3    H217838   5.798   7.641   1.119
 5961TIP3   OH217839   5.946   0.643   2.801
 5961TIP3    H117840   5.916   0.682   2.883
 5961TIP3    H217841   5.889   0.567   2.788
 5962TIP3   OH217842   3.313   6.115   4.412
 5962TIP3    H117843   3.265   6.173   4.354
 5962TIP3    H217844   3.290   6.027   4.383
 5963TIP3   OH217845   2.321   3.422   0.478
 5963TIP3    H117846   2.350   3.496   0.532
 5963TIP3    H217847   2.290   3.463   0.397
 5964TIP3   OH217848   6.919   1.868   0.266
 5964TIP3    H117849   6.935   1.848   0.173
 5964TIP3    H217850   6.842   1.817   0.289
 5965TIP3   OH217851   5.351   1.701   1.062
 5965TIP3    H117852   5.279   1.638   1.049
 5965TIP3    H217853   5.321   1.781   1.019
 5966TIP3   OH217854   1.197   7.245   3.969
 5966TIP3    H117855   1.112   7.262   3.929
 5966TIP3    H217856   1.231   7.332   3.991
 5967TIP3   OH217857   7.743   4.497   6.708
 5967TIP3    H117858   7.689   4.543   6.644
 5967TIP3    H217859   7.680   4.456   6.768
 5968TIP3   OH217860   2.152   3.730   1.723
 5968TIP3    H117861   2.091   3.797   1.754
 5968TIP3    H217862   2.103   3.682   1.656
 5969TIP3   OH217863   4.722   0.823   1.272
 5969TIP3    H117864   4.743   0.789   1.359
 5969TIP3    H217865   4.737   0.749   1.213
 5970TIP3   OH217866   4.554   3.384   1.436
 5970TIP3    H117867   4.526   3.427   1.355
 5970TIP3    H217868   4.494   3.309   1.445
 5971TIP3   OH217869   2.941   2.577   3.394
 5971TIP3    H117870   3.014   2.613   3.444
 5971TIP3    H217871   2.876   2.552   3.461
 5972TIP3   OH217872   7.744   0.610   1.530
 5972TIP3    H117873   7.738   0.675   1.461
 5972TIP3    H217874   7.681   0.638   1.596
 5973TIP3   OH217875   4.122   7.704   1.460
 5973TIP3    H117876   4.200   7.650   1.445
 5973TIP3    H217877   4.060   7.674   1.393
 5974TIP3   OH217878   3.515   2.947   3.866
 5974TIP3    H117879   3.419   2.939   3.867
 5974TIP3    H217880   3.545   2.869   3.819
 5975TIP3   OH217881   5.288   4.921   0.850
 5975TIP3    H117882   5.331   5.003   0.872
 5975TIP3    H217883   5.203   4.927   0.894
 5976TIP3   OH217884   6.301   5.436   2.261
 5976TIP3    H117885   6.228   5.465   2.316
 5976TIP3    H217886   6.310   5.343   2.280
 5977TIP3   OH217887   1.667   1.435   2.163
 5977TIP3    H117888   1.724   1.363   2.192
 5977TIP3    H217889   1.726   1.499   2.125
 5978TIP3   OH217890   4.282   7.299   3.919
 5978TIP3    H117891   4.254   7.221   3.967
 5978TIP3    H217892   4.351   7.337   3.973
 5979TIP3   OH217893   2.097   6.652   0.546
 5979TIP3    H117894   2.159   6.683   0.480
 5979TIP3    H217895   2.060   6.572   0.509
 5980TIP3   OH217896   1.233   3.728   3.391
 5980TIP3    H117897   1.252   3.719   3.298
 5980TIP3    H217898   1.140   3.710   3.398
 5981TIP3   OH217899   2.606   7.190   6.525
 5981TIP3    H117900   2.671   7.148   6.470
 5981TIP3    H217901   2.606   7.282   6.497
 5982TIP3   OH217902   4.069   4.089   2.172
 5982TIP3    H117903   4.041   4.085   2.081
 5982TIP3    H217904   4.164   4.075   2.169
 5983TIP3   OH217905   0.836   0.055   4.396
 5983TIP3    H117906   0.843   0.009   4.480
 5983TIP3    H217907   0.889   0.003   4.336
 5984TIP3   OH217908   6.395   1.547   5.952
 5984TIP3    H117909   6.395   1.593   5.868
 5984TIP3    H217910   6.379   1.455   5.929
 5985TIP3   OH217911   3.756   0.122   4.806
 5985TIP3    H117912   3.675   0.071   4.798
 5985TIP3    H217913   3.826   0.062   4.780
 5986TIP3   OH217914   5.219   6.191   6.277
 5986TIP3    H117915   5.310   6.161   6.279
 5986TIP3    H217916   5.226   6.286   6.285
 5987TIP3   OH217917   5.749   3.060   1.501
 5987TIP3    H117918   5.699   3.040   1.423
 5987TIP3    H217919   5.717   3.146   1.530
 5988TIP3   OH217920   6.749   2.299   3.731
 5988TIP3    H117921   6.824   2.350   3.760
 5988TIP3    H217922   6.675   2.335   3.780
 5989TIP3   OH217923   6.330   5.076   1.176
 5989TIP3    H117924   6.388   5.008   1.212
 5989TIP3    H217925   6.242   5.042   1.189
 5990TIP3   OH217926   7.077   3.432   2.312
 5990TIP3    H117927   7.126   3.421   2.231
 5990TIP3    H217928   6.987   3.449   2.284
 5991TIP3   OH217929   0.759   5.965   5.725
 5991TIP3    H117930   0.767   6.059   5.743
 5991TIP3    H217931   0.677   5.939   5.766
 5992TIP3   OH217932   8.136   3.221   0.582
 5992TIP3    H117933   8.060   3.177   0.618
 5992TIP3    H217934   8.106   3.310   0.563
 5993TIP3   OH217935   4.303   2.014   0.732
 5993TIP3    H117936   4.238   2.082   0.715
 5993TIP3    H217937   4.254   1.945   0.776
 5994TIP3   OH217938   3.173   4.205   1.889
 5994TIP3    H117939   3.111   4.185   1.818
 5994TIP3    H217940   3.251   4.239   1.844
 5995TIP3   OH217941   1.608   3.712   3.787
 5995TIP3    H117942   1.553   3.695   3.711
 5995TIP3    H217943   1.622   3.807   3.787
 5996TIP3   OH217944   6.409   2.724   5.267
 5996TIP3    H117945   6.351   2.781   5.217
 5996TIP3    H217946   6.427   2.651   5.208
 5997TIP3   OH217947   1.255   2.372   1.630
 5997TIP3    H117948   1.344   2.403   1.651
 5997TIP3    H217949   1.218   2.349   1.715
 5998TIP3   OH217950   7.412   4.927   4.270
 5998TIP3    H117951   7.322   4.956   4.284
 5998TIP3    H217952   7.456   4.945   4.353
 5999TIP3   OH217953   6.010   6.371   2.131
 5999TIP3    H117954   5.931   6.330   2.166
 5999TIP3    H217955   5.978   6.445   2.080
 6000TIP3   OH217956   3.481   2.360   3.448
 6000TIP3    H117957   3.545   2.387   3.513
 6000TIP3    H217958   3.412   2.317   3.498
 6001TIP3   OH217959   6.143   5.646   0.337
 6001TIP3    H117960   6.224   5.676   0.378
 6001TIP3    H217961   6.079   5.647   0.407
 6002TIP3   OH217962   7.778   2.311   1.267
 6002TIP3    H117963   7.853   2.266   1.227
 6002TIP3    H217964   7.702   2.259   1.241
 6003TIP3   OH217965   2.631   3.800   1.888
 6003TIP3    H117966   2.557   3.809   1.827
 6003TIP3    H217967   2.595   3.749   1.961
 6004TIP3   OH217968   6.793   1.545   4.476
 6004TIP3    H117969   6.832   1.461   4.450
 6004TIP3    H217970   6.712   1.522   4.521
 6005TIP3   OH217971   7.011   2.962   5.993
 6005TIP3    H117972   6.997   2.972   5.899
 6005TIP3    H217973   6.985   3.047   6.030
 6006TIP3   OH217974   5.833   0.909   4.354
 6006TIP3    H117975   5.746   0.919   4.393
 6006TIP3    H217976   5.862   0.823   4.382
 6007TIP3   OH217977   6.072   6.779   0.970
 6007TIP3    H117978   6.033   6.847   1.025
 6007TIP3    H217979   6.134   6.825   0.914
 6008TIP3   OH217980   7.030   1.759   1.203
 6008TIP3    H117981   7.074   1.833   1.244
 6008TIP3    H217982   7.070   1.682   1.243
 6009TIP3   OH217983   7.250   0.223   5.037
 6009TIP3    H117984   7.327   0.266   4.999
 6009TIP3    H217985   7.176   0.264   4.993
 6010TIP3   OH217986   0.946   2.421   2.445
 6010TIP3    H117987   0.920   2.467   2.524
 6010TIP3    H217988   0.864   2.393   2.405
 6011TIP3   OH217989   7.505   7.649   4.611
 6011TIP3    H117990   7.522   7.617   4.522
 6011TIP3    H217991   7.555   7.591   4.667
 6012TIP3   OH217992   5.727   0.909   2.727
 6012TIP3    H117993   5.698   0.829   2.682
 6012TIP3    H217994   5.653   0.968   2.722
 6013TIP3   OH217995   0.329   0.140   4.679
 6013TIP3    H117996   0.273   0.195   4.733
 6013TIP3    H217997   0.327   0.182   4.592
 6014TIP3   OH217998   7.003   2.782   2.497
 6014TIP3    H117999   7.044   2.706   2.539
 6014TIP3    H218000   6.910   2.760   2.494
 6015TIP3   OH218001   0.612   0.684   3.025
 6015TIP3    H118002   0.544   0.687   2.958
 6015TIP3    H218003   0.688   0.724   2.983
 6016TIP3   OH218004   6.959   3.881   6.732
 6016TIP3    H118005   7.016   3.942   6.778
 6016TIP3    H218006   6.872   3.922   6.736
 6017TIP3   OH218007   1.055   3.454   5.184
 6017TIP3    H118008   1.046   3.408   5.101
 6017TIP3    H218009   1.113   3.527   5.165
 6018TIP3   OH218010  -0.037   5.775   5.657
 6018TIP3    H118011  -0.034   5.807   5.567
 6018TIP3    H218012   0.048   5.732   5.670
 6019TIP3   OH218013   7.917   6.159   1.223
 6019TIP3    H118014   7.830   6.124   1.243
 6019TIP3    H218015   7.932   6.226   1.290
 6020TIP3   OH218016   1.676   4.285   1.709
 6020TIP3    H118017   1.636   4.283   1.795
 6020TIP3    H218018   1.653   4.371   1.673
 6021TIP3   OH218019   3.237   5.901   0.123
 6021TIP3    H118020   3.308   5.840   0.143
 6021TIP3    H218021   3.190   5.860   0.051
 6022TIP3   OH218022   5.765   4.012   0.681
 6022TIP3    H118023   5.752   4.099   0.718
 6022TIP3    H218024   5.677   3.975   0.675
 6023TIP3   OH218025   1.537   7.583   5.929
 6023TIP3    H118026   1.537   7.527   6.006
 6023TIP3    H218027   1.590   7.658   5.954
 6024TIP3   OH218028   2.245   1.640   1.941
 6024TIP3    H118029   2.271   1.639   2.033
 6024TIP3    H218030   2.182   1.569   1.934
 6025TIP3   OH218031   7.957   3.643   4.332
 6025TIP3    H118032   7.952   3.575   4.400
 6025TIP3    H218033   7.904   3.609   4.260
 6026TIP3   OH218034   2.568   5.670   1.364
 6026TIP3    H118035   2.654   5.663   1.321
 6026TIP3    H218036   2.505   5.670   1.291
 6027TIP3   OH218037   2.596   5.152   4.821
 6027TIP3    H118038   2.587   5.137   4.727
 6027TIP3    H218039   2.567   5.069   4.861
 6028TIP3   OH218040   6.562   3.366   0.834
 6028TIP3    H118041   6.518   3.337   0.754
 6028TIP3    H218042   6.519   3.447   0.857
 6029TIP3   OH218043   5.202   3.046   2.197
 6029TIP3    H118044   5.140   3.004   2.255
 6029TIP3    H218045   5.247   3.110   2.252
 6030TIP3   OH218046   2.664   6.397   5.510
 6030TIP3    H118047   2.697   6.333   5.572
 6030TIP3    H218048   2.665   6.480   5.557
 6031TIP3   OH218049   3.154   6.112   1.405
 6031TIP3    H118050   3.139   6.030   1.357
 6031TIP3    H218051   3.066   6.145   1.422
 6032TIP3   OH218052   2.749   3.827   2.927
 6032TIP3    H118053   2.727   3.791   3.013
 6032TIP3    H218054   2.844   3.835   2.928
 6033TIP3   OH218055   2.150   0.999   3.491
 6033TIP3    H118056   2.202   0.920   3.481
 6033TIP3    H218057   2.059   0.968   3.490
 6034TIP3   OH218058   5.998   1.291   6.310
 6034TIP3    H118059   6.083   1.315   6.273
 6034TIP3    H218060   6.000   1.326   6.399
 6035TIP3   OH218061   4.114   2.501   3.886
 6035TIP3    H118062   4.057   2.573   3.858
 6035TIP3    H218063   4.202   2.538   3.881
 6036TIP3   OH218064   0.815   6.235   4.811
 6036TIP3    H118065   0.765   6.169   4.763
 6036TIP3    H218066   0.825   6.199   4.899
 6037TIP3   OH218067   5.014   1.701   5.449
 6037TIP3    H118068   4.951   1.768   5.425
 6037TIP3    H218069   5.090   1.750   5.480
 6038TIP3   OH218070   2.546   4.689   0.804
 6038TIP3    H118071   2.616   4.753   0.814
 6038TIP3    H218072   2.473   4.726   0.854
 6039TIP3   OH218073   7.409   2.237   4.043
 6039TIP3    H118074   7.338   2.297   4.018
 6039TIP3    H218075   7.463   2.289   4.103
 6040TIP3   OH218076   5.422   2.629   2.524
 6040TIP3    H118077   5.391   2.540   2.511
 6040TIP3    H218078   5.487   2.642   2.455
 6041TIP3   OH218079   6.640   4.673   2.383
 6041TIP3    H118080   6.681   4.588   2.402
 6041TIP3    H218081   6.694   4.736   2.430
 6042TIP3   OH218082   3.170   5.557   1.399
 6042TIP3    H118083   3.133   5.471   1.380
 6042TIP3    H218084   3.262   5.540   1.418
 6043TIP3   OH218085   8.007   3.365   2.539
 6043TIP3    H118086   7.959   3.429   2.488
 6043TIP3    H218087   8.034   3.299   2.475
 6044TIP3   OH218088   3.307   5.651   0.726
 6044TIP3    H118089   3.259   5.568   0.720
 6044TIP3    H218090   3.247   5.710   0.772
 6045TIP3   OH218091   3.726   4.632   2.286
 6045TIP3    H118092   3.800   4.603   2.340
 6045TIP3    H218093   3.655   4.645   2.348
 6046TIP3   OH218094   3.624   2.618   2.543
 6046TIP3    H118095   3.532   2.626   2.569
 6046TIP3    H218096   3.663   2.564   2.612
 6047TIP3   OH218097   7.476   2.283   3.508
 6047TIP3    H118098   7.508   2.193   3.500
 6047TIP3    H218099   7.471   2.298   3.602
 6048TIP3   OH218100   4.250   4.347   1.251
 6048TIP3    H118101   4.307   4.413   1.290
 6048TIP3    H218102   4.168   4.355   1.299
 6049TIP3   OH218103   4.925   5.028   2.707
 6049TIP3    H118104   4.933   5.025   2.611
 6049TIP3    H218105   5.016   5.026   2.738
 6050TIP3   OH218106   7.863   6.717   6.340
 6050TIP3    H118107   7.810   6.795   6.360
 6050TIP3    H218108   7.799   6.650   6.317
 6051TIP3   OH218109   6.869   6.692   3.441
 6051TIP3    H118110   6.917   6.771   3.417
 6051TIP3    H218111   6.929   6.620   3.421
 6052TIP3   OH218112   0.352   1.244   2.267
 6052TIP3    H118113   0.412   1.293   2.325
 6052TIP3    H218114   0.299   1.192   2.327
 6053TIP3   OH218115   6.961   4.560   4.666
 6053TIP3    H118116   6.918   4.542   4.582
 6053TIP3    H218117   7.034   4.619   4.644
 6054TIP3   OH218118   3.321   7.328   4.612
 6054TIP3    H118119   3.398   7.276   4.636
 6054TIP3    H218120   3.314   7.393   4.682
 6055TIP3   OH218121   5.098   3.985   6.498
 6055TIP3    H118122   5.085   4.047   6.427
 6055TIP3    H218123   5.059   4.028   6.575
 6056TIP3   OH218124   3.378   6.321   4.834
 6056TIP3    H118125   3.332   6.402   4.815
 6056TIP3    H218126   3.311   6.263   4.869
 6057TIP3   OH218127   1.247   4.698   5.199
 6057TIP3    H118128   1.203   4.680   5.116
 6057TIP3    H218129   1.211   4.632   5.259
 6058TIP3   OH218130   1.514   2.399   1.719
 6058TIP3    H118131   1.493   2.333   1.784
 6058TIP3    H218132   1.555   2.470   1.769
 6059TIP3   OH218133   2.070   7.703   1.801
 6059TIP3    H118134   2.103   7.655   1.877
 6059TIP3    H218135   2.047   7.789   1.835
 6060TIP3   OH218136   4.388   6.738   4.053
 6060TIP3    H118137   4.355   6.783   3.975
 6060TIP3    H218138   4.410   6.809   4.114
 6061TIP3   OH218139   3.489   3.527   1.455
 6061TIP3    H118140   3.555   3.558   1.516
 6061TIP3    H218141   3.431   3.472   1.507
 6062TIP3   OH218142   6.929   2.479   6.059
 6062TIP3    H118143   6.856   2.418   6.071
 6062TIP3    H218144   6.888   2.566   6.069
 6063TIP3   OH218145   5.257   3.277   3.559
 6063TIP3    H118146   5.180   3.223   3.540
 6063TIP3    H218147   5.303   3.228   3.628
 6064TIP3   OH218148   0.208   4.415   6.642
 6064TIP3    H118149   0.217   4.467   6.562
 6064TIP3    H218150   0.294   4.378   6.656
 6065TIP3   OH218151   3.123   4.009   3.408
 6065TIP3    H118152   3.084   3.922   3.419
 6065TIP3    H218153   3.083   4.044   3.328
 6066TIP3   OH218154   0.946   3.777   4.023
 6066TIP3    H118155   1.009   3.837   4.062
 6066TIP3    H218156   0.923   3.816   3.939
 6067TIP3   OH218157   3.848   1.837   2.892
 6067TIP3    H118158   3.770   1.829   2.837
 6067TIP3    H218159   3.891   1.917   2.861
 6068TIP3   OH218160   0.305   0.123   3.142
 6068TIP3    H118161   0.332   0.112   3.051
 6068TIP3    H218162   0.369   0.074   3.192
 6069TIP3   OH218163   2.281   2.814   0.018
 6069TIP3    H118164   2.191   2.843   0.037
 6069TIP3    H218165   2.301   2.752   0.087
 6070TIP3   OH218166   8.276   1.199   1.496
 6070TIP3    H118167   8.269   1.247   1.413
 6070TIP3    H218168   8.322   1.259   1.554
 6071TIP3   OH218169   1.199   2.872   0.701
 6071TIP3    H118170   1.226   2.899   0.788
 6071TIP3    H218171   1.258   2.800   0.678
 6072TIP3   OH218172   6.204   0.606   4.700
 6072TIP3    H118173   6.127   0.552   4.683
 6072TIP3    H218174   6.169   0.695   4.710
 6073TIP3   OH218175   5.650   2.320   4.070
 6073TIP3    H118176   5.599   2.399   4.055
 6073TIP3    H218177   5.587   2.248   4.063
 6074TIP3   OH218178   1.157   0.347   0.914
 6074TIP3    H118179   1.107   0.427   0.935
 6074TIP3    H218180   1.187   0.315   0.999
 6075TIP3   OH218181   2.763  -0.006   4.039
 6075TIP3    H118182   2.762  -0.068   3.967
 6075TIP3    H218183   2.854  -0.005   4.069
 6076TIP3   OH218184   7.731   2.658   1.940
 6076TIP3    H118185   7.709   2.699   2.024
 6076TIP3    H218186   7.812   2.701   1.913
 6077TIP3   OH218187   6.958   2.559   3.691
 6077TIP3    H118188   6.916   2.620   3.752
 6077TIP3    H218189   6.993   2.489   3.747
 6078TIP3   OH218190   4.204   0.805   5.477
 6078TIP3    H118191   4.259   0.727   5.476
 6078TIP3    H218192   4.117   0.774   5.453
 6079TIP3   OH218193   4.749   0.053   1.323
 6079TIP3    H118194   4.830   0.104   1.317
 6079TIP3    H218195   4.770  -0.020   1.381
 6080TIP3   OH218196   6.967   7.515   2.327
 6080TIP3    H118197   7.022   7.514   2.249
 6080TIP3    H218198   6.877   7.508   2.294
 6081TIP3   OH218199   3.690   5.105   1.604
 6081TIP3    H118200   3.695   5.102   1.509
 6081TIP3    H218201   3.781   5.103   1.634
 6082TIP3   OH218202   1.140   4.041   2.886
 6082TIP3    H118203   1.069   4.027   2.948
 6082TIP3    H218204   1.097   4.038   2.800
 6083TIP3   OH218205   5.231   3.522   3.699
 6083TIP3    H118206   5.187   3.518   3.784
 6083TIP3    H218207   5.234   3.430   3.670
 6084TIP3   OH218208   6.225   3.989   4.972
 6084TIP3    H118209   6.191   3.945   5.050
 6084TIP3    H218210   6.247   3.917   4.912
 6085TIP3   OH218211   1.133   4.155   0.545
 6085TIP3    H118212   1.197   4.128   0.611
 6085TIP3    H218213   1.122   4.249   0.558
 6086TIP3   OH218214   4.764   4.065   6.562
 6086TIP3    H118215   4.712   4.017   6.626
 6086TIP3    H218216   4.701   4.092   6.495
 6087TIP3   OH218217   0.113   4.508   5.948
 6087TIP3    H118218   0.192   4.554   5.920
 6087TIP3    H218219   0.101   4.439   5.884
 6088TIP3   OH218220   6.167   4.649   2.620
 6088TIP3    H118221   6.214   4.620   2.541
 6088TIP3    H218222   6.149   4.741   2.604
 6089TIP3   OH218223   7.389   1.915   0.819
 6089TIP3    H118224   7.407   1.985   0.881
 6089TIP3    H218225   7.340   1.850   0.870
 6090TIP3   OH218226   0.093   1.121   6.086
 6090TIP3    H118227   0.112   1.092   6.176
 6090TIP3    H218228   0.116   1.214   6.086
 6091TIP3   OH218229   7.832   5.567   4.164
 6091TIP3    H118230   7.915   5.610   4.185
 6091TIP3    H218231   7.850   5.518   4.083
 6092TIP3   OH218232   2.403   6.401   1.057
 6092TIP3    H118233   2.495   6.426   1.056
 6092TIP3    H218234   2.359   6.469   1.006
 6093TIP3   OH218235   5.531   6.749   2.231
 6093TIP3    H118236   5.437   6.753   2.214
 6093TIP3    H218237   5.562   6.673   2.181
 6094TIP3   OH218238   5.002   3.692   0.406
 6094TIP3    H118239   5.047   3.610   0.382
 6094TIP3    H218240   5.051   3.725   0.482
 6095TIP3   OH218241   6.916   5.306   0.127
 6095TIP3    H118242   6.967   5.239   0.173
 6095TIP3    H218243   6.981   5.372   0.101
 6096TIP3   OH218244   5.107   1.894   0.402
 6096TIP3    H118245   5.163   1.881   0.479
 6096TIP3    H218246   5.018   1.886   0.436
 6097TIP3   OH218247   6.470   7.466   4.477
 6097TIP3    H118248   6.406   7.394   4.470
 6097TIP3    H218249   6.420   7.538   4.516
 6098TIP3   OH218250   2.649   0.232   3.926
 6098TIP3    H118251   2.613   0.247   3.838
 6098TIP3    H218252   2.691   0.147   3.920
 6099TIP3   OH218253   1.809   5.953   4.615
 6099TIP3    H118254   1.851   5.893   4.677
 6099TIP3    H218255   1.859   6.034   4.622
 6100TIP3   OH218256   0.052   4.741   5.600
 6100TIP3    H118257   0.106   4.804   5.647
 6100TIP3    H218258   0.110   4.708   5.531
 6101TIP3   OH218259   2.481   1.526   2.103
 6101TIP3    H118260   2.438   1.488   2.180
 6101TIP3    H218261   2.505   1.451   2.049
 6102TIP3   OH218262   4.714   6.323   2.605
 6102TIP3    H118263   4.643   6.262   2.624
 6102TIP3    H218264   4.672   6.398   2.565
 6103TIP3   OH218265   6.136   5.824   1.579
 6103TIP3    H118266   6.098   5.872   1.653
 6103TIP3    H218267   6.078   5.748   1.568
 6104TIP3   OH218268   1.545   1.287   2.348
 6104TIP3    H118269   1.546   1.376   2.313
 6104TIP3    H218270   1.453   1.265   2.355
 6105TIP3   OH218271   3.666   3.554   6.003
 6105TIP3    H118272   3.730   3.492   6.039
 6105TIP3    H218273   3.621   3.505   5.934
 6106TIP3   OH218274   1.318   3.358   1.076
 6106TIP3    H118275   1.274   3.439   1.099
 6106TIP3    H218276   1.271   3.290   1.125
 6107TIP3   OH218277   5.725   3.153   5.602
 6107TIP3    H118278   5.727   3.207   5.681
 6107TIP3    H218279   5.638   3.113   5.602
 6108TIP3   OH218280   1.418   1.838   2.701
 6108TIP3    H118281   1.396   1.763   2.757
 6108TIP3    H218282   1.333   1.872   2.672
 6109TIP3   OH218283   4.353   7.083   0.836
 6109TIP3    H118284   4.436   7.084   0.789
 6109TIP3    H218285   4.310   7.164   0.809
 6110TIP3   OH218286   4.692   2.614   5.387
 6110TIP3    H118287   4.637   2.621   5.309
 6110TIP3    H218288   4.656   2.680   5.447
 6111TIP3   OH218289   6.550   4.776   0.851
 6111TIP3    H118290   6.530   4.736   0.936
 6111TIP3    H218291   6.536   4.870   0.865
 6112TIP3   OH218292   4.626   4.677   6.297
 6112TIP3    H118293   4.563   4.720   6.240
 6112TIP3    H218294   4.609   4.715   6.384
 6113TIP3   OH218295   0.447   4.953   3.747
 6113TIP3    H118296   0.501   4.923   3.820
 6113TIP3    H218297   0.424   5.043   3.770
 6114TIP3   OH218298   3.717   1.153   2.600
 6114TIP3    H118299   3.741   1.228   2.655
 6114TIP3    H218300   3.782   1.086   2.620
 6115TIP3   OH218301   0.196   0.033   0.721
 6115TIP3    H118302   0.138   0.026   0.796
 6115TIP3    H218303   0.227  -0.056   0.706
 6116TIP3   OH218304   4.975   0.548   6.227
 6116TIP3    H118305   4.986   0.536   6.133
 6116TIP3    H218306   5.064   0.555   6.261
 6117TIP3   OH218307   6.115   5.710   0.787
 6117TIP3    H118308   6.154   5.796   0.766
 6117TIP3    H218309   6.117   5.705   0.882
 6118TIP3   OH218310   4.581   7.200   4.654
 6118TIP3    H118311   4.558   7.243   4.736
 6118TIP3    H218312   4.541   7.113   4.660
 6119TIP3   OH218313   5.196   4.223   1.771
 6119TIP3    H118314   5.256   4.297   1.768
 6119TIP3    H218315   5.131   4.248   1.837
 6120TIP3   OH218316   4.858   0.794   4.507
 6120TIP3    H118317   4.839   0.705   4.538
 6120TIP3    H218318   4.792   0.848   4.550
 6121TIP3   OH218319   6.547   2.462   5.393
 6121TIP3    H118320   6.482   2.442   5.459
 6121TIP3    H218321   6.498   2.500   5.321
 6122TIP3   OH218322   7.142   2.859   2.278
 6122TIP3    H118323   7.089   2.852   2.199
 6122TIP3    H218324   7.083   2.835   2.349
 6123TIP3   OH218325   4.820   7.294   5.235
 6123TIP3    H118326   4.851   7.350   5.164
 6123TIP3    H218327   4.755   7.347   5.281
 6124TIP3   OH218328   5.620   0.692   0.306
 6124TIP3    H118329   5.621   0.784   0.281
 6124TIP3    H218330   5.587   0.691   0.396
 6125TIP3   OH218331   3.509   3.951   6.141
 6125TIP3    H118332   3.479   3.955   6.050
 6125TIP3    H218333   3.430   3.940   6.193
 6126TIP3   OH218334   6.626   0.643   0.034
 6126TIP3    H118335   6.720   0.628   0.043
 6126TIP3    H218336   6.587   0.555   0.037
 6127TIP3   OH218337   7.593   0.483   3.922
 6127TIP3    H118338   7.644   0.419   3.971
 6127TIP3    H218339   7.505   0.478   3.961
 6128TIP3   OH218340   2.830   2.972   1.936
 6128TIP3    H118341   2.838   2.953   1.843
 6128TIP3    H218342   2.917   2.951   1.972
 6129TIP3   OH218343   4.781   4.777   2.692
 6129TIP3    H118344   4.814   4.855   2.735
 6129TIP3    H218345   4.720   4.738   2.755
 6130TIP3   OH218346   5.754   7.860   2.006
 6130TIP3    H118347   5.795   7.818   2.081
 6130TIP3    H218348   5.786   7.809   1.931
 6131TIP3   OH218349   8.264   2.034   4.545
 6131TIP3    H118350   8.176   2.071   4.553
 6131TIP3    H218351   8.265   1.997   4.456
 6132TIP3   OH218352   0.736   2.652   3.545
 6132TIP3    H118353   0.791   2.581   3.513
 6132TIP3    H218354   0.791   2.730   3.537
 6133TIP3   OH218355   5.616   1.460   2.836
 6133TIP3    H118356   5.643   1.369   2.825
 6133TIP3    H218357   5.697   1.510   2.823
 6134TIP3   OH218358   0.399   3.341   3.604
 6134TIP3    H118359   0.470   3.406   3.597
 6134TIP3    H218360   0.336   3.368   3.537
 6135TIP3   OH218361   7.461   6.687   4.565
 6135TIP3    H118362   7.539   6.694   4.620
 6135TIP3    H218363   7.409   6.617   4.605
 6136TIP3   OH218364   7.566   7.498   5.559
 6136TIP3    H118365   7.520   7.444   5.494
 6136TIP3    H218366   7.655   7.507   5.524
 6137TIP3   OH218367   0.445   0.436   3.441
 6137TIP3    H118368   0.502   0.360   3.442
 6137TIP3    H218369   0.483   0.497   3.504
 6138TIP3   OH218370   7.387   4.520   1.790
 6138TIP3    H118371   7.447   4.543   1.861
 6138TIP3    H218372   7.393   4.593   1.729
 6139TIP3   OH218373   2.831   2.084   5.372
 6139TIP3    H118374   2.913   2.117   5.409
 6139TIP3    H218375   2.852   2.062   5.282
 6140TIP3   OH218376   1.362   4.361   2.212
 6140TIP3    H118377   1.377   4.399   2.125
 6140TIP3    H218378   1.282   4.402   2.243
 6141TIP3   OH218379   7.485   0.056   6.385
 6141TIP3    H118380   7.443   0.054   6.472
 6141TIP3    H218381   7.413   0.073   6.325
 6142TIP3   OH218382   2.206   7.488   4.684
 6142TIP3    H118383   2.117   7.522   4.684
 6142TIP3    H218384   2.208   7.424   4.613
 6143TIP3   OH218385   3.333   2.963   0.100
 6143TIP3    H118386   3.411   2.968   0.156
 6143TIP3    H218387   3.339   3.041   0.045
 6144TIP3   OH218388   2.388   1.775   0.724
 6144TIP3    H118389   2.340   1.846   0.681
 6144TIP3    H218390   2.480   1.802   0.718
 6145TIP3   OH218391   0.954   7.461   3.979
 6145TIP3    H118392   0.911   7.516   3.913
 6145TIP3    H218393   0.896   7.385   3.987
 6146TIP3   OH218394   7.162   7.033   5.410
 6146TIP3    H118395   7.165   7.002   5.319
 6146TIP3    H218396   7.246   7.076   5.423
 6147TIP3   OH218397   0.047   6.541   4.478
 6147TIP3    H118398   0.112   6.492   4.528
 6147TIP3    H218399   0.056   6.508   4.389
 6148TIP3   OH218400   5.319   0.785   3.245
 6148TIP3    H118401   5.337   0.877   3.264
 6148TIP3    H218402   5.309   0.744   3.331
 6149TIP3   OH218403   5.816   2.246   3.523
 6149TIP3    H118404   5.873   2.296   3.581
 6149TIP3    H218405   5.759   2.312   3.483
 6150TIP3   OH218406   2.543   4.350   2.414
 6150TIP3    H118407   2.635   4.351   2.386
 6150TIP3    H218408   2.536   4.423   2.475
 6151TIP3   OH218409   2.329   1.321   4.088
 6151TIP3    H118410   2.326   1.366   4.173
 6151TIP3    H218411   2.270   1.372   4.032
 6152TIP3   OH218412   1.615   6.325   2.379
 6152TIP3    H118413   1.603   6.398   2.440
 6152TIP3    H218414   1.527   6.309   2.344
 6153TIP3   OH218415   3.248   5.780   4.992
 6153TIP3    H118416   3.208   5.802   4.908
 6153TIP3    H218417   3.319   5.843   5.003
 6154TIP3   OH218418   5.453   0.649   3.069
 6154TIP3    H118419   5.386   0.635   3.002
 6154TIP3    H218420   5.407   0.696   3.139
 6155TIP3   OH218421   5.892   1.075   1.534
 6155TIP3    H118422   5.860   0.986   1.547
 6155TIP3    H218423   5.929   1.100   1.619
 6156TIP3   OH218424   0.776   6.241   1.165
 6156TIP3    H118425   0.684   6.219   1.154
 6156TIP3    H218426   0.777   6.317   1.223
 6157TIP3   OH218427   3.427   6.875   5.398
 6157TIP3    H118428   3.462   6.963   5.383
 6157TIP3    H218429   3.505   6.820   5.406
 6158TIP3   OH218430   5.565   7.428   5.803
 6158TIP3    H118431   5.648   7.416   5.756
 6158TIP3    H218432   5.580   7.505   5.857
 6159TIP3   OH218433   2.856   7.151   4.891
 6159TIP3    H118434   2.834   7.098   4.814
 6159TIP3    H218435   2.931   7.105   4.930
 6160TIP3   OH218436   2.114   3.276   1.732
 6160TIP3    H118437   2.165   3.238   1.660
 6160TIP3    H218438   2.083   3.360   1.698
 6161TIP3   OH218439   0.333   2.431   4.015
 6161TIP3    H118440   0.286   2.351   4.037
 6161TIP3    H218441   0.415   2.424   4.064
 6162TIP3   OH218442   4.745   4.746   1.546
 6162TIP3    H118443   4.788   4.702   1.473
 6162TIP3    H218444   4.817   4.776   1.602
 6163TIP3   OH218445   5.748   3.154   4.947
 6163TIP3    H118446   5.700   3.181   4.869
 6163TIP3    H218447   5.688   3.173   5.020
 6164TIP3   OH218448   6.020   4.974   2.565
 6164TIP3    H118449   6.056   5.062   2.559
 6164TIP3    H218450   6.057   4.928   2.489
 6165TIP3   OH218451   5.745   0.637   6.639
 6165TIP3    H118452   5.754   0.689   6.719
 6165TIP3    H218453   5.758   0.699   6.568
 6166TIP3   OH218454   1.712   7.055   2.169
 6166TIP3    H118455   1.768   6.977   2.159
 6166TIP3    H218456   1.668   7.042   2.253
 6167TIP3   OH218457   1.018   3.717   6.707
 6167TIP3    H118458   0.939   3.700   6.656
 6167TIP3    H218459   0.994   3.696   6.797
 6168TIP3   OH218460   5.225   4.697   1.848
 6168TIP3    H118461   5.205   4.729   1.936
 6168TIP3    H218462   5.142   4.700   1.802
 6169TIP3   OH218463   0.057   1.126   2.175
 6169TIP3    H118464   0.106   1.045   2.162
 6169TIP3    H218465  -0.021   1.114   2.120
 6170TIP3   OH218466   2.459   1.044   5.279
 6170TIP3    H118467   2.494   1.070   5.194
 6170TIP3    H218468   2.419   1.124   5.313
 6171TIP3   OH218469   1.741   5.450   5.384
 6171TIP3    H118470   1.648   5.460   5.365
 6171TIP3    H218471   1.749   5.360   5.417
 6172TIP3   OH218472   3.228   3.068   5.827
 6172TIP3    H118473   3.266   3.024   5.751
 6172TIP3    H218474   3.179   2.999   5.872
 6173TIP3   OH218475   4.634   7.389   0.653
 6173TIP3    H118476   4.706   7.343   0.697
 6173TIP3    H218477   4.675   7.468   0.618
 6174TIP3   OH218478   1.198   1.199   0.657
 6174TIP3    H118479   1.129   1.243   0.707
 6174TIP3    H218480   1.198   1.243   0.572
 6175TIP3   OH218481   6.325   3.806   3.971
 6175TIP3    H118482   6.370   3.866   3.912
 6175TIP3    H218483   6.331   3.721   3.927
 6176TIP3   OH218484   0.783   5.208   3.934
 6176TIP3    H118485   0.809   5.276   3.996
 6176TIP3    H218486   0.728   5.253   3.870
 6177TIP3   OH218487   4.620   6.324   3.472
 6177TIP3    H118488   4.647   6.317   3.563
 6177TIP3    H218489   4.529   6.292   3.471
 6178TIP3   OH218490   2.615   0.493   6.198
 6178TIP3    H118491   2.613   0.586   6.220
 6178TIP3    H218492   2.631   0.449   6.282
 6179TIP3   OH218493   4.004   2.838   2.314
 6179TIP3    H118494   4.084   2.868   2.271
 6179TIP3    H218495   3.939   2.836   2.244
 6180TIP3   OH218496   1.657   3.562   4.922
 6180TIP3    H118497   1.601   3.624   4.875
 6180TIP3    H218498   1.728   3.543   4.861
 6181TIP3   OH218499   1.681   0.185   1.305
 6181TIP3    H118500   1.597   0.199   1.263
 6181TIP3    H218501   1.718   0.273   1.315
 6182TIP3   OH218502   2.389   4.837   0.936
 6182TIP3    H118503   2.318   4.866   0.878
 6182TIP3    H218504   2.347   4.827   1.021
 6183TIP3   OH218505   5.721   3.491   2.278
 6183TIP3    H118506   5.779   3.424   2.239
 6183TIP3    H218507   5.721   3.562   2.214
 6184TIP3   OH218508   3.068   5.861   3.267
 6184TIP3    H118509   2.975   5.870   3.244
 6184TIP3    H218510   3.100   5.951   3.269
 6185TIP3   OH218511   1.189   6.892   0.307
 6185TIP3    H118512   1.267   6.943   0.328
 6185TIP3    H218513   1.151   6.871   0.393
 6186TIP3   OH218514   3.608   2.460   3.675
 6186TIP3    H118515   3.694   2.441   3.636
 6186TIP3    H218516   3.619   2.438   3.768
 6187TIP3   OH218517   0.376   1.978   4.534
 6187TIP3    H118518   0.378   1.960   4.628
 6187TIP3    H218519   0.428   1.908   4.495
 6188TIP3   OH218520   1.483   1.939   1.009
 6188TIP3    H118521   1.500   1.900   0.924
 6188TIP3    H218522   1.490   2.033   0.995
 6189TIP3   OH218523   5.129   6.154   3.186
 6189TIP3    H118524   5.118   6.136   3.279
 6189TIP3    H218525   5.176   6.238   3.183
 6190TIP3   OH218526   4.712   1.493   1.254
 6190TIP3    H118527   4.693   1.427   1.187
 6190TIP3    H218528   4.748   1.443   1.328
 6191TIP3   OH218529   0.926   0.702   2.640
 6191TIP3    H118530   0.871   0.725   2.715
 6191TIP3    H218531   1.013   0.734   2.664
 6192TIP3   OH218532   4.227   5.770   5.921
 6192TIP3    H118533   4.241   5.753   6.014
 6192TIP3    H218534   4.140   5.734   5.903
 6193TIP3   OH218535   2.887   2.390   0.501
 6193TIP3    H118536   2.941   2.467   0.481
 6193TIP3    H218537   2.927   2.319   0.450
 6194TIP3   OH218538   4.731   4.035   3.123
 6194TIP3    H118539   4.650   4.031   3.073
 6194TIP3    H218540   4.726   4.118   3.170
 6195TIP3   OH218541   2.453   7.733   5.365
 6195TIP3    H118542   2.505   7.715   5.286
 6195TIP3    H218543   2.515   7.770   5.427
 6196TIP3   OH218544   4.113   0.805   3.118
 6196TIP3    H118545   4.127   0.861   3.042
 6196TIP3    H218546   4.107   0.866   3.192
 6197TIP3   OH218547   0.159   2.604   1.770
 6197TIP3    H118548   0.204   2.520   1.786
 6197TIP3    H218549   0.225   2.659   1.728
 6198TIP3   OH218550   7.282   4.154   5.573
 6198TIP3    H118551   7.214   4.221   5.575
 6198TIP3    H218552   7.357   4.196   5.532
 6199TIP3   OH218553   4.502   4.961   5.596
 6199TIP3    H118554   4.586   4.932   5.630
 6199TIP3    H218555   4.501   5.056   5.610
 6200TIP3   OH218556   4.348   0.036   6.049
 6200TIP3    H118557   4.320   0.123   6.077
 6200TIP3    H218558   4.399   0.051   5.970
 6201TIP3   OH218559   5.672   0.304   6.097
 6201TIP3    H118560   5.594   0.250   6.113
 6201TIP3    H218561   5.704   0.325   6.185
 6202TIP3   OH218562   7.680   4.458   6.303
 6202TIP3    H118563   7.678   4.416   6.217
 6202TIP3    H218564   7.625   4.403   6.358
 6203TIP3   OH218565   3.127   1.564   2.160
 6203TIP3    H118566   3.117   1.584   2.067
 6203TIP3    H218567   3.219   1.580   2.178
 6204TIP3   OH218568   3.601   3.563   6.498
 6204TIP3    H118569   3.689   3.568   6.535
 6204TIP3    H218570   3.611   3.587   6.406
 6205TIP3   OH218571   6.076   3.721   3.426
 6205TIP3    H118572   6.107   3.632   3.441
 6205TIP3    H218573   6.146   3.762   3.376
 6206TIP3   OH218574   2.019   3.210   3.894
 6206TIP3    H118575   2.097   3.259   3.868
 6206TIP3    H218576   2.039   3.178   3.982
 6207TIP3   OH218577   7.121   3.539   4.965
 6207TIP3    H118578   7.032   3.546   4.929
 6207TIP3    H218579   7.127   3.613   5.026
 6208TIP3   OH218580   2.489   2.343   4.320
 6208TIP3    H118581   2.430   2.268   4.312
 6208TIP3    H218582   2.433   2.419   4.307
 6209TIP3   OH218583   6.784   2.903   0.213
 6209TIP3    H118584   6.879   2.895   0.207
 6209TIP3    H218585   6.769   2.993   0.243
 6210TIP3   OH218586   7.197   2.767   5.446
 6210TIP3    H118587   7.249   2.741   5.371
 6210TIP3    H218588   7.207   2.695   5.508
 6211TIP3   OH218589   6.397   6.479   3.353
 6211TIP3    H118590   6.444   6.461   3.435
 6211TIP3    H218591   6.369   6.570   3.361
 6212TIP3   OH218592   7.658   4.348   3.785
 6212TIP3    H118593   7.622   4.374   3.701
 6212TIP3    H218594   7.621   4.410   3.848
 6213TIP3   OH218595   1.803   2.526   1.793
 6213TIP3    H118596   1.753   2.586   1.738
 6213TIP3    H218597   1.867   2.486   1.734
 6214TIP3   OH218598   5.774   4.517   3.371
 6214TIP3    H118599   5.696   4.507   3.317
 6214TIP3    H218600   5.749   4.482   3.457
 6215TIP3   OH218601   3.509   5.745   5.837
 6215TIP3    H118602   3.525   5.651   5.841
 6215TIP3    H218603   3.587   5.785   5.876
 6216TIP3   OH218604   2.916   0.265   2.911
 6216TIP3    H118605   2.874   0.183   2.935
 6216TIP3    H218606   2.844   0.323   2.887
 6217TIP3   OH218607   7.659   6.143   5.223
 6217TIP3    H118608   7.734   6.152   5.281
 6217TIP3    H218609   7.625   6.055   5.240
 6218TIP3   OH218610   6.749   5.841   5.532
 6218TIP3    H118611   6.843   5.826   5.517
 6218TIP3    H218612   6.747   5.892   5.614
 6219TIP3   OH218613   0.804   5.700   6.679
 6219TIP3    H118614   0.744   5.718   6.607
 6219TIP3    H218615   0.885   5.745   6.656
 6220TIP3   OH218616   8.282   1.923   1.670
 6220TIP3    H118617   8.327   1.889   1.747
 6220TIP3    H218618   8.231   1.848   1.637
 6221TIP3   OH218619   5.030   3.161   2.012
 6221TIP3    H118620   5.065   3.105   2.082
 6221TIP3    H218621   5.050   3.250   2.042
 6222TIP3   OH218622   2.645   2.192   2.638
 6222TIP3    H118623   2.676   2.236   2.559
 6222TIP3    H218624   2.556   2.225   2.651
 6223TIP3   OH218625   7.721   2.573   1.180
 6223TIP3    H118626   7.747   2.483   1.202
 6223TIP3    H218627   7.801   2.613   1.147
 6224TIP3   OH218628   3.571   3.887   4.213
 6224TIP3    H118629   3.567   3.973   4.170
 6224TIP3    H218630   3.526   3.900   4.296
 6225TIP3   OH218631   3.089   1.834   2.264
 6225TIP3    H118632   3.092   1.813   2.358
 6225TIP3    H218633   3.105   1.751   2.220
 6226TIP3   OH218634   8.008   0.259   1.883
 6226TIP3    H118635   7.954   0.329   1.847
 6226TIP3    H218636   8.001   0.187   1.820
 6227TIP3   OH218637   7.497   5.004   0.795
 6227TIP3    H118638   7.463   5.014   0.706
 6227TIP3    H218639   7.538   5.088   0.815
 6228TIP3   OH218640   3.657   6.722   5.473
 6228TIP3    H118641   3.642   6.645   5.419
 6228TIP3    H218642   3.745   6.752   5.448
 6229TIP3   OH218643   8.028   4.712   0.427
 6229TIP3    H118644   8.092   4.771   0.387
 6229TIP3    H218645   7.987   4.668   0.352
 6230TIP3   OH218646   6.690   5.144   3.427
 6230TIP3    H118647   6.780   5.127   3.399
 6230TIP3    H218648   6.664   5.222   3.378
 6231TIP3   OH218649   0.707   2.089   0.123
 6231TIP3    H118650   0.655   2.093   0.044
 6231TIP3    H218651   0.724   1.996   0.136
 6232TIP3   OH218652   5.622   0.436   0.674
 6232TIP3    H118653   5.567   0.451   0.751
 6232TIP3    H218654   5.681   0.365   0.700
 6233TIP3   OH218655   2.937   6.183   4.977
 6233TIP3    H118656   2.882   6.115   5.016
 6233TIP3    H218657   2.901   6.265   5.010
 6234TIP3   OH218658   0.138   3.947   3.715
 6234TIP3    H118659   0.161   3.900   3.795
 6234TIP3    H218660   0.204   3.919   3.651
 6235TIP3   OH218661   7.290   6.273   0.291
 6235TIP3    H118662   7.196   6.267   0.272
 6235TIP3    H218663   7.324   6.186   0.271
 6236TIP3   OH218664   3.611   2.787   0.792
 6236TIP3    H118665   3.671   2.814   0.722
 6236TIP3    H218666   3.583   2.869   0.832
 6237TIP3   OH218667   0.685   6.132   0.332
 6237TIP3    H118668   0.664   6.071   0.403
 6237TIP3    H218669   0.626   6.107   0.261
 6238TIP3   OH218670   3.695   5.860   3.296
 6238TIP3    H118671   3.673   5.940   3.248
 6238TIP3    H218672   3.620   5.802   3.281
 6239TIP3   OH218673   5.163   7.335   5.174
 6239TIP3    H118674   5.202   7.419   5.198
 6239TIP3    H218675   5.074   7.356   5.147
 6240TIP3   OH218676   6.951   6.703   4.585
 6240TIP3    H118677   6.864   6.742   4.586
 6240TIP3    H218678   6.981   6.707   4.676
 6241TIP3   OH218679   3.816   1.588   5.945
 6241TIP3    H118680   3.763   1.667   5.959
 6241TIP3    H218681   3.903   1.621   5.921
 6242TIP3   OH218682   5.428   1.702   6.167
 6242TIP3    H118683   5.495   1.753   6.123
 6242TIP3    H218684   5.436   1.727   6.259
 6243TIP3   OH218685   3.391   7.583   0.753
 6243TIP3    H118686   3.386   7.672   0.719
 6243TIP3    H218687   3.420   7.530   0.678
 6244TIP3   OH218688   3.333   0.855   5.969
 6244TIP3    H118689   3.279   0.822   6.041
 6244TIP3    H218690   3.371   0.936   6.003
 6245TIP3   OH218691   4.717   6.108   5.331
 6245TIP3    H118692   4.758   6.023   5.312
 6245TIP3    H218693   4.656   6.089   5.402
 6246TIP3   OH218694   3.710   1.188   3.478
 6246TIP3    H118695   3.641   1.253   3.487
 6246TIP3    H218696   3.766   1.202   3.554
 6247TIP3   OH218697   6.211   1.049   3.832
 6247TIP3    H118698   6.154   1.008   3.897
 6247TIP3    H218699   6.177   1.019   3.748
 6248TIP3   OH218700   4.083   3.681   0.841
 6248TIP3    H118701   4.170   3.700   0.875
 6248TIP3    H218702   4.025   3.689   0.916
 6249TIP3   OH218703   3.121   6.159   3.534
 6249TIP3    H118704   3.114   6.254   3.538
 6249TIP3    H218705   3.090   6.136   3.447
 6250TIP3   OH218706   0.662   2.792   3.058
 6250TIP3    H118707   0.637   2.839   3.138
 6250TIP3    H218708   0.582   2.747   3.030
 6251TIP3   OH218709   2.189   0.753   1.233
 6251TIP3    H118710   2.209   0.760   1.327
 6251TIP3    H218711   2.213   0.664   1.210
 6252TIP3   OH218712   7.449   5.848   2.394
 6252TIP3    H118713   7.491   5.910   2.454
 6252TIP3    H218714   7.383   5.901   2.349
 6253TIP3   OH218715   1.892   3.962   3.408
 6253TIP3    H118716   1.863   4.049   3.437
 6253TIP3    H218717   1.865   3.957   3.316
 6254TIP3   OH218718   6.666   1.376   0.077
 6254TIP3    H118719   6.601   1.307   0.063
 6254TIP3    H218720   6.662   1.430  -0.002
 6255TIP3   OH218721   1.128   5.798   1.271
 6255TIP3    H118722   1.040   5.836   1.264
 6255TIP3    H218723   1.130   5.729   1.205
 6256TIP3   OH218724   3.039   1.058   2.143
 6256TIP3    H118725   3.038   1.097   2.056
 6256TIP3    H218726   2.969   0.993   2.142
 6257TIP3   OH218727   0.010   7.338   5.474
 6257TIP3    H118728  -0.070   7.295   5.503
 6257TIP3    H218729  -0.003   7.355   5.381
 6258TIP3   OH218730   6.374   1.851   0.292
 6258TIP3    H118731   6.299   1.849   0.351
 6258TIP3    H218732   6.431   1.781   0.323
 6259TIP3   OH218733   4.346   3.917   6.653
 6259TIP3    H118734   4.371   3.826   6.634
 6259TIP3    H218735   4.296   3.944   6.576
 6260TIP3   OH218736   2.835   5.881   3.075
 6260TIP3    H118737   2.788   5.801   3.052
 6260TIP3    H218738   2.796   5.909   3.158
 6261TIP3   OH218739   2.721   4.250   3.621
 6261TIP3    H118740   2.755   4.308   3.689
 6261TIP3    H218741   2.662   4.304   3.570
 6262TIP3   OH218742   7.604   6.768   2.549
 6262TIP3    H118743   7.540   6.708   2.587
 6262TIP3    H218744   7.675   6.771   2.613
 6263TIP3   OH218745   0.686   3.836   0.523
 6263TIP3    H118746   0.736   3.765   0.562
 6263TIP3    H218747   0.697   3.909   0.583
 6264TIP3   OH218748   6.847   7.367   5.287
 6264TIP3    H118749   6.892   7.290   5.322
 6264TIP3    H218750   6.802   7.405   5.362
 6265TIP3   OH218751   7.329   3.455   2.425
 6265TIP3    H118752   7.238   3.480   2.407
 6265TIP3    H218753   7.361   3.420   2.342
 6266TIP3   OH218754   4.997   3.798   4.023
 6266TIP3    H118755   5.037   3.805   3.936
 6266TIP3    H218756   5.061   3.750   4.075
 6267TIP3   OH218757   7.233   0.550   1.493
 6267TIP3    H118758   7.145   0.515   1.509
 6267TIP3    H218759   7.271   0.561   1.580
 6268TIP3   OH218760   2.433   5.672   6.435
 6268TIP3    H118761   2.353   5.720   6.413
 6268TIP3    H218762   2.503   5.723   6.397
 6269TIP3   OH218763   7.201   6.988   0.921
 6269TIP3    H118764   7.249   6.953   0.845
 6269TIP3    H218765   7.126   7.034   0.883
 6270TIP3   OH218766   1.793   7.176   0.444
 6270TIP3    H118767   1.815   7.140   0.530
 6270TIP3    H218768   1.755   7.102   0.397
 6271TIP3   OH218769   7.986   4.496   0.623
 6271TIP3    H118770   7.995   4.401   0.616
 6271TIP3    H218771   8.020   4.529   0.540
 6272TIP3   OH218772   6.670   1.138   4.747
 6272TIP3    H118773   6.664   1.045   4.725
 6272TIP3    H218774   6.667   1.183   4.662
 6273TIP3   OH218775   5.495   7.226   6.073
 6273TIP3    H118776   5.553   7.214   5.997
 6273TIP3    H218777   5.420   7.169   6.055
 6274TIP3   OH218778   1.576   0.404   5.869
 6274TIP3    H118779   1.574   0.369   5.780
 6274TIP3    H218780   1.654   0.460   5.871
 6275TIP3   OH218781   7.418   5.565   3.115
 6275TIP3    H118782   7.500   5.602   3.082
 6275TIP3    H218783   7.384   5.513   3.042
 6276TIP3   OH218784   5.491   6.568   5.573
 6276TIP3    H118785   5.533   6.493   5.614
 6276TIP3    H218786   5.442   6.530   5.499
 6277TIP3   OH218787   4.689   3.426   3.436
 6277TIP3    H118788   4.688   3.386   3.349
 6277TIP3    H218789   4.716   3.356   3.494
 6278TIP3   OH218790   3.482   4.464   4.243
 6278TIP3    H118791   3.411   4.405   4.219
 6278TIP3    H218792   3.450   4.511   4.320
 6279TIP3   OH218793   5.555   5.922   1.369
 6279TIP3    H118794   5.484   5.922   1.304
 6279TIP3    H218795   5.533   5.849   1.427
 6280TIP3   OH218796   4.250   4.300   1.607
 6280TIP3    H118797   4.169   4.286   1.558
 6280TIP3    H218798   4.232   4.376   1.662
 6281TIP3   OH218799   0.304   2.334   4.839
 6281TIP3    H118800   0.297   2.357   4.932
 6281TIP3    H218801   0.236   2.267   4.826
 6282TIP3   OH218802   7.170   4.427   5.528
 6282TIP3    H118803   7.175   4.394   5.439
 6282TIP3    H218804   7.244   4.487   5.536
 6283TIP3   OH218805   7.237   7.653   2.331
 6283TIP3    H118806   7.142   7.660   2.327
 6283TIP3    H218807   7.267   7.676   2.243
 6284TIP3   OH218808   8.247   0.659   3.688
 6284TIP3    H118809   8.339   0.635   3.693
 6284TIP3    H218810   8.228   0.662   3.594
 6285TIP3   OH218811   3.568   4.389   4.640
 6285TIP3    H118812   3.646   4.356   4.596
 6285TIP3    H218813   3.599   4.463   4.692
 6286TIP3   OH218814   7.186   1.379   2.273
 6286TIP3    H118815   7.098   1.414   2.290
 6286TIP3    H218816   7.231   1.385   2.357
 6287TIP3   OH218817   5.072   2.481  -0.034
 6287TIP3    H118818   5.150   2.535  -0.024
 6287TIP3    H218819   4.999   2.541  -0.021
 6288TIP3   OH218820   2.822   2.752   6.743
 6288TIP3    H118821   2.895   2.780   6.688
 6288TIP3    H218822   2.855   2.676   6.791
 6289TIP3   OH218823   2.905   6.865   0.494
 6289TIP3    H118824   2.959   6.940   0.519
 6289TIP3    H218825   2.865   6.891   0.411
 6290TIP3   OH218826   8.079   2.554   3.252
 6290TIP3    H118827   8.085   2.532   3.345
 6290TIP3    H218828   8.145   2.498   3.211
 6291TIP3   OH218829   4.083   7.113   4.621
 6291TIP3    H118830   4.141   7.101   4.546
 6291TIP3    H218831   4.136   7.159   4.685
 6292TIP3   OH218832   3.442   0.538   6.116
 6292TIP3    H118833   3.534   0.529   6.139
 6292TIP3    H218834   3.398   0.557   6.199
 6293TIP3   OH218835   2.335   5.429   1.504
 6293TIP3    H118836   2.315   5.365   1.436
 6293TIP3    H218837   2.426   5.413   1.527
 6294TIP3   OH218838   4.864   1.907   2.346
 6294TIP3    H118839   4.785   1.953   2.374
 6294TIP3    H218840   4.843   1.873   2.259
 6295TIP3   OH218841   0.061   4.573   2.524
 6295TIP3    H118842   0.021   4.510   2.464
 6295TIP3    H218843   0.016   4.655   2.505
 6296TIP3   OH218844   4.029   7.367   4.437
 6296TIP3    H118845   4.000   7.424   4.508
 6296TIP3    H218846   3.970   7.387   4.365
 6297TIP3   OH218847   8.168   2.725   5.812
 6297TIP3    H118848   8.262   2.722   5.797
 6297TIP3    H218849   8.159   2.734   5.907
 6298TIP3   OH218850   4.631   6.154   1.287
 6298TIP3    H118851   4.612   6.238   1.244
 6298TIP3    H218852   4.704   6.118   1.236
 6299TIP3   OH218853   5.519   2.891   2.032
 6299TIP3    H118854   5.590   2.837   2.068
 6299TIP3    H218855   5.444   2.832   2.026
 6300TIP3   OH218856   5.755   0.670   5.402
 6300TIP3    H118857   5.678   0.713   5.364
 6300TIP3    H218858   5.829   0.705   5.352
 6301TIP3   OH218859   3.149   0.681   1.186
 6301TIP3    H118860   3.228   0.728   1.157
 6301TIP3    H218861   3.084   0.750   1.199
 6302TIP3   OH218862   4.504   3.005   4.569
 6302TIP3    H118863   4.541   3.023   4.656
 6302TIP3    H218864   4.484   2.911   4.571
 6303TIP3   OH218865   7.961   3.702   5.064
 6303TIP3    H118866   7.938   3.700   5.157
 6303TIP3    H218867   7.879   3.720   5.019
 6304TIP3   OH218868   0.709   2.918   1.197
 6304TIP3    H118869   0.654   2.855   1.151
 6304TIP3    H218870   0.705   2.998   1.144
 6305TIP3   OH218871   5.001   0.476   0.888
 6305TIP3    H118872   4.978   0.463   0.796
 6305TIP3    H218873   5.038   0.392   0.916
 6306TIP3   OH218874   7.185   1.015   4.683
 6306TIP3    H118875   7.195   1.108   4.667
 6306TIP3    H218876   7.092   1.004   4.705
 6307TIP3   OH218877   5.607   6.043   5.351
 6307TIP3    H118878   5.604   6.102   5.276
 6307TIP3    H218879   5.692   6.000   5.344
 6308TIP3   OH218880   4.596   3.221  -0.032
 6308TIP3    H118881   4.668   3.274   0.003
 6308TIP3    H218882   4.621   3.130  -0.011
 6309TIP3   OH218883   2.171   1.463   5.597
 6309TIP3    H118884   2.103   1.521   5.563
 6309TIP3    H218885   2.211   1.513   5.668
 6310TIP3   OH218886   7.953   6.046   0.747
 6310TIP3    H118887   8.002   6.038   0.829
 6310TIP3    H218888   7.907   6.129   0.755
 6311TIP3   OH218889   3.041   3.727   3.401
 6311TIP3    H118890   3.114   3.672   3.429
 6311TIP3    H218891   2.977   3.665   3.365
 6312TIP3   OH218892   4.131   3.748   6.046
 6312TIP3    H118893   4.148   3.665   6.091
 6312TIP3    H218894   4.110   3.722   5.956
 6313TIP3   OH218895   1.563   0.579   5.132
 6313TIP3    H118896   1.622   0.508   5.107
 6313TIP3    H218897   1.619   0.654   5.146
 6314TIP3   OH218898   6.040   4.482   4.871
 6314TIP3    H118899   5.977   4.526   4.928
 6314TIP3    H218900   6.112   4.544   4.862
 6315TIP3   OH218901   2.403   5.114   3.517
 6315TIP3    H118902   2.433   5.090   3.604
 6315TIP3    H218903   2.468   5.076   3.458
 6316TIP3   OH218904   0.171   4.815   5.233
 6316TIP3    H118905   0.150   4.733   5.279
 6316TIP3    H218906   0.116   4.812   5.155
 6317TIP3   OH218907   7.606   4.779   4.889
 6317TIP3    H118908   7.564   4.825   4.961
 6317TIP3    H218909   7.678   4.731   4.929
 6318TIP3   OH218910   5.365   6.431   0.875
 6318TIP3    H118911   5.416   6.445   0.954
 6318TIP3    H218912   5.278   6.466   0.896
 6319TIP3   OH218913   2.206   2.684   5.209
 6319TIP3    H118914   2.268   2.717   5.274
 6319TIP3    H218915   2.205   2.589   5.224
 6320TIP3   OH218916   8.088   4.409   1.669
 6320TIP3    H118917   7.999   4.394   1.701
 6320TIP3    H218918   8.091   4.502   1.647
 6321TIP3   OH218919   3.243   1.374   2.666
 6321TIP3    H118920   3.163   1.391   2.616
 6321TIP3    H218921   3.216   1.314   2.736
 6322TIP3   OH218922   7.627   6.138   0.347
 6322TIP3    H118923   7.680   6.058   0.342
 6322TIP3    H218924   7.661   6.184   0.424
 6323TIP3   OH218925   4.247   1.324   1.996
 6323TIP3    H118926   4.193   1.402   2.001
 6323TIP3    H218927   4.312   1.344   1.929
 6324TIP3   OH218928   3.916   1.656   5.343
 6324TIP3    H118929   3.837   1.663   5.288
 6324TIP3    H218930   3.906   1.572   5.388
 6325TIP3   OH218931   7.811   1.834   4.847
 6325TIP3    H118932   7.903   1.854   4.830
 6325TIP3    H218933   7.811   1.794   4.934
 6326TIP3   OH218934   7.360   2.772   3.026
 6326TIP3    H118935   7.386   2.697   2.972
 6326TIP3    H218936   7.409   2.760   3.108
 6327TIP3   OH218937   4.396   1.407   0.612
 6327TIP3    H118938   4.434   1.400   0.699
 6327TIP3    H218939   4.405   1.500   0.590
 6328TIP3   OH218940   0.077   4.460   0.475
 6328TIP3    H118941  -0.004   4.473   0.425
 6328TIP3    H218942   0.066   4.374   0.515
 6329TIP3   OH218943   5.750   0.446   1.993
 6329TIP3    H118944   5.660   0.471   1.971
 6329TIP3    H218945   5.791   0.528   2.022
 6330TIP3   OH218946   0.903   0.460   5.201
 6330TIP3    H118947   0.807   0.459   5.193
 6330TIP3    H218948   0.930   0.545   5.167
 6331TIP3   OH218949   7.741   7.545   5.921
 6331TIP3    H118950   7.766   7.611   5.985
 6331TIP3    H218951   7.667   7.583   5.874
 6332TIP3   OH218952   4.209   3.231   0.830
 6332TIP3    H118953   4.143   3.270   0.887
 6332TIP3    H218954   4.177   3.142   0.814
 6333TIP3   OH218955   5.826   5.913   3.984
 6333TIP3    H118956   5.846   5.985   3.924
 6333TIP3    H218957   5.731   5.904   3.978
 6334TIP3   OH218958   0.226   0.611   2.903
 6334TIP3    H118959   0.230   0.515   2.895
 6334TIP3    H218960   0.142   0.627   2.946
 6335TIP3   OH218961   2.381   5.165   6.542
 6335TIP3    H118962   2.431   5.170   6.460
 6335TIP3    H218963   2.357   5.256   6.560
 6336TIP3   OH218964   0.178   0.953   3.895
 6336TIP3    H118965   0.148   1.019   3.832
 6336TIP3    H218966   0.107   0.890   3.899
 6337TIP3   OH218967   2.822   6.506   2.170
 6337TIP3    H118968   2.817   6.538   2.079
 6337TIP3    H218969   2.753   6.439   2.175
 6338TIP3   OH218970   3.305   1.285   0.416
 6338TIP3    H118971   3.223   1.311   0.375
 6338TIP3    H218972   3.301   1.323   0.504
 6339TIP3   OH218973  -0.009   4.824   3.723
 6339TIP3    H118974   0.014   4.879   3.648
 6339TIP3    H218975   0.037   4.863   3.797
 6340TIP3   OH218976   1.572   0.847   1.031
 6340TIP3    H118977   1.511   0.898   0.977
 6340TIP3    H218978   1.605   0.780   0.971
 6341TIP3   OH218979   2.244   3.281   1.302
 6341TIP3    H118980   2.167   3.247   1.255
 6341TIP3    H218981   2.240   3.238   1.387
 6342TIP3   OH218982   2.120   5.041   1.100
 6342TIP3    H118983   2.105   5.131   1.072
 6342TIP3    H218984   2.152   4.997   1.021
 6343TIP3   OH218985   3.178   1.971   1.752
 6343TIP3    H118986   3.250   2.000   1.696
 6343TIP3    H218987   3.107   1.949   1.692
 6344TIP3   OH218988   5.083   2.811   6.323
 6344TIP3    H118989   5.129   2.743   6.275
 6344TIP3    H218990   5.123   2.893   6.293
 6345TIP3   OH218991   5.344   5.455   5.648
 6345TIP3    H118992   5.331   5.474   5.740
 6345TIP3    H218993   5.314   5.533   5.602
 6346TIP3   OH218994   5.101   5.500   3.703
 6346TIP3    H118995   5.114   5.451   3.784
 6346TIP3    H218996   5.098   5.591   3.730
 6347TIP3   OH218997   1.250   1.097   5.103
 6347TIP3    H118998   1.215   1.180   5.135
 6347TIP3    H218999   1.260   1.110   5.009
 6348TIP3   OH219000   1.122   1.401   1.428
 6348TIP3    H119001   1.078   1.404   1.343
 6348TIP3    H219002   1.212   1.374   1.408
 6349TIP3   OH219003   0.343   2.829   2.000
 6349TIP3    H119004   0.336   2.782   2.084
 6349TIP3    H219005   0.431   2.867   2.002
 6350TIP3   OH219006   5.962   0.342   0.532
 6350TIP3    H119007   5.897   0.401   0.494
 6350TIP3    H219008   5.925   0.255   0.522
 6351TIP3   OH219009   2.290   6.623   4.212
 6351TIP3    H119010   2.282   6.679   4.289
 6351TIP3    H219011   2.384   6.616   4.197
 6352TIP3   OH219012   1.104   3.453   3.543
 6352TIP3    H119013   1.032   3.397   3.573
 6352TIP3    H219014   1.061   3.532   3.510
 6353TIP3   OH219015   7.010   1.099   5.890
 6353TIP3    H119016   7.066   1.024   5.910
 6353TIP3    H219017   7.030   1.120   5.799
 6354TIP3   OH219018   6.617   6.698   4.856
 6354TIP3    H119019   6.527   6.674   4.877
 6354TIP3    H219020   6.670   6.632   4.900
 6355TIP3   OH219021   5.025   7.732   1.503
 6355TIP3    H119022   5.044   7.638   1.494
 6355TIP3    H219023   4.956   7.736   1.569
 6356TIP3   OH219024   4.062   2.632   5.174
 6356TIP3    H119025   4.007   2.709   5.167
 6356TIP3    H219026   4.115   2.646   5.253
 6357TIP3   OH219027   0.797   5.227   0.496
 6357TIP3    H119028   0.802   5.132   0.486
 6357TIP3    H219029   0.705   5.244   0.515
 6358TIP3   OH219030   1.725   0.382   6.418
 6358TIP3    H119031   1.787   0.447   6.452
 6358TIP3    H219032   1.781   0.310   6.387
 6359TIP3   OH219033   4.761   7.298   5.836
 6359TIP3    H119034   4.670   7.279   5.858
 6359TIP3    H219035   4.768   7.278   5.742
 6360TIP3   OH219036   6.873   7.503   5.845
 6360TIP3    H119037   6.863   7.436   5.777
 6360TIP3    H219038   6.821   7.471   5.918
 6361TIP3   OH219039   4.708   0.707   3.953
 6361TIP3    H119040   4.667   0.679   4.035
 6361TIP3    H219041   4.801   0.710   3.972
 6362TIP3   OH219042   1.148   4.607   4.711
 6362TIP3    H119043   1.167   4.649   4.627
 6362TIP3    H219044   1.231   4.607   4.758
 6363TIP3   OH219045   3.091   4.743   6.206
 6363TIP3    H119046   3.064   4.729   6.115
 6363TIP3    H219047   3.022   4.797   6.244
 6364TIP3   OH219048   2.213   3.687   6.314
 6364TIP3    H119049   2.168   3.767   6.287
 6364TIP3    H219050   2.143   3.627   6.339
 6365TIP3   OH219051   7.718   1.895   1.085
 6365TIP3    H119052   7.716   1.845   1.004
 6365TIP3    H219053   7.810   1.918   1.097
 6366TIP3   OH219054   7.772   1.901   5.727
 6366TIP3    H119055   7.727   1.974   5.682
 6366TIP3    H219056   7.811   1.941   5.804
 6367TIP3   OH219057   5.374   2.353   2.552
 6367TIP3    H119058   5.458   2.315   2.576
 6367TIP3    H219059   5.311   2.283   2.567
 6368TIP3   OH219060   5.618   5.480   2.903
 6368TIP3    H119061   5.594   5.491   2.811
 6368TIP3    H219062   5.561   5.542   2.950
 6369TIP3   OH219063   5.785   6.155   2.181
 6369TIP3    H119064   5.697   6.171   2.216
 6369TIP3    H219065   5.797   6.223   2.115
 6370TIP3   OH219066   1.740   6.622   6.378
 6370TIP3    H119067   1.810   6.688   6.372
 6370TIP3    H219068   1.660   6.672   6.392
 6371TIP3   OH219069   2.046   5.275   6.430
 6371TIP3    H119070   1.998   5.311   6.504
 6371TIP3    H219071   2.063   5.184   6.454
 6372TIP3   OH219072   3.244   2.401   2.567
 6372TIP3    H119073   3.286   2.464   2.626
 6372TIP3    H219074   3.160   2.383   2.607
 6373TIP3   OH219075   7.952   4.161   5.015
 6373TIP3    H119076   7.868   4.177   4.972
 6373TIP3    H219077   7.956   4.065   5.023
 6374TIP3   OH219078   4.246   1.232   3.903
 6374TIP3    H119079   4.329   1.273   3.930
 6374TIP3    H219080   4.195   1.305   3.866
 6375TIP3   OH219081   4.204   4.130   4.041
 6375TIP3    H119082   4.176   4.077   4.115
 6375TIP3    H219083   4.242   4.068   3.979
 6376TIP3   OH219084   6.061   6.780   6.449
 6376TIP3    H119085   6.075   6.750   6.539
 6376TIP3    H219086   6.130   6.736   6.399
 6377TIP3   OH219087   3.337   6.483   5.156
 6377TIP3    H119088   3.293   6.525   5.082
 6377TIP3    H219089   3.422   6.526   5.160
 6378TIP3   OH219090   0.534   3.665   0.311
 6378TIP3    H119091   0.586   3.746   0.316
 6378TIP3    H219092   0.506   3.650   0.402
 6379TIP3   OH219093   5.114   0.090   1.529
 6379TIP3    H119094   5.136   0.180   1.553
 6379TIP3    H219095   5.199   0.047   1.518
 6380TIP3   OH219096   5.967   2.252   3.270
 6380TIP3    H119097   5.901   2.202   3.318
 6380TIP3    H219098   6.051   2.219   3.304
 6381TIP3   OH219099   6.953   4.620   1.482
 6381TIP3    H119100   6.913   4.703   1.456
 6381TIP3    H219101   7.001   4.640   1.562
 6382TIP3   OH219102   0.310   2.899   4.533
 6382TIP3    H119103   0.254   2.911   4.609
 6382TIP3    H219104   0.254   2.919   4.458
 6383TIP3   OH219105   2.044   2.988   1.974
 6383TIP3    H119106   2.066   2.933   2.050
 6383TIP3    H219107   1.949   2.987   1.970
 6384TIP3   OH219108   6.107   5.334   4.629
 6384TIP3    H119109   6.014   5.325   4.607
 6384TIP3    H219110   6.108   5.397   4.702
 6385TIP3   OH219111   3.379   6.549   6.563
 6385TIP3    H119112   3.467   6.542   6.599
 6385TIP3    H219113   3.336   6.617   6.615
 6386TIP3   OH219114   7.198   5.960   3.161
 6386TIP3    H119115   7.228   5.908   3.087
 6386TIP3    H219116   7.250   6.041   3.156
 6387TIP3   OH219117   2.113   1.013   4.480
 6387TIP3    H119118   2.151   0.978   4.400
 6387TIP3    H219119   2.127   0.944   4.545
 6388TIP3   OH219120   5.845   2.919   3.558
 6388TIP3    H119121   5.904   2.930   3.632
 6388TIP3    H219122   5.799   3.002   3.550
 6389TIP3   OH219123   0.500   0.074   1.718
 6389TIP3    H119124   0.569   0.115   1.666
 6389TIP3    H219125   0.475   0.141   1.781
 6390TIP3   OH219126   0.233   5.139   4.741
 6390TIP3    H119127   0.262   5.068   4.799
 6390TIP3    H219128   0.159   5.178   4.787
 6391TIP3   OH219129   0.955   0.933   2.438
 6391TIP3    H119130   0.979   0.892   2.355
 6391TIP3    H219131   1.017   0.898   2.501
 6392TIP3   OH219132   3.409   5.682   0.134
 6392TIP3    H119133   3.481   5.658   0.076
 6392TIP3    H219134   3.350   5.607   0.133
 6393TIP3   OH219135   3.168   6.955   3.312
 6393TIP3    H119136   3.084   6.995   3.289
 6393TIP3    H219137   3.197   6.914   3.230
 6394TIP3   OH219138   5.472   0.714   2.035
 6394TIP3    H119139   5.444   0.757   1.954
 6394TIP3    H219140   5.567   0.706   2.027
 6395TIP3   OH219141   7.060   0.596   5.664
 6395TIP3    H119142   7.036   0.677   5.709
 6395TIP3    H219143   7.155   0.588   5.678
 6396TIP3   OH219144   6.005   1.399   2.275
 6396TIP3    H119145   6.101   1.395   2.280
 6396TIP3    H219146   5.985   1.493   2.269
 6397TIP3   OH219147   6.655   2.905   2.111
 6397TIP3    H119148   6.670   2.998   2.131
 6397TIP3    H219149   6.735   2.876   2.068
 6398TIP3   OH219150   5.068   2.109   5.892
 6398TIP3    H119151   4.995   2.134   5.835
 6398TIP3    H219152   5.071   2.014   5.886
 6399TIP3   OH219153   2.485   6.329   0.533
 6399TIP3    H119154   2.556   6.268   0.549
 6399TIP3    H219155   2.445   6.343   0.619
 6400TIP3   OH219156   3.221   4.340   0.246
 6400TIP3    H119157   3.252   4.317   0.158
 6400TIP3    H219158   3.155   4.408   0.231
 6401TIP3   OH219159   5.975   5.436   0.741
 6401TIP3    H119160   6.002   5.498   0.808
 6401TIP3    H219161   6.034   5.361   0.751
 6402TIP3   OH219162   6.322   4.000   4.636
 6402TIP3    H119163   6.335   4.053   4.556
 6402TIP3    H219164   6.242   4.035   4.674
 6403TIP3   OH219165   6.338   0.183   1.292
 6403TIP3    H119166   6.263   0.123   1.297
 6403TIP3    H219167   6.299   0.267   1.268
 6404TIP3   OH219168   6.806   6.001   4.751
 6404TIP3    H119169   6.812   6.086   4.796
 6404TIP3    H219170   6.786   5.938   4.820
 6405TIP3   OH219171   3.312   5.899   6.013
 6405TIP3    H119172   3.374   5.826   6.021
 6405TIP3    H219173   3.360   5.975   6.047
 6406TIP3   OH219174   1.530   1.376   5.135
 6406TIP3    H119175   1.533   1.471   5.131
 6406TIP3    H219176   1.494   1.357   5.222
 6407TIP3   OH219177   7.392   7.426   6.591
 6407TIP3    H119178   7.398   7.340   6.549
 6407TIP3    H219179   7.372   7.407   6.682
 6408TIP3   OH219180   4.763   0.187   4.575
 6408TIP3    H119181   4.728   0.111   4.528
 6408TIP3    H219182   4.858   0.182   4.561
 6409TIP3   OH219183   6.446   1.296   4.366
 6409TIP3    H119184   6.363   1.325   4.402
 6409TIP3    H219185   6.490   1.377   4.339
 6410TIP3   OH219186   7.617   3.931   0.080
 6410TIP3    H119187   7.594   3.840   0.062
 6410TIP3    H219188   7.578   3.949   0.166
 6411TIP3   OH219189   6.931   2.726   1.161
 6411TIP3    H119190   6.926   2.803   1.104
 6411TIP3    H219191   6.861   2.669   1.129
 6412TIP3   OH219192   5.812   3.008   0.817
 6412TIP3    H119193   5.898   2.975   0.843
 6412TIP3    H219194   5.829   3.095   0.782
 6413TIP3   OH219195   5.294   0.320   5.868
 6413TIP3    H119196   5.375   0.312   5.818
 6413TIP3    H219197   5.228   0.279   5.812
 6414TIP3   OH219198   7.281   6.690   0.025
 6414TIP3    H119199   7.252   6.771  -0.016
 6414TIP3    H219200   7.237   6.621  -0.024
 6415TIP3   OH219201   7.094   7.386   3.868
 6415TIP3    H119202   7.122   7.388   3.777
 6415TIP3    H219203   7.060   7.297   3.880
 6416TIP3   OH219204   2.218   5.673   5.758
 6416TIP3    H119205   2.144   5.725   5.726
 6416TIP3    H219206   2.266   5.649   5.678
 6417TIP3   OH219207   3.384   3.419   1.685
 6417TIP3    H119208   3.390   3.325   1.704
 6417TIP3    H219209   3.395   3.461   1.770
 6418TIP3   OH219210   7.079   4.712   1.707
 6418TIP3    H119211   7.025   4.656   1.762
 6418TIP3    H219212   7.152   4.738   1.763
 6419TIP3   OH219213   2.495   6.612   2.203
 6419TIP3    H119214   2.558   6.647   2.140
 6419TIP3    H219215   2.504   6.517   2.194
 6420TIP3   OH219216   5.629   7.528   4.393
 6420TIP3    H119217   5.642   7.619   4.422
 6420TIP3    H219218   5.548   7.531   4.341
 6421TIP3   OH219219   3.742   0.802   4.774
 6421TIP3    H119220   3.750   0.743   4.849
 6421TIP3    H219221   3.800   0.765   4.707
 6422TIP3   OH219222   6.304   4.618   0.202
 6422TIP3    H119223   6.301   4.616   0.298
 6422TIP3    H219224   6.335   4.531   0.178
 6423TIP3   OH219225   5.170   4.060   5.842
 6423TIP3    H119226   5.107   4.079   5.773
 6423TIP3    H219227   5.227   3.993   5.804
 6424TIP3   OH219228   1.064   2.481   6.431
 6424TIP3    H119229   1.074   2.575   6.419
 6424TIP3    H219230   1.039   2.471   6.523
 6425TIP3   OH219231   6.465   6.609   1.222
 6425TIP3    H119232   6.435   6.567   1.141
 6425TIP3    H219233   6.478   6.701   1.198
 6426TIP3   OH219234   4.778   6.027   3.917
 6426TIP3    H119235   4.754   6.117   3.897
 6426TIP3    H219236   4.775   6.022   4.013
 6427TIP3   OH219237   2.301   6.253   4.285
 6427TIP3    H119238   2.307   6.176   4.341
 6427TIP3    H219239   2.391   6.284   4.276
 6428TIP3   OH219240   3.115   0.379   1.879
 6428TIP3    H119241   3.151   0.291   1.874
 6428TIP3    H219242   3.106   0.396   1.973
 6429TIP3   OH219243   3.473   4.003   2.599
 6429TIP3    H119244   3.415   4.036   2.531
 6429TIP3    H219245   3.549   3.968   2.552
 6430TIP3   OH219246   6.696   3.515   5.730
 6430TIP3    H119247   6.616   3.484   5.688
 6430TIP3    H219248   6.727   3.586   5.674
 6431TIP3   OH219249   7.106   0.782   6.279
 6431TIP3    H119250   7.189   0.829   6.273
 6431TIP3    H219251   7.039   0.849   6.267
 6432TIP3   OH219252   0.543   7.489   3.641
 6432TIP3    H119253   0.564   7.396   3.634
 6432TIP3    H219254   0.611   7.525   3.698
 6433TIP3   OH219255   1.055   6.562   1.013
 6433TIP3    H119256   1.089   6.576   1.101
 6433TIP3    H219257   0.979   6.621   1.007
 6434TIP3   OH219258   6.984   5.060   2.889
 6434TIP3    H119259   6.897   5.069   2.928
 6434TIP3    H219260   6.975   5.092   2.800
 6435TIP3   OH219261   5.904   6.654   2.019
 6435TIP3    H119262   5.826   6.625   2.066
 6435TIP3    H219263   5.911   6.747   2.038
 6436TIP3   OH219264   7.618   4.160   6.571
 6436TIP3    H119265   7.700   4.209   6.579
 6436TIP3    H219266   7.628   4.087   6.632
 6437TIP3   OH219267   8.058   1.379   5.659
 6437TIP3    H119268   8.004   1.410   5.586
 6437TIP3    H219269   8.124   1.324   5.617
 6438TIP3   OH219270   2.633   1.652   1.914
 6438TIP3    H119271   2.657   1.646   2.006
 6438TIP3    H219272   2.547   1.609   1.910
 6439TIP3   OH219273   1.749   0.559   0.120
 6439TIP3    H119274   1.673   0.617   0.113
 6439TIP3    H219275   1.713   0.473   0.139
 6440TIP3   OH219276   4.171   3.654   2.130
 6440TIP3    H119277   4.256   3.650   2.175
 6440TIP3    H219278   4.121   3.718   2.180
 6441TIP3   OH219279   6.135   4.220   5.091
 6441TIP3    H119280   6.174   4.150   5.039
 6441TIP3    H219281   6.201   4.242   5.157
 6442TIP3   OH219282   5.818   7.408   6.440
 6442TIP3    H119283   5.763   7.350   6.388
 6442TIP3    H219284   5.786   7.496   6.421
 6443TIP3   OH219285   7.804   0.086   0.541
 6443TIP3    H119286   7.754   0.128   0.470
 6443TIP3    H219287   7.892   0.122   0.532
 6444TIP3   OH219288   0.418   2.758   5.001
 6444TIP3    H119289   0.429   2.828   4.937
 6444TIP3    H219290   0.323   2.751   5.014
 6445TIP3   OH219291   6.973   3.346   6.371
 6445TIP3    H119292   6.878   3.338   6.377
 6445TIP3    H219293   7.004   3.334   6.461
 6446TIP3   OH219294   8.128   6.464   0.061
 6446TIP3    H119295   8.088   6.380   0.039
 6446TIP3    H219296   8.201   6.473   0.000
 6447TIP3   OH219297   4.960   4.284   4.624
 6447TIP3    H119298   4.897   4.295   4.552
 6447TIP3    H219299   4.922   4.334   4.697
 6448TIP3   OH219300   4.192   1.823   6.168
 6448TIP3    H119301   4.113   1.824   6.222
 6448TIP3    H219302   4.213   1.730   6.158
 6449TIP3   OH219303   2.367   7.416   6.343
 6449TIP3    H119304   2.352   7.397   6.250
 6449TIP3    H219305   2.341   7.336   6.388
 6450TIP3   OH219306   4.242   6.096   4.441
 6450TIP3    H119307   4.221   6.006   4.416
 6450TIP3    H219308   4.178   6.119   4.508
 6451TIP3   OH219309   6.434   5.347   1.794
 6451TIP3    H119310   6.527   5.351   1.772
 6451TIP3    H219311   6.399   5.432   1.767
 6452TIP3   OH219312   3.467   2.844   2.483
 6452TIP3    H119313   3.389   2.788   2.485
 6452TIP3    H219314   3.459   2.893   2.401
 6453TIP3   OH219315   4.017   4.870   5.827
 6453TIP3    H119316   3.992   4.790   5.780
 6453TIP3    H219317   4.113   4.870   5.824
 6454TIP3   OH219318   6.732   1.387   0.345
 6454TIP3    H119319   6.794   1.458   0.361
 6454TIP3    H219320   6.708   1.394   0.253
 6455TIP3   OH219321   7.800   3.739   4.743
 6455TIP3    H119322   7.796   3.645   4.725
 6455TIP3    H219323   7.719   3.774   4.706
 6456TIP3   OH219324   7.447   3.286   2.202
 6456TIP3    H119325   7.540   3.272   2.220
 6456TIP3    H219326   7.407   3.200   2.214
 6457TIP3   OH219327   1.524   4.854   1.146
 6457TIP3    H119328   1.465   4.790   1.187
 6457TIP3    H219329   1.527   4.828   1.054
 6458TIP3   OH219330   5.576   3.534   0.585
 6458TIP3    H119331   5.549   3.550   0.495
 6458TIP3    H219332   5.658   3.486   0.577
 6459TIP3   OH219333   4.351   4.057   2.178
 6459TIP3    H119334   4.401   4.099   2.108
 6459TIP3    H219335   4.394   3.973   2.191
 6460TIP3   OH219336   1.047   6.577   2.824
 6460TIP3    H119337   1.013   6.494   2.857
 6460TIP3    H219338   1.137   6.558   2.800
 6461TIP3   OH219339   3.412   4.214   1.191
 6461TIP3    H119340   3.483   4.259   1.237
 6461TIP3    H219341   3.389   4.141   1.248
 6462TIP3   OH219342   6.673   0.870   6.695
 6462TIP3    H119343   6.719   0.953   6.702
 6462TIP3    H219344   6.698   0.836   6.608
 6463TIP3   OH219345   7.084   3.177   2.496
 6463TIP3    H119346   7.001   3.203   2.456
 6463TIP3    H219347   7.117   3.257   2.538
 6464TIP3   OH219348   4.880   6.862   5.896
 6464TIP3    H119349   4.807   6.914   5.930
 6464TIP3    H219350   4.856   6.843   5.805
 6465TIP3   OH219351   0.580   0.151   0.484
 6465TIP3    H119352   0.521   0.146   0.409
 6465TIP3    H219353   0.599   0.245   0.493
 6466TIP3   OH219354   6.506   0.495   3.460
 6466TIP3    H119355   6.475   0.585   3.464
 6466TIP3    H219356   6.555   0.483   3.541
 6467TIP3   OH219357   4.512   7.190   5.869
 6467TIP3    H119358   4.446   7.248   5.906
 6467TIP3    H219359   4.472   7.153   5.791
 6468TIP3   OH219360   6.649   0.637   6.237
 6468TIP3    H119361   6.645   0.543   6.253
 6468TIP3    H219362   6.721   0.668   6.292
 6469TIP3   OH219363   3.955   6.347   0.895
 6469TIP3    H119364   3.951   6.251   0.900
 6469TIP3    H219365   3.890   6.370   0.828
 6470TIP3   OH219366   3.020   5.400   6.167
 6470TIP3    H119367   3.058   5.324   6.210
 6470TIP3    H219368   3.072   5.410   6.087
 6471TIP3   OH219369   4.543   5.234   4.018
 6471TIP3    H119370   4.636   5.220   4.038
 6471TIP3    H219371   4.524   5.322   4.052
 6472TIP3   OH219372   0.949   4.430   5.789
 6472TIP3    H119373   0.988   4.405   5.705
 6472TIP3    H219374   0.871   4.480   5.766
 6473TIP3   OH219375   2.250   5.070   2.393
 6473TIP3    H119376   2.275   5.146   2.341
 6473TIP3    H219377   2.265   4.995   2.334
 6474TIP3   OH219378   1.903   2.164   0.105
 6474TIP3    H119379   1.884   2.249   0.065
 6474TIP3    H219380   1.998   2.164   0.117
 6475TIP3   OH219381   4.456   2.274   6.010
 6475TIP3    H119382   4.499   2.189   5.997
 6475TIP3    H219383   4.365   2.258   5.985
 6476TIP3   OH219384   6.108   4.261   2.217
 6476TIP3    H119385   6.137   4.181   2.260
 6476TIP3    H219386   6.189   4.311   2.203
 6477TIP3   OH219387   1.907   0.850   3.403
 6477TIP3    H119388   1.873   0.939   3.393
 6477TIP3    H219389   1.922   0.821   3.313
 6478TIP3   OH219390   5.340   0.865   1.843
 6478TIP3    H119391   5.363   0.935   1.782
 6478TIP3    H219392   5.259   0.895   1.883
 6479TIP3   OH219393   4.115   4.423   5.484
 6479TIP3    H119394   4.173   4.350   5.464
 6479TIP3    H219395   4.030   4.397   5.449
 6480TIP3   OH219396   7.827   5.370   2.807
 6480TIP3    H119397   7.877   5.402   2.731
 6480TIP3    H219398   7.836   5.440   2.872
 6481TIP3   OH219399   3.894   1.172   0.690
 6481TIP3    H119400   3.911   1.083   0.657
 6481TIP3    H219401   3.859   1.158   0.778
 6482TIP3   OH219402   2.854   4.328   6.040
 6482TIP3    H119403   2.804   4.257   6.000
 6482TIP3    H219404   2.813   4.408   6.008
 6483TIP3   OH219405   3.166   0.627   4.989
 6483TIP3    H119406   3.105   0.699   4.972
 6483TIP3    H219407   3.153   0.605   5.081
 6484TIP3   OH219408   0.192   0.992   4.255
 6484TIP3    H119409   0.252   1.031   4.192
 6484TIP3    H219410   0.234   1.006   4.340
 6485TIP3   OH219411   1.879   0.699   1.397
 6485TIP3    H119412   1.945   0.655   1.450
 6485TIP3    H219413   1.925   0.721   1.316
 6486TIP3   OH219414   0.863   1.967   3.009
 6486TIP3    H119415   0.871   1.907   3.084
 6486TIP3    H219416   0.770   1.990   3.006
 6487TIP3   OH219417   7.546   0.950   0.063
 6487TIP3    H119418   7.451   0.955   0.055
 6487TIP3    H219419   7.569   0.863   0.030
 6488TIP3   OH219420   0.372   7.317   1.248
 6488TIP3    H119421   0.280   7.311   1.220
 6488TIP3    H219422   0.381   7.247   1.313
 6489TIP3   OH219423   4.423   5.522   4.100
 6489TIP3    H119424   4.372   5.551   4.024
 6489TIP3    H219425   4.366   5.460   4.145
 6490TIP3   OH219426   2.620   2.943   2.140
 6490TIP3    H119427   2.672   2.972   2.065
 6490TIP3    H219428   2.530   2.942   2.108
 6491TIP3   OH219429   3.643   3.696   1.684
 6491TIP3    H119430   3.646   3.612   1.729
 6491TIP3    H219431   3.614   3.758   1.751
 6492TIP3   OH219432   0.084   3.518   3.923
 6492TIP3    H119433   0.006   3.469   3.896
 6492TIP3    H219434   0.050   3.587   3.980
 6493TIP3   OH219435   8.330   7.383   0.512
 6493TIP3    H119436   8.266   7.341   0.569
 6493TIP3    H219437   8.281   7.404   0.432
 6494TIP3   OH219438   5.988   1.012   6.353
 6494TIP3    H119439   6.071   0.989   6.396
 6494TIP3    H219440   6.000   1.102   6.324
 6495TIP3   OH219441   2.875   2.557   1.303
 6495TIP3    H119442   2.834   2.526   1.222
 6495TIP3    H219443   2.925   2.634   1.276
 6496TIP3   OH219444   0.121   6.319   3.048
 6496TIP3    H119445   0.196   6.260   3.059
 6496TIP3    H219446   0.140   6.393   3.106
 6497TIP3   OH219447   1.482   6.488   0.635
 6497TIP3    H119448   1.421   6.416   0.651
 6497TIP3    H219449   1.505   6.520   0.722
 6498TIP3   OH219450   5.042   5.048   3.927
 6498TIP3    H119451   5.051   5.078   4.017
 6498TIP3    H219452   4.966   4.989   3.929
 6499TIP3   OH219453   1.979   7.020   5.533
 6499TIP3    H119454   1.887   7.012   5.557
 6499TIP3    H219455   1.982   7.000   5.439
 6500TIP3   OH219456   7.428   3.404   3.065
 6500TIP3    H119457   7.407   3.448   2.982
 6500TIP3    H219458   7.506   3.352   3.044
 6501TIP3   OH219459   7.649   7.259   5.254
 6501TIP3    H119460   7.685   7.183   5.209
 6501TIP3    H219461   7.676   7.247   5.345
 6502TIP3   OH219462   5.080   7.553   6.113
 6502TIP3    H119463   5.170   7.574   6.088
 6502TIP3    H219464   5.061   7.471   6.068
 6503TIP3   OH219465   7.313   1.239   0.102
 6503TIP3    H119466   7.265   1.287   0.169
 6503TIP3    H219467   7.343   1.307   0.042
 6504TIP3   OH219468   4.206   6.601   2.806
 6504TIP3    H119469   4.171   6.518   2.775
 6504TIP3    H219470   4.294   6.580   2.839
 6505TIP3   OH219471   0.568   1.988   5.979
 6505TIP3    H119472   0.500   1.991   6.046
 6505TIP3    H219473   0.539   1.921   5.918
 6506TIP3   OH219474   4.857   5.551   0.579
 6506TIP3    H119475   4.847   5.457   0.591
 6506TIP3    H219476   4.862   5.586   0.668
 6507TIP3   OH219477   7.611   7.785   3.315
 6507TIP3    H119478   7.527   7.823   3.340
 6507TIP3    H219479   7.589   7.721   3.247
 6508TIP3   OH219480   6.699   7.177   0.110
 6508TIP3    H119481   6.672   7.260   0.148
 6508TIP3    H219482   6.656   7.175   0.024
 6509TIP3   OH219483   2.578   1.450   3.045
 6509TIP3    H119484   2.515   1.484   3.108
 6509TIP3    H219485   2.646   1.518   3.041
 6510TIP3   OH219486   5.327   3.491   2.849
 6510TIP3    H119487   5.243   3.518   2.884
 6510TIP3    H219488   5.375   3.457   2.925
 6511TIP3   OH219489   6.603   0.384   1.815
 6511TIP3    H119490   6.590   0.292   1.835
 6511TIP3    H219491   6.686   0.407   1.856
 6512TIP3   OH219492   2.526   2.088   6.687
 6512TIP3    H119493   2.579   2.014   6.715
 6512TIP3    H219494   2.521   2.080   6.592
 6513TIP3   OH219495   8.314   4.717   6.423
 6513TIP3    H119496   8.300   4.730   6.517
 6513TIP3    H219497   8.228   4.732   6.383
 6514TIP3   OH219498   5.182   0.901   2.127
 6514TIP3    H119499   5.269   0.917   2.091
 6514TIP3    H219500   5.190   0.926   2.219
 6515TIP3   OH219501   4.710   6.534   6.163
 6515TIP3    H119502   4.701   6.572   6.076
 6515TIP3    H219503   4.621   6.527   6.196
 6516TIP3   OH219504   2.367   6.921   3.030
 6516TIP3    H119505   2.399   6.992   3.086
 6516TIP3    H219506   2.425   6.922   2.955
 6517TIP3   OH219507   3.127   3.225   0.338
 6517TIP3    H119508   3.118   3.318   0.318
 6517TIP3    H219509   3.163   3.187   0.257
 6518TIP3   OH219510   2.812   3.339   1.571
 6518TIP3    H119511   2.764   3.387   1.503
 6518TIP3    H219512   2.751   3.332   1.644
 6519TIP3   OH219513   7.055   3.615   2.039
 6519TIP3    H119514   6.967   3.579   2.046
 6519TIP3    H219515   7.113   3.539   2.051
 6520TIP3   OH219516   1.182   1.496   0.487
 6520TIP3    H119517   1.194   1.492   0.393
 6520TIP3    H219518   1.253   1.552   0.519
 6521TIP3   OH219519   2.641   7.015   2.250
 6521TIP3    H119520   2.671   7.092   2.202
 6521TIP3    H219521   2.575   6.975   2.193
 6522TIP3   OH219522   5.683   1.507   6.296
 6522TIP3    H119523   5.763   1.540   6.254
 6522TIP3    H219524   5.614   1.525   6.232
 6523TIP3   OH219525   0.572   6.590   0.214
 6523TIP3    H119526   0.584   6.643   0.135
 6523TIP3    H219527   0.538   6.507   0.182
 6524TIP3   OH219528   0.049   1.285   3.693
 6524TIP3    H119529   0.111   1.213   3.680
 6524TIP3    H219530   0.061   1.312   3.784
 6525TIP3   OH219531   0.999   3.084   4.034
 6525TIP3    H119532   1.000   3.135   3.952
 6525TIP3    H219533   0.930   3.020   4.021
 6526TIP3   OH219534   4.619   7.077   6.741
 6526TIP3    H119535   4.621   7.022   6.663
 6526TIP3    H219536   4.707   7.070   6.778
 6527TIP3   OH219537   5.175   1.802   5.104
 6527TIP3    H119538   5.082   1.822   5.111
 6527TIP3    H219539   5.209   1.866   5.041
 6528TIP3   OH219540   5.140   0.796   3.032
 6528TIP3    H119541   5.193   0.824   3.107
 6528TIP3    H219542   5.054   0.836   3.048
 6529TIP3   OH219543   3.082   5.214   5.257
 6529TIP3    H119544   3.121   5.273   5.321
 6529TIP3    H219545   3.156   5.171   5.214
 6530TIP3   OH219546   7.890   4.252   2.327
 6530TIP3    H119547   7.918   4.170   2.368
 6530TIP3    H219548   7.861   4.226   2.239
 6531TIP3   OH219549   4.436   6.640   6.210
 6531TIP3    H119550   4.437   6.721   6.262
 6531TIP3    H219551   4.478   6.664   6.128
 6532TIP3   OH219552   0.174   7.177   6.321
 6532TIP3    H119553   0.107   7.110   6.307
 6532TIP3    H219554   0.142   7.253   6.273
 6533TIP3   OH219555   1.653   5.911   2.462
 6533TIP3    H119556   1.581   5.915   2.399
 6533TIP3    H219557   1.644   5.992   2.513
 6534TIP3   OH219558   8.157   2.911   3.892
 6534TIP3    H119559   8.167   2.832   3.945
 6534TIP3    H219560   8.233   2.964   3.914
 6535TIP3   OH219561   2.585   2.448   0.826
 6535TIP3    H119562   2.593   2.465   0.733
 6535TIP3    H219563   2.671   2.417   0.853
 6536TIP3   OH219564   4.816   7.596   5.291
 6536TIP3    H119565   4.852   7.517   5.332
 6536TIP3    H219566   4.722   7.580   5.288
 6537TIP3   OH219567   6.983   5.144   6.182
 6537TIP3    H119568   7.008   5.149   6.274
 6537TIP3    H219569   6.900   5.096   6.182
 6538TIP3   OH219570   7.769   2.558   3.521
 6538TIP3    H119571   7.732   2.501   3.454
 6538TIP3    H219572   7.863   2.542   3.518
 6539TIP3   OH219573   6.250   6.371   5.545
 6539TIP3    H119574   6.313   6.426   5.592
 6539TIP3    H219575   6.237   6.295   5.601
 6540TIP3   OH219576   6.638   1.986   4.470
 6540TIP3    H119577   6.546   2.003   4.450
 6540TIP3    H219578   6.671   2.071   4.500
 6541TIP3   OH219579   6.336   5.401   6.737
 6541TIP3    H119580   6.373   5.340   6.801
 6541TIP3    H219581   6.242   5.398   6.753
 6542TIP3   OH219582   8.114   2.187   4.127
 6542TIP3    H119583   8.153   2.219   4.046
 6542TIP3    H219584   8.026   2.224   4.129
 6543TIP3   OH219585   5.568   4.587   1.202
 6543TIP3    H119586   5.480   4.614   1.230
 6543TIP3    H219587   5.614   4.670   1.188
 6544TIP3   OH219588   5.463   7.440   0.678
 6544TIP3    H119589   5.465   7.364   0.620
 6544TIP3    H219590   5.517   7.414   0.753
 6545TIP3   OH219591   5.742   3.356   1.471
 6545TIP3    H119592   5.670   3.384   1.415
 6545TIP3    H219593   5.805   3.317   1.411
 6546TIP3   OH219594   5.404   4.790   0.629
 6546TIP3    H119595   5.456   4.734   0.686
 6546TIP3    H219596   5.349   4.841   0.688
 6547TIP3   OH219597   8.224   0.857   4.233
 6547TIP3    H119598   8.188   0.870   4.145
 6547TIP3    H219599   8.313   0.892   4.228
 6548TIP3   OH219600   3.778   5.187   6.194
 6548TIP3    H119601   3.801   5.150   6.109
 6548TIP3    H219602   3.788   5.114   6.256
 6549TIP3   OH219603   0.437   1.002   6.151
 6549TIP3    H119604   0.502   0.980   6.218
 6549TIP3    H219605   0.353   0.994   6.196
 6550TIP3   OH219606   0.151   4.986   2.135
 6550TIP3    H119607   0.129   4.897   2.164
 6550TIP3    H219608   0.215   4.973   2.066
 6551TIP3   OH219609   3.440   0.012   3.686
 6551TIP3    H119610   3.386   0.080   3.727
 6551TIP3    H219611   3.404   0.001   3.599
 6552TIP3   OH219612   4.112   5.756   2.358
 6552TIP3    H119613   4.061   5.736   2.437
 6552TIP3    H219614   4.061   5.718   2.287
 6553TIP3   OH219615   8.211   4.506   4.838
 6553TIP3    H119616   8.265   4.548   4.771
 6553TIP3    H219617   8.191   4.420   4.801
 6554TIP3   OH219618   7.048   5.962   2.094
 6554TIP3    H119619   6.998   5.926   2.168
 6554TIP3    H219620   6.981   5.991   2.032
 6555TIP3   OH219621   3.457   5.751   4.742
 6555TIP3    H119622   3.451   5.656   4.747
 6555TIP3    H219623   3.403   5.775   4.667
 6556TIP3   OH219624   1.088   4.636   4.983
 6556TIP3    H119625   1.105   4.633   4.889
 6556TIP3    H219626   1.006   4.588   4.993
 6557TIP3   OH219627   7.922   2.025   6.149
 6557TIP3    H119628   7.917   2.002   6.241
 6557TIP3    H219629   7.931   1.941   6.103
 6558TIP3   OH219630   1.978   2.082   4.761
 6558TIP3    H119631   1.994   2.054   4.851
 6558TIP3    H219632   2.050   2.043   4.711
 6559TIP3   OH219633   5.814   6.429   3.860
 6559TIP3    H119634   5.788   6.403   3.772
 6559TIP3    H219635   5.739   6.480   3.893
 6560TIP3   OH219636   6.646   3.473   1.996
 6560TIP3    H119637   6.558   3.438   1.982
 6560TIP3    H219638   6.634   3.567   2.007
 6561TIP3   OH219639   4.440   6.975   1.082
 6561TIP3    H119640   4.408   7.012   0.999
 6561TIP3    H219641   4.363   6.934   1.121
 6562TIP3   OH219642   0.051   1.457   5.046
 6562TIP3    H119643   0.117   1.500   5.100
 6562TIP3    H219644   0.064   1.493   4.958
 6563TIP3   OH219645   3.526   7.547   5.214
 6563TIP3    H119646   3.557   7.627   5.172
 6563TIP3    H219647   3.475   7.577   5.289
 6564TIP3   OH219648   0.776   3.496   6.000
 6564TIP3    H119649   0.828   3.481   6.079
 6564TIP3    H219650   0.810   3.578   5.964
 6565TIP3   OH219651   6.509   6.619   6.476
 6565TIP3    H119652   6.538   6.691   6.421
 6565TIP3    H219653   6.478   6.661   6.556
 6566TIP3   OH219654   0.337   2.380   4.384
 6566TIP3    H119655   0.324   2.453   4.324
 6566TIP3    H219656   0.376   2.311   4.330
 6567TIP3   OH219657   2.157   6.743   2.896
 6567TIP3    H119658   2.169   6.809   2.828
 6567TIP3    H219659   2.071   6.704   2.876
 6568TIP3   OH219660   1.327   1.917   4.944
 6568TIP3    H119661   1.251   1.976   4.940
 6568TIP3    H219662   1.348   1.901   4.852
 6569TIP3   OH219663   4.361   2.144   5.665
 6569TIP3    H119664   4.317   2.158   5.748
 6569TIP3    H219665   4.302   2.087   5.615
 6570TIP3   OH219666   1.408   0.862   4.714
 6570TIP3    H119667   1.408   0.880   4.620
 6570TIP3    H219668   1.495   0.825   4.731
 6571TIP3   OH219669   3.586   0.396   1.567
 6571TIP3    H119670   3.535   0.422   1.643
 6571TIP3    H219671   3.674   0.429   1.585
 6572TIP3   OH219672   2.089   3.829   5.107
 6572TIP3    H119673   2.167   3.823   5.163
 6572TIP3    H219674   2.030   3.888   5.154
 6573TIP3   OH219675   0.427   2.592   3.410
 6573TIP3    H119676   0.420   2.667   3.469
 6573TIP3    H219677   0.508   2.548   3.435
 6574TIP3   OH219678   0.986   5.798   4.907
 6574TIP3    H119679   1.018   5.889   4.913
 6574TIP3    H219680   1.061   5.748   4.877
 6575TIP3   OH219681   2.312   7.668   1.656
 6575TIP3    H119682   2.339   7.724   1.583
 6575TIP3    H219683   2.219   7.689   1.668
 6576TIP3   OH219684   2.633   2.179   6.147
 6576TIP3    H119685   2.550   2.226   6.137
 6576TIP3    H219686   2.644   2.130   6.065
 6577TIP3   OH219687   6.510   3.645   1.719
 6577TIP3    H119688   6.561   3.721   1.749
 6577TIP3    H219689   6.573   3.593   1.668
 6578TIP3   OH219690   0.402   0.798   1.199
 6578TIP3    H119691   0.403   0.791   1.295
 6578TIP3    H219692   0.370   0.886   1.182
 6579TIP3   OH219693  -0.042   3.041   6.567
 6579TIP3    H119694   0.005   2.975   6.517
 6579TIP3    H219695  -0.033   3.121   6.515
 6580TIP3   OH219696   5.620   4.992   0.618
 6580TIP3    H119697   5.559   4.919   0.612
 6580TIP3    H219698   5.654   4.989   0.707
 6581TIP3   OH219699   6.059   6.404   2.456
 6581TIP3    H119700   5.973   6.363   2.459
 6581TIP3    H219701   6.041   6.497   2.445
 6582TIP3   OH219702   1.578   3.007   4.612
 6582TIP3    H119703   1.528   2.939   4.656
 6582TIP3    H219704   1.669   2.988   4.634
 6583TIP3   OH219705   2.322   2.702   2.435
 6583TIP3    H119706   2.405   2.708   2.387
 6583TIP3    H219707   2.258   2.680   2.368
 6584TIP3   OH219708   3.682   4.192   0.476
 6584TIP3    H119709   3.744   4.120   0.486
 6584TIP3    H219710   3.644   4.203   0.563
 6585TIP3   OH219711   3.743   5.049   5.135
 6585TIP3    H119712   3.773   5.103   5.062
 6585TIP3    H219713   3.803   5.070   5.207
 6586TIP3   OH219714   3.075   0.581   0.945
 6586TIP3    H119715   3.083   0.623   1.030
 6586TIP3    H219716   3.134   0.506   0.949
 6587TIP3   OH219717   5.033   0.102   5.416
 6587TIP3    H119718   5.103   0.040   5.395
 6587TIP3    H219719   5.078   0.178   5.453
 6588TIP3   OH219720   5.316   5.715   1.752
 6588TIP3    H119721   5.232   5.678   1.726
 6588TIP3    H219722   5.308   5.729   1.846
 6589TIP3   OH219723   1.549   3.429   1.705
 6589TIP3    H119724   1.584   3.479   1.779
 6589TIP3    H219725   1.481   3.374   1.743
 6590TIP3   OH219726   2.050   5.513   0.478
 6590TIP3    H119727   2.022   5.546   0.393
 6590TIP3    H219728   2.079   5.591   0.526
 6591TIP3   OH219729   5.861   6.072   3.595
 6591TIP3    H119730   5.805   5.996   3.581
 6591TIP3    H219731   5.891   6.096   3.507
 6592TIP3   OH219732   0.059   3.817   3.380
 6592TIP3    H119733  -0.004   3.745   3.383
 6592TIP3    H219734   0.129   3.784   3.324
 6593TIP3   OH219735   2.653   2.150   3.556
 6593TIP3    H119736   2.591   2.087   3.594
 6593TIP3    H219737   2.606   2.233   3.554
 6594TIP3   OH219738   2.813   5.709   1.261
 6594TIP3    H119739   2.867   5.630   1.252
 6594TIP3    H219740   2.840   5.764   1.188
 6595TIP3   OH219741   7.325   6.184   2.484
 6595TIP3    H119742   7.244   6.220   2.449
 6595TIP3    H219743   7.350   6.245   2.554
 6596TIP3   OH219744   1.456   0.700   0.154
 6596TIP3    H119745   1.383   0.724   0.097
 6596TIP3    H219746   1.443   0.607   0.172
 6597TIP3   OH219747   5.048   1.281   6.015
 6597TIP3    H119748   5.037   1.304   5.923
 6597TIP3    H219749   5.136   1.310   6.037
 6598TIP3   OH219750   0.077   3.032   3.977
 6598TIP3    H119751   0.159   3.026   3.927
 6598TIP3    H219752   0.067   3.125   3.995
 6599TIP3   OH219753   7.850   3.382   0.122
 6599TIP3    H119754   7.800   3.407   0.044
 6599TIP3    H219755   7.830   3.451   0.186
 6600TIP3   OH219756   4.601   2.724   5.684
 6600TIP3    H119757   4.566   2.809   5.710
 6600TIP3    H219758   4.639   2.688   5.764
 6601TIP3   OH219759   4.206   5.798   0.581
 6601TIP3    H119760   4.189   5.892   0.582
 6601TIP3    H219761   4.121   5.759   0.603
 6602TIP3   OH219762   4.998   5.790   6.513
 6602TIP3    H119763   4.999   5.740   6.594
 6602TIP3    H219764   4.924   5.850   6.522
 6603TIP3   OH219765   4.535   5.513   5.679
 6603TIP3    H119766   4.590   5.561   5.741
 6603TIP3    H219767   4.461   5.571   5.663
 6604TIP3   OH219768   5.885   1.134   5.077
 6604TIP3    H119769   5.937   1.102   5.003
 6604TIP3    H219770   5.795   1.107   5.057
 6605TIP3   OH219771   2.653   4.879   6.239
 6605TIP3    H119772   2.561   4.879   6.265
 6605TIP3    H219773   2.673   4.787   6.223
 6606TIP3   OH219774   8.222   6.914   2.648
 6606TIP3    H119775   8.163   6.977   2.689
 6606TIP3    H219776   8.264   6.868   2.721
 6607TIP3   OH219777   3.175   1.088   0.920
 6607TIP3    H119778   3.149   0.996   0.916
 6607TIP3    H219779   3.118   1.127   0.986
 6608TIP3   OH219780   6.190   6.059   2.216
 6608TIP3    H119781   6.267   6.108   2.246
 6608TIP3    H219782   6.183   6.079   2.123
 6609TIP3   OH219783   0.044   0.352   6.131
 6609TIP3    H119784   0.008   0.294   6.064
 6609TIP3    H219785   0.023   0.309   6.214
 6610TIP3   OH219786   5.580   1.272   5.710
 6610TIP3    H119787   5.533   1.290   5.792
 6610TIP3    H219788   5.522   1.304   5.641
 6611TIP3   OH219789   6.179   1.458   5.383
 6611TIP3    H119790   6.134   1.384   5.341
 6611TIP3    H219791   6.156   1.533   5.329
 6612TIP3   OH219792   6.459   2.394   0.626
 6612TIP3    H119793   6.407   2.432   0.556
 6612TIP3    H219794   6.495   2.314   0.589
 6613TIP3   OH219795   2.140   7.588   3.979
 6613TIP3    H119796   2.221   7.630   3.953
 6613TIP3    H219797   2.090   7.658   4.023
 6614TIP3   OH219798   8.301   7.251   0.033
 6614TIP3    H119799   8.220   7.285   0.072
 6614TIP3    H219800   8.332   7.185   0.095
 6615TIP3   OH219801   5.424   6.979   0.970
 6615TIP3    H119802   5.357   6.918   1.002
 6615TIP3    H219803   5.480   6.925   0.914
 6616TIP3   OH219804   5.912   5.970   4.582
 6616TIP3    H119805   5.873   5.971   4.495
 6616TIP3    H219806   5.856   5.913   4.634
 6617TIP3   OH219807   4.475   4.389   5.147
 6617TIP3    H119808   4.438   4.388   5.235
 6617TIP3    H219809   4.437   4.466   5.105
 6618TIP3   OH219810   2.868   1.295   6.264
 6618TIP3    H119811   2.794   1.329   6.214
 6618TIP3    H219812   2.934   1.273   6.198
 6619TIP3   OH219813   1.417   3.970   2.809
 6619TIP3    H119814   1.338   3.953   2.859
 6619TIP3    H219815   1.460   3.885   2.800
 6620TIP3   OH219816   0.035   7.164   4.572
 6620TIP3    H119817   0.123   7.144   4.603
 6620TIP3    H219818   0.030   7.260   4.576
 6621TIP3   OH219819   3.998   6.135   6.650
 6621TIP3    H119820   3.939   6.073   6.693
 6621TIP3    H219821   4.086   6.108   6.679
 6622TIP3   OH219822   4.871   3.701  -0.074
 6622TIP3    H119823   4.835   3.663   0.006
 6622TIP3    H219824   4.960   3.726  -0.051
 6623TIP3   OH219825   1.256   3.710   5.034
 6623TIP3    H119826   1.348   3.732   5.019
 6623TIP3    H219827   1.218   3.703   4.947
 6624TIP3   OH219828   5.862   0.939   0.347
 6624TIP3    H119829   5.835   0.995   0.420
 6624TIP3    H219830   5.801   0.959   0.277
 6625TIP3   OH219831   2.167   4.811   3.284
 6625TIP3    H119832   2.148   4.861   3.363
 6625TIP3    H219833   2.110   4.849   3.217
 6626TIP3   OH219834   2.350   7.680   4.240
 6626TIP3    H119835   2.414   7.702   4.308
 6626TIP3    H219836   2.267   7.670   4.288
 6627TIP3   OH219837   6.334   1.749   6.104
 6627TIP3    H119838   6.336   1.657   6.078
 6627TIP3    H219839   6.324   1.797   6.022
 6628TIP3   OH219840   1.386   7.173   1.048
 6628TIP3    H119841   1.474   7.209   1.060
 6628TIP3    H219842   1.374   7.171   0.953
 6629TIP3   OH219843   0.564   2.089   5.415
 6629TIP3    H119844   0.482   2.112   5.370
 6629TIP3    H219845   0.631   2.142   5.373
 6630TIP3   OH219846   8.296   4.474   3.772
 6630TIP3    H119847   8.319   4.469   3.865
 6630TIP3    H219848   8.206   4.442   3.768
 6631TIP3   OH219849   0.957   4.701   2.223
 6631TIP3    H119850   0.983   4.790   2.199
 6631TIP3    H219851   0.935   4.707   2.316
 6632TIP3   OH219852   3.638   1.110   0.814
 6632TIP3    H119853   3.704   1.081   0.876
 6632TIP3    H219854   3.554   1.097   0.859
 6633TIP3   OH219855   6.247   2.669   5.812
 6633TIP3    H119856   6.249   2.681   5.907
 6633TIP3    H219857   6.202   2.748   5.779
 6634TIP3   OH219858   3.510   4.912   1.685
 6634TIP3    H119859   3.460   4.910   1.604
 6634TIP3    H219860   3.583   4.972   1.668
 6635TIP3   OH219861   6.495   0.507   2.748
 6635TIP3    H119862   6.478   0.438   2.812
 6635TIP3    H219863   6.523   0.460   2.669
 6636TIP3   OH219864   4.723   3.504   6.154
 6636TIP3    H119865   4.808   3.548   6.168
 6636TIP3    H219866   4.659   3.565   6.190
 6637TIP3   OH219867   3.824   5.761   3.788
 6637TIP3    H119868   3.808   5.759   3.882
 6637TIP3    H219869   3.737   5.776   3.750
 6638TIP3   OH219870   8.362   2.013   2.341
 6638TIP3    H119871   8.322   2.053   2.264
 6638TIP3    H219872   8.361   2.082   2.407
 6639TIP3   OH219873   2.483   0.532   4.481
 6639TIP3    H119874   2.433   0.483   4.416
 6639TIP3    H219875   2.431   0.525   4.561
 6640TIP3   OH219876   3.206   4.951   1.721
 6640TIP3    H119877   3.119   4.979   1.750
 6640TIP3    H219878   3.261   5.030   1.729
 6641TIP3   OH219879   1.782   1.665   2.075
 6641TIP3    H119880   1.813   1.682   1.986
 6641TIP3    H219881   1.852   1.698   2.131
 6642TIP3   OH219882   4.183   6.360   0.316
 6642TIP3    H119883   4.176   6.403   0.230
 6642TIP3    H219884   4.277   6.355   0.332
 6643TIP3   OH219885   1.496   7.072   5.205
 6643TIP3    H119886   1.577   7.114   5.178
 6643TIP3    H219887   1.509   7.049   5.297
 6644TIP3   OH219888   8.233   6.696   1.170
 6644TIP3    H119889   8.274   6.692   1.084
 6644TIP3    H219890   8.272   6.773   1.212
 6645TIP3   OH219891   0.051   6.055   6.117
 6645TIP3    H119892   0.034   6.011   6.034
 6645TIP3    H219893   0.086   6.141   6.092
 6646TIP3   OH219894   1.816   7.005   2.847
 6646TIP3    H119895   1.745   7.022   2.785
 6646TIP3    H219896   1.847   6.917   2.824
 6647TIP3   OH219897   4.695   3.206   0.945
 6647TIP3    H119898   4.651   3.123   0.962
 6647TIP3    H219899   4.627   3.272   0.958
 6648TIP3   OH219900   7.436   3.912   1.385
 6648TIP3    H119901   7.510   3.972   1.391
 6648TIP3    H219902   7.477   3.826   1.371
 6649TIP3   OH219903   2.719   1.980   4.580
 6649TIP3    H119904   2.743   2.056   4.528
 6649TIP3    H219905   2.659   1.930   4.524
 6650TIP3   OH219906   2.380   1.062   2.544
 6650TIP3    H119907   2.471   1.085   2.525
 6650TIP3    H219908   2.368   0.977   2.501
 6651TIP3   OH219909   3.731   5.815   4.725
 6651TIP3    H119910   3.642   5.780   4.731
 6651TIP3    H219911   3.719   5.907   4.704
 6652TIP3   OH219912   4.632   7.826   6.660
 6652TIP3    H119913   4.690   7.756   6.630
 6652TIP3    H219914   4.631   7.817   6.756
 6653TIP3   OH219915   7.345   1.029   4.905
 6653TIP3    H119916   7.294   1.022   4.824
 6653TIP3    H219917   7.370   1.122   4.909
 6654TIP3   OH219918   0.902   5.604   5.451
 6654TIP3    H119919   0.993   5.628   5.429
 6654TIP3    H219920   0.911   5.536   5.518
 6655TIP3   OH219921   6.453   7.606   1.701
 6655TIP3    H119922   6.511   7.544   1.745
 6655TIP3    H219923   6.408   7.554   1.634
 6656TIP3   OH219924   2.019   6.019   4.186
 6656TIP3    H119925   2.110   6.025   4.215
 6656TIP3    H219926   1.984   5.945   4.234
 6657TIP3   OH219927   3.891   6.086   5.236
 6657TIP3    H119928   3.805   6.064   5.272
 6657TIP3    H219929   3.953   6.033   5.287
 6658TIP3   OH219930   1.650   1.643   3.923
 6658TIP3    H119931   1.614   1.575   3.867
 6658TIP3    H219932   1.676   1.712   3.862
 6659TIP3   OH219933   4.808   0.181   1.008
 6659TIP3    H119934   4.849   0.167   1.094
 6659TIP3    H219935   4.738   0.115   1.004
 6660TIP3   OH219936   3.623   0.985   6.173
 6660TIP3    H119937   3.579   0.920   6.229
 6660TIP3    H219938   3.555   1.048   6.151
 6661TIP3   OH219939   1.722   6.989   6.476
 6661TIP3    H119940   1.794   6.926   6.471
 6661TIP3    H219941   1.669   6.970   6.398
 6662TIP3   OH219942   8.053   6.949   4.160
 6662TIP3    H119943   7.976   6.935   4.215
 6662TIP3    H219944   8.111   6.876   4.181
 6663TIP3   OH219945   2.138   1.579   0.738
 6663TIP3    H119946   2.210   1.642   0.740
 6663TIP3    H219947   2.133   1.552   0.646
 6664TIP3   OH219948   8.311   7.448   4.645
 6664TIP3    H119949   8.370   7.519   4.619
 6664TIP3    H219950   8.223   7.484   4.629
 6665TIP3   OH219951   7.344   5.335   4.922
 6665TIP3    H119952   7.373   5.420   4.889
 6665TIP3    H219953   7.418   5.276   4.906
 6666TIP3   OH219954   5.517   2.126   6.406
 6666TIP3    H119955   5.465   2.081   6.473
 6666TIP3    H219956   5.592   2.068   6.391
 6667TIP3   OH219957   5.698   1.199   3.201
 6667TIP3    H119958   5.620   1.229   3.248
 6667TIP3    H219959   5.736   1.132   3.257
 6668TIP3   OH219960   0.812   4.574   4.633
 6668TIP3    H119961   0.860   4.655   4.617
 6668TIP3    H219962   0.864   4.507   4.588
 6669TIP3   OH219963   0.978   5.290   1.363
 6669TIP3    H119964   0.908   5.235   1.396
 6669TIP3    H219965   1.008   5.340   1.439
 6670TIP3   OH219966   2.580   0.805   5.885
 6670TIP3    H119967   2.588   0.832   5.976
 6670TIP3    H219968   2.633   0.869   5.837
 6671TIP3   OH219969   4.821   1.902   3.437
 6671TIP3    H119970   4.827   1.952   3.518
 6671TIP3    H219971   4.880   1.946   3.377
 6672TIP3   OH219972   5.622   1.718   2.610
 6672TIP3    H119973   5.557   1.788   2.614
 6672TIP3    H219974   5.658   1.713   2.698
 6673TIP3   OH219975   6.650   1.414   0.788
 6673TIP3    H119976   6.686   1.367   0.713
 6673TIP3    H219977   6.726   1.433   0.843
 6674TIP3   OH219978   5.144   3.071   4.422
 6674TIP3    H119979   5.069   3.045   4.475
 6674TIP3    H219980   5.111   3.141   4.366
 6675TIP3   OH219981   7.442   3.198   3.252
 6675TIP3    H119982   7.413   3.251   3.178
 6675TIP3    H219983   7.377   3.128   3.258
 6676TIP3   OH219984   7.311   1.408   5.636
 6676TIP3    H119985   7.380   1.458   5.679
 6676TIP3    H219986   7.356   1.331   5.600
 6677TIP3   OH219987   0.393   4.472   3.446
 6677TIP3    H119988   0.305   4.469   3.409
 6677TIP3    H219989   0.412   4.566   3.455
 6678TIP3   OH219990   0.849   4.141   0.919
 6678TIP3    H119991   0.823   4.232   0.904
 6678TIP3    H219992   0.864   4.136   1.014
 6679TIP3   OH219993   3.218   2.718   2.243
 6679TIP3    H119994   3.225   2.741   2.336
 6679TIP3    H219995   3.307   2.695   2.218
 6680TIP3   OH219996   5.813   4.411   3.621
 6680TIP3    H119997   5.778   4.351   3.687
 6680TIP3    H219998   5.854   4.354   3.556
 6681TIP3   OH219999   4.876   6.965   1.476
 6681TIP3    H120000   4.870   6.897   1.543
 6681TIP3    H220001   4.965   7.000   1.484
 6682TIP3   OH220002   3.220   5.922   5.758
 6682TIP3    H120003   3.216   5.832   5.724
 6682TIP3    H220004   3.253   5.912   5.848
 6683TIP3   OH220005   7.624   0.165   1.775
 6683TIP3    H120006   7.592   0.255   1.762
 6683TIP3    H220007   7.605   0.121   1.692
 6684TIP3   OH220008   0.337   3.225   5.188
 6684TIP3    H120009   0.337   3.137   5.226
 6684TIP3    H220010   0.365   3.282   5.260
 6685TIP3   OH220011   1.210   6.620   1.258
 6685TIP3    H120012   1.293   6.593   1.217
 6685TIP3    H220013   1.188   6.547   1.316
 6686TIP3   OH220014   4.817   1.452   2.586
 6686TIP3    H120015   4.727   1.461   2.555
 6686TIP3    H220016   4.868   1.508   2.528
 6687TIP3   OH220017   1.752   4.744   2.902
 6687TIP3    H120018   1.745   4.748   2.807
 6687TIP3    H220019   1.838   4.782   2.921
 6688TIP3   OH220020   2.566   3.619   3.525
 6688TIP3    H120021   2.654   3.655   3.509
 6688TIP3    H220022   2.521   3.628   3.441
 6689TIP3   OH220023   6.305   6.342   0.061
 6689TIP3    H120024   6.293   6.432   0.091
 6689TIP3    H220025   6.363   6.303   0.126
 6690TIP3   OH220026   5.776   0.566   1.711
 6690TIP3    H120027   5.770   0.646   1.763
 6690TIP3    H220028   5.869   0.551   1.699
 6691TIP3   OH220029   5.615   1.431   2.106
 6691TIP3    H120030   5.572   1.487   2.171
 6691TIP3    H220031   5.622   1.487   2.028
 6692TIP3   OH220032   8.034   3.648   0.573
 6692TIP3    H120033   7.943   3.668   0.594
 6692TIP3    H220034   8.085   3.719   0.611
 6693TIP3   OH220035   5.646   6.344   6.018
 6693TIP3    H120036   5.633   6.432   5.981
 6693TIP3    H220037   5.602   6.348   6.103
 6694TIP3   OH220038   3.999   4.521   0.159
 6694TIP3    H120039   3.976   4.437   0.120
 6694TIP3    H220040   3.972   4.586   0.095
 6695TIP3   OH220041   0.355   5.605   3.056
 6695TIP3    H120042   0.266   5.638   3.057
 6695TIP3    H220043   0.345   5.510   3.068
 6696TIP3   OH220044   4.937   7.050   2.183
 6696TIP3    H120045   4.946   6.956   2.167
 6696TIP3    H220046   4.852   7.072   2.145
 6697TIP3   OH220047   4.616   2.335   0.289
 6697TIP3    H120048   4.699   2.294   0.311
 6697TIP3    H220049   4.558   2.263   0.267
 6698TIP3   OH220050   6.011   2.459   5.757
 6698TIP3    H120051   6.093   2.495   5.792
 6698TIP3    H220052   6.002   2.374   5.801
 6699TIP3   OH220053   5.176   2.960   6.730
 6699TIP3    H120054   5.125   3.041   6.724
 6699TIP3    H220055   5.250   2.982   6.786
 6700TIP3   OH220056   2.383   0.518   0.380
 6700TIP3    H120057   2.328   0.579   0.429
 6700TIP3    H220058   2.436   0.574   0.323
 6701TIP3   OH220059   5.291   3.662   1.161
 6701TIP3    H120060   5.343   3.584   1.178
 6701TIP3    H220061   5.326   3.728   1.221
 6702TIP3   OH220062   0.270   2.335   3.575
 6702TIP3    H120063   0.356   2.296   3.560
 6702TIP3    H220064   0.235   2.289   3.651
 6703TIP3   OH220065   8.234   4.675   4.500
 6703TIP3    H120066   8.138   4.685   4.497
 6703TIP3    H220067   8.248   4.584   4.524
 6704TIP3   OH220068   0.622   4.987   5.755
 6704TIP3    H120069   0.570   5.047   5.702
 6704TIP3    H220070   0.620   5.025   5.843
 6705TIP3   OH220071   4.106   2.021   1.067
 6705TIP3    H120072   4.108   2.036   1.161
 6705TIP3    H220073   4.150   1.936   1.056
 6706TIP3   OH220074   0.300   4.944   4.920
 6706TIP3    H120075   0.237   4.973   4.986
 6706TIP3    H220076   0.363   4.891   4.969
 6707TIP3   OH220077   8.141   2.387   1.985
 6707TIP3    H120078   8.166   2.479   1.977
 6707TIP3    H220079   8.173   2.346   1.904
 6708TIP3   OH220080   0.961   5.076   6.244
 6708TIP3    H120081   0.992   5.005   6.301
 6708TIP3    H220082   0.873   5.048   6.217
 6709TIP3   OH220083   5.208   4.859   0.464
 6709TIP3    H120084   5.235   4.853   0.373
 6709TIP3    H220085   5.284   4.827   0.514
 6710TIP3   OH220086  -0.006   1.642   5.390
 6710TIP3    H120087   0.088   1.635   5.405
 6710TIP3    H220088  -0.024   1.583   5.317
 6711TIP3   OH220089   3.732   3.203   6.130
 6711TIP3    H120090   3.781   3.282   6.154
 6711TIP3    H220091   3.768   3.177   6.046
 6712TIP3   OH220092   2.577   2.720   4.206
 6712TIP3    H120093   2.509   2.740   4.140
 6712TIP3    H220094   2.655   2.764   4.173
 6713TIP3   OH220095   4.648   0.618   2.972
 6713TIP3    H120096   4.740   0.640   2.961
 6713TIP3    H220097   4.620   0.584   2.887
 6714TIP3   OH220098   0.450   2.004   3.766
 6714TIP3    H120099   0.496   1.977   3.846
 6714TIP3    H220100   0.459   1.928   3.707
 6715TIP3   OH220101   2.566   4.232   3.956
 6715TIP3    H120102   2.634   4.286   3.917
 6715TIP3    H220103   2.609   4.188   4.030
 6716TIP3   OH220104   4.973   0.421   3.650
 6716TIP3    H120105   4.976   0.383   3.738
 6716TIP3    H220106   4.979   0.515   3.665
 6717TIP3   OH220107   1.746   5.307   4.215
 6717TIP3    H120108   1.799   5.380   4.248
 6717TIP3    H220109   1.791   5.229   4.246
 6718TIP3   OH220110   3.141   6.451   6.653
 6718TIP3    H120111   3.231   6.470   6.627
 6718TIP3    H220112   3.088   6.515   6.604
 6719TIP3   OH220113   2.161   2.000   2.102
 6719TIP3    H120114   2.119   2.017   2.018
 6719TIP3    H220115   2.254   1.989   2.081
 6720TIP3   OH220116   5.646   1.015   5.042
 6720TIP3    H120117   5.584   1.083   5.068
 6720TIP3    H220118   5.595   0.955   4.988
 6721TIP3   OH220119   7.323   0.440   0.683
 6721TIP3    H120120   7.371   0.438   0.766
 6721TIP3    H220121   7.368   0.506   0.631
 6722TIP3   OH220122   6.945   7.759   0.637
 6722TIP3    H120123   6.888   7.682   0.638
 6722TIP3    H220124   6.899   7.823   0.691
 6723TIP3   OH220125   2.645   5.467   2.174
 6723TIP3    H120126   2.621   5.386   2.130
 6723TIP3    H220127   2.680   5.522   2.104
 6724TIP3   OH220128   7.123   7.631   5.366
 6724TIP3    H120129   7.207   7.652   5.408
 6724TIP3    H220130   7.074   7.584   5.432
 6725TIP3   OH220131   0.997   2.467   0.642
 6725TIP3    H120132   0.955   2.551   0.660
 6725TIP3    H220133   0.935   2.421   0.585
 6726TIP3   OH220134   1.768   6.383   4.077
 6726TIP3    H120135   1.793   6.336   4.157
 6726TIP3    H220136   1.673   6.388   4.082
 6727TIP3   OH220137   1.990   7.160   3.678
 6727TIP3    H120138   1.953   7.200   3.600
 6727TIP3    H220139   2.037   7.232   3.721
 6728TIP3   OH220140   6.583   5.089   3.174
 6728TIP3    H120141   6.580   5.179   3.207
 6728TIP3    H220142   6.674   5.062   3.183
 6729TIP3   OH220143   2.317   0.773   3.423
 6729TIP3    H120144   2.340   0.809   3.337
 6729TIP3    H220145   2.367   0.692   3.429
 6730TIP3   OH220146   7.787   6.452   5.967
 6730TIP3    H120147   7.727   6.478   5.896
 6730TIP3    H220148   7.866   6.423   5.922
 6731TIP3   OH220149   6.529   4.189   0.205
 6731TIP3    H120150   6.507   4.097   0.186
 6731TIP3    H220151   6.624   4.192   0.202
 6732TIP3   OH220152   4.604   5.992   5.715
 6732TIP3    H120153   4.625   5.899   5.720
 6732TIP3    H220154   4.549   6.000   5.636
 6733TIP3   OH220155   0.361   7.152   5.635
 6733TIP3    H120156   0.398   7.239   5.621
 6733TIP3    H220157   0.276   7.169   5.676
 6734TIP3   OH220158   3.421   4.490   1.457
 6734TIP3    H120159   3.433   4.555   1.526
 6734TIP3    H220160   3.336   4.450   1.477
 6735TIP3   OH220161   7.925   5.628   2.898
 6735TIP3    H120162   8.010   5.585   2.896
 6735TIP3    H220163   7.943   5.718   2.925
 6736TIP3   OH220164   5.104   3.956   2.245
 6736TIP3    H120165   5.062   4.025   2.298
 6736TIP3    H220166   5.157   3.907   2.308
 6737TIP3   OH220167   5.826   5.425   5.249
 6737TIP3    H120168   5.773   5.483   5.304
 6737TIP3    H220169   5.837   5.472   5.167
 6738TIP3   OH220170   2.631   4.487   0.123
 6738TIP3    H120171   2.709   4.467   0.070
 6738TIP3    H220172   2.660   4.556   0.183
 6739TIP3   OH220173   2.141   4.318   2.565
 6739TIP3    H120174   2.068   4.288   2.619
 6739TIP3    H220175   2.100   4.364   2.492
 6740TIP3   OH220176   0.449   4.465   1.966
 6740TIP3    H120177   0.435   4.457   2.060
 6740TIP3    H220178   0.368   4.432   1.927
 6741TIP3   OH220179   2.737   6.728   6.389
 6741TIP3    H120180   2.701   6.747   6.475
 6741TIP3    H220181   2.680   6.777   6.328
 6742TIP3   OH220182   3.476   2.293   1.688
 6742TIP3    H120183   3.404   2.229   1.694
 6742TIP3    H220184   3.516   2.274   1.603
 6743TIP3   OH220185   2.696   4.830   4.531
 6743TIP3    H120186   2.776   4.830   4.478
 6743TIP3    H220187   2.667   4.921   4.530
 6744TIP3   OH220188   7.584   2.514   4.590
 6744TIP3    H120189   7.603   2.550   4.504
 6744TIP3    H220190   7.670   2.502   4.631
 6745TIP3   OH220191   2.714   1.481   1.075
 6745TIP3    H120192   2.653   1.510   1.007
 6745TIP3    H220193   2.742   1.394   1.046
 6746TIP3   OH220194   0.348   3.155   2.788
 6746TIP3    H120195   0.376   3.189   2.873
 6746TIP3    H220196   0.253   3.143   2.798
 6747TIP3   OH220197   6.297   6.747   3.256
 6747TIP3    H120198   6.341   6.720   3.175
 6747TIP3    H220199   6.204   6.753   3.231
 6748TIP3   OH220200   2.048   2.666   6.007
 6748TIP3    H120201   1.981   2.618   6.057
 6748TIP3    H220202   2.117   2.685   6.071
 6749TIP3   OH220203   0.498   2.220   5.784
 6749TIP3    H120204   0.528   2.155   5.847
 6749TIP3    H220205   0.414   2.251   5.820
 6750TIP3   OH220206   3.971   0.136   5.274
 6750TIP3    H120207   4.000   0.131   5.183
 6750TIP3    H220208   4.052   0.137   5.325
 6751TIP3   OH220209   0.819   4.718   3.932
 6751TIP3    H120210   0.854   4.743   4.018
 6751TIP3    H220211   0.727   4.698   3.949
 6752TIP3   OH220212   1.045   1.026   0.179
 6752TIP3    H120213   0.982   0.974   0.229
 6752TIP3    H220214   1.028   1.004   0.088
 6753TIP3   OH220215   6.943   5.332   2.508
 6753TIP3    H120216   6.952   5.413   2.558
 6753TIP3    H220217   6.935   5.361   2.417
 6754TIP3   OH220218   3.949   6.852   0.456
 6754TIP3    H120219   3.932   6.761   0.430
 6754TIP3    H220220   4.041   6.852   0.483
 6755TIP3   OH220221   4.494   5.659   4.343
 6755TIP3    H120222   4.449   5.644   4.426
 6755TIP3    H220223   4.441   5.613   4.278
 6756TIP3   OH220224   3.358   2.213   4.057
 6756TIP3    H120225   3.288   2.228   4.121
 6756TIP3    H220226   3.313   2.175   3.981
 6757TIP3   OH220227   8.033   5.288   4.667
 6757TIP3    H120228   8.089   5.227   4.716
 6757TIP3    H220229   8.023   5.363   4.725
 6758TIP3   OH220230   3.231   1.915   0.438
 6758TIP3    H120231   3.182   1.859   0.378
 6758TIP3    H220232   3.303   1.950   0.385
 6759TIP3   OH220233   4.820   0.553   4.629
 6759TIP3    H120234   4.799   0.480   4.571
 6759TIP3    H220235   4.801   0.521   4.717
 6760TIP3   OH220236   5.282   5.088   5.179
 6760TIP3    H120237   5.369   5.126   5.191
 6760TIP3    H220238   5.261   5.050   5.264
 6761TIP3   OH220239   1.326   3.555   2.142
 6761TIP3    H120240   1.299   3.642   2.111
 6761TIP3    H220241   1.332   3.565   2.237
 6762TIP3   OH220242   2.278   2.516   4.260
 6762TIP3    H120243   2.182   2.512   4.252
 6762TIP3    H220244   2.303   2.594   4.210
 6763TIP3   OH220245   7.960   3.310   2.025
 6763TIP3    H120246   7.974   3.378   1.959
 6763TIP3    H220247   8.039   3.255   2.020
 6764TIP3   OH220248   3.155   3.106   3.064
 6764TIP3    H120249   3.138   3.154   3.146
 6764TIP3    H220250   3.162   3.014   3.091
 6765TIP3   OH220251   1.990   4.889   4.039
 6765TIP3    H120252   1.985   4.941   4.119
 6765TIP3    H220253   1.908   4.839   4.037
 6766TIP3   OH220254   6.701   1.677   5.827
 6766TIP3    H120255   6.645   1.651   5.900
 6766TIP3    H220256   6.709   1.598   5.774
 6767TIP3   OH220257   2.002   5.098   0.266
 6767TIP3    H120258   2.009   5.056   0.180
 6767TIP3    H220259   1.942   5.171   0.253
 6768TIP3   OH220260   0.455   6.319   4.540
 6768TIP3    H120261   0.519   6.348   4.605
 6768TIP3    H220262   0.412   6.399   4.511
 6769TIP3   OH220263   7.384   2.751   6.549
 6769TIP3    H120264   7.408   2.738   6.641
 6769TIP3    H220265   7.427   2.679   6.503
 6770TIP3   OH220266   1.101   4.071   6.298
 6770TIP3    H120267   1.124   4.147   6.351
 6770TIP3    H220268   1.007   4.081   6.282
 6771TIP3   OH220269   4.256   3.503   5.080
 6771TIP3    H120270   4.333   3.469   5.125
 6771TIP3    H220271   4.217   3.564   5.143
 6772TIP3   OH220272   3.623   7.221   1.892
 6772TIP3    H120273   3.542   7.271   1.903
 6772TIP3    H220274   3.660   7.254   1.810
 6773TIP3   OH220275   3.617   4.928   4.118
 6773TIP3    H120276   3.617   4.836   4.144
 6773TIP3    H220277   3.690   4.936   4.057
 6774TIP3   OH220278   7.080   7.562   6.355
 6774TIP3    H120279   7.051   7.638   6.403
 6774TIP3    H220280   7.025   7.559   6.277
 6775TIP3   OH220281   2.012   0.090   2.560
 6775TIP3    H120282   2.015   0.141   2.641
 6775TIP3    H220283   2.104   0.072   2.540
 6776TIP3   OH220284   6.401   0.619   1.156
 6776TIP3    H120285   6.487   0.643   1.122
 6776TIP3    H220286   6.372   0.697   1.205
 6777TIP3   OH220287   3.438   5.786   3.229
 6777TIP3    H120288   3.415   5.852   3.163
 6777TIP3    H220289   3.363   5.727   3.230
 6778TIP3   OH220290   5.525   2.874   2.442
 6778TIP3    H120291   5.493   2.826   2.519
 6778TIP3    H220292   5.578   2.810   2.395
 6779TIP3   OH220293   4.264   2.560   1.462
 6779TIP3    H120294   4.265   2.468   1.488
 6779TIP3    H220295   4.357   2.584   1.457
 6780TIP3   OH220296   3.023   7.485   2.345
 6780TIP3    H120297   3.003   7.408   2.398
 6780TIP3    H220298   2.949   7.544   2.358
 6781TIP3   OH220299   0.463   6.253   5.240
 6781TIP3    H120300   0.537   6.231   5.296
 6781TIP3    H220301   0.424   6.169   5.216
 6782TIP3   OH220302   8.163   2.934   4.912
 6782TIP3    H120303   8.108   3.008   4.937
 6782TIP3    H220304   8.167   2.879   4.991
 6783TIP3   OH220305   7.702   5.159   6.128
 6783TIP3    H120306   7.787   5.115   6.130
 6783TIP3    H220307   7.722   5.250   6.107
 6784TIP3   OH220308   5.097   5.437   0.824
 6784TIP3    H120309   5.113   5.460   0.915
 6784TIP3    H220310   5.118   5.343   0.819
 6785TIP3   OH220311   3.630   6.628   0.099
 6785TIP3    H120312   3.670   6.553   0.054
 6785TIP3    H220313   3.537   6.607   0.103
 6786TIP3   OH220314   0.990   3.721   1.864
 6786TIP3    H120315   1.013   3.719   1.771
 6786TIP3    H220316   0.900   3.687   1.867
 6787TIP3   OH220317   2.105   0.543   2.559
 6787TIP3    H120318   2.079   0.457   2.590
 6787TIP3    H220319   2.168   0.525   2.489
 6788TIP3   OH220320   1.463   5.131   6.073
 6788TIP3    H120321   1.468   5.219   6.110
 6788TIP3    H220322   1.465   5.145   5.979
 6789TIP3   OH220323   6.967   5.389   3.427
 6789TIP3    H120324   6.920   5.394   3.344
 6789TIP3    H220325   6.956   5.476   3.466
 6790TIP3   OH220326   7.465   3.823   3.498
 6790TIP3    H120327   7.468   3.890   3.565
 6790TIP3    H220328   7.555   3.791   3.492
 6791TIP3   OH220329   5.706   1.959   2.949
 6791TIP3    H120330   5.773   2.019   2.979
 6791TIP3    H220331   5.634   2.015   2.920
 6792TIP3   OH220332   8.166   1.324   0.409
 6792TIP3    H120333   8.245   1.377   0.417
 6792TIP3    H220334   8.113   1.370   0.344
 6793TIP3   OH220335   6.205   6.255   0.401
 6793TIP3    H120336   6.243   6.327   0.451
 6793TIP3    H220337   6.275   6.228   0.341
 6794TIP3   OH220338   6.038   5.601   5.764
 6794TIP3    H120339   6.036   5.653   5.844
 6794TIP3    H220340   6.057   5.665   5.695
 6795TIP3   OH220341   2.381   6.116   6.042
 6795TIP3    H120342   2.377   6.021   6.030
 6795TIP3    H220343   2.439   6.147   5.972
 6796TIP3   OH220344   3.016   5.530   3.034
 6796TIP3    H120345   2.992   5.534   2.941
 6796TIP3    H220346   3.076   5.603   3.046
 6797TIP3   OH220347   3.873   2.390   4.504
 6797TIP3    H120348   3.918   2.310   4.532
 6797TIP3    H220349   3.906   2.457   4.564
 6798TIP3   OH220350   6.965   1.142   2.782
 6798TIP3    H120351   7.058   1.125   2.796
 6798TIP3    H220352   6.956   1.237   2.792
 6799TIP3   OH220353   6.880   7.840   1.479
 6799TIP3    H120354   6.835   7.797   1.552
 6799TIP3    H220355   6.822   7.826   1.404
 6800TIP3   OH220356   3.327   3.268   6.002
 6800TIP3    H120357   3.294   3.188   5.960
 6800TIP3    H220358   3.384   3.237   6.072
 6801TIP3   OH220359   7.110   0.499   4.509
 6801TIP3    H120360   7.142   0.528   4.595
 6801TIP3    H220361   7.184   0.452   4.470
 6802TIP3   OH220362   1.675   4.605   5.378
 6802TIP3    H120363   1.677   4.683   5.321
 6802TIP3    H220364   1.662   4.640   5.466
 6803TIP3   OH220365   7.751   2.895   4.946
 6803TIP3    H120366   7.679   2.870   4.888
 6803TIP3    H220367   7.764   2.988   4.931
 6804TIP3   OH220368   1.409   6.806   5.112
 6804TIP3    H120369   1.425   6.742   5.181
 6804TIP3    H220370   1.463   6.881   5.137
 6805TIP3   OH220371   2.653   0.368   1.781
 6805TIP3    H120372   2.685   0.457   1.767
 6805TIP3    H220373   2.563   0.369   1.749
 6806TIP3   OH220374   6.113   2.847   2.330
 6806TIP3    H120375   6.150   2.820   2.246
 6806TIP3    H220376   6.190   2.863   2.386
 6807TIP3   OH220377   1.044   5.286   2.132
 6807TIP3    H120378   1.046   5.360   2.072
 6807TIP3    H220379   1.008   5.321   2.214
 6808TIP3   OH220380   4.647   0.957   4.578
 6808TIP3    H120381   4.600   1.027   4.532
 6808TIP3    H220382   4.615   0.876   4.539
 6809TIP3   OH220383   4.117   0.774   1.380
 6809TIP3    H120384   4.099   0.778   1.286
 6809TIP3    H220385   4.194   0.830   1.392
 6810TIP3   OH220386   7.655   5.751   0.204
 6810TIP3    H120387   7.592   5.679   0.202
 6810TIP3    H220388   7.642   5.797   0.121
 6811TIP3   OH220389   6.460   0.905   5.907
 6811TIP3    H120390   6.503   0.984   5.942
 6811TIP3    H220391   6.437   0.928   5.817
 6812TIP3   OH220392   7.044   6.572   2.499
 6812TIP3    H120393   7.072   6.644   2.555
 6812TIP3    H220394   6.976   6.611   2.443
 6813TIP3   OH220395   6.379   0.064   0.877
 6813TIP3    H120396   6.395   0.015   0.957
 6813TIP3    H220397   6.446   0.033   0.816
 6814TIP3   OH220398   5.122   0.669   5.511
 6814TIP3    H120399   5.072   0.656   5.592
 6814TIP3    H220400   5.213   0.678   5.541
 6815TIP3   OH220401   6.040   7.552   3.357
 6815TIP3    H120402   5.980   7.483   3.383
 6815TIP3    H220403   6.031   7.557   3.262
 6816TIP3   OH220404   4.929   6.364  -0.008
 6816TIP3    H120405   4.989   6.298  -0.042
 6816TIP3    H220406   4.986   6.434   0.023
 6817TIP3   OH220407   4.441   7.668   0.173
 6817TIP3    H120408   4.472   7.686   0.084
 6817TIP3    H220409   4.511   7.702   0.229
 6818TIP3   OH220410   4.005   1.492   6.279
 6818TIP3    H120411   4.077   1.466   6.335
 6818TIP3    H220412   3.935   1.428   6.298
 6819TIP3   OH220413   1.389   4.885   0.231
 6819TIP3    H120414   1.300   4.886   0.266
 6819TIP3    H220415   1.442   4.845   0.301
 6820TIP3   OH220416   5.228   0.687   0.542
 6820TIP3    H120417   5.233   0.721   0.631
 6820TIP3    H220418   5.197   0.761   0.490
 6821TIP3   OH220419   1.853   1.236   0.757
 6821TIP3    H120420   1.759   1.245   0.738
 6821TIP3    H220421   1.893   1.220   0.671
 6822TIP3   OH220422   0.407   2.660   2.213
 6822TIP3    H120423   0.449   2.589   2.163
 6822TIP3    H220424   0.331   2.618   2.254
 6823TIP3   OH220425   4.225   0.899   4.885
 6823TIP3    H120426   4.167   0.951   4.830
 6823TIP3    H220427   4.210   0.931   4.973
 6824TIP3   OH220428   8.224   0.458   4.050
 6824TIP3    H120429   8.224   0.420   4.137
 6824TIP3    H220430   8.140   0.433   4.012
 6825TIP3   OH220431   8.274   0.508   4.644
 6825TIP3    H120432   8.353   0.498   4.697
 6825TIP3    H220433   8.210   0.451   4.686
 6826TIP3   OH220434   2.518   3.284   2.055
 6826TIP3    H120435   2.479   3.365   2.088
 6826TIP3    H220436   2.550   3.240   2.134
 6827TIP3   OH220437   7.361   1.977   4.459
 6827TIP3    H120438   7.354   1.959   4.365
 6827TIP3    H220439   7.454   1.993   4.474
 6828TIP3   OH220440   7.930   6.246   3.425
 6828TIP3    H120441   7.920   6.157   3.391
 6828TIP3    H220442   8.014   6.276   3.388
 6829TIP3   OH220443   4.774   2.363   1.930
 6829TIP3    H120444   4.705   2.413   1.973
 6829TIP3    H220445   4.854   2.389   1.974
 6830TIP3   OH220446   0.148   4.698   0.898
 6830TIP3    H120447   0.172   4.608   0.877
 6830TIP3    H220448   0.163   4.705   0.992
 6831TIP3   OH220449   4.998   5.075   2.436
 6831TIP3    H120450   4.950   4.998   2.404
 6831TIP3    H220451   5.046   5.106   2.359
 6832TIP3   OH220452   7.277   7.787   3.774
 6832TIP3    H120453   7.280   7.866   3.828
 6832TIP3    H220454   7.342   7.728   3.812
 6833TIP3   OH220455   6.938   7.138   5.938
 6833TIP3    H120456   6.931   7.114   5.846
 6833TIP3    H220457   7.028   7.117   5.962
 6834TIP3   OH220458   7.332   7.201   5.116
 6834TIP3    H120459   7.370   7.248   5.042
 6834TIP3    H220460   7.405   7.191   5.178
 6835TIP3   OH220461   3.618   1.030   6.644
 6835TIP3    H120462   3.683   1.047   6.576
 6835TIP3    H220463   3.641   1.089   6.715
 6836TIP3   OH220464   6.916   5.245   0.536
 6836TIP3    H120465   6.962   5.316   0.491
 6836TIP3    H220466   6.958   5.240   0.622
 6837TIP3   OH220467   6.258   3.292   3.140
 6837TIP3    H120468   6.226   3.232   3.208
 6837TIP3    H220469   6.317   3.351   3.187
 6838TIP3   OH220470   7.728   6.736   4.647
 6838TIP3    H120471   7.777   6.800   4.699
 6838TIP3    H220472   7.754   6.651   4.682
 6839TIP3   OH220473   6.816   0.019   4.802
 6839TIP3    H120474   6.846   0.070   4.877
 6839TIP3    H220475   6.742   0.068   4.766
 6840TIP3   OH220476   1.162   2.966   2.983
 6840TIP3    H120477   1.166   2.933   2.894
 6840TIP3    H220478   1.129   2.892   3.035
 6841TIP3   OH220479   8.195   5.330   1.022
 6841TIP3    H120480   8.192   5.234   1.016
 6841TIP3    H220481   8.288   5.351   1.020
 6842TIP3   OH220482   3.414   5.434   1.413
 6842TIP3    H120483   3.460   5.389   1.343
 6842TIP3    H220484   3.483   5.459   1.475
 6843TIP3   OH220485   0.167   1.638   1.703
 6843TIP3    H120486   0.260   1.631   1.723
 6843TIP3    H220487   0.138   1.716   1.751
 6844TIP3   OH220488   6.499   6.177   3.796
 6844TIP3    H120489   6.482   6.254   3.850
 6844TIP3    H220490   6.555   6.121   3.851
 6845TIP3   OH220491   2.867   6.164   0.052
 6845TIP3    H120492   2.928   6.160   0.126
 6845TIP3    H220493   2.914   6.121  -0.020
 6846TIP3   OH220494   2.024   2.656   1.385
 6846TIP3    H120495   2.033   2.625   1.295
 6846TIP3    H220496   2.063   2.743   1.385
 6847TIP3   OH220497   5.672   1.792   0.180
 6847TIP3    H120498   5.766   1.804   0.189
 6847TIP3    H220499   5.651   1.718   0.236
 6848TIP3   OH220500   2.405   7.237   3.766
 6848TIP3    H120501   2.346   7.293   3.715
 6848TIP3    H220502   2.474   7.297   3.795
 6849TIP3   OH220503   7.052   3.232   0.944
 6849TIP3    H120504   6.976   3.270   0.901
 6849TIP3    H220505   7.078   3.297   1.009
 6850TIP3   OH220506   6.178   2.679   1.132
 6850TIP3    H120507   6.142   2.605   1.180
 6850TIP3    H220508   6.271   2.680   1.155
 6851TIP3   OH220509   4.308   2.458   4.785
 6851TIP3    H120510   4.291   2.546   4.819
 6851TIP3    H220511   4.281   2.399   4.856
 6852TIP3   OH220512   1.169   5.425   0.356
 6852TIP3    H120513   1.136   5.488   0.293
 6852TIP3    H220514   1.257   5.403   0.323
 6853TIP3   OH220515   4.197   2.355   5.497
 6853TIP3    H120516   4.285   2.367   5.462
 6853TIP3    H220517   4.156   2.442   5.489
 6854TIP3   OH220518   6.206   0.505   2.336
 6854TIP3    H120519   6.183   0.585   2.287
 6854TIP3    H220520   6.204   0.533   2.428
 6855TIP3   OH220521   4.795   1.123   5.378
 6855TIP3    H120522   4.849   1.120   5.299
 6855TIP3    H220523   4.716   1.074   5.355
 6856TIP3   OH220524   6.396   2.547   0.181
 6856TIP3    H120525   6.392   2.489   0.257
 6856TIP3    H220526   6.339   2.505   0.117
 6857TIP3   OH220527   0.267   1.129   4.480
 6857TIP3    H120528   0.254   1.118   4.575
 6857TIP3    H220529   0.236   1.217   4.462
 6858TIP3   OH220530   0.832   3.348   2.351
 6858TIP3    H120531   0.811   3.265   2.307
 6858TIP3    H220532   0.921   3.335   2.384
 6859TIP3   OH220533   7.594   4.147   5.821
 6859TIP3    H120534   7.517   4.098   5.852
 6859TIP3    H220535   7.657   4.079   5.797
 6860TIP3   OH220536   6.522   4.487   5.289
 6860TIP3    H120537   6.468   4.556   5.251
 6860TIP3    H220538   6.611   4.505   5.256
 6861TIP3   OH220539   4.473   1.580   3.378
 6861TIP3    H120540   4.430   1.505   3.337
 6861TIP3    H220541   4.561   1.582   3.338
 6862TIP3   OH220542   4.697   5.324   2.350
 6862TIP3    H120543   4.780   5.320   2.302
 6862TIP3    H220544   4.687   5.237   2.388
 6863TIP3   OH220545   0.992   4.076   3.357
 6863TIP3    H120546   0.921   4.136   3.379
 6863TIP3    H220547   0.948   3.997   3.326
 6864TIP3   OH220548   5.989   0.199   1.223
 6864TIP3    H120549   6.021   0.191   1.313
 6864TIP3    H220550   6.067   0.206   1.169
 6865TIP3   OH220551   4.350   4.396   6.602
 6865TIP3    H120552   4.283   4.340   6.642
 6865TIP3    H220553   4.380   4.451   6.673
 6866TIP3   OH220554   5.278   2.859   5.654
 6866TIP3    H120555   5.228   2.934   5.687
 6866TIP3    H220556   5.233   2.833   5.574
 6867TIP3   OH220557   7.141   2.955   2.727
 6867TIP3    H120558   7.162   2.875   2.679
 6867TIP3    H220559   7.104   3.014   2.661
 6868TIP3   OH220560   6.757   4.045   5.198
 6868TIP3    H120561   6.674   4.017   5.159
 6868TIP3    H220562   6.813   4.065   5.123
 6869TIP3   OH220563   2.157   2.295   2.835
 6869TIP3    H120564   2.192   2.300   2.924
 6869TIP3    H220565   2.112   2.378   2.822
 6870TIP3   OH220566   0.473   0.785   0.690
 6870TIP3    H120567   0.387   0.816   0.662
 6870TIP3    H220568   0.462   0.691   0.703
 6871TIP3   OH220569   6.521   3.974   1.265
 6871TIP3    H120570   6.480   4.041   1.319
 6871TIP3    H220571   6.475   3.978   1.181
 6872TIP3   OH220572   4.606   7.330   6.461
 6872TIP3    H120573   4.578   7.415   6.493
 6872TIP3    H220574   4.673   7.302   6.523
 6873TIP3   OH220575   2.729   7.678   4.128
 6873TIP3    H120576   2.788   7.611   4.161
 6873TIP3    H220577   2.645   7.633   4.117
 6874TIP3   OH220578   7.795   4.298   1.449
 6874TIP3    H120579   7.740   4.375   1.465
 6874TIP3    H220580   7.826   4.310   1.359
 6875TIP3   OH220581   5.095   4.578   3.053
 6875TIP3    H120582   5.034   4.538   3.115
 6875TIP3    H220583   5.111   4.666   3.088
 6876TIP3   OH220584   3.374   6.026   6.614
 6876TIP3    H120585   3.468   6.015   6.601
 6876TIP3    H220586   3.340   6.050   6.528
 6877TIP3   OH220587   1.328   5.618   2.296
 6877TIP3    H120588   1.281   5.689   2.340
 6877TIP3    H220589   1.310   5.541   2.349
 6878TIP3   OH220590   7.957   1.616   1.178
 6878TIP3    H120591   7.929   1.542   1.232
 6878TIP3    H220592   7.918   1.693   1.221
 6879TIP3   OH220593   7.276   3.086   2.295
 6879TIP3    H120594   7.242   2.997   2.294
 6879TIP3    H220595   7.244   3.123   2.378
 6880TIP3   OH220596   2.976   6.901   1.017
 6880TIP3    H120597   3.065   6.934   1.027
 6880TIP3    H220598   2.940   6.953   0.944
 6881TIP3   OH220599   6.455   5.620   6.659
 6881TIP3    H120600   6.440   5.624   6.565
 6881TIP3    H220601   6.425   5.533   6.685
 6882TIP3   OH220602   4.141   4.273   0.578
 6882TIP3    H120603   4.080   4.232   0.516
 6882TIP3    H220604   4.134   4.221   0.657
 6883TIP3   OH220605   1.225   2.963   1.514
 6883TIP3    H120606   1.227   2.933   1.605
 6883TIP3    H220607   1.247   3.056   1.519
 6884TIP3   OH220608   1.318   4.425   4.291
 6884TIP3    H120609   1.349   4.336   4.307
 6884TIP3    H220610   1.396   4.480   4.298
 6885TIP3   OH220611   4.246   7.506   2.047
 6885TIP3    H120612   4.202   7.550   2.119
 6885TIP3    H220613   4.215   7.551   1.969
 6886TIP3   OH220614   1.083   5.945   5.133
 6886TIP3    H120615   1.138   5.970   5.059
 6886TIP3    H220616   1.073   5.850   5.124
 6887TIP3   OH220617   2.127   2.666   0.896
 6887TIP3    H120618   2.169   2.718   0.964
 6887TIP3    H220619   2.193   2.602   0.870
 6888TIP3   OH220620   1.845   4.963   4.587
 6888TIP3    H120621   1.832   5.021   4.661
 6888TIP3    H220622   1.844   5.021   4.510
 6889TIP3   OH220623   4.900   1.437   5.510
 6889TIP3    H120624   4.940   1.356   5.479
 6889TIP3    H220625   4.948   1.506   5.465
 6890TIP3   OH220626   5.801   0.957   3.043
 6890TIP3    H120627   5.776   0.864   3.045
 6890TIP3    H220628   5.758   0.992   2.965
 6891TIP3   OH220629   6.807   5.583   2.921
 6891TIP3    H120630   6.889   5.631   2.931
 6891TIP3    H220631   6.791   5.582   2.827
 6892TIP3   OH220632   7.226   1.051   0.472
 6892TIP3    H120633   7.208   1.143   0.450
 6892TIP3    H220634   7.290   1.023   0.407
 6893TIP3   OH220635   3.048   7.654   3.599
 6893TIP3    H120636   3.123   7.596   3.585
 6893TIP3    H220637   3.058   7.722   3.532
 6894TIP3   OH220638   2.037   5.375   5.780
 6894TIP3    H120639   2.110   5.349   5.836
 6894TIP3    H220640   1.998   5.293   5.751
 6895TIP3   OH220641   7.428   1.811   0.344
 6895TIP3    H120642   7.468   1.857   0.418
 6895TIP3    H220643   7.396   1.880   0.286
 6896TIP3   OH220644   3.449   0.216   3.185
 6896TIP3    H120645   3.492   0.231   3.100
 6896TIP3    H220646   3.470   0.125   3.207
 6897TIP3   OH220647   4.164   4.043   5.762
 6897TIP3    H120648   4.206   4.129   5.760
 6897TIP3    H220649   4.135   4.033   5.853
 6898TIP3   OH220650   4.754   6.561   6.668
 6898TIP3    H120651   4.846   6.535   6.672
 6898TIP3    H220652   4.733   6.587   6.757
 6899TIP3   OH220653   1.576   3.382   0.583
 6899TIP3    H120654   1.499   3.325   0.593
 6899TIP3    H220655   1.588   3.421   0.670
 6900TIP3   OH220656   0.507   6.149   1.320
 6900TIP3    H120657   0.590   6.184   1.353
 6900TIP3    H220658   0.486   6.204   1.245
 6901TIP3   OH220659   5.614   4.712   5.612
 6901TIP3    H120660   5.540   4.679   5.662
 6901TIP3    H220661   5.593   4.804   5.597
 6902TIP3   OH220662   4.500   1.925   3.401
 6902TIP3    H120663   4.593   1.929   3.379
 6902TIP3    H220664   4.497   1.868   3.478
 6903TIP3   OH220665   3.713   1.565   1.823
 6903TIP3    H120666   3.744   1.477   1.845
 6903TIP3    H220667   3.751   1.621   1.891
 6904TIP3   OH220668   6.418   3.790   6.045
 6904TIP3    H120669   6.337   3.778   5.995
 6904TIP3    H220670   6.394   3.850   6.116
 6905TIP3   OH220671   1.159   7.477   6.672
 6905TIP3    H120672   1.190   7.390   6.694
 6905TIP3    H220673   1.069   7.480   6.706
 6906TIP3   OH220674   4.364   2.918   5.474
 6906TIP3    H120675   4.375   3.009   5.499
 6906TIP3    H220676   4.440   2.899   5.419
 6907TIP3   OH220677   0.448   1.800   1.615
 6907TIP3    H120678   0.505   1.749   1.673
 6907TIP3    H220679   0.503   1.818   1.539
 6908TIP3   OH220680   5.439   6.146   2.534
 6908TIP3    H120681   5.412   6.091   2.460
 6908TIP3    H220682   5.413   6.234   2.509
 6909TIP3   OH220683   7.816   3.089   1.796
 6909TIP3    H120684   7.793   3.021   1.732
 6909TIP3    H220685   7.779   3.170   1.760
 6910TIP3   OH220686   3.335   6.849   5.743
 6910TIP3    H120687   3.323   6.921   5.681
 6910TIP3    H220688   3.246   6.827   5.770
 6911TIP3   OH220689   8.269   5.782   0.910
 6911TIP3    H120690   8.336   5.842   0.879
 6911TIP3    H220691   8.316   5.717   0.962
 6912TIP3   OH220692   5.159   6.457   1.236
 6912TIP3    H120693   5.122   6.476   1.150
 6912TIP3    H220694   5.083   6.446   1.293
 6913TIP3   OH220695   3.016   5.319   4.408
 6913TIP3    H120696   2.967   5.395   4.376
 6913TIP3    H220697   3.044   5.274   4.328
 6914TIP3   OH220698   3.652   5.575   3.510
 6914TIP3    H120699   3.654   5.665   3.542
 6914TIP3    H220700   3.717   5.529   3.562
 6915TIP3   OH220701   7.913   2.923   6.413
 6915TIP3    H120702   7.985   2.947   6.472
 6915TIP3    H220703   7.834   2.948   6.461
 6916TIP3   OH220704   6.532   2.951   0.499
 6916TIP3    H120705   6.532   2.864   0.539
 6916TIP3    H220706   6.614   2.955   0.450
 6917TIP3   OH220707   2.151   0.504   0.667
 6917TIP3    H120708   2.203   0.565   0.615
 6917TIP3    H220709   2.173   0.525   0.758
 6918TIP3   OH220710   6.963   4.137   5.829
 6918TIP3    H120711   6.914   4.106   5.905
 6918TIP3    H220712   6.902   4.127   5.756
 6919TIP3   OH220713   5.802   5.880   1.260
 6919TIP3    H120714   5.724   5.872   1.315
 6919TIP3    H220715   5.770   5.921   1.180
 6920TIP3   OH220716   1.994   7.682   4.775
 6920TIP3    H120717   1.974   7.762   4.726
 6920TIP3    H220718   1.955   7.612   4.722
 6921TIP3   OH220719   1.353   7.759   4.759
 6921TIP3    H120720   1.395   7.711   4.830
 6921TIP3    H220721   1.393   7.846   4.762
 6922TIP3   OH220722   3.614   5.377   6.760
 6922TIP3    H120723   3.649   5.312   6.699
 6922TIP3    H220724   3.552   5.428   6.708
 6923TIP3   OH220725   6.636   5.335   3.265
 6923TIP3    H120726   6.720   5.376   3.250
 6923TIP3    H220727   6.572   5.406   3.257
 6924TIP3   OH220728   5.500   4.971   5.828
 6924TIP3    H120729   5.539   5.052   5.794
 6924TIP3    H220730   5.409   4.975   5.800
 6925TIP3   OH220731   0.536   5.963   3.488
 6925TIP3    H120732   0.495   5.886   3.448
 6925TIP3    H220733   0.629   5.941   3.494
 6926TIP3   OH220734   4.204   1.875   5.637
 6926TIP3    H120735   4.122   1.922   5.621
 6926TIP3    H220736   4.219   1.885   5.731
 6927TIP3   OH220737   2.016   3.734   6.596
 6927TIP3    H120738   2.098   3.706   6.637
 6927TIP3    H220739   2.016   3.689   6.511
 6928TIP3   OH220740   4.130   2.109   4.254
 6928TIP3    H120741   4.187   2.069   4.320
 6928TIP3    H220742   4.071   2.038   4.227
 6929TIP3   OH220743   6.918   4.159   0.972
 6929TIP3    H120744   6.968   4.128   0.897
 6929TIP3    H220745   6.953   4.247   0.989
 6930TIP3   OH220746   3.905   0.720   1.195
 6930TIP3    H120747   3.844   0.646   1.190
 6930TIP3    H220748   3.857   0.787   1.245
 6931TIP3   OH220749   2.034   7.733   3.332
 6931TIP3    H120750   2.022   7.819   3.292
 6931TIP3    H220751   1.961   7.681   3.298
 6932TIP3   OH220752   2.592   7.571   6.277
 6932TIP3    H120753   2.537   7.499   6.248
 6932TIP3    H220754   2.613   7.550   6.368
 6933TIP3   OH220755   5.362   2.371   2.915
 6933TIP3    H120756   5.281   2.393   2.870
 6933TIP3    H220757   5.431   2.409   2.860
 6934TIP3   OH220758   2.289   2.549   3.520
 6934TIP3    H120759   2.232   2.531   3.446
 6934TIP3    H220760   2.321   2.638   3.505
 6935TIP3   OH220761   5.122   6.516   3.203
 6935TIP3    H120762   5.076   6.567   3.137
 6935TIP3    H220763   5.062   6.513   3.278
 6936TIP3   OH220764   5.819   5.946   4.327
 6936TIP3    H120765   5.897   5.981   4.283
 6936TIP3    H220766   5.753   5.941   4.258
 6937TIP3   OH220767   2.734   6.511   5.878
 6937TIP3    H120768   2.671   6.441   5.859
 6937TIP3    H220769   2.727   6.524   5.972
 6938TIP3   OH220770   5.983   0.259   0.868
 6938TIP3    H120771   5.894   0.237   0.896
 6938TIP3    H220772   5.971   0.335   0.810
 6939TIP3   OH220773   2.150   6.579   6.739
 6939TIP3    H120774   2.131   6.572   6.645
 6939TIP3    H220775   2.064   6.586   6.780
 6940TIP3   OH220776   1.843   7.033   3.111
 6940TIP3    H120777   1.937   7.037   3.126
 6940TIP3    H220778   1.833   7.048   3.017
 6941TIP3   OH220779   2.784   6.527   6.167
 6941TIP3    H120780   2.758   6.541   6.258
 6941TIP3    H220781   2.777   6.432   6.155
 6942TIP3   OH220782   3.734   4.352   4.068
 6942TIP3    H120783   3.755   4.385   3.981
 6942TIP3    H220784   3.705   4.430   4.116
 6943TIP3   OH220785   5.106   2.367   0.726
 6943TIP3    H120786   5.094   2.409   0.811
 6943TIP3    H220787   5.024   2.321   0.710
 6944TIP3   OH220788   4.828   6.383   1.291
 6944TIP3    H120789   4.822   6.288   1.284
 6944TIP3    H220790   4.822   6.415   1.201
 6945TIP3   OH220791   5.694   1.380   1.737
 6945TIP3    H120792   5.786   1.370   1.715
 6945TIP3    H220793   5.647   1.348   1.660
 6946TIP3   OH220794   0.881   5.493   1.193
 6946TIP3    H120795   0.905   5.443   1.271
 6946TIP3    H220796   0.818   5.558   1.225
 6947TIP3   OH220797   5.615   2.411   6.026
 6947TIP3    H120798   5.544   2.393   6.087
 6947TIP3    H220799   5.600   2.351   5.953
 6948TIP3   OH220800   6.548   3.635   4.804
 6948TIP3    H120801   6.562   3.705   4.740
 6948TIP3    H220802   6.571   3.675   4.888
 6949TIP3   OH220803   3.200   2.784   5.553
 6949TIP3    H120804   3.178   2.790   5.460
 6949TIP3    H220805   3.124   2.819   5.598
 6950TIP3   OH220806   4.211   5.155   1.393
 6950TIP3    H120807   4.188   5.078   1.444
 6950TIP3    H220808   4.128   5.183   1.353
 6951TIP3   OH220809   1.410   7.261   1.500
 6951TIP3    H120810   1.322   7.263   1.539
 6951TIP3    H220811   1.411   7.181   1.448
 6952TIP3   OH220812   4.530   1.124   0.673
 6952TIP3    H120813   4.445   1.137   0.714
 6952TIP3    H220814   4.511   1.087   0.587
 6953TIP3   OH220815   4.310   6.750   1.288
 6953TIP3    H120816   4.275   6.790   1.367
 6953TIP3    H220817   4.249   6.679   1.268
 6954TIP3   OH220818   6.434   3.169   0.639
 6954TIP3    H120819   6.480   3.103   0.588
 6954TIP3    H220820   6.378   3.214   0.576
 6955TIP3   OH220821   4.874   3.434   1.628
 6955TIP3    H120822   4.967   3.455   1.643
 6955TIP3    H220823   4.873   3.390   1.543
 6956TIP3   OH220824   3.457   2.664   5.559
 6956TIP3    H120825   3.465   2.610   5.637
 6956TIP3    H220826   3.368   2.699   5.563
 6957TIP3   OH220827   1.758   2.737   2.760
 6957TIP3    H120828   1.756   2.657   2.708
 6957TIP3    H220829   1.818   2.717   2.832
 6958TIP3   OH220830   3.535   4.784   2.699
 6958TIP3    H120831   3.529   4.690   2.715
 6958TIP3    H220832   3.478   4.823   2.765
 6959TIP3   OH220833   4.981   6.372   1.852
 6959TIP3    H120834   5.071   6.367   1.883
 6959TIP3    H220835   4.928   6.349   1.928
 6960TIP3   OH220836   7.292   2.712   2.605
 6960TIP3    H120837   7.231   2.643   2.633
 6960TIP3    H220838   7.379   2.678   2.631
 6961TIP3   OH220839   4.398   3.159   0.264
 6961TIP3    H120840   4.490   3.159   0.293
 6961TIP3    H220841   4.363   3.075   0.294
 6962TIP3   OH220842   3.180   1.627   4.729
 6962TIP3    H120843   3.154   1.649   4.639
 6962TIP3    H220844   3.213   1.709   4.766
 6963TIP3   OH220845   7.965   5.341   3.427
 6963TIP3    H120846   7.889   5.288   3.400
 6963TIP3    H220847   8.030   5.327   3.358
 6964TIP3   OH220848   4.474   1.830   5.156
 6964TIP3    H120849   4.378   1.836   5.154
 6964TIP3    H220850   4.492   1.754   5.211
 6965TIP3   OH220851   5.017   4.835   3.392
 6965TIP3    H120852   5.054   4.829   3.480
 6965TIP3    H220853   5.085   4.800   3.335
 6966TIP3   OH220854   6.626   5.940   0.251
 6966TIP3    H120855   6.558   5.884   0.215
 6966TIP3    H220856   6.708   5.901   0.220
 6967TIP3   OH220857   5.296   1.105   6.814
 6967TIP3    H120858   5.230   1.168   6.843
 6967TIP3    H220859   5.248   1.043   6.759
 6968TIP3   OH220860   2.349   7.084   4.547
 6968TIP3    H120861   2.313   7.167   4.578
 6968TIP3    H220862   2.438   7.105   4.519
 6969TIP3   OH220863   0.900   3.976   1.838
 6969TIP3    H120864   0.840   3.972   1.912
 6969TIP3    H220865   0.940   3.889   1.834
 6970TIP3   OH220866   1.608   5.678   3.298
 6970TIP3    H120867   1.661   5.757   3.286
 6970TIP3    H220868   1.672   5.607   3.303
 6971TIP3   OH220869   2.929   0.702   6.428
 6971TIP3    H120870   2.898   0.732   6.513
 6971TIP3    H220871   2.938   0.607   6.438
 6972TIP3   OH220872   5.324   0.755   6.024
 6972TIP3    H120873   5.363   0.669   6.040
 6972TIP3    H220874   5.311   0.792   6.111
 6973TIP3   OH220875   3.972   0.043   4.992
 6973TIP3    H120876   3.994  -0.048   4.972
 6973TIP3    H220877   3.877   0.045   4.991
 6974TIP3   OH220878   5.312   3.174   2.891
 6974TIP3    H120879   5.385   3.197   2.834
 6974TIP3    H220880   5.239   3.155   2.831
 6975TIP3   OH220881   6.837   6.419   1.477
 6975TIP3    H120882   6.776   6.490   1.455
 6975TIP3    H220883   6.785   6.339   1.466
 6976TIP3   OH220884   0.480   1.262   1.308
 6976TIP3    H120885   0.543   1.191   1.314
 6976TIP3    H220886   0.442   1.253   1.220
 6977TIP3   OH220887   0.928   3.758   6.025
 6977TIP3    H120888   1.005   3.739   6.078
 6977TIP3    H220889   0.962   3.789   5.942
 6978TIP3   OH220890   0.738   7.047   1.000
 6978TIP3    H120891   0.791   7.046   0.920
 6978TIP3    H220892   0.674   6.977   0.988
 6979TIP3   OH220893   2.911   4.922   2.941
 6979TIP3    H120894   2.905   4.998   2.883
 6979TIP3    H220895   2.916   4.847   2.882
 6980TIP3   OH220896   5.326   1.866   1.640
 6980TIP3    H120897   5.421   1.854   1.641
 6980TIP3    H220898   5.301   1.865   1.732
 6981TIP3   OH220899   1.598   0.620   3.703
 6981TIP3    H120900   1.545   0.550   3.741
 6981TIP3    H220901   1.673   0.575   3.664
 6982TIP3   OH220902   5.472   3.047   3.969
 6982TIP3    H120903   5.384   3.035   4.004
 6982TIP3    H220904   5.518   2.966   3.989
 6983TIP3   OH220905   5.402   0.492   6.054
 6983TIP3    H120906   5.347   0.435   5.999
 6983TIP3    H220907   5.469   0.525   5.994
 6984TIP3   OH220908   0.404   7.663   4.319
 6984TIP3    H120909   0.442   7.594   4.264
 6984TIP3    H220910   0.345   7.711   4.261
 6985TIP3   OH220911   0.381   1.567   4.868
 6985TIP3    H120912   0.399   1.505   4.798
 6985TIP3    H220913   0.298   1.537   4.906
 6986TIP3   OH220914   3.260   5.620   2.588
 6986TIP3    H120915   3.263   5.667   2.671
 6986TIP3    H220916   3.224   5.534   2.610
 6987TIP3   OH220917   0.432   7.848   0.771
 6987TIP3    H120918   0.435   7.764   0.726
 6987TIP3    H220919   0.399   7.909   0.705
 6988TIP3   OH220920   4.109   2.668   5.780
 6988TIP3    H120921   4.159   2.733   5.829
 6988TIP3    H220922   4.163   2.648   5.704
 6989TIP3   OH220923   7.675   2.437   5.553
 6989TIP3    H120924   7.590   2.479   5.566
 6989TIP3    H220925   7.663   2.348   5.586
 6990TIP3   OH220926   2.132   1.502   1.203
 6990TIP3    H120927   2.207   1.442   1.197
 6990TIP3    H220928   2.083   1.487   1.122
 6991TIP3   OH220929   5.054   5.372   6.054
 6991TIP3    H120930   5.091   5.388   6.141
 6991TIP3    H220931   5.052   5.276   6.046
 6992TIP3   OH220932   7.831   1.163   6.332
 6992TIP3    H120933   7.922   1.172   6.307
 6992TIP3    H220934   7.794   1.251   6.320
 6993TIP3   OH220935   4.384   7.408   0.739
 6993TIP3    H120936   4.460   7.373   0.693
 6993TIP3    H220937   4.410   7.410   0.831
 6994TIP3   OH220938   3.315   2.932   1.814
 6994TIP3    H120939   3.394   2.877   1.818
 6994TIP3    H220940   3.242   2.869   1.816
 6995TIP3   OH220941   2.501   4.088   6.757
 6995TIP3    H120942   2.589   4.053   6.740
 6995TIP3    H220943   2.467   4.110   6.670
 6996TIP3   OH220944   1.290   2.366   6.355
 6996TIP3    H120945   1.204   2.408   6.361
 6996TIP3    H220946   1.352   2.436   6.374
 6997TIP3   OH220947   6.792   2.063   3.088
 6997TIP3    H120948   6.860   2.030   3.147
 6997TIP3    H220949   6.797   2.159   3.096
 6998TIP3   OH220950   0.944   3.623   3.368
 6998TIP3    H120951   0.903   3.701   3.330
 6998TIP3    H220952   0.896   3.550   3.330
 6999TIP3   OH220953   7.431   2.513   2.932
 6999TIP3    H120954   7.457   2.453   3.001
 6999TIP3    H220955   7.426   2.458   2.853
 7000TIP3   OH220956   4.406   7.272   1.536
 7000TIP3    H120957   4.443   7.208   1.597
 7000TIP3    H220958   4.458   7.261   1.456
 7001TIP3   OH220959   0.040   7.382   5.176
 7001TIP3    H120960   0.026   7.376   5.082
 7001TIP3    H220961   0.131   7.412   5.185
 7002TIP3   OH220962   4.259   1.801   1.222
 7002TIP3    H120963   4.336   1.777   1.172
 7002TIP3    H220964   4.293   1.851   1.296
 7003TIP3   OH220965   3.971   0.664   4.153
 7003TIP3    H120966   4.012   0.582   4.127
 7003TIP3    H220967   3.968   0.716   4.072
 7004TIP3   OH220968   0.371   5.022   2.789
 7004TIP3    H120969   0.288   5.068   2.786
 7004TIP3    H220970   0.362   4.951   2.726
 7005TIP3   OH220971   6.462   0.085   2.078
 7005TIP3    H120972   6.385   0.032   2.058
 7005TIP3    H220973   6.427   0.171   2.099
 7006TIP3   OH220974   5.485   5.570   0.055
 7006TIP3    H120975   5.490   5.478   0.030
 7006TIP3    H220976   5.391   5.587   0.067
 7007TIP3   OH220977   3.893   4.479   4.487
 7007TIP3    H120978   3.904   4.458   4.579
 7007TIP3    H220979   3.854   4.401   4.448
 7008TIP3   OH220980   4.773   6.776   5.112
 7008TIP3    H120981   4.705   6.724   5.153
 7008TIP3    H220982   4.789   6.734   5.028
 7009TIP3   OH220983   2.843   3.425   2.044
 7009TIP3    H120984   2.776   3.463   2.100
 7009TIP3    H220985   2.842   3.331   2.065
 7010TIP3   OH220986   0.184   2.813   3.118
 7010TIP3    H120987   0.107   2.826   3.063
 7010TIP3    H220988   0.235   2.894   3.106
 7011TIP3   OH220989   0.570   0.119   3.739
 7011TIP3    H120990   0.554   0.147   3.649
 7011TIP3    H220991   0.487   0.134   3.784
 7012TIP3   OH220992   0.262   0.796   3.590
 7012TIP3    H120993   0.243   0.777   3.682
 7012TIP3    H220994   0.298   0.714   3.556
 7013TIP3   OH220995   2.176   6.867   1.909
 7013TIP3    H120996   2.100   6.914   1.873
 7013TIP3    H220997   2.187   6.904   1.996
 7014TIP3   OH220998   1.323   0.199   2.210
 7014TIP3    H120999   1.333   0.290   2.236
 7014TIP3    H221000   1.322   0.201   2.114
 7015TIP3   OH221001   4.428   2.428   3.169
 7015TIP3    H121002   4.438   2.348   3.221
 7015TIP3    H221003   4.493   2.420   3.100
 7016TIP3   OH221004   7.624   5.316   6.714
 7016TIP3    H121005   7.597   5.393   6.765
 7016TIP3    H221006   7.552   5.254   6.725
 7017TIP3   OH221007   2.850   4.211   5.685
 7017TIP3    H121008   2.818   4.297   5.712
 7017TIP3    H221009   2.864   4.164   5.767
 7018TIP3   OH221010   6.312   5.280   0.186
 7018TIP3    H121011   6.275   5.353   0.136
 7018TIP3    H221012   6.390   5.255   0.136
 7019TIP3   OH221013   0.757   4.776   4.288
 7019TIP3    H121014   0.755   4.846   4.223
 7019TIP3    H221015   0.849   4.749   4.292
 7020TIP3   OH221016   7.799   5.640   2.631
 7020TIP3    H121017   7.792   5.638   2.727
 7020TIP3    H221018   7.709   5.636   2.600
 7021TIP3   OH221019   6.931   7.194   6.277
 7021TIP3    H121020   7.012   7.218   6.233
 7021TIP3    H221021   6.897   7.277   6.311
 7022TIP3   OH221022   1.747   3.898   5.123
 7022TIP3    H121023   1.816   3.925   5.184
 7022TIP3    H221024   1.772   3.938   5.039
 7023TIP3   OH221025   6.178   6.167   2.934
 7023TIP3    H121026   6.109   6.233   2.939
 7023TIP3    H221027   6.195   6.143   3.025
 7024TIP3   OH221028   4.875   2.477   2.256
 7024TIP3    H121029   4.785   2.447   2.266
 7024TIP3    H221030   4.922   2.402   2.221
 7025TIP3   OH221031   5.528   7.015   1.745
 7025TIP3    H121032   5.479   7.096   1.735
 7025TIP3    H221033   5.586   7.031   1.820
 7026TIP3   OH221034   6.125   0.921   0.672
 7026TIP3    H121035   6.153   0.834   0.646
 7026TIP3    H221036   6.196   0.954   0.728
 7027TIP3   OH221037   7.388   2.234   6.420
 7027TIP3    H121038   7.407   2.217   6.328
 7027TIP3    H221039   7.304   2.191   6.435
 7028TIP3   OH221040   2.389   5.842   1.840
 7028TIP3    H121041   2.324   5.775   1.859
 7028TIP3    H221042   2.449   5.800   1.778
 7029TIP3   OH221043   0.324   6.634   4.804
 7029TIP3    H121044   0.267   6.563   4.774
 7029TIP3    H221045   0.294   6.711   4.755
 7030TIP3   OH221046   0.054   1.425   4.370
 7030TIP3    H121047   0.130   1.440   4.427
 7030TIP3    H221048   0.005   1.356   4.413
 7031TIP3   OH221049   7.032   3.563   6.218
 7031TIP3    H121050   6.992   3.625   6.281
 7031TIP3    H221051   7.020   3.477   6.258
 7032TIP3   OH221052   0.942   6.555   5.340
 7032TIP3    H121053   0.893   6.535   5.260
 7032TIP3    H221054   0.996   6.630   5.317
 7033TIP3   OH221055   5.281   3.033   3.146
 7033TIP3    H121056   5.206   3.082   3.181
 7033TIP3    H221057   5.291   3.065   3.057
 7034TIP3   OH221058   5.757   4.661   0.413
 7034TIP3    H121059   5.841   4.665   0.366
 7034TIP3    H221060   5.758   4.576   0.457
 7035TIP3   OH221061   8.034   6.219   0.261
 7035TIP3    H121062   8.047   6.222   0.356
 7035TIP3    H221063   8.111   6.264   0.225
 7036TIP3   OH221064   1.914   3.637   0.888
 7036TIP3    H121065   1.906   3.697   0.814
 7036TIP3    H221066   1.976   3.570   0.859
 7037TIP3   OH221067   4.157   6.359   1.916
 7037TIP3    H121068   4.210   6.422   1.964
 7037TIP3    H221069   4.126   6.408   1.839
 7038TIP3   OH221070   5.953   4.048   2.804
 7038TIP3    H121071   6.009   4.110   2.851
 7038TIP3    H221072   6.001   3.966   2.806
 7039TIP3   OH221073   7.458   4.985   3.707
 7039TIP3    H121074   7.543   4.988   3.750
 7039TIP3    H221075   7.463   5.053   3.640
 7040TIP3   OH221076   1.144   0.086   0.480
 7040TIP3    H121077   1.217   0.140   0.509
 7040TIP3    H221078   1.072   0.109   0.539
 7041TIP3   OH221079   3.445   0.090   5.208
 7041TIP3    H121080   3.509   0.094   5.279
 7041TIP3    H221081   3.361   0.108   5.250
 7042TIP3   OH221082   6.318   1.219   5.100
 7042TIP3    H121083   6.373   1.189   5.028
 7042TIP3    H221084   6.293   1.140   5.146
 7043TIP3   OH221085   4.198   7.204   1.255
 7043TIP3    H121086   4.172   7.286   1.213
 7043TIP3    H221087   4.294   7.208   1.258
 7044TIP3   OH221088   6.141   1.612   4.292
 7044TIP3    H121089   6.168   1.530   4.251
 7044TIP3    H221090   6.117   1.669   4.219
 7045TIP3   OH221091   4.817   2.382   3.584
 7045TIP3    H121092   4.819   2.472   3.551
 7045TIP3    H221093   4.904   2.346   3.563
 7046TIP3   OH221094   6.882   0.247   2.372
 7046TIP3    H121095   6.977   0.253   2.387
 7046TIP3    H221096   6.870   0.161   2.331
 7047TIP3   OH221097   2.975   5.564   4.588
 7047TIP3    H121098   3.007   5.623   4.519
 7047TIP3    H221099   3.039   5.493   4.590
 7048TIP3   OH221100   1.839   6.366   1.412
 7048TIP3    H121101   1.890   6.286   1.420
 7048TIP3    H221102   1.877   6.412   1.338
 7049TIP3   OH221103   1.366   6.676   1.492
 7049TIP3    H121104   1.299   6.721   1.544
 7049TIP3    H221105   1.336   6.687   1.401
 7050TIP3   OH221106   5.310   2.331   2.247
 7050TIP3    H121107   5.345   2.303   2.162
 7050TIP3    H221108   5.384   2.323   2.307
 7051TIP3   OH221109   0.802   1.138   2.369
 7051TIP3    H121110   0.849   1.058   2.395
 7051TIP3    H221111   0.872   1.201   2.348
 7052TIP3   OH221112   4.637   3.611   3.160
 7052TIP3    H121113   4.594   3.645   3.238
 7052TIP3    H221114   4.637   3.685   3.099
 7053TIP3   OH221115   3.684   0.906   0.179
 7053TIP3    H121116   3.758   0.967   0.184
 7053TIP3    H221117   3.680   0.866   0.266
 7054TIP3   OH221118   4.653   6.502   1.459
 7054TIP3    H121119   4.585   6.437   1.443
 7054TIP3    H221120   4.731   6.467   1.415
 7055TIP3   OH221121   1.123   5.417   1.574
 7055TIP3    H121122   1.151   5.495   1.527
 7055TIP3    H221123   1.192   5.400   1.637
 7056TIP3   OH221124   5.868   0.384   2.690
 7056TIP3    H121125   5.945   0.329   2.696
 7056TIP3    H221126   5.820   0.352   2.614
 7057TIP3   OH221127   6.188   6.366   6.738
 7057TIP3    H121128   6.152   6.380   6.650
 7057TIP3    H221129   6.120   6.316   6.783
 7058TIP3   OH221130   5.165   7.353   5.563
 7058TIP3    H121131   5.210   7.316   5.487
 7058TIP3    H221132   5.210   7.436   5.579
 7059TIP3   OH221133   0.027   2.015   5.238
 7059TIP3    H121134   0.000   1.980   5.153
 7059TIP3    H221135  -0.054   2.036   5.283
 7060TIP3   OH221136   1.662   7.256   1.083
 7060TIP3    H121137   1.692   7.207   1.160
 7060TIP3    H221138   1.695   7.207   1.008
 7061TIP3   OH221139   7.658   1.172   2.178
 7061TIP3    H121140   7.597   1.213   2.240
 7061TIP3    H221141   7.744   1.201   2.207
 7062TIP3   OH221142   2.752   6.136   2.835
 7062TIP3    H121143   2.750   6.231   2.849
 7062TIP3    H221144   2.691   6.100   2.899
 7063TIP3   OH221145   1.377   3.846   5.624
 7063TIP3    H121146   1.292   3.862   5.584
 7063TIP3    H221147   1.439   3.897   5.571
 7064TIP3   OH221148   7.336   3.160   2.724
 7064TIP3    H121149   7.268   3.104   2.762
 7064TIP3    H221150   7.289   3.211   2.657
 7065TIP3   OH221151   0.941   7.081   0.269
 7065TIP3    H121152   0.919   7.115   0.356
 7065TIP3    H221153   0.925   6.987   0.275
 7066TIP3   OH221154   1.712   2.851   3.926
 7066TIP3    H121155   1.753   2.785   3.981
 7066TIP3    H221156   1.637   2.882   3.976
 7067TIP3   OH221157   1.867   1.490   4.329
 7067TIP3    H121158   1.955   1.452   4.336
 7067TIP3    H221159   1.850   1.492   4.235
 7068TIP3   OH221160   7.488   2.388   2.687
 7068TIP3    H121161   7.430   2.324   2.645
 7068TIP3    H221162   7.482   2.466   2.633
 7069TIP3   OH221163   0.083   4.798   3.296
 7069TIP3    H121164   0.016   4.826   3.358
 7069TIP3    H221165   0.064   4.706   3.279
 7070TIP3   OH221166   8.023   2.368   0.174
 7070TIP3    H121167   7.981   2.452   0.188
 7070TIP3    H221168   8.021   2.326   0.260
 7071TIP3   OH221169   1.755   3.174   0.785
 7071TIP3    H121170   1.738   3.107   0.719
 7071TIP3    H221171   1.681   3.169   0.845
 7072TIP3   OH221172   3.249   5.440   6.742
 7072TIP3    H121173   3.254   5.352   6.779
 7072TIP3    H221174   3.263   5.427   6.648
 7073TIP3   OH221175   1.216   0.419   2.496
 7073TIP3    H121176   1.279   0.347   2.493
 7073TIP3    H221177   1.257   0.483   2.554
 7074TIP3   OH221178   5.033   7.491   3.676
 7074TIP3    H121179   5.069   7.544   3.747
 7074TIP3    H221180   5.110   7.461   3.627
 7075TIP3   OH221181   5.935   0.167   5.761
 7075TIP3    H121182   5.871   0.236   5.773
 7075TIP3    H221183   6.012   0.212   5.726
 7076TIP3   OH221184   0.565   0.854   4.273
 7076TIP3    H121185   0.610   0.929   4.312
 7076TIP3    H221186   0.614   0.835   4.193
 7077TIP3   OH221187   8.106   4.855   3.276
 7077TIP3    H121188   8.087   4.833   3.367
 7077TIP3    H221189   8.138   4.774   3.238
 7078TIP3   OH221190   6.185   4.444   1.085
 7078TIP3    H121191   6.097   4.444   1.122
 7078TIP3    H221192   6.184   4.370   1.024
 7079TIP3   OH221193   1.058   6.300   0.241
 7079TIP3    H121194   1.147   6.271   0.221
 7079TIP3    H221195   1.070   6.384   0.286
 7080TIP3   OH221196   2.859   1.978   0.575
 7080TIP3    H121197   2.932   2.029   0.607
 7080TIP3    H221198   2.854   1.998   0.481
 7081TIP3   OH221199  -0.061   4.810   5.833
 7081TIP3    H121200  -0.038   4.777   5.747
 7081TIP3    H221201  -0.057   4.734   5.891
 7082TIP3   OH221202   5.623   1.101   0.821
 7082TIP3    H121203   5.648   1.104   0.914
 7082TIP3    H221204   5.589   1.012   0.808
 7083TIP3   OH221205   7.082   2.355   1.517
 7083TIP3    H121206   7.030   2.340   1.596
 7083TIP3    H221207   7.027   2.321   1.446
 7084TIP3   OH221208   3.112   0.455   3.369
 7084TIP3    H121209   3.166   0.376   3.375
 7084TIP3    H221210   3.022   0.423   3.361
 7085TIP3   OH221211   0.221   2.935   1.411
 7085TIP3    H121212   0.138   2.967   1.447
 7085TIP3    H221213   0.201   2.846   1.380
 7086TIP3   OH221214   6.391   0.336   1.534
 7086TIP3    H121215   6.417   0.290   1.455
 7086TIP3    H221216   6.354   0.269   1.591
 7087TIP3   OH221217   0.206   1.422   1.350
 7087TIP3    H121218   0.219   1.402   1.443
 7087TIP3    H221219   0.114   1.405   1.334
 7088TIP3   OH221220   6.026   1.099   1.278
 7088TIP3    H121221   6.070   1.182   1.295
 7088TIP3    H221222   5.954   1.097   1.340
 7089TIP3   OH221223   7.717   3.108   5.548
 7089TIP3    H121224   7.746   3.073   5.632
 7089TIP3    H221225   7.671   3.036   5.506
 7090TIP3   OH221226   1.221   7.477   3.221
 7090TIP3    H121227   1.170   7.555   3.199
 7090TIP3    H221228   1.159   7.421   3.268
 7091TIP3   OH221229   8.182   6.440   4.995
 7091TIP3    H121230   8.155   6.512   4.938
 7091TIP3    H221231   8.157   6.361   4.948
 7092TIP3   OH221232   2.364   6.544   1.340
 7092TIP3    H121233   2.443   6.504   1.376
 7092TIP3    H221234   2.354   6.504   1.253
 7093TIP3   OH221235   2.730   7.494   1.150
 7093TIP3    H121236   2.802   7.542   1.189
 7093TIP3    H221237   2.764   7.463   1.066
 7094TIP3   OH221238   0.813   0.685   4.412
 7094TIP3    H121239   0.736   0.631   4.394
 7094TIP3    H221240   0.882   0.648   4.358
 7095TIP3   OH221241   2.958   1.396   1.197
 7095TIP3    H121242   2.865   1.391   1.178
 7095TIP3    H221243   3.000   1.400   1.111
 7096TIP3   OH221244   5.511   3.787   0.637
 7096TIP3    H121245   5.501   3.694   0.617
 7096TIP3    H221246   5.516   3.791   0.732
 7097TIP3   OH221247   2.031   2.235   6.134
 7097TIP3    H121248   2.062   2.300   6.198
 7097TIP3    H221249   2.110   2.202   6.093
 7098TIP3   OH221250   0.513   2.218   3.253
 7098TIP3    H121251   0.603   2.238   3.280
 7098TIP3    H221252   0.470   2.188   3.332
 7099TIP3   OH221253   7.395   7.446   3.360
 7099TIP3    H121254   7.344   7.450   3.279
 7099TIP3    H221255   7.469   7.389   3.338
 7100TIP3   OH221256   8.258   6.040   0.427
 7100TIP3    H121257   8.230   6.130   0.442
 7100TIP3    H221258   8.298   6.041   0.340
 7101TIP3   OH221259   6.391   6.746   0.662
 7101TIP3    H121260   6.341   6.822   0.633
 7101TIP3    H221261   6.342   6.671   0.629
 7102TIP3   OH221262   1.368   2.904   1.784
 7102TIP3    H121263   1.420   2.895   1.864
 7102TIP3    H221264   1.431   2.891   1.713
 7103TIP3   OH221265   0.296   3.107   0.614
 7103TIP3    H121266   0.286   3.082   0.706
 7103TIP3    H221267   0.350   3.038   0.576
 7104TIP3   OH221268   4.367   4.261   0.455
 7104TIP3    H121269   4.348   4.168   0.441
 7104TIP3    H221270   4.285   4.305   0.437
 7105TIP3   OH221271   6.069   7.183   6.364
 7105TIP3    H121272   6.163   7.193   6.348
 7105TIP3    H221273   6.037   7.273   6.375
 7106TIP3   OH221274   4.976   0.274   1.950
 7106TIP3    H121275   5.059   0.230   1.932
 7106TIP3    H221276   4.974   0.348   1.889
 7107TIP3   OH221277   7.324   4.119   1.228
 7107TIP3    H121278   7.350   4.038   1.272
 7107TIP3    H221279   7.260   4.159   1.287
 7108TIP3   OH221280   4.270   2.049   4.639
 7108TIP3    H121281   4.199   2.045   4.703
 7108TIP3    H221282   4.233   2.010   4.559
 7109TIP3   OH221283   3.236   4.918   6.448
 7109TIP3    H121284   3.164   4.923   6.385
 7109TIP3    H221285   3.234   4.828   6.480
 7110TIP3   OH221286   5.307   6.703   4.068
 7110TIP3    H121287   5.381   6.684   4.126
 7110TIP3    H221288   5.304   6.799   4.064
 7111TIP3   OH221289   6.976   3.000   1.097
 7111TIP3    H121290   7.019   3.069   1.047
 7111TIP3    H221291   6.902   3.044   1.140
 7112TIP3   OH221292   3.301   6.105   1.638
 7112TIP3    H121293   3.303   6.010   1.642
 7112TIP3    H221294   3.230   6.125   1.576
 7113TIP3   OH221295   2.155   6.618   6.462
 7113TIP3    H121296   2.140   6.573   6.379
 7113TIP3    H221297   2.220   6.685   6.441
 7114TIP3   OH221298   6.015   2.073   3.838
 7114TIP3    H121299   5.946   2.007   3.837
 7114TIP3    H221300   6.095   2.026   3.814
 7115TIP3   OH221301   2.833   0.460   0.240
 7115TIP3    H121302   2.805   0.403   0.168
 7115TIP3    H221303   2.918   0.425   0.267
 7116TIP3   OH221304   3.287   3.748   5.148
 7116TIP3    H121305   3.265   3.697   5.226
 7116TIP3    H221306   3.205   3.752   5.098
 7117TIP3   OH221307   7.602   0.530   3.165
 7117TIP3    H121308   7.636   0.442   3.179
 7117TIP3    H221309   7.662   0.569   3.101
 7118TIP3   OH221310   7.068   5.940   3.837
 7118TIP3    H121311   7.142   5.991   3.804
 7118TIP3    H221312   7.011   5.927   3.761
 7119TIP3   OH221313   3.164   2.826   4.868
 7119TIP3    H121314   3.072   2.806   4.879
 7119TIP3    H221315   3.210   2.750   4.904
 7120TIP3   OH221316   2.105   5.541   1.167
 7120TIP3    H121317   2.031   5.590   1.131
 7120TIP3    H221318   2.138   5.595   1.239
 7121TIP3   OH221319   2.089   0.049   2.161
 7121TIP3    H121320   2.134   0.115   2.213
 7121TIP3    H221321   2.000   0.047   2.195
 7122TIP3   OH221322   8.084   6.771   1.464
 7122TIP3    H121323   8.042   6.703   1.412
 7122TIP3    H221324   8.097   6.731   1.550
 7123TIP3   OH221325   3.460   7.322   3.587
 7123TIP3    H121326   3.394   7.289   3.525
 7123TIP3    H221327   3.509   7.244   3.612
 7124TIP3   OH221328   7.251   3.058   1.642
 7124TIP3    H121329   7.174   3.050   1.586
 7124TIP3    H221330   7.259   2.973   1.685
 7125TIP3   OH221331   0.220   4.932   5.716
 7125TIP3    H121332   0.307   4.969   5.731
 7125TIP3    H221333   0.168   5.006   5.682
 7126TIP3   OH221334   0.758   4.203   0.369
 7126TIP3    H121335   0.700   4.225   0.297
 7126TIP3    H221336   0.711   4.233   0.447
 7127TIP3   OH221337   0.826   2.668   6.260
 7127TIP3    H121338   0.806   2.685   6.168
 7127TIP3    H221339   0.912   2.708   6.274
 7128TIP3   OH221340   7.655   1.486   2.136
 7128TIP3    H121341   7.637   1.453   2.223
 7128TIP3    H221342   7.570   1.514   2.102
 7129TIP3   OH221343   6.448   4.649   3.445
 7129TIP3    H121344   6.354   4.664   3.441
 7129TIP3    H221345   6.487   4.736   3.431
 7130TIP3   OH221346   1.000   7.423   4.292
 7130TIP3    H121347   1.068   7.425   4.359
 7130TIP3    H221348   1.043   7.455   4.213
 7131TIP3   OH221349   4.987   0.871   3.374
 7131TIP3    H121350   5.008   0.959   3.342
 7131TIP3    H221351   4.894   0.874   3.396
 7132TIP3   OH221352   1.260   1.046   4.334
 7132TIP3    H121353   1.315   0.968   4.335
 7132TIP3    H221354   1.247   1.065   4.241
 7133TIP3   OH221355   5.653   0.147   4.909
 7133TIP3    H121356   5.735   0.107   4.880
 7133TIP3    H221357   5.585   0.103   4.859
 7134TIP3   OH221358   1.910   3.332   4.554
 7134TIP3    H121359   1.823   3.371   4.562
 7134TIP3    H221360   1.895   3.238   4.568
 7135TIP3   OH221361   8.245   1.465   2.903
 7135TIP3    H121362   8.292   1.401   2.957
 7135TIP3    H221363   8.218   1.415   2.825
 7136TIP3   OH221364   3.759   6.658   6.365
 7136TIP3    H121365   3.694   6.716   6.404
 7136TIP3    H221366   3.709   6.599   6.308
 7137TIP3   OH221367   4.290   1.269   4.341
 7137TIP3    H121368   4.226   1.267   4.413
 7137TIP3    H221369   4.297   1.361   4.318
 7138TIP3   OH221370   4.390   3.486   2.555
 7138TIP3    H121371   4.474   3.455   2.588
 7138TIP3    H221372   4.327   3.421   2.587
 7139TIP3   OH221373   6.084   3.416   3.457
 7139TIP3    H121374   6.088   3.373   3.543
 7139TIP3    H221375   6.028   3.359   3.405
 7140TIP3   OH221376   1.226   2.567   4.407
 7140TIP3    H121377   1.245   2.633   4.474
 7140TIP3    H221378   1.182   2.497   4.455
 7141TIP3   OH221379   5.920   2.131   2.964
 7141TIP3    H121380   5.989   2.093   3.019
 7141TIP3    H221381   5.929   2.226   2.975
 7142TIP3   OH221382   4.997   2.236   4.844
 7142TIP3    H121383   4.907   2.204   4.836
 7142TIP3    H221384   4.989   2.320   4.888
 7143TIP3   OH221385   0.677   1.073   0.446
 7143TIP3    H121386   0.761   1.035   0.472
 7143TIP3    H221387   0.635   1.098   0.528
 7144TIP3   OH221388   2.393   3.983   5.224
 7144TIP3    H121389   2.393   4.039   5.302
 7144TIP3    H221390   2.361   3.899   5.255
 7145TIP3   OH221391   5.902   1.319   3.901
 7145TIP3    H121392   5.897   1.270   3.983
 7145TIP3    H221393   5.891   1.411   3.928
 7146TIP3   OH221394   7.103   6.445   2.875
 7146TIP3    H121395   7.180   6.499   2.894
 7146TIP3    H221396   7.029   6.504   2.887
 7147TIP3   OH221397   6.867   3.722   3.643
 7147TIP3    H121398   6.961   3.727   3.658
 7147TIP3    H221399   6.857   3.739   3.549
 7148TIP3   OH221400   0.876   0.079   5.447
 7148TIP3    H121401   0.925   0.060   5.527
 7148TIP3    H221402   0.797   0.026   5.454
 7149TIP3   OH221403   1.629   7.107   1.642
 7149TIP3    H121404   1.661   7.171   1.705
 7149TIP3    H221405   1.539   7.134   1.624
 7150TIP3   OH221406   6.644   0.800   0.530
 7150TIP3    H121407   6.570   0.852   0.560
 7150TIP3    H221408   6.641   0.806   0.434
 7151TIP3   OH221409   0.040   2.635   4.393
 7151TIP3    H121410  -0.047   2.657   4.427
 7151TIP3    H221411   0.055   2.545   4.421
 7152TIP3   OH221412   4.815   5.074   4.405
 7152TIP3    H121413   4.783   5.164   4.415
 7152TIP3    H221414   4.900   5.073   4.450
 7153TIP3   OH221415   7.436   2.119   1.429
 7153TIP3    H121416   7.396   2.060   1.492
 7153TIP3    H221417   7.371   2.188   1.415
 7154TIP3   OH221418   5.089   5.774   3.740
 7154TIP3    H121419   5.152   5.799   3.672
 7154TIP3    H221420   5.005   5.803   3.706
 7155TIP3   OH221421   8.097   3.926   0.147
 7155TIP3    H121422   8.177   3.953   0.191
 7155TIP3    H221423   8.030   3.927   0.215
 7156TIP3   OH221424   5.717   1.526   5.054
 7156TIP3    H121425   5.694   1.545   4.963
 7156TIP3    H221426   5.808   1.495   5.050
 7157TIP3   OH221427   4.352   3.931   3.889
 7157TIP3    H121428   4.348   3.835   3.891
 7157TIP3    H221429   4.427   3.953   3.943
 7158TIP3   OH221430   6.150   5.677   1.061
 7158TIP3    H121431   6.246   5.675   1.059
 7158TIP3    H221432   6.126   5.597   1.109
 7159TIP3   OH221433   3.021   3.762   6.315
 7159TIP3    H121434   2.927   3.742   6.317
 7159TIP3    H221435   3.060   3.694   6.370
 7160TIP3   OH221436   5.788   3.298   3.048
 7160TIP3    H121437   5.745   3.213   3.059
 7160TIP3    H221438   5.716   3.361   3.043
 7161TIP3   OH221439   7.496   4.036   6.346
 7161TIP3    H121440   7.508   4.099   6.417
 7161TIP3    H221441   7.405   4.048   6.318
 7162TIP3   OH221442   7.601   5.882   6.374
 7162TIP3    H121443   7.643   5.799   6.396
 7162TIP3    H221444   7.590   5.878   6.279
 7163TIP3   OH221445   2.833   6.169   2.098
 7163TIP3    H121446   2.748   6.213   2.102
 7163TIP3    H221447   2.811   6.077   2.079
 7164TIP3   OH221448   3.255   1.982   2.019
 7164TIP3    H121449   3.227   1.987   1.928
 7164TIP3    H221450   3.324   1.915   2.019
 7165TIP3   OH221451   6.680   1.886   2.161
 7165TIP3    H121452   6.628   1.924   2.089
 7165TIP3    H221453   6.648   1.931   2.239
 7166TIP3   OH221454   3.758   2.658   6.728
 7166TIP3    H121455   3.720   2.578   6.690
 7166TIP3    H221456   3.683   2.717   6.739
 7167TIP3   OH221457   5.720   4.860   3.398
 7167TIP3    H121458   5.713   4.878   3.305
 7167TIP3    H221459   5.803   4.813   3.408
 7168TIP3   OH221460   7.285   7.519   5.134
 7168TIP3    H121461   7.320   7.468   5.207
 7168TIP3    H221462   7.341   7.496   5.060
 7169TIP3   OH221463   5.802   1.485   1.453
 7169TIP3    H121464   5.838   1.426   1.386
 7169TIP3    H221465   5.850   1.463   1.532
 7170TIP3   OH221466   5.398   4.613   5.766
 7170TIP3    H121467   5.360   4.672   5.831
 7170TIP3    H221468   5.441   4.544   5.817
 7171TIP3   OH221469   3.392   2.439   5.393
 7171TIP3    H121470   3.421   2.525   5.424
 7171TIP3    H221471   3.424   2.435   5.303
 7172TIP3   OH221472   2.756   0.862   6.573
 7172TIP3    H121473   2.772   0.940   6.520
 7172TIP3    H221474   2.680   0.884   6.626
 7173TIP3   OH221475   1.747   0.802   3.004
 7173TIP3    H121476   1.751   0.849   2.921
 7173TIP3    H221477   1.755   0.870   3.071
 7174TIP3   OH221478   3.252   0.680   3.437
 7174TIP3    H121479   3.218   0.623   3.369
 7174TIP3    H221480   3.205   0.654   3.516
 7175TIP3   OH221481   6.756   4.553   6.685
 7175TIP3    H121482   6.814   4.493   6.638
 7175TIP3    H221483   6.814   4.611   6.733
 7176TIP3   OH221484   2.073   2.115   6.423
 7176TIP3    H121485   2.161   2.140   6.450
 7176TIP3    H221486   2.015   2.170   6.476
 7177TIP3   OH221487   7.893   0.574   1.199
 7177TIP3    H121488   7.882   0.481   1.219
 7177TIP3    H221489   7.913   0.615   1.283
 7178TIP3   OH221490   3.455   6.114   6.084
 7178TIP3    H121491   3.392   6.184   6.102
 7178TIP3    H221492   3.539   6.147   6.116
 7179TIP3   OH221493   3.855   4.326   5.314
 7179TIP3    H121494   3.832   4.295   5.402
 7179TIP3    H221495   3.896   4.251   5.271
 7180TIP3   OH221496   5.760   1.150   3.736
 7180TIP3    H121497   5.833   1.199   3.776
 7180TIP3    H221498   5.749   1.074   3.793
 7181TIP3   OH221499   1.066   6.882   0.551
 7181TIP3    H121500   0.976   6.875   0.520
 7181TIP3    H221501   1.067   6.832   0.633
 7182TIP3   OH221502   7.705   0.704   2.577
 7182TIP3    H121503   7.788   0.692   2.529
 7182TIP3    H221504   7.639   0.666   2.519
 7183TIP3   OH221505   4.187   6.954   6.728
 7183TIP3    H121506   4.140   6.892   6.783
 7183TIP3    H221507   4.278   6.924   6.730
 7184TIP3   OH221508   5.733   0.884   6.003
 7184TIP3    H121509   5.812   0.929   6.034
 7184TIP3    H221510   5.670   0.898   6.074
 7185TIP3   OH221511   0.796   2.798   2.218
 7185TIP3    H121512   0.766   2.752   2.296
 7185TIP3    H221513   0.748   2.758   2.145
 7186TIP3   OH221514   3.778   5.505   1.325
 7186TIP3    H121515   3.740   5.509   1.412
 7186TIP3    H221516   3.722   5.562   1.272
 7187TIP3   OH221517   4.528   1.147   4.409
 7187TIP3    H121518   4.464   1.218   4.409
 7187TIP3    H221519   4.500   1.089   4.338
 7188TIP3   OH221520   2.619   6.412   1.396
 7188TIP3    H121521   2.647   6.322   1.415
 7188TIP3    H221522   2.637   6.461   1.476
 7189TIP3   OH221523   5.352   5.549   6.370
 7189TIP3    H121524   5.404   5.604   6.428
 7189TIP3    H221525   5.383   5.460   6.387
 7190TIP3   OH221526   4.956   1.180   1.304
 7190TIP3    H121527   5.024   1.242   1.331
 7190TIP3    H221528   4.877   1.211   1.348
 7191TIP3   OH221529   6.187   0.949   5.043
 7191TIP3    H121530   6.260   0.938   4.981
 7191TIP3    H221531   6.191   0.871   5.098
 7192TIP3   OH221532   5.104   0.283   0.100
 7192TIP3    H121533   5.083   0.202   0.053
 7192TIP3    H221534   5.044   0.284   0.175
 7193TIP3   OH221535   4.248   5.551   1.422
 7193TIP3    H121536   4.262   5.627   1.479
 7193TIP3    H221537   4.165   5.569   1.379
 7194TIP3   OH221538   5.270   5.631   5.097
 7194TIP3    H121539   5.330   5.685   5.148
 7194TIP3    H221540   5.303   5.636   5.008
 7195TIP3   OH221541   3.900   5.797   1.089
 7195TIP3    H121542   3.873   5.784   0.999
 7195TIP3    H221543   3.821   5.780   1.141
 7196TIP3   OH221544   8.051   0.182   4.596
 7196TIP3    H121545   7.965   0.224   4.590
 7196TIP3    H221546   8.076   0.191   4.688
 7197TIP3   OH221547   7.166   2.976   5.070
 7197TIP3    H121548   7.101   3.031   5.026
 7197TIP3    H221549   7.125   2.950   5.153
 7198TIP3   OH221550   6.921   0.838   1.820
 7198TIP3    H121551   7.014   0.859   1.809
 7198TIP3    H221552   6.892   0.812   1.733
 7199TIP3   OH221553   3.495   2.335   5.126
 7199TIP3    H121554   3.406   2.335   5.091
 7199TIP3    H221555   3.537   2.260   5.085
 7200TIP3   OH221556   6.062   2.732   3.874
 7200TIP3    H121557   6.090   2.742   3.783
 7200TIP3    H221558   6.087   2.814   3.916
 7201TIP3   OH221559   2.641   7.194   4.476
 7201TIP3    H121560   2.649   7.223   4.567
 7201TIP3    H221561   2.656   7.100   4.479
 7202TIP3   OH221562   4.824   5.728   6.208
 7202TIP3    H121563   4.788   5.816   6.201
 7202TIP3    H221564   4.902   5.738   6.262
 7203TIP3   OH221565   6.703   7.763   5.391
 7203TIP3    H121566   6.738   7.696   5.450
 7203TIP3    H221567   6.761   7.760   5.315
 7204TIP3   OH221568   1.131   0.800   2.221
 7204TIP3    H121569   1.166   0.888   2.212
 7204TIP3    H221570   1.208   0.745   2.237
 7205TIP3   OH221571   6.030   0.909   6.113
 7205TIP3    H121572   6.062   0.823   6.139
 7205TIP3    H221573   6.004   0.951   6.195
 7206TIP3   OH221574   4.626   2.402   2.340
 7206TIP3    H121575   4.620   2.306   2.339
 7206TIP3    H221576   4.596   2.427   2.428
 7207TIP3   OH221577   7.282   6.637   2.375
 7207TIP3    H121578   7.196   6.608   2.404
 7207TIP3    H221579   7.340   6.621   2.450
 7208TIP3   OH221580   1.539   2.223   0.692
 7208TIP3    H121581   1.507   2.139   0.724
 7208TIP3    H221582   1.461   2.267   0.657
 7209TIP3   OH221583   3.385   2.635   6.665
 7209TIP3    H121584   3.418   2.713   6.709
 7209TIP3    H221585   3.357   2.577   6.736
 7210TIP3   OH221586   1.142   6.322   2.495
 7210TIP3    H121587   1.099   6.403   2.468
 7210TIP3    H221588   1.230   6.349   2.522
 7211TIP3   OH221589   5.243   2.040   1.466
 7211TIP3    H121590   5.148   2.026   1.467
 7211TIP3    H221591   5.277   1.977   1.529
 7212TIP3   OH221592   5.214   3.781   3.148
 7212TIP3    H121593   5.134   3.813   3.107
 7212TIP3    H221594   5.205   3.685   3.146
 7213TIP3   OH221595   3.791   2.516   0.806
 7213TIP3    H121596   3.744   2.518   0.722
 7213TIP3    H221597   3.883   2.528   0.783
 7214TIP3   OH221598   3.000   2.444   2.700
 7214TIP3    H121599   2.960   2.517   2.747
 7214TIP3    H221600   2.958   2.445   2.615
 7215TIP3   OH221601   2.267   7.525   5.511
 7215TIP3    H121602   2.209   7.594   5.480
 7215TIP3    H221603   2.337   7.521   5.445
 7216TIP3   OH221604   2.049   1.006   0.462
 7216TIP3    H121605   1.971   1.061   0.460
 7216TIP3    H221606   2.017   0.918   0.439
 7217TIP3   OH221607   3.207   3.203   1.804
 7217TIP3    H121608   3.248   3.117   1.791
 7217TIP3    H221609   3.118   3.192   1.771
 7218TIP3   OH221610   6.048   5.911   1.826
 7218TIP3    H121611   6.089   5.874   1.904
 7218TIP3    H221612   5.961   5.872   1.823
 7219TIP3   OH221613   5.042   2.925   4.773
 7219TIP3    H121614   5.015   2.966   4.690
 7219TIP3    H221615   5.047   2.831   4.752
 7220TIP3   OH221616   6.470   7.255   6.091
 7220TIP3    H121617   6.460   7.300   6.175
 7220TIP3    H221618   6.515   7.173   6.113
 7221TIP3   OH221619   4.780   5.757   1.011
 7221TIP3    H121620   4.796   5.684   0.952
 7221TIP3    H221621   4.752   5.829   0.954
 7222TIP3   OH221622   7.906   7.555   3.079
 7222TIP3    H121623   7.826   7.543   3.027
 7222TIP3    H221624   7.977   7.553   3.014
 7223TIP3   OH221625   0.927   4.055   5.827
 7223TIP3    H121626   0.953   4.074   5.737
 7223TIP3    H221627   0.858   4.120   5.845
 7224TIP3   OH221628   3.420   6.577   4.030
 7224TIP3    H121629   3.371   6.654   4.004
 7224TIP3    H221630   3.508   6.609   4.049
 7225TIP3   OH221631   1.846   1.020   4.405
 7225TIP3    H121632   1.797   1.095   4.440
 7225TIP3    H221633   1.936   1.035   4.433
 7226TIP3   OH221634   7.681   0.669   3.372
 7226TIP3    H121635   7.646   0.630   3.292
 7226TIP3    H221636   7.714   0.595   3.423
 7227TIP3   OH221637   3.459   1.268   2.372
 7227TIP3    H121638   3.515   1.333   2.415
 7227TIP3    H221639   3.372   1.306   2.375
 7228TIP3   OH221640   5.521   2.123   3.802
 7228TIP3    H121641   5.480   2.150   3.884
 7228TIP3    H221642   5.451   2.131   3.737
 7229TIP3   OH221643   5.570   3.724   1.452
 7229TIP3    H121644   5.540   3.717   1.543
 7229TIP3    H221645   5.594   3.635   1.428
 7230TIP3   OH221646   5.225   7.075   6.263
 7230TIP3    H121647   5.242   7.079   6.169
 7230TIP3    H221648   5.135   7.107   6.272
 7231TIP3   OH221649   1.194   4.242   3.253
 7231TIP3    H121650   1.120   4.182   3.261
 7231TIP3    H221651   1.191   4.295   3.333
 7232TIP3   OH221652   1.380   6.278   0.805
 7232TIP3    H121653   1.327   6.222   0.749
 7232TIP3    H221654   1.463   6.232   0.815
 7233TIP3   OH221655   3.954   7.325   2.916
 7233TIP3    H121656   4.026   7.332   2.853
 7233TIP3    H221657   3.992   7.357   2.998
 7234TIP3   OH221658   4.711   7.350   1.526
 7234TIP3    H121659   4.673   7.264   1.539
 7234TIP3    H221660   4.701   7.394   1.610
 7235TIP3   OH221661   2.247   7.782   0.734
 7235TIP3    H121662   2.300   7.845   0.685
 7235TIP3    H221663   2.297   7.765   0.814
 7236TIP3   OH221664   2.359   3.128   4.027
 7236TIP3    H121665   2.284   3.113   4.083
 7236TIP3    H221666   2.331   3.197   3.967
 7237TIP3   OH221667   7.876   4.584   4.898
 7237TIP3    H121668   7.879   4.657   4.836
 7237TIP3    H221669   7.966   4.573   4.928
 7238TIP3   OH221670   1.325   5.616   3.362
 7238TIP3    H121671   1.405   5.565   3.371
 7238TIP3    H221672   1.330   5.653   3.274
 7239TIP3   OH221673   4.049   3.116   2.217
 7239TIP3    H121674   3.996   3.194   2.231
 7239TIP3    H221675   4.135   3.138   2.252
 7240TIP3   OH221676   3.500   2.437   5.970
 7240TIP3    H121677   3.560   2.511   5.978
 7240TIP3    H221678   3.502   2.414   5.877
 7241TIP3   OH221679   6.205   4.893   0.840
 7241TIP3    H121680   6.259   4.828   0.885
 7241TIP3    H221681   6.268   4.944   0.789
 7242TIP3   OH221682   5.531   4.837   1.827
 7242TIP3    H121683   5.443   4.835   1.789
 7242TIP3    H221684   5.571   4.916   1.791
 7243TIP3   OH221685   2.850   4.485   1.717
 7243TIP3    H121686   2.827   4.472   1.809
 7243TIP3    H221687   2.817   4.407   1.673
 7244TIP3   OH221688   7.966   3.703   2.979
 7244TIP3    H121689   8.019   3.653   3.041
 7244TIP3    H221690   7.984   3.663   2.894
 7245TIP3   OH221691   5.907   2.384   2.367
 7245TIP3    H121692   5.927   2.436   2.444
 7245TIP3    H221693   5.920   2.444   2.293
 7246TIP3   OH221694   2.643   3.243   2.326
 7246TIP3    H121695   2.723   3.201   2.294
 7246TIP3    H221696   2.666   3.335   2.335
 7247TIP3   OH221697   3.343   5.584   1.782
 7247TIP3    H121698   3.375   5.518   1.844
 7247TIP3    H221699   3.248   5.570   1.779
 7248TIP3   OH221700   8.252   7.751   6.123
 7248TIP3    H121701   8.343   7.753   6.152
 7248TIP3    H221702   8.233   7.840   6.095
 7249TIP3   OH221703   5.240   6.504   4.289
 7249TIP3    H121704   5.302   6.566   4.251
 7249TIP3    H221705   5.285   6.469   4.365
 7250TIP3   OH221706   7.918   2.014   0.339
 7250TIP3    H121707   7.978   1.957   0.291
 7250TIP3    H221708   7.901   1.968   0.420
 7251TIP3   OH221709   7.074   0.854   0.225
 7251TIP3    H121710   6.981   0.878   0.226
 7251TIP3    H221711   7.075   0.763   0.196
 7252TIP3   OH221712   4.938   7.133   6.212
 7252TIP3    H121713   4.985   7.205   6.171
 7252TIP3    H221714   4.847   7.144   6.183
 7253TIP3   OH221715   3.339   2.556   3.256
 7253TIP3    H121716   3.327   2.536   3.349
 7253TIP3    H221717   3.434   2.568   3.247
 7254TIP3   OH221718   6.303   1.324   5.825
 7254TIP3    H121719   6.374   1.306   5.763
 7254TIP3    H221720   6.269   1.237   5.848
 7255TIP3   OH221721   4.158   0.553   6.566
 7255TIP3    H121722   4.216   0.478   6.582
 7255TIP3    H221723   4.133   0.583   6.653
 7256TIP3   OH221724   5.189   3.758   6.782
 7256TIP3    H121725   5.226   3.820   6.845
 7256TIP3    H221726   5.136   3.812   6.723
 7257TIP3   OH221727   7.844   1.239   0.261
 7257TIP3    H121728   7.752   1.239   0.233
 7257TIP3    H221729   7.894   1.253   0.181
 7258TIP3   OH221730   1.699   7.269   1.867
 7258TIP3    H121731   1.772   7.260   1.927
 7258TIP3    H221732   1.710   7.356   1.829
 7259TIP3   OH221733   0.913   0.036   1.111
 7259TIP3    H121734   0.831  -0.004   1.081
 7259TIP3    H221735   0.886   0.098   1.178
 7260TIP3   OH221736   4.548   3.814   1.814
 7260TIP3    H121737   4.482   3.744   1.811
 7260TIP3    H221738   4.497   3.895   1.814
 7261TIP3   OH221739   2.718   3.230   4.252
 7261TIP3    H121740   2.717   3.146   4.206
 7261TIP3    H221741   2.626   3.245   4.275
 7262TIP3   OH221742   2.419   6.559   6.170
 7262TIP3    H121743   2.462   6.489   6.219
 7262TIP3    H221744   2.326   6.537   6.174
 7263TIP3   OH221745   5.228   7.210   3.284
 7263TIP3    H121746   5.184   7.132   3.318
 7263TIP3    H221747   5.308   7.177   3.243
 7264TIP3   OH221748   2.065   1.999   2.778
 7264TIP3    H121749   2.014   2.016   2.857
 7264TIP3    H221750   2.067   2.082   2.732
 7265TIP3   OH221751   2.184   5.795   6.721
 7265TIP3    H121752   2.246   5.742   6.772
 7265TIP3    H221753   2.192   5.883   6.758
 7266TIP3   OH221754   1.906   3.137   5.822
 7266TIP3    H121755   1.876   3.103   5.738
 7266TIP3    H221756   1.829   3.131   5.879
 7267TIP3   OH221757   5.914   3.054   3.780
 7267TIP3    H121758   5.923   3.142   3.744
 7267TIP3    H221759   5.964   3.056   3.862
 7268TIP3   OH221760   7.013   1.914   5.121
 7268TIP3    H121761   6.923   1.881   5.124
 7268TIP3    H221762   7.064   1.840   5.089
 7269TIP3   OH221763   7.732   3.943   4.959
 7269TIP3    H121764   7.721   3.883   4.885
 7269TIP3    H221765   7.717   4.030   4.921
 7270TIP3   OH221766   7.522   1.410   6.237
 7270TIP3    H121767   7.485   1.493   6.265
 7270TIP3    H221768   7.616   1.420   6.250
 7271TIP3   OH221769   1.401   7.572   3.466
 7271TIP3    H121770   1.363   7.554   3.553
 7271TIP3    H221771   1.332   7.547   3.405
 7272TIP3   OH221772   3.305   2.626   5.860
 7272TIP3    H121773   3.264   2.597   5.778
 7272TIP3    H221774   3.354   2.549   5.890
 7273TIP3   OH221775   7.170   0.829   2.887
 7273TIP3    H121776   7.083   0.838   2.927
 7273TIP3    H221777   7.172   0.740   2.853
 7274TIP3   OH221778   3.999   5.057   6.060
 7274TIP3    H121779   4.021   5.019   5.974
 7274TIP3    H221780   4.025   5.149   6.052
 7275TIP3   OH221781   1.756   3.427   0.368
 7275TIP3    H121782   1.807   3.507   0.361
 7275TIP3    H221783   1.697   3.442   0.442
 7276TIP3   OH221784   4.053   3.994   6.005
 7276TIP3    H121785   4.085   3.910   6.039
 7276TIP3    H221786   3.958   3.988   6.011
 7277TIP3   OH221787   6.306   2.947   1.037
 7277TIP3    H121788   6.367   3.003   0.989
 7277TIP3    H221789   6.311   2.978   1.127
 7278TIP3   OH221790   0.567   3.760   4.130
 7278TIP3    H121791   0.642   3.813   4.155
 7278TIP3    H221792   0.572   3.754   4.034
 7279TIP3   OH221793   2.068   2.520   2.719
 7279TIP3    H121794   2.087   2.475   2.637
 7279TIP3    H221795   2.130   2.593   2.721
 7280TIP3   OH221796   0.277   1.451   5.445
 7280TIP3    H121797   0.237   1.461   5.531
 7280TIP3    H221798   0.371   1.463   5.461
 7281TIP3   OH221799   7.055   0.509   2.014
 7281TIP3    H121800   7.142   0.523   2.049
 7281TIP3    H221801   7.035   0.418   2.037
 7282TIP3   OH221802   2.473   3.300   0.015
 7282TIP3    H121803   2.497   3.220   0.063
 7282TIP3    H221804   2.389   3.280  -0.025
 7283TIP3   OH221805   3.355   3.669   3.461
 7283TIP3    H121806   3.314   3.597   3.509
 7283TIP3    H221807   3.440   3.681   3.504
 7284TIP3   OH221808   7.937   6.720   1.107
 7284TIP3    H121809   7.865   6.716   1.169
 7284TIP3    H221810   8.016   6.730   1.161
 7285TIP3   OH221811   0.993   7.323   3.711
 7285TIP3    H121812   0.967   7.375   3.788
 7285TIP3    H221813   0.988   7.385   3.638
 7286TIP3   OH221814   3.352   4.755   6.143
 7286TIP3    H121815   3.405   4.686   6.103
 7286TIP3    H221816   3.275   4.709   6.177
 7287TIP3   OH221817   2.445  -0.022   5.861
 7287TIP3    H121818   2.414   0.063   5.892
 7287TIP3    H221819   2.467  -0.070   5.940
 7288TIP3   OH221820   4.232   6.949   2.575
 7288TIP3    H121821   4.154   6.974   2.526
 7288TIP3    H221822   4.256   6.863   2.540
 7289TIP3   OH221823   6.860   6.145   2.446
 7289TIP3    H121824   6.942   6.193   2.464
 7289TIP3    H221825   6.802   6.212   2.410
 7290TIP3   OH221826   0.028   5.239   6.835
 7290TIP3    H121827   0.096   5.294   6.797
 7290TIP3    H221828   0.021   5.164   6.776
 7291TIP3   OH221829   4.513   0.089   1.471
 7291TIP3    H121830   4.517  -0.006   1.463
 7291TIP3    H221831   4.572   0.121   1.403
 7292TIP3   OH221832   6.384   7.306   1.777
 7292TIP3    H121833   6.375   7.248   1.853
 7292TIP3    H221834   6.422   7.386   1.812
 7293TIP3   OH221835   3.993   1.879   4.185
 7293TIP3    H121836   3.919   1.820   4.177
 7293TIP3    H221837   4.033   1.880   4.098
 7294TIP3   OH221838   7.644   7.471   4.105
 7294TIP3    H121839   7.608   7.383   4.114
 7294TIP3    H221840   7.712   7.476   4.171
 7295TIP3   OH221841   6.801   4.518   6.163
 7295TIP3    H121842   6.879   4.566   6.134
 7295TIP3    H221843   6.835   4.433   6.192
 7296TIP3   OH221844   3.697   6.944   1.700
 7296TIP3    H121845   3.745   6.908   1.774
 7296TIP3    H221846   3.611   6.968   1.736
 7297TIP3   OH221847   2.483   3.941   4.528
 7297TIP3    H121848   2.541   3.953   4.604
 7297TIP3    H221849   2.424   4.017   4.530
 7298TIP3   OH221850   1.106   0.215   4.171
 7298TIP3    H121851   1.107   0.163   4.252
 7298TIP3    H221852   1.143   0.157   4.105
 7299TIP3   OH221853   4.575   4.332   2.887
 7299TIP3    H121854   4.590   4.239   2.904
 7299TIP3    H221855   4.585   4.374   2.972
 7300TIP3   OH221856   3.106   2.490   4.468
 7300TIP3    H121857   3.019   2.519   4.442
 7300TIP3    H221858   3.158   2.571   4.472
 7301TIP3   OH221859   0.915   3.439   6.528
 7301TIP3    H121860   0.838   3.496   6.535
 7301TIP3    H221861   0.891   3.361   6.577
 7302TIP3   OH221862   0.758   7.832   4.770
 7302TIP3    H121863   0.694   7.828   4.841
 7302TIP3    H221864   0.711   7.872   4.698
 7303TIP3   OH221865   8.177   5.353   3.223
 7303TIP3    H121866   8.222   5.269   3.227
 7303TIP3    H221867   8.128   5.351   3.141
 7304TIP3   OH221868   6.860   4.979   2.241
 7304TIP3    H121869   6.927   4.987   2.308
 7304TIP3    H221870   6.786   5.030   2.273
 7305TIP3   OH221871   2.879   4.025   3.762
 7305TIP3    H121872   2.849   4.116   3.767
 7305TIP3    H221873   2.804   3.974   3.791
 7306TIP3   OH221874   7.651   5.644   3.617
 7306TIP3    H121875   7.626   5.564   3.570
 7306TIP3    H221876   7.596   5.712   3.578
 7307TIP3   OH221877   3.468   1.851   5.516
 7307TIP3    H121878   3.522   1.907   5.460
 7307TIP3    H221879   3.532   1.801   5.568
 7308TIP3   OH221880   3.663   1.660   3.293
 7308TIP3    H121881   3.693   1.714   3.366
 7308TIP3    H221882   3.594   1.605   3.330
 7309TIP3   OH221883   4.731   3.904   4.280
 7309TIP3    H121884   4.814   3.917   4.232
 7309TIP3    H221885   4.731   3.811   4.302
 7310TIP3   OH221886   2.113   2.712   6.435
 7310TIP3    H121887   2.134   2.712   6.528
 7310TIP3    H221888   2.019   2.731   6.432
 7311TIP3   OH221889   2.571   0.094   2.672
 7311TIP3    H121890   2.660   0.101   2.706
 7311TIP3    H221891   2.581   0.098   2.577
 7312TIP3   OH221892   6.107   6.337   6.189
 7312TIP3    H121893   6.047   6.353   6.261
 7312TIP3    H221894   6.170   6.274   6.224
 7313TIP3   OH221895   4.017   1.864   1.442
 7313TIP3    H121896   3.930   1.831   1.420
 7313TIP3    H221897   4.030   1.938   1.382
 7314TIP3   OH221898   3.611   5.290   4.814
 7314TIP3    H121899   3.564   5.359   4.861
 7314TIP3    H221900   3.545   5.248   4.760
 7315TIP3   OH221901   3.801   2.090   6.444
 7315TIP3    H121902   3.752   2.142   6.508
 7315TIP3    H221903   3.770   2.120   6.359
 7316TIP3   OH221904   5.860   4.818   4.972
 7316TIP3    H121905   5.840   4.724   4.968
 7316TIP3    H221906   5.782   4.860   4.935
 7317TIP3   OH221907   2.223   4.668   2.476
 7317TIP3    H121908   2.161   4.685   2.547
 7317TIP3    H221909   2.182   4.601   2.423
 7318TIP3   OH221910   3.999   7.437   1.784
 7318TIP3    H121911   3.947   7.450   1.863
 7318TIP3    H221912   3.939   7.458   1.712
 7319TIP3   OH221913   1.551   0.414   3.076
 7319TIP3    H121914   1.509   0.328   3.083
 7319TIP3    H221915   1.579   0.435   3.165
 7320TIP3   OH221916   5.201   6.215   2.710
 7320TIP3    H121917   5.167   6.286   2.764
 7320TIP3    H221918   5.261   6.257   2.648
 7321TIP3   OH221919   0.101   4.874   3.964
 7321TIP3    H121920   0.111   4.969   3.976
 7321TIP3    H221921   0.086   4.841   4.052
 7322TIP3   OH221922   5.335   6.127   0.976
 7322TIP3    H121923   5.324   6.065   0.904
 7322TIP3    H221924   5.360   6.209   0.933
 7323TIP3   OH221925   4.610   4.185   2.281
 7323TIP3    H121926   4.559   4.126   2.336
 7323TIP3    H221927   4.578   4.273   2.305
 7324TIP3   OH221928   6.467   6.529   2.164
 7324TIP3    H121929   6.536   6.472   2.199
 7324TIP3    H221930   6.394   6.470   2.146
 7325TIP3   OH221931   6.193   0.685   2.931
 7325TIP3    H121932   6.218   0.596   2.955
 7325TIP3    H221933   6.117   0.675   2.874
 7326TIP3   OH221934   6.270   2.057   0.080
 7326TIP3    H121935   6.203   2.113   0.119
 7326TIP3    H221936   6.246   2.051  -0.013
 7327TIP3   OH221937   7.122   2.693   6.600
 7327TIP3    H121938   7.202   2.721   6.556
 7327TIP3    H221939   7.055   2.694   6.532
 7328TIP3   OH221940   2.496   5.978   4.943
 7328TIP3    H121941   2.493   5.886   4.968
 7328TIP3    H221942   2.519   6.024   5.024
 7329TIP3   OH221943   4.999   3.212   3.152
 7329TIP3    H121944   4.974   3.151   3.082
 7329TIP3    H221945   4.933   3.281   3.149
 7330TIP3   OH221946   1.022   5.243   5.806
 7330TIP3    H121947   1.046   5.310   5.870
 7330TIP3    H221948   0.992   5.169   5.858
 7331TIP3   OH221949   6.573   1.073   0.279
 7331TIP3    H121950   6.517   0.997   0.264
 7331TIP3    H221951   6.628   1.077   0.201
 7332TIP3   OH221952   4.380   0.784   1.895
 7332TIP3    H121953   4.326   0.814   1.969
 7332TIP3    H221954   4.380   0.689   1.902
 7333TIP3   OH221955   0.768   5.025   4.131
 7333TIP3    H121956   0.854   5.007   4.167
 7333TIP3    H221957   0.783   5.091   4.064
 7334TIP3   OH221958   1.867   3.558   4.317
 7334TIP3    H121959   1.956   3.551   4.353
 7334TIP3    H221960   1.850   3.473   4.277
 7335TIP3   OH221961   2.550   3.597   0.726
 7335TIP3    H121962   2.557   3.550   0.809
 7335TIP3    H221963   2.636   3.635   0.712
 7336TIP3   OH221964   7.968   7.771   2.386
 7336TIP3    H121965   8.054   7.809   2.371
 7336TIP3    H221966   7.963   7.696   2.327
 7337TIP3   OH221967   5.072   0.367   5.436
 7337TIP3    H121968   5.036   0.445   5.395
 7337TIP3    H221969   5.120   0.323   5.366
 7338TIP3   OH221970   3.156   7.269   5.919
 7338TIP3    H121971   3.092   7.224   5.974
 7338TIP3    H221972   3.116   7.270   5.832
 7339TIP3   OH221973   7.116   0.307   4.765
 7339TIP3    H121974   7.189   0.344   4.716
 7339TIP3    H221975   7.130   0.213   4.763
 7340TIP3   OH221976   6.041   2.034   1.651
 7340TIP3    H121977   5.959   2.021   1.699
 7340TIP3    H221978   6.067   1.946   1.623
 7341TIP3   OH221979   2.350   5.240   5.586
 7341TIP3    H121980   2.315   5.269   5.671
 7341TIP3    H221981   2.441   5.216   5.605
 7342TIP3   OH221982   8.041   6.002   1.021
 7342TIP3    H121983   7.983   6.041   1.086
 7342TIP3    H221984   8.036   5.908   1.037
 7343TIP3   OH221985   0.192   2.131   0.198
 7343TIP3    H121986   0.240   2.063   0.246
 7343TIP3    H221987   0.256   2.168   0.137
 7344TIP3   OH221988   1.167   2.456   5.747
 7344TIP3    H121989   1.165   2.416   5.834
 7344TIP3    H221990   1.188   2.548   5.764
 7345TIP3   OH221991   4.866   5.355   4.297
 7345TIP3    H121992   4.917   5.431   4.269
 7345TIP3    H221993   4.841   5.312   4.215
 7346TIP3   OH221994   2.285   3.049   0.239
 7346TIP3    H121995   2.379   3.062   0.229
 7346TIP3    H221996   2.246   3.096   0.165
 7347TIP3   OH221997   3.296   5.795   0.464
 7347TIP3    H121998   3.295   5.738   0.541
 7347TIP3    H221999   3.363   5.756   0.407
 7348TIP3   OH222000   2.587   4.363   5.516
 7348TIP3    H122001   2.682   4.351   5.512
 7348TIP3    H222002   2.567   4.421   5.443
 7349TIP3   OH222003   3.880   3.568   6.597
 7349TIP3    H122004   3.974   3.576   6.610
 7349TIP3    H222005   3.853   3.497   6.656
 7350TIP3   OH222006   1.790   4.506   4.524
 7350TIP3    H122007   1.834   4.422   4.537
 7350TIP3    H222008   1.816   4.559   4.600
 7351TIP3   OH222009   5.977   1.268   4.776
 7351TIP3    H122010   6.067   1.258   4.807
 7351TIP3    H222011   5.982   1.257   4.681
 7352TIP3   OH222012   1.039   6.116   3.061
 7352TIP3    H122013   0.955   6.073   3.078
 7352TIP3    H222014   1.092   6.050   3.018
 7353TIP3   OH222015   1.749   5.268   5.717
 7353TIP3    H122016   1.736   5.203   5.786
 7353TIP3    H222017   1.672   5.259   5.661
 7354TIP3   OH222018   4.851   4.536   6.270
 7354TIP3    H122019   4.839   4.470   6.338
 7354TIP3    H222020   4.775   4.594   6.278
 7355TIP3   OH222021   6.127   2.207   1.195
 7355TIP3    H122022   6.049   2.246   1.155
 7355TIP3    H222023   6.185   2.282   1.211
 7356TIP3   OH222024   2.724   6.940   5.596
 7356TIP3    H122025   2.668   7.017   5.606
 7356TIP3    H222026   2.762   6.927   5.683
 7357TIP3   OH222027   2.796   7.195   1.259
 7357TIP3    H122028   2.727   7.247   1.300
 7357TIP3    H222029   2.769   7.186   1.167
 7358TIP3   OH222030   4.586  -0.002   3.119
 7358TIP3    H122031   4.548   0.034   3.039
 7358TIP3    H222032   4.549   0.052   3.189
 7359TIP3   OH222033   3.233   5.983   2.824
 7359TIP3    H122034   3.285   6.035   2.762
 7359TIP3    H222035   3.288   5.976   2.902
 7360TIP3   OH222036   1.734   3.750   6.369
 7360TIP3    H122037   1.646   3.719   6.391
 7360TIP3    H222038   1.729   3.845   6.377
 7361TIP3   OH222039   3.323   4.659   2.103
 7361TIP3    H122040   3.253   4.714   2.138
 7361TIP3    H222041   3.325   4.679   2.010
 7362TIP3   OH222042   1.848   2.914   1.491
 7362TIP3    H122043   1.932   2.896   1.534
 7362TIP3    H222044   1.869   2.975   1.421
 7363TIP3   OH222045   4.891   4.132   2.377
 7363TIP3    H122046   4.832   4.069   2.418
 7363TIP3    H222047   4.833   4.201   2.344
 7364TIP3   OH222048   5.574   5.560   0.878
 7364TIP3    H122049   5.645   5.613   0.841
 7364TIP3    H222050   5.561   5.489   0.815
 7365TIP3   OH222051   1.874   7.539   4.581
 7365TIP3    H122052   1.815   7.519   4.654
 7365TIP3    H222053   1.835   7.493   4.506
 7366TIP3   OH222054   2.716   4.205   2.101
 7366TIP3    H122055   2.706   4.197   2.196
 7366TIP3    H222056   2.631   4.176   2.066
 7367TIP3   OH222057   4.035   3.418   2.393
 7367TIP3    H122058   4.004   3.404   2.483
 7367TIP3    H222059   4.127   3.390   2.395
 7368TIP3   OH222060   8.068   0.333   3.618
 7368TIP3    H122061   8.032   0.394   3.682
 7368TIP3    H222062   8.132   0.384   3.568
 7369TIP3   OH222063   7.339   4.557   2.220
 7369TIP3    H122064   7.383   4.474   2.200
 7369TIP3    H222065   7.408   4.613   2.256
 7370TIP3   OH222066   3.221   7.098   4.821
 7370TIP3    H122067   3.211   7.193   4.828
 7370TIP3    H222068   3.277   7.074   4.894
 7371TIP3   OH222069   7.694   6.249   2.671
 7371TIP3    H122070   7.739   6.296   2.600
 7371TIP3    H222071   7.765   6.214   2.725
 7372TIP3   OH222072   0.585   1.040   0.690
 7372TIP3    H122073   0.530   1.092   0.749
 7372TIP3    H222074   0.552   0.950   0.700
 7373TIP3   OH222075   1.462   0.467   3.912
 7373TIP3    H122076   1.386   0.480   3.855
 7373TIP3    H222077   1.425   0.463   4.000
 7374TIP3   OH222078   5.482   1.937   2.572
 7374TIP3    H122079   5.548   2.003   2.593
 7374TIP3    H222080   5.399   1.984   2.576
 7375TIP3   OH222081   6.885   2.470   5.246
 7375TIP3    H122082   6.901   2.463   5.152
 7375TIP3    H222083   6.868   2.563   5.261
 7376TIP3   OH222084   1.532   0.315   4.698
 7376TIP3    H122085   1.462   0.373   4.668
 7376TIP3    H222086   1.612   0.367   4.689
 7377TIP3   OH222087   0.230   3.549   0.011
 7377TIP3    H122088   0.197   3.468   0.050
 7377TIP3    H222089   0.165   3.573  -0.054
 7378TIP3   OH222090   1.358   4.934   6.577
 7378TIP3    H122091   1.285   4.980   6.535
 7378TIP3    H222092   1.435   4.989   6.558
 7379TIP3   OH222093   7.882   5.867   6.432
 7379TIP3    H122094   7.912   5.810   6.361
 7379TIP3    H222095   7.792   5.890   6.407
 7380TIP3   OH222096   0.641   5.352   5.807
 7380TIP3    H122097   0.659   5.342   5.714
 7380TIP3    H222098   0.549   5.378   5.811
 7381TIP3   OH222099   3.972   4.082   1.075
 7381TIP3    H122100   3.911   4.032   1.128
 7381TIP3    H222101   3.946   4.173   1.088
 7382TIP3   OH222102   5.082   0.098   4.147
 7382TIP3    H122103   5.115   0.009   4.157
 7382TIP3    H222104   5.159   0.151   4.129
 7383TIP3   OH222105   1.016   1.114   6.133
 7383TIP3    H122106   0.974   1.041   6.179
 7383TIP3    H222107   0.977   1.114   6.046
 7384TIP3   OH222108   7.474   4.326   4.937
 7384TIP3    H122109   7.410   4.371   4.882
 7384TIP3    H222110   7.455   4.359   5.026
 7385TIP3   OH222111   1.483   5.558   4.269
 7385TIP3    H122112   1.444   5.471   4.264
 7385TIP3    H222113   1.425   5.606   4.328
 7386TIP3   OH222114   7.180   2.034   5.558
 7386TIP3    H122115   7.096   1.988   5.559
 7386TIP3    H222116   7.226   2.000   5.482
 7387TIP3   OH222117   5.641   7.211   3.486
 7387TIP3    H122118   5.678   7.273   3.424
 7387TIP3    H222119   5.593   7.148   3.431
 7388TIP3   OH222120   7.111   6.420   6.461
 7388TIP3    H122121   7.202   6.409   6.436
 7388TIP3    H222122   7.074   6.478   6.394
 7389TIP3   OH222123   0.996   7.717   0.558
 7389TIP3    H122124   0.930   7.716   0.489
 7389TIP3    H222125   0.962   7.779   0.623
 7390TIP3   OH222126   3.342   2.526   0.563
 7390TIP3    H122127   3.332   2.621   0.567
 7390TIP3    H222128   3.357   2.507   0.470
 7391TIP3   OH222129   1.209   4.947   1.091
 7391TIP3    H122130   1.300   4.929   1.114
 7391TIP3    H222131   1.184   5.019   1.149
 7392TIP3   OH222132   0.885   1.646   1.346
 7392TIP3    H122133   0.857   1.719   1.401
 7392TIP3    H222134   0.951   1.684   1.288
 7393TIP3   OH222135   3.974   0.746   1.643
 7393TIP3    H122136   4.013   0.751   1.556
 7393TIP3    H222137   4.015   0.669   1.683
 7394TIP3   OH222138   7.985   7.366   6.095
 7394TIP3    H122139   7.954   7.314   6.170
 7394TIP3    H222140   7.941   7.327   6.020
 7395TIP3   OH222141   0.182   1.938   3.941
 7395TIP3    H122142   0.114   1.873   3.925
 7395TIP3    H222143   0.263   1.895   3.915
 7396TIP3   OH222144   4.476   1.937   1.371
 7396TIP3    H122145   4.467   1.896   1.457
 7396TIP3    H222146   4.551   1.892   1.331
 7397TIP3   OH222147   0.833   7.551   5.429
 7397TIP3    H122148   0.790   7.636   5.437
 7397TIP3    H222149   0.926   7.570   5.442
 7398TIP3   OH222150   3.297   0.909   5.705
 7398TIP3    H122151   3.368   0.882   5.646
 7398TIP3    H222152   3.333   0.895   5.792
 7399TIP3   OH222153   3.870   2.823   3.754
 7399TIP3    H122154   3.834   2.789   3.837
 7399TIP3    H222155   3.964   2.826   3.769
 7400TIP3   OH222156   1.986   1.140   6.586
 7400TIP3    H122157   1.941   1.207   6.534
 7400TIP3    H222158   1.967   1.058   6.542
 7401TIP3   OH222159   4.072   3.176   3.576
 7401TIP3    H122160   4.151   3.175   3.521
 7401TIP3    H222161   4.105   3.175   3.665
 7402TIP3   OH222162   3.338   6.390   3.858
 7402TIP3    H122163   3.348   6.450   3.931
 7402TIP3    H222164   3.424   6.389   3.815
 7403TIP3   OH222165   2.355   1.079   6.084
 7403TIP3    H122166   2.447   1.060   6.104
 7403TIP3    H222167   2.331   1.013   6.019
 7404TIP3   OH222168   3.613   1.961   1.472
 7404TIP3    H122169   3.658   1.999   1.396
 7404TIP3    H222170   3.647   1.872   1.478
 7405TIP3   OH222171   0.830   5.529   2.476
 7405TIP3    H122172   0.747   5.548   2.520
 7405TIP3    H222173   0.891   5.512   2.547
 7406TIP3   OH222174   6.821   0.042   0.543
 7406TIP3    H122175   6.831   0.137   0.557
 7406TIP3    H222176   6.838   0.030   0.450
 7407TIP3   OH222177   7.137   5.998   1.490
 7407TIP3    H122178   7.059   5.944   1.504
 7407TIP3    H222179   7.150   6.044   1.572
 7408TIP3   OH222180   0.292   0.560   0.257
 7408TIP3    H122181   0.231   0.523   0.194
 7408TIP3    H222182   0.239   0.577   0.335
 7409TIP3   OH222183   5.097   6.349   2.475
 7409TIP3    H122184   5.024   6.292   2.450
 7409TIP3    H222185   5.056   6.421   2.523
 7410TIP3   OH222186   4.543   2.400   2.609
 7410TIP3    H122187   4.500   2.328   2.655
 7410TIP3    H222188   4.477   2.468   2.604
 7411TIP3   OH222189   4.547   2.111   2.118
 7411TIP3    H122190   4.491   2.188   2.112
 7411TIP3    H222191   4.516   2.054   2.048
 7412TIP3   OH222192   2.733   4.058   6.610
 7412TIP3    H122193   2.685   3.982   6.577
 7412TIP3    H222194   2.813   4.021   6.648
 7413TIP3   OH222195   2.434   4.429   2.140
 7413TIP3    H122196   2.460   4.342   2.109
 7413TIP3    H222197   2.472   4.435   2.228
 7414TIP3   OH222198   4.128   4.217   6.626
 7414TIP3    H122199   4.046   4.209   6.675
 7414TIP3    H222200   4.132   4.139   6.571
 7415TIP3   OH222201   1.161   5.594   5.339
 7415TIP3    H122202   1.164   5.498   5.334
 7415TIP3    H222203   1.200   5.623   5.257
 7416TIP3   OH222204   5.655   2.416   0.898
 7416TIP3    H122205   5.569   2.442   0.931
 7416TIP3    H222206   5.673   2.333   0.943
 7417TIP3   OH222207   5.497   3.219   0.722
 7417TIP3    H122208   5.455   3.272   0.655
 7417TIP3    H222209   5.591   3.230   0.707
 7418TIP3   OH222210   0.205   1.087   2.484
 7418TIP3    H122211   0.168   1.001   2.504
 7418TIP3    H222212   0.130   1.142   2.466
 7419TIP3   OH222213   6.650   0.255   5.817
 7419TIP3    H122214   6.652   0.221   5.906
 7419TIP3    H222215   6.614   0.184   5.764
 7420TIP3   OH222216   7.518   5.279   5.811
 7420TIP3    H122217   7.449   5.236   5.760
 7420TIP3    H222218   7.476   5.302   5.894
 7421TIP3   OH222219   7.954   5.649   1.484
 7421TIP3    H122220   7.898   5.727   1.492
 7421TIP3    H222221   8.002   5.645   1.567
 7422TIP3   OH222222   3.159   7.012   6.052
 7422TIP3    H122223   3.161   6.929   6.004
 7422TIP3    H222224   3.071   7.047   6.036
 7423TIP3   OH222225   4.350   2.268   3.802
 7423TIP3    H122226   4.311   2.266   3.889
 7423TIP3    H222227   4.409   2.192   3.801
 7424TIP3   OH222228   7.621   6.502   0.967
 7424TIP3    H122229   7.654   6.495   0.877
 7424TIP3    H222230   7.694   6.475   1.022
 7425TIP3   OH222231   6.433   7.193   1.304
 7425TIP3    H122232   6.512   7.218   1.353
 7425TIP3    H222233   6.381   7.143   1.367
 7426TIP3   OH222234   2.759   0.391   2.392
 7426TIP3    H122235   2.825   0.371   2.459
 7426TIP3    H222236   2.807   0.385   2.310
 7427TIP3   OH222237   7.830   1.443   1.939
 7427TIP3    H122238   7.902   1.411   1.994
 7427TIP3    H222239   7.756   1.451   2.000
 7428TIP3   OH222240   3.374   0.424   3.594
 7428TIP3    H122241   3.383   0.468   3.510
 7428TIP3    H222242   3.325   0.344   3.573
 7429TIP3   OH222243   7.163   4.114   0.098
 7429TIP3    H122244   7.204   4.031   0.121
 7429TIP3    H222245   7.107   4.135   0.173
 7430TIP3   OH222246   6.946   5.497   1.361
 7430TIP3    H122247   6.971   5.573   1.413
 7430TIP3    H222248   7.022   5.479   1.305
 7431TIP3   OH222249   6.984   4.104   0.308
 7431TIP3    H122250   6.955   4.018   0.279
 7431TIP3    H222251   6.903   4.152   0.327
 7432TIP3   OH222252   6.713   1.091   3.265
 7432TIP3    H122253   6.661   1.014   3.239
 7432TIP3    H222254   6.719   1.144   3.186
 7433TIP3   OH222255   0.319   1.865   2.131
 7433TIP3    H122256   0.318   1.960   2.146
 7433TIP3    H222257   0.265   1.829   2.201
 7434TIP3   OH222258   0.080   0.564   1.540
 7434TIP3    H122259   0.173   0.542   1.531
 7434TIP3    H222260   0.041   0.488   1.582
 7435TIP3   OH222261   6.958   1.970   3.301
 7435TIP3    H122262   7.016   2.030   3.348
 7435TIP3    H222263   6.958   1.890   3.354
 7436TIP3   OH222264   5.094   2.009   2.449
 7436TIP3    H122265   5.145   1.938   2.409
 7436TIP3    H222266   5.004   1.992   2.420
 7437TIP3   OH222267   2.163   2.437   6.404
 7437TIP3    H122268   2.114   2.517   6.426
 7437TIP3    H222269   2.255   2.466   6.402
 7438TIP3   OH222270   1.199   4.895   1.563
 7438TIP3    H122271   1.190   4.974   1.617
 7438TIP3    H222272   1.202   4.928   1.473
 7439TIP3   OH222273   6.428   4.223   6.064
 7439TIP3    H122274   6.512   4.233   6.110
 7439TIP3    H222275   6.443   4.152   6.002
 7440TIP3   OH222276   7.850   0.101   3.768
 7440TIP3    H122277   7.863   0.103   3.673
 7440TIP3    H222278   7.791   0.174   3.786
 7441TIP3   OH222279   8.154   6.194   1.383
 7441TIP3    H122280   8.144   6.146   1.301
 7441TIP3    H222281   8.243   6.173   1.412
 7442TIP3   OH222282   5.921   6.426   1.259
 7442TIP3    H122283   5.852   6.446   1.196
 7442TIP3    H222284   5.877   6.431   1.344
 7443TIP3   OH222285   3.834   6.454   0.658
 7443TIP3    H122286   3.748   6.429   0.624
 7443TIP3    H222287   3.896   6.409   0.602
 7444TIP3   OH222288   4.103   3.915   1.741
 7444TIP3    H122289   4.144   3.986   1.790
 7444TIP3    H222290   4.144   3.836   1.775
 7445TIP3   OH222291   0.765   2.124   1.779
 7445TIP3    H122292   0.728   2.110   1.691
 7445TIP3    H222293   0.689   2.121   1.837
 7446TIP3   OH222294   0.113   3.064   3.538
 7446TIP3    H122295   0.040   3.013   3.502
 7446TIP3    H222296   0.153   3.105   3.462
 7447TIP3   OH222297   4.164   0.756   0.109
 7447TIP3    H122298   4.236   0.694   0.102
 7447TIP3    H222299   4.190   0.831   0.057
 7448TIP3   OH222300   4.727   0.025   6.414
 7448TIP3    H122301   4.679   0.067   6.342
 7448TIP3    H222302   4.704   0.077   6.491
 7449TIP3   OH222303   2.130   6.427   4.410
 7449TIP3    H122304   2.156   6.500   4.354
 7449TIP3    H222305   2.184   6.354   4.381
 7450TIP3   OH222306   6.920   1.564   4.194
 7450TIP3    H122307   6.924   1.506   4.271
 7450TIP3    H222308   6.971   1.641   4.220
 7451TIP3   OH222309   0.943   0.792   0.365
 7451TIP3    H122310   0.881   0.751   0.425
 7451TIP3    H222311   1.025   0.744   0.378
 7452TIP3   OH222312   0.151   2.647   2.344
 7452TIP3    H122313   0.097   2.580   2.386
 7452TIP3    H222314   0.187   2.697   2.417
 7453TIP3   OH222315   4.909   2.118   1.942
 7453TIP3    H122316   4.859   2.195   1.916
 7453TIP3    H222317   4.971   2.149   2.007
 7454TIP3   OH222318   1.950   7.268   6.153
 7454TIP3    H122319   1.887   7.197   6.141
 7454TIP3    H222320   2.014   7.256   6.083
 7455TIP3   OH222321   6.867   3.642   6.469
 7455TIP3    H122322   6.791   3.591   6.441
 7455TIP3    H222323   6.847   3.666   6.559
 7456TIP3   OH222324   4.034   4.445   4.750
 7456TIP3    H122325   3.992   4.407   4.827
 7456TIP3    H222326   4.100   4.380   4.725
 7457TIP3   OH222327   0.357   3.657   4.265
 7457TIP3    H122328   0.378   3.588   4.328
 7457TIP3    H222329   0.438   3.671   4.217
 7458TIP3   OH222330   6.705   1.251   6.594
 7458TIP3    H122331   6.717   1.191   6.668
 7458TIP3    H222332   6.791   1.253   6.551
 7459TIP3   OH222333   0.875   7.390   0.712
 7459TIP3    H122334   0.861   7.484   0.711
 7459TIP3    H222335   0.833   7.360   0.793
 7460TIP3   OH222336   4.801   6.599   5.431
 7460TIP3    H122337   4.880   6.648   5.453
 7460TIP3    H222338   4.741   6.665   5.396
 7461TIP3   OH222339   4.250   0.970   3.849
 7461TIP3    H122340   4.310   0.977   3.775
 7461TIP3    H222341   4.224   1.060   3.868
 7462TIP3   OH222342   3.051   5.003   6.664
 7462TIP3    H122343   3.117   5.046   6.720
 7462TIP3    H222344   3.077   5.026   6.575
 7463TIP3   OH222345   0.014   0.186   1.771
 7463TIP3    H122346  -0.032   0.235   1.703
 7463TIP3    H222347   0.097   0.232   1.782
 7464TIP3   OH222348   3.499   2.339   4.632
 7464TIP3    H122349   3.404   2.325   4.629
 7464TIP3    H222350   3.521   2.369   4.543
 7465TIP3   OH222351   0.484   4.752   1.845
 7465TIP3    H122352   0.514   4.748   1.936
 7465TIP3    H222353   0.482   4.661   1.817
 7466TIP3   OH222354   3.815   2.597   2.022
 7466TIP3    H122355   3.807   2.637   2.109
 7466TIP3    H222356   3.863   2.516   2.037
 7467TIP3   OH222357   7.716   5.668   1.128
 7467TIP3    H122358   7.791   5.726   1.146
 7467TIP3    H222359   7.695   5.684   1.036
 7468TIP3   OH222360   0.209   6.135   5.670
 7468TIP3    H122361   0.304   6.127   5.662
 7468TIP3    H222362   0.173   6.078   5.602
 7469TIP3   OH222363  -0.001   0.289   2.825
 7469TIP3    H122364   0.000   0.380   2.854
 7469TIP3    H222365   0.053   0.288   2.746
 7470TIP3   OH222366   3.434   7.851   5.799
 7470TIP3    H122367   3.358   7.793   5.799
 7470TIP3    H222368   3.416   7.915   5.730
 7471TIP3   OH222369   3.309   2.182   6.653
 7471TIP3    H122370   3.254   2.211   6.580
 7471TIP3    H222371   3.388   2.148   6.611
 7472TIP3   OH222372   8.035   1.713   1.838
 7472TIP3    H122373   7.997   1.756   1.915
 7472TIP3    H222374   8.099   1.653   1.874
 7473TIP3   OH222375   6.712   3.995   5.712
 7473TIP3    H122376   6.637   4.023   5.765
 7473TIP3    H222377   6.733   3.908   5.745
 7474TIP3   OH222378   7.953   6.201   2.811
 7474TIP3    H122379   7.987   6.159   2.733
 7474TIP3    H222380   8.026   6.253   2.844
 7475TIP3   OH222381   1.639   2.389   1.436
 7475TIP3    H122382   1.583   2.363   1.509
 7475TIP3    H222383   1.661   2.481   1.454
 7476TIP3   OH222384   7.401   0.186   0.310
 7476TIP3    H122385   7.412   0.091   0.316
 7476TIP3    H222386   7.446   0.220   0.388
 7477TIP3   OH222387   1.429   0.445   5.336
 7477TIP3    H122388   1.466   0.464   5.249
 7477TIP3    H222389   1.338   0.474   5.329
 7478TIP3   OH222390   5.818   4.898   2.756
 7478TIP3    H122391   5.890   4.917   2.696
 7478TIP3    H222392   5.829   4.806   2.778
 7479TIP3   OH222393   2.945   1.072   5.477
 7479TIP3    H122394   2.998   1.039   5.404
 7479TIP3    H222395   2.937   0.998   5.537
 7480TIP3   OH222396   4.362   0.563   0.164
 7480TIP3    H122397   4.291   0.546   0.226
 7480TIP3    H222398   4.436   0.590   0.219
 7481TIP3   OH222399   4.138   7.533   3.376
 7481TIP3    H122400   4.138   7.624   3.408
 7481TIP3    H222401   4.227   7.502   3.394
 7482TIP3   OH222402   7.069   2.237   6.686
 7482TIP3    H122403   7.036   2.327   6.691
 7482TIP3    H222404   6.992   2.183   6.703
 7483TIP3   OH222405   1.195   7.094   4.316
 7483TIP3    H122406   1.264   7.075   4.253
 7483TIP3    H222407   1.208   7.185   4.341
 7484TIP3   OH222408   8.048   1.828   2.781
 7484TIP3    H122409   8.002   1.912   2.780
 7484TIP3    H222410   8.071   1.812   2.690
 7485TIP3   OH222411   3.849   7.861   4.461
 7485TIP3    H122412   3.757   7.840   4.477
 7485TIP3    H222413   3.862   7.844   4.368
 7486TIP3   OH222414   5.208   7.184   0.995
 7486TIP3    H122415   5.244   7.105   1.036
 7486TIP3    H222416   5.245   7.184   0.906
 7487TIP3   OH222417   1.761   4.643   0.672
 7487TIP3    H122418   1.766   4.705   0.599
 7487TIP3    H222419   1.848   4.602   0.675
 7488TIP3   OH222420   7.914   2.692   5.017
 7488TIP3    H122421   7.866   2.770   4.989
 7488TIP3    H222422   7.952   2.657   4.937
 7489TIP3   OH222423   4.225   0.845   1.112
 7489TIP3    H122424   4.297   0.840   1.174
 7489TIP3    H222425   4.242   0.775   1.049
 7490TIP3   OH222426   5.637   1.868   4.165
 7490TIP3    H122427   5.650   1.945   4.220
 7490TIP3    H222428   5.647   1.793   4.224
 7491TIP3   OH222429   8.042   4.504   4.373
 7491TIP3    H122430   8.088   4.422   4.392
 7491TIP3    H222431   7.994   4.523   4.454
 7492TIP3   OH222432   4.725   4.584   2.217
 7492TIP3    H122433   4.783   4.644   2.172
 7492TIP3    H222434   4.754   4.585   2.308
 7493TIP3   OH222435   4.219   0.329   6.268
 7493TIP3    H122436   4.284   0.262   6.248
 7493TIP3    H222437   4.243   0.403   6.212
 7494TIP3   OH222438   3.630   6.353   0.499
 7494TIP3    H122439   3.575   6.399   0.436
 7494TIP3    H222440   3.630   6.262   0.469
 7495TIP3   OH222441   0.580   6.784   5.154
 7495TIP3    H122442   0.656   6.760   5.100
 7495TIP3    H222443   0.540   6.701   5.178
 7496TIP3   OH222444   1.151   7.443   0.899
 7496TIP3    H122445   1.189   7.530   0.915
 7496TIP3    H222446   1.075   7.439   0.957
 7497TIP3   OH222447   8.272   5.632   1.968
 7497TIP3    H122448   8.252   5.703   2.030
 7497TIP3    H222449   8.335   5.671   1.907
 7498TIP3   OH222450   0.603   5.708   0.154
 7498TIP3    H122451   0.648   5.792   0.165
 7498TIP3    H222452   0.618   5.662   0.236
 7499TIP3   OH222453   2.319   5.372   5.814
 7499TIP3    H122454   2.368   5.330   5.885
 7499TIP3    H222455   2.314   5.464   5.840
 7500TIP3   OH222456   1.527   1.070   5.067
 7500TIP3    H122457   1.539   1.163   5.048
 7500TIP3    H222458   1.433   1.059   5.075
 7501TIP3   OH222459   4.968   5.783   5.789
 7501TIP3    H122460   4.923   5.845   5.846
 7501TIP3    H222461   4.934   5.802   5.701
 7502TIP3   OH222462   8.281   3.503   0.547
 7502TIP3    H122463   8.194   3.540   0.560
 7502TIP3    H222464   8.293   3.503   0.452
 7503TIP3   OH222465   6.112   7.261   5.104
 7503TIP3    H122466   6.022   7.243   5.132
 7503TIP3    H222467   6.167   7.220   5.170
 7504TIP3   OH222468   2.487   7.422   4.981
 7504TIP3    H122469   2.526   7.471   4.909
 7504TIP3    H222470   2.539   7.341   4.986
 7505TIP3   OH222471   2.566   5.204   2.145
 7505TIP3    H122472   2.566   5.138   2.215
 7505TIP3    H222473   2.650   5.194   2.101
 7506TIP3   OH222474   2.192   4.343   2.967
 7506TIP3    H122475   2.274   4.393   2.962
 7506TIP3    H222476   2.185   4.318   3.059
 7507TIP3   OH222477   7.946   2.835   3.492
 7507TIP3    H122478   7.909   2.922   3.505
 7507TIP3    H222479   7.916   2.785   3.569
 7508TIP3   OH222480   7.852   3.942   3.395
 7508TIP3    H122481   7.877   4.023   3.440
 7508TIP3    H222482   7.770   3.916   3.436
 7509TIP3   OH222483   5.138   3.492   6.695
 7509TIP3    H122484   5.156   3.575   6.738
 7509TIP3    H222485   5.095   3.516   6.613
 7510TIP3   OH222486   0.319   5.327   4.209
 7510TIP3    H122487   0.384   5.258   4.216
 7510TIP3    H222488   0.367   5.407   4.231
 7511TIP3   OH222489   1.429   3.391   0.082
 7511TIP3    H122490   1.522   3.386   0.064
 7511TIP3    H222491   1.387   3.389  -0.004
 7512TIP3   OH222492   3.346   2.011   4.542
 7512TIP3    H122493   3.328   2.105   4.544
 7512TIP3    H222494   3.357   1.990   4.449
 7513TIP3   OH222495   3.768   1.037   6.418
 7513TIP3    H122496   3.708   1.027   6.344
 7513TIP3    H222497   3.823   0.959   6.414
 7514TIP3   OH222498   0.505   5.711   0.996
 7514TIP3    H122499   0.599   5.698   1.002
 7514TIP3    H222500   0.482   5.688   0.906
 7515TIP3   OH222501   4.109   7.077   5.233
 7515TIP3    H122502   4.146   6.991   5.208
 7515TIP3    H222503   4.156   7.139   5.177
 7516TIP3   OH222504   1.149   6.770   3.450
 7516TIP3    H122505   1.185   6.859   3.442
 7516TIP3    H222506   1.068   6.772   3.400
 7517TIP3   OH222507   1.406   6.704   3.181
 7517TIP3    H122508   1.404   6.799   3.196
 7517TIP3    H222509   1.474   6.692   3.115
 7518TIP3   OH222510   2.642   4.144   4.190
 7518TIP3    H122511   2.707   4.207   4.222
 7518TIP3    H222512   2.559   4.177   4.225
 7519TIP3   OH222513   4.035   7.332   0.120
 7519TIP3    H122514   3.955   7.319   0.173
 7519TIP3    H222515   4.028   7.266   0.051
 7520TIP3   OH222516   4.592   4.092   4.412
 7520TIP3    H122517   4.624   4.002   4.399
 7520TIP3    H222518   4.497   4.086   4.399
 7521TIP3   OH222519   3.319   6.765   2.318
 7521TIP3    H122520   3.414   6.753   2.321
 7521TIP3    H222521   3.304   6.847   2.365
 7522TIP3   OH222522   7.324   2.974   4.368
 7522TIP3    H122523   7.325   2.898   4.426
 7522TIP3    H222524   7.276   2.944   4.291
 7523TIP3   OH222525   7.601   3.646   0.940
 7523TIP3    H122526   7.664   3.683   1.002
 7523TIP3    H222527   7.639   3.561   0.916
 7524TIP3   OH222528   1.941   5.448   1.666
 7524TIP3    H122529   1.874   5.434   1.733
 7524TIP3    H222530   1.918   5.532   1.626
 7525TIP3   OH222531   5.289   7.250   2.969
 7525TIP3    H122532   5.285   7.326   3.028
 7525TIP3    H222533   5.205   7.251   2.924
 7526TIP3   OH222534   4.897   7.018   4.997
 7526TIP3    H122535   4.940   7.049   5.076
 7526TIP3    H222536   4.805   7.010   5.021
 7527TIP3   OH222537   4.494   4.211   5.445
 7527TIP3    H122538   4.482   4.305   5.458
 7527TIP3    H222539   4.425   4.171   5.499
 7528TIP3   OH222540   5.234   4.697   4.835
 7528TIP3    H122541   5.165   4.714   4.771
 7528TIP3    H222542   5.248   4.781   4.879
 7529TIP3   OH222543   7.823   2.257   4.999
 7529TIP3    H122544   7.794   2.348   4.995
 7529TIP3    H222545   7.911   2.262   5.037
 7530TIP3   OH222546   5.490   2.280   2.065
 7530TIP3    H122547   5.569   2.270   2.119
 7530TIP3    H222548   5.491   2.204   2.007
 7531TIP3   OH222549   2.520   7.627   4.491
 7531TIP3    H122550   2.501   7.604   4.582
 7531TIP3    H222551   2.583   7.561   4.463
 7532TIP3   OH222552   4.397   2.813   0.822
 7532TIP3    H122553   4.374   2.721   0.831
 7532TIP3    H222554   4.374   2.852   0.907
 7533TIP3   OH222555   7.370   4.904   4.761
 7533TIP3    H122556   7.460   4.881   4.784
 7533TIP3    H222557   7.330   4.929   4.844
 7534TIP3   OH222558   7.427   1.847   2.133
 7534TIP3    H122559   7.417   1.755   2.108
 7534TIP3    H222560   7.378   1.896   2.067
 7535TIP3   OH222561   4.560   4.061   2.919
 7535TIP3    H122562   4.492   4.001   2.949
 7535TIP3    H222563   4.545   4.069   2.825
 7536TIP3   OH222564   6.286   7.008   6.109
 7536TIP3    H122565   6.311   7.084   6.161
 7536TIP3    H222566   6.219   6.965   6.161
 7537TIP3   OH222567   1.215   4.977   4.365
 7537TIP3    H122568   1.205   5.052   4.423
 7537TIP3    H222569   1.307   4.981   4.337
 7538TIP3   OH222570   2.563   4.410   4.861
 7538TIP3    H122571   2.614   4.389   4.783
 7538TIP3    H222572   2.506   4.333   4.874
 7539TIP3   OH222573   6.909   4.065   3.255
 7539TIP3    H122574   6.897   4.010   3.177
 7539TIP3    H222575   6.846   4.137   3.242
 7540TIP3   OH222576   5.165   2.514   1.882
 7540TIP3    H122577   5.159   2.603   1.847
 7540TIP3    H222578   5.196   2.462   1.808
 7541TIP3   OH222579   4.783   0.319   3.477
 7541TIP3    H122580   4.868   0.330   3.519
 7541TIP3    H222581   4.757   0.408   3.454
 7542TIP3   OH222582   1.549   4.137   1.394
 7542TIP3    H122583   1.494   4.164   1.468
 7542TIP3    H222584   1.559   4.217   1.342
 7543TIP3   OH222585   4.084   4.880   2.594
 7543TIP3    H122586   3.992   4.860   2.609
 7543TIP3    H222587   4.091   4.975   2.604
 7544TIP3   OH222588   4.212   4.366   4.392
 7544TIP3    H122589   4.212   4.451   4.436
 7544TIP3    H222590   4.129   4.365   4.343
 7545TIP3   OH222591   2.727   4.132   2.368
 7545TIP3    H122592   2.788   4.175   2.429
 7545TIP3    H222593   2.651   4.111   2.422
 7546TIP3   OH222594   4.470   0.871   3.397
 7546TIP3    H122595   4.506   0.825   3.321
 7546TIP3    H222596   4.434   0.801   3.452
 7547TIP3   OH222597   7.549   1.856   3.628
 7547TIP3    H122598   7.616   1.789   3.613
 7547TIP3    H222599   7.466   1.809   3.626
 7548TIP3   OH222600   3.678   5.004   2.021
 7548TIP3    H122601   3.691   4.913   1.992
 7548TIP3    H222602   3.691   5.001   2.116
 7549TIP3   OH222603   0.043   3.865   4.804
 7549TIP3    H122604   0.002   3.869   4.718
 7549TIP3    H222605  -0.019   3.817   4.858
 7550TIP3   OH222606   3.990   1.563   5.631
 7550TIP3    H122607   3.958   1.633   5.688
 7550TIP3    H222608   3.913   1.507   5.616
 7551TIP3   OH222609   5.709   4.453   4.612
 7551TIP3    H122610   5.650   4.430   4.683
 7551TIP3    H222611   5.731   4.545   4.627
 7552TIP3   OH222612   3.789   5.292   3.066
 7552TIP3    H122613   3.874   5.250   3.077
 7552TIP3    H222614   3.783   5.354   3.140
 7553TIP3   OH222615   1.218   4.301   4.526
 7553TIP3    H122616   1.251   4.387   4.551
 7553TIP3    H222617   1.125   4.315   4.509
 7554TIP3   OH222618   1.988   0.784   6.210
 7554TIP3    H122619   1.929   0.757   6.140
 7554TIP3    H222620   1.993   0.879   6.201
 7555TIP3   OH222621   2.300   1.350   0.305
 7555TIP3    H122622   2.209   1.369   0.330
 7555TIP3    H222623   2.315   1.260   0.335
 7556TIP3   OH222624   5.508   3.448   3.090
 7556TIP3    H122625   5.440   3.451   3.157
 7556TIP3    H222626   5.538   3.538   3.082
 7557TIP3   OH222627   3.938   3.188   1.519
 7557TIP3    H122628   3.957   3.259   1.580
 7557TIP3    H222629   3.985   3.112   1.553
 7558TIP3   OH222630   5.078   1.117   5.436
 7558TIP3    H122631   5.047   1.032   5.403
 7558TIP3    H222632   5.098   1.101   5.528
 7559TIP3   OH222633   5.827   2.721   4.415
 7559TIP3    H122634   5.746   2.697   4.369
 7559TIP3    H222635   5.891   2.735   4.345
 7560TIP3   OH222636   4.964   3.143   3.927
 7560TIP3    H122637   4.909   3.129   4.003
 7560TIP3    H222638   4.932   3.081   3.862
 7561TIP3   OH222639   6.249   0.643   4.980
 7561TIP3    H122640   6.259   0.641   4.885
 7561TIP3    H222641   6.158   0.616   4.994
 7562TIP3   OH222642   8.164   6.371   2.858
 7562TIP3    H122643   8.230   6.359   2.789
 7562TIP3    H222644   8.193   6.448   2.906
 7563TIP3   OH222645   6.082   5.459   2.434
 7563TIP3    H122646   5.998   5.445   2.390
 7563TIP3    H222647   6.082   5.553   2.455
 7564TIP3   OH222648   6.309   2.296   0.364
 7564TIP3    H122649   6.250   2.370   0.383
 7564TIP3    H222650   6.292   2.234   0.435
 7565TIP3   OH222651   2.567   3.227   2.623
 7565TIP3    H122652   2.601   3.201   2.537
 7565TIP3    H222653   2.594   3.319   2.631
 7566TIP3   OH222654   0.232   1.369   6.124
 7566TIP3    H122655   0.181   1.407   6.196
 7566TIP3    H222656   0.266   1.444   6.076
 7567TIP3   OH222657   3.406   5.172   5.615
 7567TIP3    H122658   3.481   5.231   5.606
 7567TIP3    H222659   3.438   5.102   5.671
 7568TIP3   OH222660   6.886   7.455   5.035
 7568TIP3    H122661   6.975   7.456   4.998
 7568TIP3    H222662   6.892   7.394   5.108
 7569TIP3   OH222663   7.648   5.290   3.375
 7569TIP3    H122664   7.658   5.222   3.442
 7569TIP3    H222665   7.554   5.294   3.359
 7570TIP3   OH222666   5.494   1.902   4.623
 7570TIP3    H122667   5.484   1.992   4.653
 7570TIP3    H222668   5.481   1.849   4.702
 7571TIP3   OH222669   4.073   5.563   2.153
 7571TIP3    H122670   4.114   5.497   2.096
 7571TIP3    H222671   3.981   5.536   2.158
 7572TIP3   OH222672   6.007   5.248   2.857
 7572TIP3    H122673   6.096   5.277   2.837
 7572TIP3    H222674   5.953   5.284   2.787
 7573TIP3   OH222675   5.021   6.719   1.605
 7573TIP3    H122676   5.095   6.777   1.588
 7573TIP3    H222677   5.049   6.633   1.571
 7574TIP3   OH222678   7.046   4.193   2.639
 7574TIP3    H122679   7.053   4.227   2.728
 7574TIP3    H222680   7.088   4.259   2.585
 7575TIP3   OH222681   7.019   3.730   0.816
 7575TIP3    H122682   7.074   3.737   0.895
 7575TIP3    H222683   6.953   3.665   0.839
 7576TIP3   OH222684   2.999   5.822   2.179
 7576TIP3    H122685   2.953   5.752   2.133
 7576TIP3    H222686   2.946   5.839   2.257
 7577TIP3   OH222687   2.691   0.697   4.487
 7577TIP3    H122688   2.635   0.619   4.487
 7577TIP3    H222689   2.734   0.695   4.573
 7578TIP3   OH222690   3.871   3.151   1.042
 7578TIP3    H122691   3.871   3.057   1.021
 7578TIP3    H222692   3.816   3.157   1.120
 7579TIP3   OH222693   4.477   0.135   4.065
 7579TIP3    H122694   4.417   0.201   4.098
 7579TIP3    H222695   4.531   0.181   4.001
 7580TIP3   OH222696   2.847   0.651   5.740
 7580TIP3    H122697   2.824   0.658   5.833
 7580TIP3    H222698   2.765   0.670   5.694
 7581TIP3   OH222699   6.269   3.470   2.923
 7581TIP3    H122700   6.288   3.411   2.996
 7581TIP3    H222701   6.206   3.532   2.958
 7582TIP3   OH222702   6.280   5.348   2.827
 7582TIP3    H122703   6.238   5.419   2.877
 7582TIP3    H222704   6.367   5.340   2.866
 7583TIP3   OH222705   2.462   3.011   1.355
 7583TIP3    H122706   2.533   3.008   1.291
 7583TIP3    H222707   2.491   3.074   1.421
 7584TIP3   OH222708   2.211   7.379   5.023
 7584TIP3    H122709   2.206   7.295   4.977
 7584TIP3    H222710   2.303   7.405   5.014
 7585TIP3   OH222711   5.159   4.133   3.067
 7585TIP3    H122712   5.145   4.195   3.140
 7585TIP3    H222713   5.120   4.051   3.098
 7586TIP3   OH222714   1.509   5.031   2.747
 7586TIP3    H122715   1.513   4.936   2.759
 7586TIP3    H222716   1.599   5.055   2.723
 7587TIP3   OH222717   3.617   0.338   5.154
 7587TIP3    H122718   3.558   0.263   5.163
 7587TIP3    H222719   3.675   0.333   5.230
 7588TIP3   OH222720   5.966   0.496   4.686
 7588TIP3    H122721   5.972   0.401   4.696
 7588TIP3    H222722   5.873   0.513   4.671
 7589TIP3   OH222723   1.773   2.028   3.986
 7589TIP3    H122724   1.845   2.000   4.043
 7589TIP3    H222725   1.802   2.005   3.898
 7590TIP3   OH222726   6.092   1.556   5.831
 7590TIP3    H122727   5.997   1.549   5.837
 7590TIP3    H222728   6.120   1.472   5.795
 7591TIP3   OH222729   5.709   5.107   3.947
 7591TIP3    H122730   5.617   5.135   3.947
 7591TIP3    H222731   5.718   5.054   3.868
 7592TIP3   OH222732   1.673   5.406   6.530
 7592TIP3    H122733   1.751   5.370   6.572
 7592TIP3    H222734   1.706   5.461   6.459
 7593TIP3   OH222735   7.152   4.888   5.229
 7593TIP3    H122736   7.071   4.839   5.244
 7593TIP3    H222737   7.193   4.894   5.316
 7594TIP3   OH222738   1.647   5.261   3.245
 7594TIP3    H122739   1.655   5.178   3.293
 7594TIP3    H222740   1.609   5.236   3.161
 7595TIP3   OH222741   2.739   1.657   3.151
 7595TIP3    H122742   2.716   1.627   3.239
 7595TIP3    H222743   2.791   1.736   3.166
 7596TIP3   OH222744   3.939   0.385   2.008
 7596TIP3    H122745   3.991   0.381   1.928
 7596TIP3    H222746   3.860   0.334   1.988
 7597TIP3   OH222747   1.745   2.093   0.335
 7597TIP3    H122748   1.787   2.115   0.252
 7597TIP3    H222749   1.661   2.139   0.333
 7598TIP3   OH222750   6.982   6.292   6.167
 7598TIP3    H122751   6.941   6.311   6.251
 7598TIP3    H222752   6.962   6.199   6.151
 7599TIP3   OH222753   0.778   4.183   3.093
 7599TIP3    H122754   0.794   4.201   3.185
 7599TIP3    H222755   0.827   4.103   3.075
 7600TIP3   OH222756   6.262   6.104   3.207
 7600TIP3    H122757   6.251   6.011   3.226
 7600TIP3    H222758   6.333   6.132   3.265
 7601TIP3   OH222759   8.254   1.298   4.132
 7601TIP3    H122760   8.183   1.236   4.148
 7601TIP3    H222761   8.275   1.333   4.218
 7602TIP3   OH222762   8.248   4.558   4.045
 7602TIP3    H122763   8.193   4.492   4.089
 7602TIP3    H222764   8.267   4.622   4.114
 7603TIP3   OH222765   1.237   1.314   2.576
 7603TIP3    H122766   1.182   1.389   2.598
 7603TIP3    H222767   1.264   1.279   2.661
 7604TIP3   OH222768   5.933   6.472   5.194
 7604TIP3    H122769   6.011   6.522   5.221
 7604TIP3    H222770   5.957   6.381   5.207
 7605TIP3   OH222771   4.375   3.810   3.549
 7605TIP3    H122772   4.391   3.718   3.527
 7605TIP3    H222773   4.452   3.837   3.598
 7606TIP3   OH222774   3.157   6.699   0.967
 7606TIP3    H122775   3.168   6.647   1.047
 7606TIP3    H222776   3.077   6.748   0.982
 7607TIP3   OH222777   3.829   2.942   4.256
 7607TIP3    H122778   3.873   3.010   4.206
 7607TIP3    H222779   3.743   2.935   4.215
 7608TIP3   OH222780   6.697   4.309   1.779
 7608TIP3    H122781   6.617   4.306   1.728
 7608TIP3    H222782   6.760   4.356   1.724
 7609TIP3   OH222783   7.497   4.019   3.706
 7609TIP3    H122784   7.570   3.982   3.756
 7609TIP3    H222785   7.539   4.070   3.637
 7610TIP3   OH222786   1.930   5.023   5.504
 7610TIP3    H122787   1.947   5.057   5.592
 7610TIP3    H222788   1.843   5.054   5.482
 7611TIP3   OH222789   6.595   2.365   4.073
 7611TIP3    H122790   6.669   2.306   4.066
 7611TIP3    H222791   6.559   2.370   3.985
 7612TIP3   OH222792   4.919   7.041   2.802
 7612TIP3    H122793   4.888   7.128   2.775
 7612TIP3    H222794   4.858   7.014   2.870
 7613TIP3   OH222795   1.731   4.573   6.174
 7613TIP3    H122796   1.701   4.613   6.255
 7613TIP3    H222797   1.667   4.505   6.156
 7614TIP3   OH222798   1.649   0.852   5.187
 7614TIP3    H122799   1.597   0.908   5.129
 7614TIP3    H222800   1.590   0.832   5.260
 7615TIP3   OH222801   3.078   3.503   0.348
 7615TIP3    H122802   3.012   3.528   0.283
 7615TIP3    H222803   3.037   3.520   0.433
 7616TIP3   OH222804   1.289   6.374   4.087
 7616TIP3    H122805   1.384   6.379   4.075
 7616TIP3    H222806   1.272   6.421   4.168
 7617TIP3   OH222807   2.280   2.297   0.618
 7617TIP3    H122808   2.197   2.318   0.659
 7617TIP3    H222809   2.346   2.324   0.681
 7618TIP3   OH222810   0.331   3.071   3.883
 7618TIP3    H122811   0.284   3.131   3.824
 7618TIP3    H222812   0.410   3.047   3.834
 7619TIP3   OH222813   7.368   6.638   2.654
 7619TIP3    H122814   7.288   6.649   2.704
 7619TIP3    H222815   7.415   6.567   2.699
 7620TIP3   OH222816   1.624   1.061   0.533
 7620TIP3    H122817   1.575   0.979   0.525
 7620TIP3    H222818   1.557   1.126   0.554
 7621TIP3   OH222819   8.054   3.398   6.711
 7621TIP3    H122820   8.007   3.468   6.757
 7621TIP3    H222821   8.020   3.400   6.622
 7622TIP3   OH222822   8.340   2.753   0.734
 7622TIP3    H122823   8.326   2.805   0.814
 7622TIP3    H222824   8.263   2.697   0.729
 7623TIP3   OH222825   4.339   5.846   3.026
 7623TIP3    H122826   4.301   5.775   2.974
 7623TIP3    H222827   4.432   5.827   3.028
 7624TIP3   OH222828   5.110   3.054   5.708
 7624TIP3    H122829   5.139   3.145   5.703
 7624TIP3    H222830   5.051   3.044   5.634
 7625TIP3   OH222831   6.446   6.099   2.874
 7625TIP3    H122832   6.446   6.061   2.786
 7625TIP3    H222833   6.353   6.101   2.899
 7626TIP3   OH222834   4.677   6.084   5.060
 7626TIP3    H122835   4.705   6.075   5.151
 7626TIP3    H222836   4.610   6.016   5.049
 7627TIP3   OH222837   3.396   0.667   2.013
 7627TIP3    H122838   3.353   0.598   2.064
 7627TIP3    H222839   3.485   0.671   2.048
 7628TIP3   OH222840   8.286   6.541   5.480
 7628TIP3    H122841   8.234   6.491   5.544
 7628TIP3    H222842   8.267   6.499   5.396
 7629TIP3   OH222843   3.674   4.393   1.762
 7629TIP3    H122844   3.636   4.335   1.696
 7629TIP3    H222845   3.651   4.481   1.733
 7630TIP3   OH222846   6.512   5.129   0.089
 7630TIP3    H122847   6.596   5.133   0.042
 7630TIP3    H222848   6.517   5.049   0.140
 7631TIP3   OH222849   2.055   7.018   6.327
 7631TIP3    H122850   2.027   7.039   6.238
 7631TIP3    H222851   2.088   7.101   6.362
 7632TIP3   OH222852   1.893   2.993   4.216
 7632TIP3    H122853   1.942   2.939   4.277
 7632TIP3    H222854   1.818   2.939   4.191
 7633TIP3   OH222855   5.663   7.029   5.805
 7633TIP3    H122856   5.588   6.977   5.833
 7633TIP3    H222857   5.738   6.993   5.853
 7634TIP3   OH222858   5.747   6.471   0.076
 7634TIP3    H122859   5.827   6.436   0.037
 7634TIP3    H222860   5.689   6.395   0.084
 7635TIP3   OH222861   5.489   0.413   2.051
 7635TIP3    H122862   5.421   0.371   2.105
 7635TIP3    H222863   5.442   0.473   1.994
 7636TIP3   OH222864   8.095   1.469   3.376
 7636TIP3    H122865   8.107   1.564   3.386
 7636TIP3    H222866   8.055   1.460   3.289
 7637TIP3   OH222867   2.926   5.828   1.734
 7637TIP3    H122868   2.973   5.746   1.751
 7637TIP3    H222869   2.976   5.895   1.780
 7638TIP3   OH222870   4.628   4.301   3.523
 7638TIP3    H122871   4.650   4.371   3.584
 7638TIP3    H222872   4.586   4.345   3.449
 7639TIP3   OH222873   6.171   6.434   0.723
 7639TIP3    H122874   6.206   6.495   0.658
 7639TIP3    H222875   6.242   6.372   0.738
 7640TIP3   OH222876   7.664   5.290   1.582
 7640TIP3    H122877   7.758   5.276   1.597
 7640TIP3    H222878   7.633   5.208   1.545
 7641TIP3   OH222879   1.579   3.982   5.481
 7641TIP3    H122880   1.615   4.060   5.521
 7641TIP3    H222881   1.654   3.923   5.472
 7642TIP3   OH222882   0.172   2.467   5.711
 7642TIP3    H122883   0.130   2.546   5.747
 7642TIP3    H222884   0.111   2.396   5.731
 7643TIP3   OH222885   4.014   1.569   4.940
 7643TIP3    H122886   3.924   1.565   4.906
 7643TIP3    H222887   4.011   1.518   5.021
 7644TIP3   OH222888   4.777   1.627   3.392
 7644TIP3    H122889   4.839   1.614   3.320
 7644TIP3    H222890   4.791   1.717   3.420
 7645TIP3   OH222891   6.504   4.478   0.801
 7645TIP3    H122892   6.474   4.437   0.720
 7645TIP3    H222893   6.521   4.569   0.777
 7646TIP3   OH222894   7.804   2.462   6.211
 7646TIP3    H122895   7.885   2.455   6.160
 7646TIP3    H222896   7.791   2.557   6.222
 7647TIP3   OH222897   3.146   3.253   5.207
 7647TIP3    H122898   3.167   3.246   5.300
 7647TIP3    H222899   3.053   3.272   5.204
 7648TIP3   OH222900   5.122   5.671   0.420
 7648TIP3    H122901   5.095   5.627   0.500
 7648TIP3    H222902   5.150   5.758   0.449
 7649TIP3   OH222903   6.120   5.053   4.230
 7649TIP3    H122904   6.026   5.049   4.209
 7649TIP3    H222905   6.129   4.998   4.308
 7650TIP3   OH222906   6.589   0.350   0.099
 7650TIP3    H122907   6.500   0.367   0.067
 7650TIP3    H222908   6.639   0.328   0.020
 7651TIP3   OH222909   1.071   5.691   0.451
 7651TIP3    H122910   1.026   5.647   0.524
 7651TIP3    H222911   1.004   5.699   0.383
 7652TIP3   OH222912   7.233   1.777   6.606
 7652TIP3    H122913   7.217   1.734   6.522
 7652TIP3    H222914   7.159   1.838   6.615
 7653TIP3   OH222915   3.522   3.276   4.604
 7653TIP3    H122916   3.437   3.299   4.640
 7653TIP3    H222917   3.569   3.359   4.598
 7654TIP3   OH222918   3.945   0.051  -0.095
 7654TIP3    H122919   3.882   0.103  -0.044
 7654TIP3    H222920   3.903  -0.034  -0.103
 7655TIP3   OH222921   7.041   7.504   2.051
 7655TIP3    H122922   6.947   7.492   2.037
 7655TIP3    H222923   7.067   7.567   1.984
 7656TIP3   OH222924   2.284   5.774   6.013
 7656TIP3    H122925   2.260   5.725   5.935
 7656TIP3    H222926   2.377   5.752   6.028
 7657TIP3   OH222927   7.887   4.002   0.968
 7657TIP3    H122928   7.961   4.054   0.999
 7657TIP3    H222929   7.853   4.050   0.893
 7658TIP3   OH222930   8.259   3.848   4.532
 7658TIP3    H122931   8.326   3.807   4.477
 7658TIP3    H222932   8.186   3.864   4.473
 7659TIP3   OH222933   1.164   4.020   1.489
 7659TIP3    H122934   1.184   4.072   1.567
 7659TIP3    H222935   1.232   3.954   1.485
 7660TIP3   OH222936   4.655   4.877   0.865
 7660TIP3    H122937   4.565   4.886   0.897
 7660TIP3    H222938   4.657   4.790   0.825
 7661TIP3   OH222939   7.023   3.904   3.052
 7661TIP3    H122940   7.055   3.843   3.118
 7661TIP3    H222941   7.003   3.850   2.976
 7662TIP3   OH222942   4.834   0.015   2.972
 7662TIP3    H122943   4.793   0.080   2.915
 7662TIP3    H222944   4.784   0.021   3.054
 7663TIP3   OH222945   5.320   7.626   4.002
 7663TIP3    H122946   5.230   7.644   4.030
 7663TIP3    H222947   5.312   7.591   3.913
 7664TIP3   OH222948   0.713   0.383   4.923
 7664TIP3    H122949   0.705   0.302   4.874
 7664TIP3    H222950   0.743   0.447   4.858
 7665TIP3   OH222951   4.263   4.576   1.684
 7665TIP3    H122952   4.359   4.573   1.691
 7665TIP3    H222953   4.237   4.647   1.742
 7666TIP3   OH222954   2.508   3.616   5.265
 7666TIP3    H122955   2.599   3.597   5.242
 7666TIP3    H222956   2.467   3.529   5.274
 7667TIP3   OH222957   0.868   6.369   0.948
 7667TIP3    H122958   0.837   6.358   1.038
 7667TIP3    H222959   0.887   6.463   0.941
 7668TIP3   OH222960   0.933   6.444   1.570
 7668TIP3    H122961   0.994   6.509   1.605
 7668TIP3    H222962   0.911   6.388   1.645
 7669TIP3   OH222963   6.765   6.295   3.925
 7669TIP3    H122964   6.800   6.228   3.983
 7669TIP3    H222965   6.675   6.310   3.956
 7670TIP3   OH222966   3.117   0.131   1.235
 7670TIP3    H122967   3.067   0.160   1.312
 7670TIP3    H222968   3.203   0.171   1.246
 7671TIP3   OH222969   5.694   0.172   1.977
 7671TIP3    H122970   5.744   0.242   1.934
 7671TIP3    H222971   5.603   0.198   1.965
 7672TIP3   OH222972   1.383   4.774   4.861
 7672TIP3    H122973   1.471   4.805   4.839
 7672TIP3    H222974   1.398   4.695   4.914
 7673TIP3   OH222975   6.113   2.170   4.094
 7673TIP3    H122976   6.102   2.264   4.112
 7673TIP3    H222977   6.074   2.158   4.007
 7674TIP3   OH222978   7.465   0.488   2.877
 7674TIP3    H122979   7.536   0.448   2.926
 7674TIP3    H222980   7.442   0.566   2.927
 7675TIP3   OH222981   8.049   2.614   1.198
 7675TIP3    H122982   8.046   2.594   1.104
 7675TIP3    H222983   7.993   2.690   1.208
 7676TIP3   OH222984   6.193   5.834   4.035
 7676TIP3    H122985   6.248   5.902   3.996
 7676TIP3    H222986   6.253   5.762   4.055
 7677TIP3   OH222987   3.037   3.767   5.063
 7677TIP3    H122988   2.967   3.804   5.116
 7677TIP3    H222989   3.026   3.672   5.072
 7678TIP3   OH222990   5.658   7.175   3.756
 7678TIP3    H122991   5.669   7.141   3.667
 7678TIP3    H222992   5.704   7.258   3.756
 7679TIP3   OH222993   4.822   2.878   6.369
 7679TIP3    H122994   4.911   2.866   6.336
 7679TIP3    H222995   4.804   2.798   6.418
 7680TIP3   OH222996   2.469   3.943   0.746
 7680TIP3    H122997   2.432   4.019   0.700
 7680TIP3    H222998   2.545   3.978   0.793
 7681TIP3   OH222999   2.776   2.879   1.463
 7681TIP3    H123000   2.734   2.932   1.396
 7681TIP3    H223001   2.833   2.820   1.414
 7682TIP3   OH223002   7.947   5.533   4.786
 7682TIP3    H123003   7.852   5.540   4.780
 7682TIP3    H223004   7.965   5.536   4.880
 7683TIP3   OH223005   0.908   0.038   1.631
 7683TIP3    H123006   0.853   0.024   1.553
 7683TIP3    H223007   0.917  -0.049   1.669
 7684TIP3   OH223008   5.970   6.312   0.281
 7684TIP3    H123009   5.914   6.361   0.341
 7684TIP3    H223010   6.043   6.282   0.336
 7685TIP3   OH223011   7.413   2.131   3.788
 7685TIP3    H123012   7.441   2.162   3.874
 7685TIP3    H223013   7.408   2.036   3.797
 7686TIP3   OH223014   4.576   4.207   0.626
 7686TIP3    H123015   4.654   4.213   0.571
 7686TIP3    H223016   4.503   4.225   0.567
 7687TIP3   OH223017   4.664   5.994   2.773
 7687TIP3    H123018   4.669   6.008   2.868
 7687TIP3    H223019   4.745   6.030   2.739
 7688TIP3   OH223020   5.006   6.824   4.632
 7688TIP3    H123021   5.019   6.789   4.720
 7688TIP3    H223022   5.031   6.753   4.574
 7689TIP3   OH223023   5.273   1.430   6.692
 7689TIP3    H123024   5.244   1.442   6.782
 7689TIP3    H223025   5.213   1.484   6.640
 7690TIP3   OH223026   7.724   3.409   0.463
 7690TIP3    H123027   7.763   3.323   0.445
 7690TIP3    H223028   7.646   3.411   0.408
 7691TIP3   OH223029   3.547   6.061   0.057
 7691TIP3    H123030   3.476   5.998   0.043
 7691TIP3    H223031   3.617   6.032   0.000
 7692TIP3   OH223032   4.630   1.741   1.261
 7692TIP3    H123033   4.555   1.723   1.204
 7692TIP3    H223034   4.676   1.658   1.267
 7693TIP3   OH223035   4.819   3.569   0.695
 7693TIP3    H123036   4.853   3.491   0.738
 7693TIP3    H223037   4.893   3.603   0.645
 7694TIP3   OH223038   5.938   5.274   1.823
 7694TIP3    H123039   6.029   5.275   1.794
 7694TIP3    H223040   5.888   5.300   1.746
 7695TIP3   OH223041   0.802   2.232   2.681
 7695TIP3    H123042   0.736   2.177   2.722
 7695TIP3    H223043   0.821   2.189   2.598
 7696TIP3   OH223044   7.933   7.205   5.478
 7696TIP3    H123045   7.991   7.159   5.417
 7696TIP3    H223046   7.968   7.294   5.481
 7697TIP3   OH223047   6.430   4.703   2.729
 7697TIP3    H123048   6.515   4.664   2.709
 7697TIP3    H223049   6.399   4.738   2.646
 7698TIP3   OH223050   2.558   5.742   1.641
 7698TIP3    H123051   2.529   5.683   1.571
 7698TIP3    H223052   2.605   5.813   1.595
 7699TIP3   OH223053   7.656   0.564   5.510
 7699TIP3    H123054   7.611   0.551   5.593
 7699TIP3    H223055   7.748   0.575   5.534
 7700TIP3   OH223056   0.723   0.948   2.025
 7700TIP3    H123057   0.735   1.043   2.021
 7700TIP3    H223058   0.630   0.934   2.010
 7701TIP3   OH223059   4.935   7.437   3.426
 7701TIP3    H123060   4.888   7.355   3.416
 7701TIP3    H223061   4.952   7.444   3.520
 7702TIP3   OH223062   0.805   6.312   0.170
 7702TIP3    H123063   0.753   6.278   0.243
 7702TIP3    H223064   0.896   6.295   0.196
 7703TIP3   OH223065   1.214   1.100   0.996
 7703TIP3    H123066   1.183   1.077   1.083
 7703TIP3    H223067   1.260   1.183   1.008
 7704TIP3   OH223068   1.877   4.898   0.523
 7704TIP3    H123069   1.921   4.901   0.437
 7704TIP3    H223070   1.948   4.899   0.586
 7705TIP3   OH223071   2.132   5.720   2.930
 7705TIP3    H123072   2.108   5.683   3.015
 7705TIP3    H223073   2.049   5.727   2.883
 7706TIP3   OH223074   4.320   5.194   3.665
 7706TIP3    H123075   4.301   5.190   3.759
 7706TIP3    H223076   4.401   5.144   3.655
 7707TIP3   OH223077   6.557   1.413   3.913
 7707TIP3    H123078   6.645   1.432   3.946
 7707TIP3    H223079   6.570   1.394   3.820
 7708TIP3   OH223080   5.944   2.107   4.930
 7708TIP3    H123081   5.990   2.184   4.894
 7708TIP3    H223082   5.936   2.126   5.024
 7709TIP3   OH223083   6.836   5.440   3.999
 7709TIP3    H123084   6.839   5.487   3.915
 7709TIP3    H223085   6.749   5.458   4.033
 7710TIP3   OH223086   7.567   2.485   3.846
 7710TIP3    H123087   7.561   2.546   3.772
 7710TIP3    H223088   7.603   2.538   3.917
 7711TIP3   OH223089   7.955   1.451   3.146
 7711TIP3    H123090   7.951   1.542   3.113
 7711TIP3    H223091   7.919   1.399   3.074
 7712TIP3   OH223092   6.671   6.497   5.028
 7712TIP3    H123093   6.731   6.466   5.095
 7712TIP3    H223094   6.617   6.563   5.072
 7713TIP3   OH223095   5.785   2.429   4.619
 7713TIP3    H123096   5.832   2.510   4.638
 7713TIP3    H223097   5.726   2.451   4.548
 7714TIP3   OH223098   5.336   1.996   6.607
 7714TIP3    H123099   5.277   1.977   6.534
 7714TIP3    H223100   5.295   1.953   6.682
 7715TIP3   OH223101   3.921   1.502   2.574
 7715TIP3    H123102   3.971   1.531   2.650
 7715TIP3    H223103   3.951   1.558   2.502
 7716TIP3   OH223104   2.136   0.572   6.694
 7716TIP3    H123105   2.203   0.527   6.745
 7716TIP3    H223106   2.071   0.600   6.759
 7717TIP3   OH223107   7.397   0.130   1.356
 7717TIP3    H123108   7.474   0.183   1.375
 7717TIP3    H223109   7.400   0.059   1.421
 7718TIP3   OH223110   6.804   2.165   2.261
 7718TIP3    H123111   6.736   2.214   2.214
 7718TIP3    H223112   6.865   2.138   2.192
 7719TIP3   OH223113   4.710   3.089   1.656
 7719TIP3    H123114   4.753   3.105   1.572
 7719TIP3    H223115   4.780   3.062   1.715
 7720TIP3   OH223116   1.335   7.198   6.156
 7720TIP3    H123117   1.415   7.153   6.128
 7720TIP3    H223118   1.276   7.190   6.081
 7721TIP3   OH223119   7.622   6.661   6.207
 7721TIP3    H123120   7.568   6.643   6.130
 7721TIP3    H223121   7.611   6.755   6.222
 7722TIP3   OH223122   5.861   4.070   2.556
 7722TIP3    H123123   5.899   3.992   2.515
 7722TIP3    H223124   5.910   4.079   2.638
 7723TIP3   OH223125   0.528   5.418   4.512
 7723TIP3    H123126   0.509   5.329   4.542
 7723TIP3    H223127   0.471   5.474   4.565
 7724TIP3   OH223128   6.242   3.974   5.701
 7724TIP3    H123129   6.195   4.049   5.664
 7724TIP3    H223130   6.182   3.900   5.688
 7725TIP3   OH223131   2.149   3.875   3.777
 7725TIP3    H123132   2.152   3.904   3.685
 7725TIP3    H223133   2.231   3.906   3.814
 7726TIP3   OH223134   7.007   4.421   4.905
 7726TIP3    H123135   7.015   4.472   4.825
 7726TIP3    H223136   7.059   4.343   4.889
 7727TIP3   OH223137   6.935   0.106   1.876
 7727TIP3    H123138   6.948   0.093   1.782
 7727TIP3    H223139   6.869   0.041   1.900
 7728TIP3   OH223140   2.155   4.946   3.520
 7728TIP3    H123141   2.224   5.013   3.521
 7728TIP3    H223142   2.077   4.992   3.551
 7729TIP3   OH223143   7.797   2.006   1.525
 7729TIP3    H123144   7.761   1.971   1.607
 7729TIP3    H223145   7.725   2.059   1.489
 7730TIP3   OH223146   5.894   7.763   4.012
 7730TIP3    H123147   5.889   7.762   4.108
 7730TIP3    H223148   5.886   7.855   3.989
 7731TIP3   OH223149   2.584   7.781   1.451
 7731TIP3    H123150   2.617   7.826   1.373
 7731TIP3    H223151   2.661   7.739   1.488
 7732TIP3   OH223152   0.070   3.256   1.614
 7732TIP3    H123153  -0.001   3.283   1.672
 7732TIP3    H223154   0.075   3.324   1.547
 7733TIP3   OH223155   0.697   1.902   6.383
 7733TIP3    H123156   0.691   1.847   6.304
 7733TIP3    H223157   0.781   1.945   6.376
 7734TIP3   OH223158   4.462   6.205   0.312
 7734TIP3    H123159   4.525   6.206   0.385
 7734TIP3    H223160   4.475   6.120   0.270
 7735TIP3   OH223161   0.784   4.470   1.176
 7735TIP3    H123162   0.769   4.386   1.218
 7735TIP3    H223163   0.806   4.448   1.085
 7736TIP3   OH223164   6.769   5.993   0.620
 7736TIP3    H123165   6.767   5.905   0.657
 7736TIP3    H223166   6.727   6.047   0.687
 7737TIP3   OH223167   0.182   1.734   1.020
 7737TIP3    H123168   0.091   1.705   1.031
 7737TIP3    H223169   0.233   1.653   1.025
 7738TIP3   OH223170   0.544   0.577   3.955
 7738TIP3    H123171   0.637   0.602   3.947
 7738TIP3    H223172   0.497   0.661   3.954
 7739TIP3   OH223173   4.376   1.339   2.327
 7739TIP3    H123174   4.292   1.377   2.354
 7739TIP3    H223175   4.357   1.246   2.317
 7740TIP3   OH223176   2.130   2.155   5.370
 7740TIP3    H123177   2.159   2.234   5.325
 7740TIP3    H223178   2.068   2.187   5.436
 7741TIP3   OH223179   2.860   7.598   1.968
 7741TIP3    H123180   2.811   7.680   1.960
 7741TIP3    H223181   2.912   7.593   1.887
 7742TIP3   OH223182   5.525   2.808   5.028
 7742TIP3    H123183   5.490   2.848   5.108
 7742TIP3    H223184   5.619   2.828   5.030
 7743TIP3   OH223185   7.475   0.208   0.797
 7743TIP3    H123186   7.453   0.174   0.884
 7743TIP3    H223187   7.533   0.282   0.814
 7744TIP3   OH223188   6.065   1.182   0.695
 7744TIP3    H123189   6.093   1.091   0.687
 7744TIP3    H223190   6.133   1.232   0.650
 7745TIP3   OH223191   0.566   5.585   1.829
 7745TIP3    H123192   0.484   5.538   1.847
 7745TIP3    H223193   0.635   5.524   1.855
 7746TIP3   OH223194   5.170   2.876   3.500
 7746TIP3    H123195   5.223   2.899   3.576
 7746TIP3    H223196   5.115   2.803   3.530
 7747TIP3   OH223197   2.148   6.551   2.511
 7747TIP3    H123198   2.194   6.610   2.452
 7747TIP3    H223199   2.062   6.539   2.471
 7748TIP3   OH223200   1.232   1.067   5.863
 7748TIP3    H123201   1.238   1.099   5.953
 7748TIP3    H223202   1.140   1.078   5.840
 7749TIP3   OH223203   8.169   7.047   6.524
 7749TIP3    H123204   8.205   7.052   6.435
 7749TIP3    H223205   8.096   7.109   6.524
 7750TIP3   OH223206   1.110   1.449   2.193
 7750TIP3    H123207   1.197   1.447   2.151
 7750TIP3    H223208   1.050   1.424   2.123
 7751TIP3   OH223209   2.838   1.214   3.617
 7751TIP3    H123210   2.863   1.229   3.708
 7751TIP3    H223211   2.743   1.228   3.615
 7752TIP3   OH223212   7.210   6.701   1.340
 7752TIP3    H123213   7.217   6.789   1.305
 7752TIP3    H223214   7.165   6.651   1.271
 7753TIP3   OH223215   4.071   0.532   5.066
 7753TIP3    H123216   4.028   0.522   5.151
 7753TIP3    H223217   4.072   0.444   5.030
 7754TIP3   OH223218   5.221   0.574   6.328
 7754TIP3    H123219   5.289   0.622   6.281
 7754TIP3    H223220   5.268   0.522   6.393
 7755TIP3   OH223221   2.024   2.483   0.570
 7755TIP3    H123222   1.986   2.558   0.615
 7755TIP3    H223223   2.021   2.412   0.634
 7756TIP3   OH223224   1.875   2.845   0.545
 7756TIP3    H123225   1.860   2.788   0.470
 7756TIP3    H223226   1.953   2.895   0.522
 7757TIP3   OH223227   1.317   2.970   2.286
 7757TIP3    H123228   1.339   3.025   2.211
 7757TIP3    H223229   1.383   2.991   2.352
 7758TIP3   OH223230   7.227   2.508   3.157
 7758TIP3    H123231   7.265   2.587   3.120
 7758TIP3    H223232   7.302   2.454   3.181
 7759TIP3   OH223233   1.104   3.249   2.342
 7759TIP3    H123234   1.128   3.200   2.421
 7759TIP3    H223235   1.186   3.261   2.295
 7760TIP3   OH223236   8.279   1.757   5.008
 7760TIP3    H123237   8.351   1.703   5.040
 7760TIP3    H223238   8.319   1.844   4.995
 7761TIP3   OH223239   4.709   4.853   4.781
 7761TIP3    H123240   4.692   4.940   4.744
 7761TIP3    H223241   4.653   4.849   4.858
 7762TIP3   OH223242   4.468   3.931   4.658
 7762TIP3    H123243   4.513   4.015   4.647
 7762TIP3    H223244   4.445   3.904   4.569
 7763TIP3   OH223245   5.833   4.295   2.154
 7763TIP3    H123246   5.920   4.320   2.184
 7763TIP3    H223247   5.774   4.325   2.224
 7764TIP3   OH223248   2.561   1.221   3.637
 7764TIP3    H123249   2.537   1.255   3.551
 7764TIP3    H223250   2.555   1.126   3.627
 7765TIP3   OH223251   4.815   7.268   2.698
 7765TIP3    H123252   4.725   7.296   2.715
 7765TIP3    H223253   4.818   7.253   2.603
 7766TIP3   OH223254   4.505   0.959   1.539
 7766TIP3    H123255   4.521   1.001   1.454
 7766TIP3    H223256   4.543   1.019   1.603
 7767TIP3   OH223257   7.097   7.292   4.990
 7767TIP3    H123258   7.139   7.287   4.905
 7767TIP3    H223259   7.169   7.294   5.053
 7768TIP3   OH223260   6.748   2.213   0.165
 7768TIP3    H123261   6.719   2.259   0.087
 7768TIP3    H223262   6.667   2.191   0.211
 7769TIP3   OH223263   0.824   4.092   6.275
 7769TIP3    H123264   0.772   4.124   6.349
 7769TIP3    H223265   0.817   4.161   6.209
 7770TIP3   OH223266   4.476   1.036   5.943
 7770TIP3    H123267   4.467   0.964   5.880
 7770TIP3    H223268   4.394   1.086   5.935
 7771TIP3   OH223269   1.969   1.145   0.163
 7771TIP3    H123270   1.962   1.217   0.226
 7771TIP3    H223271   1.887   1.096   0.174
 7772TIP3   OH223272   6.393   5.817   1.862
 7772TIP3    H123273   6.450   5.890   1.842
 7772TIP3    H223274   6.418   5.791   1.951
 7773TIP3   OH223275   4.166   1.002   5.133
 7773TIP3    H123276   4.189   0.995   5.226
 7773TIP3    H223277   4.071   0.994   5.131
 7774TIP3   OH223278   7.393   4.087   6.766
 7774TIP3    H123279   7.408   4.142   6.689
 7774TIP3    H223280   7.302   4.057   6.758
 7775TIP3   OH223281   0.780   3.355   6.762
 7775TIP3    H123282   0.726   3.322   6.833
 7775TIP3    H223283   0.757   3.448   6.756
 7776TIP3   OH223284   3.451   3.511   4.382
 7776TIP3    H123285   3.435   3.567   4.306
 7776TIP3    H223286   3.424   3.565   4.457
 7777TIP3   OH223287   2.960   4.611   5.176
 7777TIP3    H123288   2.916   4.696   5.175
 7777TIP3    H223289   2.913   4.559   5.111
 7778TIP3   OH223290   5.509   2.056   6.022
 7778TIP3    H123291   5.568   2.010   6.082
 7778TIP3    H223292   5.470   2.126   6.074
 7779TIP3   OH223293   3.908   1.486   2.873
 7779TIP3    H123294   3.852   1.558   2.845
 7779TIP3    H223295   3.847   1.417   2.900
 7780TIP3   OH223296   4.079   2.229   3.751
 7780TIP3    H123297   4.075   2.192   3.839
 7780TIP3    H223298   4.168   2.264   3.744
 7781TIP3   OH223299   6.083   7.541   3.988
 7781TIP3    H123300   6.042   7.624   3.964
 7781TIP3    H223301   6.150   7.564   4.052
 7782TIP3   OH223302   6.200   6.506   1.058
 7782TIP3    H123303   6.214   6.599   1.041
 7782TIP3    H223304   6.115   6.503   1.102
 7783TIP3   OH223305   4.835   3.647   0.193
 7783TIP3    H123306   4.766   3.697   0.237
 7783TIP3    H223307   4.911   3.656   0.249
 7784TIP3   OH223308   6.425   6.901   1.817
 7784TIP3    H123309   6.468   6.933   1.896
 7784TIP3    H223310   6.339   6.872   1.847
 7785TIP3   OH223311   0.487   5.443   6.671
 7785TIP3    H123312   0.490   5.480   6.582
 7785TIP3    H223313   0.567   5.390   6.677
 7786TIP3   OH223314   6.426   0.225   4.240
 7786TIP3    H123315   6.456   0.147   4.193
 7786TIP3    H223316   6.336   0.237   4.210
 7787TIP3   OH223317   6.694   7.771   1.289
 7787TIP3    H123318   6.619   7.739   1.338
 7787TIP3    H223319   6.670   7.757   1.197
 7788TIP3   OH223320   5.521   2.620   0.431
 7788TIP3    H123321   5.540   2.556   0.499
 7788TIP3    H223322   5.582   2.692   0.448
 7789TIP3   OH223323   1.812   2.378   3.048
 7789TIP3    H123324   1.769   2.385   3.133
 7789TIP3    H223325   1.742   2.356   2.987
 7790TIP3   OH223326   6.760   6.991   1.681
 7790TIP3    H123327   6.665   6.990   1.677
 7790TIP3    H223328   6.785   6.899   1.678
 7791TIP3   OH223329   5.591   0.978   6.297
 7791TIP3    H123330   5.660   1.043   6.290
 7791TIP3    H223331   5.515   1.025   6.331
 7792TIP3   OH223332   4.958   7.181   3.705
 7792TIP3    H123333   5.021   7.110   3.700
 7792TIP3    H223334   5.011   7.261   3.701
 7793TIP3   OH223335   1.863   4.819   3.383
 7793TIP3    H123336   1.872   4.841   3.290
 7793TIP3    H223337   1.869   4.723   3.385
 7794TIP3   OH223338   6.215   5.494   4.857
 7794TIP3    H123339   6.246   5.560   4.795
 7794TIP3    H223340   6.289   5.435   4.868
 7795TIP3   OH223341   7.922   1.501   0.882
 7795TIP3    H123342   7.888   1.559   0.813
 7795TIP3    H223343   7.900   1.545   0.964
 7796TIP3   OH223344   7.512   3.087   0.229
 7796TIP3    H123345   7.503   3.014   0.167
 7796TIP3    H223346   7.463   3.158   0.188
 7797TIP3   OH223347   1.504   7.593   1.838
 7797TIP3    H123348   1.582   7.603   1.893
 7797TIP3    H223349   1.458   7.676   1.847
 7798TIP3   OH223350   1.543   5.373   6.785
 7798TIP3    H123351   1.612   5.394   6.722
 7798TIP3    H223352   1.462   5.389   6.737
 7799TIP3   OH223353   6.836   5.059   1.882
 7799TIP3    H123354   6.886   5.056   1.964
 7799TIP3    H223355   6.900   5.037   1.815
 7800TIP3   OH223356   4.099   3.410   1.982
 7800TIP3    H123357   4.101   3.487   2.038
 7800TIP3    H223358   4.022   3.361   2.011
 7801TIP3   OH223359   1.365   7.042   4.055
 7801TIP3    H123360   1.302   7.094   4.006
 7801TIP3    H223361   1.443   7.041   4.000
 7802TIP3   OH223362   2.660   7.056   6.030
 7802TIP3    H123363   2.689   6.974   6.070
 7802TIP3    H223364   2.581   7.033   5.982
 7803TIP3   OH223365   6.644   5.068   1.511
 7803TIP3    H123366   6.724   5.121   1.509
 7803TIP3    H223367   6.585   5.111   1.449
 7804TIP3   OH223368   1.455   5.442   5.321
 7804TIP3    H123369   1.381   5.391   5.289
 7804TIP3    H223370   1.481   5.496   5.246
 7805TIP3   OH223371   1.265   2.328   4.250
 7805TIP3    H123372   1.228   2.326   4.162
 7805TIP3    H223373   1.252   2.418   4.280
 7806TIP3   OH223374   0.137   7.074   4.912
 7806TIP3    H123375   0.128   7.093   5.005
 7806TIP3    H223376   0.151   7.159   4.871
 7807TIP3   OH223377   2.173   4.558   6.066
 7807TIP3    H123378   2.267   4.545   6.058
 7807TIP3    H223379   2.137   4.523   5.984
 7808TIP3   OH223380   4.464   0.906   3.668
 7808TIP3    H123381   4.447   0.939   3.580
 7808TIP3    H223382   4.521   0.972   3.707
 7809TIP3   OH223383   0.208   7.576   1.773
 7809TIP3    H123384   0.287   7.602   1.725
 7809TIP3    H223385   0.165   7.512   1.716
 7810TIP3   OH223386   1.347   4.523   1.441
 7810TIP3    H123387   1.256   4.530   1.412
 7810TIP3    H223388   1.348   4.447   1.499
 7811TIP3   OH223389   6.446   2.581   2.282
 7811TIP3    H123390   6.397   2.643   2.227
 7811TIP3    H223391   6.439   2.498   2.236
 7812TIP3   OH223392   4.569   3.841   3.311
 7812TIP3    H123393   4.537   3.815   3.397
 7812TIP3    H223394   4.620   3.920   3.327
 7813TIP3   OH223395   5.293   2.663  -0.012
 7813TIP3    H123396   5.304   2.758  -0.003
 7813TIP3    H223397   5.343   2.626   0.061
 7814TIP3   OH223398   6.791   7.128   0.690
 7814TIP3    H123399   6.833   7.116   0.775
 7814TIP3    H223400   6.758   7.041   0.667
 7815TIP3   OH223401   3.218   2.733   2.516
 7815TIP3    H123402   3.125   2.755   2.525
 7815TIP3    H223403   3.243   2.703   2.603
 7816TIP3   OH223404   1.490   0.057   2.371
 7816TIP3    H123405   1.441   0.114   2.312
 7816TIP3    H223406   1.578   0.094   2.374
 7817TIP3   OH223407   6.241   7.533   2.849
 7817TIP3    H123408   6.259   7.620   2.812
 7817TIP3    H223409   6.327   7.494   2.862
 7818TIP3   OH223410   1.142   7.264   0.679
 7818TIP3    H123411   1.050   7.281   0.658
 7818TIP3    H223412   1.163   7.330   0.745
 7819TIP3   OH223413   1.848   6.617   3.957
 7819TIP3    H123414   1.838   6.533   4.002
 7819TIP3    H223415   1.941   6.639   3.969
 7820TIP3   OH223416   1.529   7.422   4.995
 7820TIP3    H123417   1.540   7.372   5.076
 7820TIP3    H223418   1.493   7.506   5.024
 7821TIP3   OH223419   2.734   7.312   3.256
 7821TIP3    H123420   2.697   7.353   3.178
 7821TIP3    H223421   2.665   7.317   3.322
 7822TIP3   OH223422   2.031   6.132   0.821
 7822TIP3    H123423   2.083   6.206   0.792
 7822TIP3    H223424   1.983   6.103   0.744
 7823TIP3   OH223425   7.708   4.182   0.099
 7823TIP3    H123426   7.621   4.221   0.092
 7823TIP3    H223427   7.697   4.092   0.067
 7824TIP3   OH223428   0.547   1.156   4.885
 7824TIP3    H123429   0.561   1.236   4.937
 7824TIP3    H223430   0.555   1.085   4.949
 7825TIP3   OH223431   2.694   6.810   1.282
 7825TIP3    H123432   2.674   6.825   1.375
 7825TIP3    H223433   2.772   6.754   1.284
 7826TIP3   OH223434   8.041   4.879   3.583
 7826TIP3    H123435   8.102   4.870   3.656
 7826TIP3    H223436   8.033   4.974   3.569
 7827TIP3   OH223437   7.772   4.921   1.220
 7827TIP3    H123438   7.769   4.865   1.142
 7827TIP3    H223439   7.744   5.007   1.188
 7828TIP3   OH223440   4.297   3.611   5.460
 7828TIP3    H123441   4.366   3.677   5.458
 7828TIP3    H223442   4.240   3.633   5.386
 7829TIP3   OH223443   1.327   1.929   3.310
 7829TIP3    H123444   1.350   1.933   3.403
 7829TIP3    H223445   1.256   1.865   3.305
 7830TIP3   OH223446   1.969   6.947   0.934
 7830TIP3    H123447   2.060   6.968   0.914
 7830TIP3    H223448   1.956   6.859   0.899
 7831TIP3   OH223449   4.624   3.796   0.693
 7831TIP3    H123450   4.540   3.750   0.686
 7831TIP3    H223451   4.689   3.727   0.698
 7832TIP3   OH223452   5.628   6.390   5.733
 7832TIP3    H123453   5.636   6.362   5.824
 7832TIP3    H223454   5.717   6.391   5.700
 7833TIP3   OH223455   4.379   1.622   4.068
 7833TIP3    H123456   4.381   1.631   3.973
 7833TIP3    H223457   4.445   1.556   4.087
 7834TIP3   OH223458   1.927   4.178   1.737
 7834TIP3    H123459   1.845   4.221   1.709
 7834TIP3    H223460   1.923   4.178   1.833
 7835TIP3   OH223461   1.350   4.060   6.451
 7835TIP3    H123462   1.383   4.013   6.528
 7835TIP3    H223463   1.274   4.010   6.423
 7836TIP3   OH223464   5.755   0.271   2.239
 7836TIP3    H123465   5.729   0.275   2.147
 7836TIP3    H223466   5.847   0.298   2.239
 7837TIP3   OH223467   2.972   4.122   1.703
 7837TIP3    H123468   3.010   4.080   1.626
 7837TIP3    H223469   2.898   4.172   1.670
 7838TIP3   OH223470   1.285   0.603   1.853
 7838TIP3    H123471   1.308   0.621   1.762
 7838TIP3    H223472   1.259   0.688   1.889
 7839TIP3   OH223473   5.764   6.690   5.596
 7839TIP3    H123474   5.676   6.654   5.582
 7839TIP3    H223475   5.822   6.614   5.594
 7840TIP3   OH223476   3.743   2.571   6.200
 7840TIP3    H123477   3.781   2.639   6.143
 7840TIP3    H223478   3.771   2.596   6.288
 7841TIP3   OH223479   7.688   6.776   3.739
 7841TIP3    H123480   7.755   6.840   3.763
 7841TIP3    H223481   7.645   6.753   3.821
 7842TIP3   OH223482   4.404   7.220   6.583
 7842TIP3    H123483   4.459   7.171   6.644
 7842TIP3    H223484   4.466   7.251   6.516
 7843TIP3   OH223485   0.138   4.143   1.502
 7843TIP3    H123486   0.091   4.060   1.497
 7843TIP3    H223487   0.110   4.182   1.584
 7844TIP3   OH223488   3.245   1.142   5.441
 7844TIP3    H123489   3.313   1.205   5.463
 7844TIP3    H223490   3.183   1.191   5.388
 7845TIP3   OH223491   2.666   1.339   4.780
 7845TIP3    H123492   2.664   1.249   4.810
 7845TIP3    H223493   2.760   1.361   4.777
 7846TIP3   OH223494   1.821   3.268   5.400
 7846TIP3    H123495   1.884   3.198   5.382
 7846TIP3    H223496   1.854   3.311   5.479
 7847TIP3   OH223497   1.634   3.694   5.896
 7847TIP3    H123498   1.716   3.693   5.945
 7847TIP3    H223499   1.588   3.615   5.924
 7848TIP3   OH223500   1.716   1.898   2.369
 7848TIP3    H123501   1.711   1.931   2.279
 7848TIP3    H223502   1.627   1.868   2.389
 7849TIP3   OH223503   6.341   6.441   5.292
 7849TIP3    H123504   6.300   6.385   5.357
 7849TIP3    H223505   6.321   6.400   5.208
 7850TIP3   OH223506   0.861   6.186   6.673
 7850TIP3    H123507   0.947   6.229   6.676
 7850TIP3    H223508   0.878   6.103   6.628
 7851TIP3   OH223509   7.910   5.556   2.286
 7851TIP3    H123510   7.913   5.651   2.279
 7851TIP3    H223511   7.998   5.527   2.262
 7852TIP3   OH223512   0.501   4.262   0.872
 7852TIP3    H123513   0.432   4.201   0.897
 7852TIP3    H223514   0.497   4.331   0.938
 7853TIP3   OH223515   0.694   4.596   2.376
 7853TIP3    H123516   0.704   4.586   2.281
 7853TIP3    H223517   0.776   4.563   2.412
 7854TIP3   OH223518   2.546   3.084   0.206
 7854TIP3    H123519   2.625   3.127   0.237
 7854TIP3    H223520   2.574   2.998   0.176
 7855TIP3   OH223521   0.782   4.145   2.422
 7855TIP3    H123522   0.790   4.218   2.360
 7855TIP3    H223523   0.870   4.108   2.427
 7856TIP3   OH223524   4.326   5.334   0.986
 7856TIP3    H123525   4.398   5.381   0.945
 7856TIP3    H223526   4.272   5.402   1.025
 7857TIP3   OH223527   4.040   6.066   1.215
 7857TIP3    H123528   4.023   6.039   1.306
 7857TIP3    H223529   4.123   6.024   1.193
 7858TIP3   OH223530   2.577   4.227   6.281
 7858TIP3    H123531   2.593   4.265   6.368
 7858TIP3    H223532   2.522   4.290   6.237
 7859TIP3   OH223533   7.108   6.766   5.276
 7859TIP3    H123534   7.051   6.836   5.246
 7859TIP3    H223535   7.122   6.785   5.369
 7860TIP3   OH223536   7.955   5.278   2.111
 7860TIP3    H123537   8.033   5.329   2.133
 7860TIP3    H223538   7.956   5.273   2.015
 7861TIP3   OH223539   6.497   2.255   3.276
 7861TIP3    H123540   6.550   2.275   3.353
 7861TIP3    H223541   6.477   2.341   3.237
 7862TIP3   OH223542   2.835   2.501   2.493
 7862TIP3    H123543   2.747   2.513   2.529
 7862TIP3    H223544   2.828   2.423   2.438
 7863TIP3   OH223545   7.297   3.519   6.236
 7863TIP3    H123546   7.304   3.507   6.331
 7863TIP3    H223547   7.206   3.546   6.222
 7864TIP3   OH223548   0.533   0.506   1.978
 7864TIP3    H123549   0.559   0.592   1.944
 7864TIP3    H223550   0.614   0.456   1.982
 7865TIP3   OH223551   0.339   4.621   5.843
 7865TIP3    H123552   0.410   4.569   5.805
 7865TIP3    H223553   0.335   4.699   5.788
 7866TIP3   OH223554   3.339   6.948   4.615
 7866TIP3    H123555   3.285   7.017   4.654
 7866TIP3    H223556   3.393   6.916   4.687
 7867TIP3   OH223557   3.100   0.432   1.281
 7867TIP3    H123558   3.170   0.399   1.225
 7867TIP3    H223559   3.096   0.526   1.261
 7868TIP3   OH223560   0.965   7.711   2.774
 7868TIP3    H123561   0.877   7.720   2.809
 7868TIP3    H223562   1.004   7.798   2.782
 7869TIP3   OH223563   3.899   6.157   2.810
 7869TIP3    H123564   3.839   6.084   2.797
 7869TIP3    H223565   3.921   6.154   2.903
 7870TIP3   OH223566   0.927   2.337   5.094
 7870TIP3    H123567   0.987   2.407   5.066
 7870TIP3    H223568   0.935   2.335   5.189
 7871TIP3   OH223569   0.849   6.136   0.826
 7871TIP3    H123570   0.839   6.217   0.877
 7871TIP3    H223571   0.933   6.146   0.782
 7872TIP3   OH223572   7.207   1.845   2.311
 7872TIP3    H123573   7.247   1.848   2.399
 7872TIP3    H223574   7.282   1.847   2.251
 7873TIP3   OH223575   1.498   5.692   1.389
 7873TIP3    H123576   1.588   5.716   1.368
 7873TIP3    H223577   1.449   5.773   1.379
 7874TIP3   OH223578   7.733   4.592   0.479
 7874TIP3    H123579   7.798   4.620   0.545
 7874TIP3    H223580   7.784   4.576   0.400
 7875TIP3   OH223581   2.225   2.407   5.291
 7875TIP3    H123582   2.310   2.370   5.266
 7875TIP3    H223583   2.228   2.410   5.387
 7876TIP3   OH223584   8.099   5.814   5.271
 7876TIP3    H123585   8.050   5.784   5.347
 7876TIP3    H223586   8.104   5.737   5.214
 7877TIP3   OH223587   4.238   6.086   3.128
 7877TIP3    H123588   4.276   6.093   3.216
 7877TIP3    H223589   4.271   6.003   3.094
 7878TIP3   OH223590   1.177   0.189   3.176
 7878TIP3    H123591   1.207   0.111   3.130
 7878TIP3    H223592   1.237   0.258   3.146
 7879TIP3   OH223593   5.741   6.539   3.044
 7879TIP3    H123594   5.770   6.485   3.117
 7879TIP3    H223595   5.717   6.477   2.975
 7880TIP3   OH223596   6.549   6.033   5.976
 7880TIP3    H123597   6.540   5.949   6.020
 7880TIP3    H223598   6.600   6.087   6.037
 7881TIP3   OH223599   3.794   2.978   6.308
 7881TIP3    H123600   3.824   2.922   6.236
 7881TIP3    H223601   3.764   3.058   6.265
 7882TIP3   OH223602   4.900   6.115   1.590
 7882TIP3    H123603   4.845   6.184   1.554
 7882TIP3    H223604   4.923   6.060   1.514
 7883TIP3   OH223605   4.592   7.152   3.332
 7883TIP3    H123606   4.577   7.216   3.263
 7883TIP3    H223607   4.678   7.174   3.367
 7884TIP3   OH223608   1.105   1.582   2.571
 7884TIP3    H123609   1.026   1.611   2.525
 7884TIP3    H223610   1.174   1.637   2.535
 7885TIP3   OH223611   8.032   6.395   6.245
 7885TIP3    H123612   8.032   6.425   6.336
 7885TIP3    H223613   7.941   6.401   6.218
 7886TIP3   OH223614   4.651   2.179   0.860
 7886TIP3    H123615   4.566   2.199   0.899
 7886TIP3    H223616   4.664   2.086   0.876
 7887TIP3   OH223617   6.749   6.095   6.573
 7887TIP3    H123618   6.767   6.020   6.630
 7887TIP3    H223619   6.680   6.066   6.515
 7888TIP3   OH223620   6.345   6.732   3.520
 7888TIP3    H123621   6.374   6.795   3.585
 7888TIP3    H223622   6.277   6.778   3.470
 7889TIP3   OH223623   0.691   6.826   1.780
 7889TIP3    H123624   0.747   6.786   1.846
 7889TIP3    H223625   0.690   6.763   1.708
 7890TIP3   OH223626   2.879   5.237   0.350
 7890TIP3    H123627   2.911   5.171   0.412
 7890TIP3    H223628   2.958   5.270   0.307
 7891TIP3   OH223629   3.125   2.519   5.373
 7891TIP3    H123630   3.148   2.605   5.338
 7891TIP3    H223631   3.208   2.473   5.381
 7892TIP3   OH223632   4.623   2.277   1.718
 7892TIP3    H123633   4.558   2.347   1.721
 7892TIP3    H223634   4.698   2.311   1.766
 7893TIP3   OH223635   4.962   2.202   1.612
 7893TIP3    H123636   4.891   2.177   1.554
 7893TIP3    H223637   4.941   2.292   1.639
 7894TIP3   OH223638   5.127   2.562   1.351
 7894TIP3    H123639   5.154   2.610   1.273
 7894TIP3    H223640   5.159   2.473   1.336
 7895TIP3   OH223641   1.792   0.847   6.518
 7895TIP3    H123642   1.809   0.762   6.559
 7895TIP3    H223643   1.723   0.829   6.454
 7896TIP3   OH223644   6.139   3.168   0.891
 7896TIP3    H123645   6.154   3.188   0.799
 7896TIP3    H223646   6.225   3.147   0.927
 7897TIP3   OH223647   4.496   0.543   4.781
 7897TIP3    H123648   4.524   0.490   4.855
 7897TIP3    H223649   4.408   0.572   4.805
 7898TIP3   OH223650   3.328   0.864   5.180
 7898TIP3    H123651   3.309   0.775   5.210
 7898TIP3    H223652   3.244   0.909   5.185
 7899TIP3   OH223653   7.408   5.390   6.051
 7899TIP3    H123654   7.417   5.481   6.021
 7899TIP3    H223655   7.317   5.368   6.035
 7900TIP3   OH223656   0.778   6.624   6.110
 7900TIP3    H123657   0.789   6.573   6.029
 7900TIP3    H223658   0.688   6.656   6.105
 7901TIP3   OH223659   0.534   4.123  -0.058
 7901TIP3    H123660   0.463   4.059  -0.050
 7901TIP3    H223661   0.496   4.205  -0.027
 7902TIP3   OH223662   4.716   7.588   5.657
 7902TIP3    H123663   4.761   7.535   5.591
 7902TIP3    H223664   4.782   7.651   5.686
 7903TIP3   OH223665   7.094   7.251   4.669
 7903TIP3    H123666   7.018   7.194   4.679
 7903TIP3    H223667   7.169   7.192   4.661
 7904TIP3   OH223668   2.490   3.373   3.183
 7904TIP3    H123669   2.462   3.426   3.258
 7904TIP3    H223670   2.543   3.303   3.221
 7905TIP3   OH223671   4.119   0.470   1.273
 7905TIP3    H123672   4.148   0.558   1.297
 7905TIP3    H223673   4.200   0.420   1.263
 7906TIP3   OH223674   3.465   3.727   0.879
 7906TIP3    H123675   3.449   3.784   0.804
 7906TIP3    H223676   3.558   3.740   0.899
 7907TIP3   OH223677   4.848   0.728   1.512
 7907TIP3    H123678   4.855   0.729   1.607
 7907TIP3    H223679   4.929   0.769   1.482
 7908TIP3   OH223680   6.114   3.831   1.757
 7908TIP3    H123681   6.020   3.832   1.740
 7908TIP3    H223682   6.122   3.841   1.852
 7909TIP3   OH223683   0.290   3.943   4.869
 7909TIP3    H123684   0.216   3.896   4.831
 7909TIP3    H223685   0.362   3.926   4.809
 7910TIP3   OH223686   0.614   2.529   6.190
 7910TIP3    H123687   0.698   2.533   6.236
 7910TIP3    H223688   0.627   2.461   6.124
 7911TIP3   OH223689   5.975   0.048   5.162
 7911TIP3    H123690   5.911   0.109   5.200
 7911TIP3    H223691   5.937  -0.039   5.179
 7912TIP3   OH223692   2.814   4.979   0.226
 7912TIP3    H123693   2.898   5.025   0.224
 7912TIP3    H223694   2.799   4.954   0.135
 7913TIP3   OH223695   4.262   6.218   4.958
 7913TIP3    H123696   4.299   6.259   5.036
 7913TIP3    H223697   4.301   6.266   4.884
 7914TIP3   OH223698   3.655   2.712   0.326
 7914TIP3    H123699   3.732   2.693   0.273
 7914TIP3    H223700   3.639   2.806   0.314
 7915TIP3   OH223701   0.278   5.508   5.560
 7915TIP3    H123702   0.213   5.488   5.627
 7915TIP3    H223703   0.274   5.603   5.550
 7916TIP3   OH223704   4.258   7.215   2.713
 7916TIP3    H123705   4.192   7.188   2.649
 7916TIP3    H223706   4.227   7.300   2.745
 7917TIP3   OH223707   8.008   0.553   3.757
 7917TIP3    H123708   7.963   0.635   3.775
 7917TIP3    H223709   8.101   0.574   3.764
 7918TIP3   OH223710   7.381   7.862  -0.025
 7918TIP3    H123711   7.293   7.890  -0.052
 7918TIP3    H223712   7.366   7.777   0.018
 7919TIP3   OH223713   1.783   5.694   1.338
 7919TIP3    H123714   1.812   5.652   1.257
 7919TIP3    H223715   1.784   5.787   1.318
 7920TIP3   OH223716   4.458   2.012   6.084
 7920TIP3    H123717   4.465   1.918   6.100
 7920TIP3    H223718   4.407   2.045   6.157
 7921TIP3   OH223719   2.050   1.555   2.638
 7921TIP3    H123720   1.982   1.595   2.693
 7921TIP3    H223721   2.003   1.524   2.560
 7922TIP3   OH223722   4.485   2.094   4.780
 7922TIP3    H123723   4.448   2.148   4.850
 7922TIP3    H223724   4.410   2.071   4.725
 7923TIP3   OH223725   0.725   1.608   3.238
 7923TIP3    H123726   0.663   1.537   3.223
 7923TIP3    H223727   0.784   1.606   3.162
 7924TIP3   OH223728   0.074   6.704   1.479
 7924TIP3    H123729   0.002   6.640   1.479
 7924TIP3    H223730   0.118   6.691   1.562
 7925TIP3   OH223731   7.787   1.533   6.679
 7925TIP3    H123732   7.736   1.553   6.600
 7925TIP3    H223733   7.849   1.605   6.687
 7926TIP3   OH223734   5.785   2.065   2.485
 7926TIP3    H123735   5.744   2.096   2.405
 7926TIP3    H223736   5.870   2.108   2.488
 7927TIP3   OH223737   0.294   6.080   6.512
 7927TIP3    H123738   0.357   6.011   6.534
 7927TIP3    H223739   0.291   6.135   6.590
 7928TIP3   OH223740   5.295   6.358   3.015
 7928TIP3    H123741   5.364   6.379   3.078
 7928TIP3    H223742   5.222   6.415   3.040
 7929TIP3   OH223743   2.336   5.609   5.072
 7929TIP3    H123744   2.252   5.649   5.094
 7929TIP3    H223745   2.317   5.515   5.064
 7930TIP3   OH223746   2.709   2.499   6.297
 7930TIP3    H123747   2.790   2.549   6.286
 7930TIP3    H223748   2.738   2.408   6.299
 7931TIP3   OH223749   3.287   3.309   2.865
 7931TIP3    H123750   3.305   3.253   2.940
 7931TIP3    H223751   3.197   3.289   2.840
 7932TIP3   OH223752   6.884   0.752   5.908
 7932TIP3    H123753   6.916   0.802   5.832
 7932TIP3    H223754   6.870   0.664   5.875
 7933TIP3   OH223755   1.641   7.694   6.641
 7933TIP3    H123756   1.621   7.652   6.557
 7933TIP3    H223757   1.558   7.694   6.689
 7934TIP3   OH223758   1.375   1.560   1.672
 7934TIP3    H123759   1.353   1.617   1.745
 7934TIP3    H223760   1.470   1.565   1.665
 7935TIP3   OH223761   2.224   1.270   5.077
 7935TIP3    H123762   2.301   1.224   5.042
 7935TIP3    H223763   2.175   1.296   5.000
 7936TIP3   OH223764   4.775   1.539   6.355
 7936TIP3    H123765   4.776   1.444   6.352
 7936TIP3    H223766   4.789   1.566   6.265
 7937TIP3   OH223767   3.090   3.496   5.040
 7937TIP3    H123768   3.011   3.447   5.015
 7937TIP3    H223769   3.163   3.442   5.009
 7938TIP3   OH223770   4.836   5.540   6.016
 7938TIP3    H123771   4.918   5.493   6.030
 7938TIP3    H223772   4.840   5.613   6.078
 7939TIP3   OH223773   3.321   1.034   2.233
 7939TIP3    H123774   3.230   1.014   2.211
 7939TIP3    H223775   3.315   1.105   2.297
 7940TIP3   OH223776   1.321   3.486   0.337
 7940TIP3    H123777   1.366   3.439   0.268
 7940TIP3    H223778   1.317   3.425   0.410
 7941TIP3   OH223779   4.618   5.002   6.119
 7941TIP3    H123780   4.708   5.020   6.148
 7941TIP3    H223781   4.578   5.089   6.110
 7942TIP3   OH223782   4.381   4.307   3.315
 7942TIP3    H123783   4.342   4.363   3.382
 7942TIP3    H223784   4.310   4.293   3.252
 7943TIP3   OH223785   2.265   4.148   1.207
 7943TIP3    H123786   2.313   4.195   1.275
 7943TIP3    H223787   2.175   4.178   1.217
 7944TIP3   OH223788   3.912   3.400   6.189
 7944TIP3    H123789   3.962   3.423   6.111
 7944TIP3    H223790   3.954   3.449   6.260
 7945TIP3   OH223791   8.174   3.277   0.907
 7945TIP3    H123792   8.157   3.297   0.815
 7945TIP3    H223793   8.115   3.335   0.955
 7946TIP3   OH223794   2.910   2.094   3.244
 7946TIP3    H123795   2.927   2.178   3.202
 7946TIP3    H223796   2.980   2.037   3.212
 7947TIP3   OH223797   6.380   2.016   4.253
 7947TIP3    H123798   6.292   1.978   4.255
 7947TIP3    H223799   6.428   1.963   4.190
 7948TIP3   OH223800   5.031   3.168   2.735
 7948TIP3    H123801   5.031   3.244   2.676
 7948TIP3    H223802   5.091   3.106   2.695
 7949TIP3   OH223803   5.927   1.814   3.234
 7949TIP3    H123804   5.995   1.812   3.302
 7949TIP3    H223805   5.849   1.846   3.279
 7950TIP3   OH223806   5.103   2.588   3.425
 7950TIP3    H123807   5.099   2.576   3.520
 7950TIP3    H223808   5.161   2.517   3.395
 7951TIP3   OH223809   3.160   2.460   2.311
 7951TIP3    H123810   3.170   2.547   2.274
 7951TIP3    H223811   3.196   2.467   2.399
 7952TIP3   OH223812   4.740   4.395   0.313
 7952TIP3    H123813   4.723   4.302   0.322
 7952TIP3    H223814   4.831   4.400   0.283
 7953TIP3   OH223815   2.205   2.908   3.084
 7953TIP3    H123816   2.250   2.985   3.117
 7953TIP3    H223817   2.250   2.834   3.126
 7954TIP3   OH223818   6.929   7.073   1.424
 7954TIP3    H123819   6.875   7.145   1.390
 7954TIP3    H223820   7.003   7.068   1.362
 7955TIP3   OH223821   4.482   2.300   4.992
 7955TIP3    H123822   4.405   2.348   5.022
 7955TIP3    H223823   4.497   2.233   5.059
 7956TIP3   OH223824   0.217   0.872   0.630
 7956TIP3    H123825   0.180   0.842   0.547
 7956TIP3    H223826   0.192   0.964   0.635
 7957TIP3   OH223827   0.426   5.581   0.743
 7957TIP3    H123828   0.422   5.637   0.666
 7957TIP3    H223829   0.345   5.530   0.740
 7958TIP3   OH223830   2.183   5.217   4.105
 7958TIP3    H123831   2.146   5.233   4.018
 7958TIP3    H223832   2.108   5.221   4.164
 7959TIP3   OH223833   7.628   0.028   4.448
 7959TIP3    H123834   7.689   0.095   4.478
 7959TIP3    H223835   7.560   0.026   4.516
 7960TIP3   OH223836   0.109   6.199   1.518
 7960TIP3    H123837   0.109   6.265   1.448
 7960TIP3    H223838   0.185   6.144   1.499
 7961TIP3   OH223839   1.660   6.337   1.149
 7961TIP3    H123840   1.729   6.298   1.202
 7961TIP3    H223841   1.634   6.268   1.089
 7962TIP3   OH223842   0.637   6.396   0.706
 7962TIP3    H123843   0.660   6.473   0.655
 7962TIP3    H223844   0.719   6.371   0.750
 7963TIP3   OH223845   1.323   4.957   2.372
 7963TIP3    H123846   1.230   4.981   2.371
 7963TIP3    H223847   1.329   4.883   2.312
 7964TIP3   OH223848   4.712   5.622   4.069
 7964TIP3    H123849   4.681   5.678   3.998
 7964TIP3    H223850   4.633   5.575   4.098
 7965TIP3   OH223851   7.936   1.237   2.185
 7965TIP3    H123852   8.023   1.267   2.158
 7965TIP3    H223853   7.934   1.144   2.159
 7966TIP3   OH223854   2.376   6.619   3.066
 7966TIP3    H123855   2.356   6.694   3.121
 7966TIP3    H223856   2.343   6.644   2.979
 7967TIP3   OH223857   5.671   6.392   4.990
 7967TIP3    H123858   5.715   6.443   4.921
 7967TIP3    H223859   5.633   6.458   5.048
 7968TIP3   OH223860   0.822   5.364   0.786
 7968TIP3    H123861   0.749   5.359   0.725
 7968TIP3    H223862   0.897   5.388   0.732
 7969TIP3   OH223863   3.657   6.778   1.157
 7969TIP3    H123864   3.618   6.743   1.077
 7969TIP3    H223865   3.707   6.705   1.193
 7970TIP3   OH223866   4.382   1.522   5.653
 7970TIP3    H123867   4.415   1.606   5.685
 7970TIP3    H223868   4.336   1.544   5.572
 7971TIP3   OH223869   5.570   4.940   4.569
 7971TIP3    H123870   5.604   4.851   4.563
 7971TIP3    H223871   5.647   4.996   4.563
 7972TIP3   OH223872   3.068   5.882   6.137
 7972TIP3    H123873   3.017   5.806   6.111
 7972TIP3    H223874   3.149   5.876   6.086
 7973TIP3   OH223875   2.688   2.604   3.237
 7973TIP3    H123876   2.782   2.599   3.259
 7973TIP3    H223877   2.681   2.679   3.179
 7974TIP3   OH223878   8.196   0.383   4.897
 7974TIP3    H123879   8.118   0.411   4.944
 7974TIP3    H223880   8.181   0.290   4.879
 7975TIP3   OH223881   0.854   2.953   0.904
 7975TIP3    H123882   0.899   2.995   0.831
 7975TIP3    H223883   0.845   3.022   0.970
 7976TIP3   OH223884   3.196   6.626   1.569
 7976TIP3    H123885   3.171   6.707   1.525
 7976TIP3    H223886   3.273   6.649   1.620
 7977TIP3   OH223887   6.758   6.148   3.203
 7977TIP3    H123888   6.717   6.096   3.134
 7977TIP3    H223889   6.817   6.208   3.157
 7978TIP3   OH223890   4.239   4.542   0.287
 7978TIP3    H123891   4.281   4.479   0.228
 7978TIP3    H223892   4.147   4.540   0.262
 7979TIP3   OH223893   4.555   3.498   4.941
 7979TIP3    H123894   4.616   3.518   4.870
 7979TIP3    H223895   4.495   3.572   4.942
 7980TIP3   OH223896   7.774   3.258   2.669
 7980TIP3    H123897   7.721   3.186   2.636
 7980TIP3    H223898   7.837   3.275   2.599
 7981TIP3   OH223899   8.250   6.219   4.319
 7981TIP3    H123900   8.285   6.134   4.346
 7981TIP3    H223901   8.319   6.258   4.265
 7982TIP3   OH223902   4.659   5.540   1.426
 7982TIP3    H123903   4.571   5.579   1.426
 7982TIP3    H223904   4.685   5.538   1.334
 7983TIP3   OH223905   2.016   6.645   1.801
 7983TIP3    H123906   2.100   6.691   1.808
 7983TIP3    H223907   2.033   6.559   1.839
 7984TIP3   OH223908   5.822   2.904   2.619
 7984TIP3    H123909   5.729   2.923   2.636
 7984TIP3    H223910   5.850   2.974   2.559
 7985TIP3   OH223911   1.186   6.010   1.875
 7985TIP3    H123912   1.117   6.027   1.811
 7985TIP3    H223913   1.193   5.914   1.878
 7986TIP3   OH223914   6.788   2.045   5.254
 7986TIP3    H123915   6.866   2.089   5.221
 7986TIP3    H223916   6.750   2.003   5.176
 7987TIP3   OH223917   1.393   5.596   2.028
 7987TIP3    H123918   1.357   5.589   2.116
 7987TIP3    H223919   1.484   5.619   2.041
 7988TIP3   OH223920   0.155   6.845   6.716
 7988TIP3    H123921   0.121   6.926   6.756
 7988TIP3    H223922   0.227   6.819   6.773
 7989TIP3   OH223923   1.226   7.910   1.124
 7989TIP3    H123924   1.290   7.841   1.105
 7989TIP3    H223925   1.279   7.987   1.144
 7990TIP3   OH223926   0.402   0.950   4.724
 7990TIP3    H123927   0.338   0.893   4.767
 7990TIP3    H223928   0.455   0.985   4.796
 7991TIP3   OH223929   0.308   1.256   5.107
 7991TIP3    H123930   0.273   1.271   5.020
 7991TIP3    H223931   0.403   1.251   5.095
 7992TIP3   OH223932   7.204   6.776   4.077
 7992TIP3    H123933   7.155   6.738   4.150
 7992TIP3    H223934   7.247   6.702   4.035
 7993TIP3   OH223935   0.343   5.572   3.957
 7993TIP3    H123936   0.397   5.521   4.017
 7993TIP3    H223937   0.267   5.598   4.009
 7994TIP3   OH223938   0.592   6.513   1.873
 7994TIP3    H123939   0.611   6.565   1.795
 7994TIP3    H223940   0.517   6.459   1.848
 7995TIP3   OH223941   2.903   0.003   6.408
 7995TIP3    H123942   2.989   0.044   6.403
 7995TIP3    H223943   2.890  -0.013   6.502
 7996TIP3   OH223944   0.986   4.900   6.486
 7996TIP3    H123945   1.072   4.890   6.445
 7996TIP3    H223946   0.978   4.825   6.545
 7997TIP3   OH223947   4.989   2.038   1.286
 7997TIP3    H123948   4.900   2.021   1.255
 7997TIP3    H223949   5.009   2.126   1.254
 7998TIP3   OH223950   0.819   7.236   4.694
 7998TIP3    H123951   0.914   7.224   4.694
 7998TIP3    H223952   0.807   7.325   4.727
 7999TIP3   OH223953   6.179   0.593   4.230
 7999TIP3    H123954   6.245   0.626   4.291
 7999TIP3    H223955   6.228   0.574   4.150
 8000TIP3   OH223956   0.312   4.082   6.599
 8000TIP3    H123957   0.332   4.140   6.525
 8000TIP3    H223958   0.382   4.016   6.597
 8001TIP3   OH223959   6.488   5.641   3.715
 8001TIP3    H123960   6.461   5.730   3.735
 8001TIP3    H223961   6.574   5.650   3.674
 8002TIP3   OH223962   7.646   7.488   0.209
 8002TIP3    H123963   7.741   7.492   0.201
 8002TIP3    H223964   7.631   7.459   0.299
 8003TIP3   OH223965   0.773   7.632   4.339
 8003TIP3    H123966   0.790   7.701   4.403
 8003TIP3    H223967   0.846   7.571   4.350
 8004TIP3   OH223968   1.291   0.921   3.833
 8004TIP3    H123969   1.268   0.984   3.901
 8004TIP3    H223970   1.211   0.912   3.780
 8005TIP3   OH223971   6.987   5.396   5.077
 8005TIP3    H123972   6.892   5.401   5.067
 8005TIP3    H223973   7.004   5.304   5.096
 8006TIP3   OH223974   6.306   0.717   6.641
 8006TIP3    H123975   6.306   0.804   6.680
 8006TIP3    H223976   6.316   0.657   6.715
 8007TIP3   OH223977   7.533   3.900   2.729
 8007TIP3    H123978   7.587   3.894   2.808
 8007TIP3    H223979   7.470   3.969   2.747
 8008TIP3   OH223980   6.364   5.012   6.636
 8008TIP3    H123981   6.300   5.041   6.701
 8008TIP3    H223982   6.322   5.027   6.552
 8009TIP3   OH223983   1.765   6.095   0.051
 8009TIP3    H123984   1.686   6.104  -0.002
 8009TIP3    H223985   1.834   6.137  -0.001
 8010TIP3   OH223986   4.392   3.840   6.042
 8010TIP3    H123987   4.306   3.815   6.009
 8010TIP3    H223988   4.402   3.931   6.015
 8011TIP3   OH223989   1.165   2.411   2.898
 8011TIP3    H123990   1.249   2.366   2.901
 8011TIP3    H223991   1.099   2.342   2.898
 8012TIP3   OH223992   0.502   4.587   0.539
 8012TIP3    H123993   0.478   4.621   0.626
 8012TIP3    H223994   0.596   4.605   0.531
 8013TIP3   OH223995   7.425   3.254   4.623
 8013TIP3    H123996   7.477   3.260   4.543
 8013TIP3    H223997   7.393   3.343   4.637
 8014TIP3   OH223998   0.949   0.404   0.671
 8014TIP3    H123999   1.042   0.415   0.651
 8014TIP3    H224000   0.933   0.310   0.660
 8015TIP3   OH224001   6.763   6.556   2.088
 8015TIP3    H124002   6.771   6.474   2.040
 8015TIP3    H224003   6.706   6.610   2.033
 8016TIP3   OH224004   4.854   4.012   2.760
 8016TIP3    H124005   4.817   3.988   2.675
 8016TIP3    H224006   4.867   4.107   2.754
 8017TIP3   OH224007   0.410   0.889   2.528
 8017TIP3    H124008   0.358   0.810   2.529
 8017TIP3    H224009   0.354   0.955   2.488
 8018TIP3   OH224010   1.509   4.929   0.535
 8018TIP3    H124011   1.565   4.990   0.488
 8018TIP3    H224012   1.515   4.847   0.486
 8019TIP3   OH224013   6.268   4.639   0.476
 8019TIP3    H124014   6.328   4.581   0.523
 8019TIP3    H224015   6.220   4.684   0.545
 8020TIP3   OH224016   3.186   3.432   3.519
 8020TIP3    H124017   3.127   3.359   3.501
 8020TIP3    H224018   3.175   3.450   3.612
 8021TIP3   OH224019   4.891   3.453   2.487
 8021TIP3    H124020   4.894   3.523   2.552
 8021TIP3    H224021   4.957   3.478   2.422
 8022TIP3   OH224022   3.572   2.414   2.898
 8022TIP3    H124023   3.579   2.406   2.993
 8022TIP3    H224024   3.646   2.469   2.872
 8023TIP3   OH224025   5.125   2.196   4.596
 8023TIP3    H124026   5.080   2.195   4.680
 8023TIP3    H224027   5.205   2.246   4.612
 8024TIP3   OH224028   6.013   0.079   5.477
 8024TIP3    H124029   5.932   0.104   5.433
 8024TIP3    H224030   6.046   0.160   5.515
 8025TIP3   OH224031   4.763   1.308   1.436
 8025TIP3    H124032   4.672   1.278   1.431
 8025TIP3    H224033   4.777   1.326   1.528
 8026TIP3   OH224034   2.807   5.791   4.247
 8026TIP3    H124035   2.744   5.831   4.308
 8026TIP3    H224036   2.782   5.826   4.162
 8027TIP3   OH224037   1.771   0.658   0.601
 8027TIP3    H124038   1.713   0.596   0.557
 8027TIP3    H224039   1.847   0.665   0.543
 8028TIP3   OH224040   5.747   6.335   3.605
 8028TIP3    H124041   5.700   6.359   3.525
 8028TIP3    H224042   5.795   6.256   3.582
 8029TIP3   OH224043   8.225   2.641   1.900
 8029TIP3    H124044   8.294   2.632   1.834
 8029TIP3    H224045   8.268   2.681   1.975
 8030TIP3   OH224046   5.374   6.777   1.719
 8030TIP3    H124047   5.401   6.713   1.784
 8030TIP3    H224048   5.417   6.858   1.746
 8031TIP3   OH224049   5.889   3.451   1.740
 8031TIP3    H124050   5.902   3.431   1.648
 8031TIP3    H224051   5.833   3.380   1.772
 8032TIP3   OH224052   7.479   1.977   5.729
 8032TIP3    H124053   7.397   2.000   5.773
 8032TIP3    H224054   7.463   1.891   5.691
 8033TIP3   OH224055   0.998   2.718   3.741
 8033TIP3    H124056   0.997   2.728   3.646
 8033TIP3    H224057   0.996   2.623   3.755
 8034TIP3   OH224058   4.730   0.175   1.627
 8034TIP3    H124059   4.659   0.143   1.571
 8034TIP3    H224060   4.752   0.261   1.592
 8035TIP3   OH224061   2.182   3.947   2.040
 8035TIP3    H124062   2.100   3.975   2.080
 8035TIP3    H224063   2.247   3.955   2.111
 8036TIP3   OH224064   7.975   3.108   2.848
 8036TIP3    H124065   8.039   3.171   2.879
 8036TIP3    H224066   7.898   3.160   2.826
 8037TIP3   OH224067   7.983   3.622   6.286
 8037TIP3    H124068   8.037   3.701   6.291
 8037TIP3    H224069   7.963   3.613   6.192
 8038TIP3   OH224070   1.944   2.030   1.592
 8038TIP3    H124071   1.859   1.993   1.568
 8038TIP3    H224072   1.932   2.125   1.583
 8039TIP3   OH224073   2.110   3.841   3.503
 8039TIP3    H124074   2.184   3.897   3.481
 8039TIP3    H224075   2.033   3.893   3.479
 8040TIP3   OH224076   3.873   5.992   2.433
 8040TIP3    H124077   3.789   5.981   2.388
 8040TIP3    H224078   3.910   6.072   2.395
 8041TIP3   OH224079   7.046   5.028   3.778
 8041TIP3    H124080   7.007   5.102   3.732
 8041TIP3    H224081   7.069   4.966   3.709
 8042TIP3   OH224082   3.374   2.059   1.580
 8042TIP3    H124083   3.320   2.079   1.503
 8042TIP3    H224084   3.456   2.026   1.544
 8043TIP3   OH224085   4.640   4.567   6.681
 8043TIP3    H124086   4.610   4.537   6.766
 8043TIP3    H224087   4.726   4.606   6.698
 8044TIP3   OH224088   0.635   3.993   0.765
 8044TIP3    H124089   0.701   4.047   0.808
 8044TIP3    H224090   0.597   3.940   0.835
 8045TIP3   OH224091   2.184   6.712   3.500
 8045TIP3    H124092   2.183   6.797   3.542
 8045TIP3    H224093   2.124   6.721   3.426
 8046TIP3   OH224094   2.431   2.408   0.142
 8046TIP3    H124095   2.454   2.340   0.205
 8046TIP3    H224096   2.446   2.490   0.188
 8047TIP3   OH224097   3.635   4.715   4.635
 8047TIP3    H124098   3.702   4.732   4.569
 8047TIP3    H224099   3.552   4.723   4.589
 8048TIP3   OH224100   6.759   6.425   6.343
 8048TIP3    H124101   6.836   6.476   6.317
 8048TIP3    H224102   6.698   6.490   6.378
 8049TIP3   OH224103   4.873   2.805   1.679
 8049TIP3    H124104   4.870   2.787   1.585
 8049TIP3    H224105   4.792   2.767   1.713
 8050TIP3   OH224106   1.460   6.855   4.247
 8050TIP3    H124107   1.540   6.908   4.237
 8050TIP3    H224108   1.397   6.896   4.188
 8051TIP3   OH224109   6.199   7.074   4.578
 8051TIP3    H124110   6.166   7.000   4.528
 8051TIP3    H224111   6.184   7.150   4.522
 8052TIP3   OH224112   7.763   6.274   1.824
 8052TIP3    H124113   7.839   6.238   1.869
 8052TIP3    H224114   7.688   6.243   1.875
 8053TIP3   OH224115   0.960   7.390   6.381
 8053TIP3    H124116   0.961   7.375   6.287
 8053TIP3    H224117   0.877   7.435   6.398
 8054TIP3   OH224118   2.236   7.074   6.085
 8054TIP3    H124119   2.181   6.998   6.067
 8054TIP3    H224120   2.237   7.082   6.180
 8055TIP3   OH224121   5.550   2.462   4.848
 8055TIP3    H124122   5.643   2.469   4.826
 8055TIP3    H224123   5.547   2.401   4.921
 8056TIP3   OH224124   5.893   0.106   4.261
 8056TIP3    H124125   5.969   0.161   4.280
 8056TIP3    H224126   5.818   0.160   4.286
 8057TIP3   OH224127   0.882   3.536   0.208
 8057TIP3    H124128   0.935   3.616   0.199
 8057TIP3    H224129   0.917   3.494   0.286
 8058TIP3   OH224130   2.023   0.102   1.248
 8058TIP3    H124131   2.022   0.161   1.324
 8058TIP3    H224132   2.096   0.133   1.195
 8059TIP3   OH224133   7.995   2.002   0.823
 8059TIP3    H124134   8.018   1.968   0.910
 8059TIP3    H224135   7.935   2.074   0.841
 8060TIP3   OH224136   2.479   4.147   1.600
 8060TIP3    H124137   2.489   4.065   1.551
 8060TIP3    H224138   2.442   4.120   1.684
 8061TIP3   OH224139   2.461   4.148   2.070
 8061TIP3    H124140   2.400   4.124   2.001
 8061TIP3    H224141   2.426   4.108   2.149
 8062TIP3   OH224142   5.603   4.716   0.796
 8062TIP3    H124143   5.685   4.763   0.780
 8062TIP3    H224144   5.627   4.647   0.857
 8063TIP3   OH224145   1.294   1.183   6.132
 8063TIP3    H124146   1.323   1.249   6.194
 8063TIP3    H224147   1.203   1.166   6.156
 8064TIP3   OH224148   6.465   4.073   4.083
 8064TIP3    H124149   6.415   4.053   4.162
 8064TIP3    H224150   6.543   4.119   4.114
 8065TIP3   OH224151   4.309   0.839   6.100
 8065TIP3    H124152   4.300   0.783   6.023
 8065TIP3    H224153   4.223   0.878   6.112
 8066TIP3   OH224154   1.506   4.698   3.342
 8066TIP3    H124155   1.493   4.792   3.331
 8066TIP3    H224156   1.516   4.665   3.252
 8067TIP3   OH224157   4.957   3.922   3.012
 8067TIP3    H124158   4.953   3.955   2.922
 8067TIP3    H224159   4.874   3.948   3.051
 8068TIP3   OH224160   2.115   4.801   0.376
 8068TIP3    H124161   2.132   4.862   0.304
 8068TIP3    H224162   2.095   4.718   0.332
 8069TIP3   OH224163   1.800   2.125   3.579
 8069TIP3    H124164   1.863   2.145   3.510
 8069TIP3    H224165   1.852   2.081   3.647
 8070TIP3   OH224166   7.937   1.266   2.456
 8070TIP3    H124167   7.934   1.171   2.470
 8070TIP3    H224168   7.948   1.276   2.361
 8071TIP3   OH224169   5.161   4.750   6.509
 8071TIP3    H124170   5.218   4.731   6.583
 8071TIP3    H224171   5.169   4.845   6.496
 8072TIP3   OH224172   6.803   0.754   2.276
 8072TIP3    H124173   6.797   0.710   2.191
 8072TIP3    H224174   6.859   0.698   2.329
 8073TIP3   OH224175   7.636   5.492   0.593
 8073TIP3    H124176   7.722   5.512   0.631
 8073TIP3    H224177   7.584   5.571   0.609
 8074TIP3   OH224178   0.597   7.177   5.244
 8074TIP3    H124179   0.680   7.157   5.201
 8074TIP3    H224180   0.612   7.263   5.284
 8075TIP3   OH224181   0.149   4.186   2.901
 8075TIP3    H124182   0.195   4.265   2.928
 8075TIP3    H224183   0.079   4.176   2.966
 8076TIP3   OH224184   3.872   5.304   1.002
 8076TIP3    H124185   3.874   5.214   0.970
 8076TIP3    H224186   3.880   5.358   0.924
 8077TIP3   OH224187   0.068   7.086   3.565
 8077TIP3    H124188  -0.013   7.097   3.615
 8077TIP3    H224189   0.113   7.170   3.574
 8078TIP3   OH224190   1.379   3.304   2.292
 8078TIP3    H124191   1.450   3.349   2.246
 8078TIP3    H224192   1.424   3.246   2.354
 8079TIP3   OH224193   3.740   5.495   0.271
 8079TIP3    H124194   3.802   5.557   0.232
 8079TIP3    H224195   3.786   5.411   0.272
 8080TIP3   OH224196   7.429   6.112   1.565
 8080TIP3    H124197   7.393   6.159   1.489
 8080TIP3    H224198   7.464   6.031   1.528
 8081TIP3   OH224199   6.409   4.078   2.512
 8081TIP3    H124200   6.387   3.995   2.554
 8081TIP3    H224201   6.413   4.141   2.584
 8082TIP3   OH224202   3.780   5.576   6.015
 8082TIP3    H124203   3.847   5.511   5.996
 8082TIP3    H224204   3.704   5.547   5.964
 8083TIP3   OH224205   2.850   1.118   6.460
 8083TIP3    H124206   2.861   1.171   6.381
 8083TIP3    H224207   2.766   1.146   6.496
 8084TIP3   OH224208   7.699   3.246   5.126
 8084TIP3    H124209   7.656   3.250   5.041
 8084TIP3    H224210   7.649   3.180   5.175
 8085TIP3   OH224211   6.612   7.065   4.071
 8085TIP3    H124212   6.608   7.101   4.160
 8085TIP3    H224213   6.673   7.122   4.025
 8086TIP3   OH224214   2.173   3.219   5.748
 8086TIP3    H124215   2.230   3.281   5.794
 8086TIP3    H224216   2.103   3.200   5.810
 8087TIP3   OH224217   1.284   2.477   3.148
 8087TIP3    H124218   1.214   2.450   3.208
 8087TIP3    H224219   1.250   2.456   3.061
 8088TIP3   OH224220   7.808   0.444   2.207
 8088TIP3    H124221   7.881   0.413   2.261
 8088TIP3    H224222   7.781   0.367   2.157
 8089TIP3   OH224223   0.719   4.225   5.589
 8089TIP3    H124224   0.658   4.152   5.594
 8089TIP3    H224225   0.663   4.303   5.582
 8090TIP3   OH224226   5.181   7.469   2.716
 8090TIP3    H124227   5.125   7.430   2.783
 8090TIP3    H224228   5.201   7.556   2.750
 8091TIP3   OH224229   3.848   4.323   1.184
 8091TIP3    H124230   3.764   4.289   1.212
 8091TIP3    H224231   3.828   4.374   1.105
 8092TIP3   OH224232   6.001   6.715   2.421
 8092TIP3    H124233   5.909   6.714   2.395
 8092TIP3    H224234   5.999   6.720   2.516
 8093TIP3   OH224235   4.022   7.769   6.233
 8093TIP3    H124236   4.020   7.678   6.262
 8093TIP3    H224237   4.097   7.807   6.279
 8094TIP3   OH224238   0.215   2.099   4.363
 8094TIP3    H124239   0.259   2.048   4.431
 8094TIP3    H224240   0.201   2.037   4.292
 8095TIP3   OH224241   3.378   1.236   4.692
 8095TIP3    H124242   3.285   1.253   4.699
 8095TIP3    H224243   3.384   1.152   4.647
 8096TIP3   OH224244   0.458   4.056   0.333
 8096TIP3    H124245   0.378   4.101   0.305
 8096TIP3    H224246   0.437   4.023   0.421
 8097TIP3   OH224247   5.739   5.751   2.274
 8097TIP3    H124248   5.750   5.725   2.366
 8097TIP3    H224249   5.794   5.690   2.226
 8098TIP3   OH224250   0.408   1.173   1.059
 8098TIP3    H124251   0.364   1.202   0.979
 8098TIP3    H224252   0.463   1.100   1.031
 8099TIP3   OH224253   6.501   0.730   4.014
 8099TIP3    H124254   6.555   0.700   3.941
 8099TIP3    H224255   6.474   0.818   3.990
 8100TIP3   OH224256   6.923   0.865   0.552
 8100TIP3    H124257   6.950   0.917   0.477
 8100TIP3    H224258   6.951   0.916   0.628
 8101TIP3   OH224259   7.452   2.963   0.839
 8101TIP3    H124260   7.458   2.889   0.778
 8101TIP3    H224261   7.431   2.922   0.923
 8102TIP3   OH224262   3.084   6.919   1.728
 8102TIP3    H124263   3.168   6.933   1.772
 8102TIP3    H224264   3.058   7.007   1.698
 8103TIP3   OH224265   4.451   6.168   4.024
 8103TIP3    H124266   4.441   6.262   4.007
 8103TIP3    H224267   4.472   6.162   4.117
 8104TIP3   OH224268   4.836   5.519   0.890
 8104TIP3    H124269   4.774   5.468   0.836
 8104TIP3    H224270   4.922   5.496   0.855
 8105TIP3   OH224271   6.069   1.574   2.523
 8105TIP3    H124272   6.116   1.504   2.569
 8105TIP3    H224273   5.980   1.540   2.513
 8106TIP3   OH224274   0.350   2.826   2.857
 8106TIP3    H124275   0.269   2.794   2.897
 8106TIP3    H224276   0.377   2.899   2.912
 8107TIP3   OH224277   0.572   7.447   4.302
 8107TIP3    H124278   0.627   7.369   4.298
 8107TIP3    H224279   0.619   7.506   4.362
 8108TIP3   OH224280   2.136   5.108   2.104
 8108TIP3    H124281   2.166   5.060   2.027
 8108TIP3    H224282   2.201   5.177   2.115
 8109TIP3   OH224283   6.548   0.580   2.062
 8109TIP3    H124284   6.639   0.589   2.035
 8109TIP3    H224285   6.505   0.660   2.031
 8110TIP3   OH224286   6.409   1.705   1.973
 8110TIP3    H124287   6.355   1.627   1.967
 8110TIP3    H224288   6.385   1.745   2.056
 8111TIP3   OH224289   3.465   1.865   3.707
 8111TIP3    H124290   3.459   1.947   3.755
 8111TIP3    H224291   3.557   1.840   3.712
 8112TIP3   OH224292   1.986   1.363   5.277
 8112TIP3    H124293   2.005   1.412   5.197
 8112TIP3    H224294   1.974   1.273   5.248
 8113TIP3   OH224295   3.216   1.563   4.417
 8113TIP3    H124296   3.262   1.486   4.382
 8113TIP3    H224297   3.127   1.531   4.435
 8114TIP3   OH224298   3.072   2.819   3.754
 8114TIP3    H124299   3.120   2.777   3.683
 8114TIP3    H224300   3.073   2.755   3.825
 8115TIP3   OH224301   2.032   1.992   0.856
 8115TIP3    H124302   2.074   1.954   0.933
 8115TIP3    H224303   1.939   1.991   0.877
 8116TIP3   OH224304   0.585   3.995   2.809
 8116TIP3    H124305   0.586   3.984   2.904
 8116TIP3    H224306   0.652   3.935   2.776
 8117TIP3   OH224307   7.478   3.314   1.092
 8117TIP3    H124308   7.568   3.287   1.073
 8117TIP3    H224309   7.424   3.245   1.053
 8118TIP3   OH224310   7.759   0.381   5.291
 8118TIP3    H124311   7.680   0.334   5.265
 8118TIP3    H224312   7.727   0.449   5.351
 8119TIP3   OH224313   0.980   4.122   0.135
 8119TIP3    H124314   0.947   4.182   0.201
 8119TIP3    H224315   0.911   4.056   0.126
 8120TIP3   OH224316   0.559   3.608   4.681
 8120TIP3    H124317   0.518   3.566   4.757
 8120TIP3    H224318   0.528   3.698   4.684
 8121TIP3   OH224319   1.537   0.178   0.124
 8121TIP3    H124320   1.515   0.131   0.043
 8121TIP3    H224321   1.522   0.113   0.193
 8122TIP3   OH224322   2.126   1.716   3.826
 8122TIP3    H124323   2.072   1.755   3.758
 8122TIP3    H224324   2.188   1.786   3.851
 8123TIP3   OH224325   2.359   4.187   0.699
 8123TIP3    H124326   2.374   4.226   0.785
 8123TIP3    H224327   2.321   4.258   0.647
 8124TIP3   OH224328   1.178   4.160   1.909
 8124TIP3    H124329   1.126   4.192   1.982
 8124TIP3    H224330   1.127   4.088   1.872
 8125TIP3   OH224331   1.980   5.705   2.630
 8125TIP3    H124332   1.945   5.778   2.681
 8125TIP3    H224333   1.903   5.655   2.603
 8126TIP3   OH224334   6.774   1.157   1.666
 8126TIP3    H124335   6.816   1.102   1.600
 8126TIP3    H224336   6.844   1.179   1.727
 8127TIP3   OH224337   5.020   3.921   0.659
 8127TIP3    H124338   5.113   3.902   0.643
 8127TIP3    H224339   5.011   4.015   0.639
 8128TIP3   OH224340   7.734   1.541   0.210
 8128TIP3    H124341   7.769   1.533   0.298
 8128TIP3    H224342   7.639   1.536   0.221
 8129TIP3   OH224343   2.763   3.773   5.671
 8129TIP3    H124344   2.823   3.747   5.601
 8129TIP3    H224345   2.729   3.858   5.643
 8130TIP3   OH224346   6.087   3.493   4.961
 8130TIP3    H124347   5.992   3.487   4.949
 8130TIP3    H224348   6.112   3.408   4.996
 8131TIP3   OH224349   1.178   0.214   1.153
 8131TIP3    H124350   1.105   0.242   1.207
 8131TIP3    H224351   1.187   0.120   1.171
 8132TIP3   OH224352   4.005   4.803   6.489
 8132TIP3    H124353   3.942   4.735   6.467
 8132TIP3    H224354   4.036   4.837   6.405
 8133TIP3   OH224355   0.560   3.856   1.018
 8133TIP3    H124356   0.621   3.822   1.084
 8133TIP3    H224357   0.514   3.928   1.061
 8134TIP3   OH224358   5.865   3.927   1.783
 8134TIP3    H124359   5.800   3.937   1.853
 8134TIP3    H224360   5.879   4.016   1.751
 8135TIP3   OH224361   5.409   2.704   5.372
 8135TIP3    H124362   5.340   2.693   5.437
 8135TIP3    H224363   5.407   2.623   5.321
 8136TIP3   OH224364   5.048   7.262   2.040
 8136TIP3    H124365   5.023   7.243   1.949
 8136TIP3    H224366   4.989   7.207   2.093
 8137TIP3   OH224367   3.196   3.045   3.568
 8137TIP3    H124368   3.201   3.040   3.663
 8137TIP3    H224369   3.217   2.956   3.538
 8138TIP3   OH224370   7.443   5.187   2.772
 8138TIP3    H124371   7.390   5.111   2.796
 8138TIP3    H224372   7.415   5.209   2.683
 8139TIP3   OH224373   3.966   2.687   2.638
 8139TIP3    H124374   3.948   2.774   2.674
 8139TIP3    H224375   4.057   2.670   2.661
 8140TIP3   OH224376   3.009   0.994   5.818
 8140TIP3    H124377   3.032   0.925   5.880
 8140TIP3    H224378   3.090   1.013   5.770
 8141TIP3   OH224379   3.475   0.652   4.753
 8141TIP3    H124380   3.473   0.605   4.836
 8141TIP3    H224381   3.555   0.705   4.756
 8142TIP3   OH224382   3.399   2.913   5.373
 8142TIP3    H124383   3.451   2.847   5.328
 8142TIP3    H224384   3.317   2.869   5.394
 8143TIP3   OH224385   5.835   6.601   3.439
 8143TIP3    H124386   5.755   6.636   3.479
 8143TIP3    H224387   5.805   6.537   3.375
 8144TIP3   OH224388   2.885   3.957   4.798
 8144TIP3    H124389   2.978   3.964   4.816
 8144TIP3    H224390   2.850   3.906   4.871
 8145TIP3   OH224391   0.674   3.592   1.182
 8145TIP3    H124392   0.720   3.523   1.229
 8145TIP3    H224393   0.614   3.546   1.124
 8146TIP3   OH224394   5.502   5.247   5.233
 8146TIP3    H124395   5.482   5.230   5.325
 8146TIP3    H224396   5.527   5.339   5.230
 8147TIP3   OH224397   0.221   4.144   1.040
 8147TIP3    H124398   0.310   4.148   1.074
 8147TIP3    H224399   0.196   4.052   1.047
 8148TIP3   OH224400   6.293   7.693   0.472
 8148TIP3    H124401   6.225   7.629   0.493
 8148TIP3    H224402   6.270   7.725   0.385
 8149TIP3   OH224403   5.377   4.249   5.803
 8149TIP3    H124404   5.342   4.249   5.714
 8149TIP3    H224405   5.304   4.222   5.858
 8150TIP3   OH224406   6.751   3.494   5.986
 8150TIP3    H124407   6.748   3.502   5.891
 8150TIP3    H224408   6.715   3.407   6.004
 8151TIP3   OH224409   2.484   5.452   2.514
 8151TIP3    H124410   2.536   5.519   2.471
 8151TIP3    H224411   2.398   5.492   2.526
 8152TIP3   OH224412   4.183   6.809   2.204
 8152TIP3    H124413   4.103   6.855   2.229
 8152TIP3    H224414   4.200   6.749   2.276
 8153TIP3   OH224415   3.841   2.076   1.635
 8153TIP3    H124416   3.906   2.019   1.676
 8153TIP3    H224417   3.812   2.134   1.705
 8154TIP3   OH224418   5.094   4.095   3.799
 8154TIP3    H124419   5.132   4.137   3.876
 8154TIP3    H224420   5.139   4.011   3.793
 8155TIP3   OH224421   4.775   6.054   0.566
 8155TIP3    H124422   4.835   6.126   0.544
 8155TIP3    H224423   4.692   6.097   0.585
 8156TIP3   OH224424   3.225   6.766   6.656
 8156TIP3    H124425   3.238   6.860   6.671
 8156TIP3    H224426   3.142   6.747   6.698
 8157TIP3   OH224427   3.773   4.354   6.490
 8157TIP3    H124428   3.830   4.327   6.562
 8157TIP3    H224429   3.686   4.322   6.516
 8158TIP3   OH224430   7.311   2.356   1.358
 8158TIP3    H124431   7.235   2.353   1.416
 8158TIP3    H224432   7.274   2.366   1.271
 8159TIP3   OH224433   5.116   7.570   4.652
 8159TIP3    H124434   5.129   7.645   4.709
 8159TIP3    H224435   5.033   7.531   4.681
 8160TIP3   OH224436   3.204   2.760   5.249
 8160TIP3    H124437   3.225   2.704   5.174
 8160TIP3    H224438   3.194   2.847   5.211
 8161TIP3   OH224439   2.023   4.128   0.759
 8161TIP3    H124440   2.061   4.175   0.833
 8161TIP3    H224441   2.089   4.133   0.690
 8162TIP3   OH224442   3.986   2.967   6.500
 8162TIP3    H124443   3.913   2.978   6.440
 8162TIP3    H224444   4.025   3.054   6.507
 8163TIP3   OH224445   3.174   1.738   5.164
 8163TIP3    H124446   3.233   1.813   5.162
 8163TIP3    H224447   3.215   1.677   5.226
 8164TIP3   OH224448   1.902   0.563   2.023
 8164TIP3    H124449   1.825   0.607   1.987
 8164TIP3    H224450   1.976   0.604   1.978
 8165TIP3   OH224451   3.288   2.611   5.039
 8165TIP3    H124452   3.372   2.637   5.003
 8165TIP3    H224453   3.290   2.515   5.039
 8166TIP3   OH224454   7.021   5.139   5.094
 8166TIP3    H124455   7.081   5.067   5.078
 8166TIP3    H224456   6.969   5.111   5.170
 8167TIP3   OH224457   5.700   7.308   1.241
 8167TIP3    H124458   5.661   7.394   1.254
 8167TIP3    H224459   5.764   7.320   1.171
 8168TIP3   OH224460   8.054   2.754   5.587
 8168TIP3    H124461   8.108   2.767   5.665
 8168TIP3    H224462   8.111   2.707   5.526
 8169TIP3   OH224463   2.043   6.486   2.763
 8169TIP3    H124464   2.060   6.509   2.672
 8169TIP3    H224465   2.123   6.511   2.810
 8170TIP3   OH224466   2.811   2.424   1.036
 8170TIP3    H124467   2.870   2.416   0.961
 8170TIP3    H224468   2.786   2.334   1.058
 8171TIP3   OH224469   6.728   4.442   2.901
 8171TIP3    H124470   6.635   4.424   2.907
 8171TIP3    H224471   6.733   4.534   2.874
 8172TIP3   OH224472   2.383   4.215   4.773
 8172TIP3    H124473   2.343   4.166   4.702
 8172TIP3    H224474   2.393   4.152   4.844
 8173TIP3   OH224475   1.697   7.261   5.892
 8173TIP3    H124476   1.667   7.256   5.801
 8173TIP3    H224477   1.762   7.331   5.893
 8174TIP3   OH224478   6.754   3.605   1.554
 8174TIP3    H124479   6.723   3.516   1.543
 8174TIP3    H224480   6.754   3.642   1.465
 8175TIP3   OH224481   4.326   2.617   2.059
 8175TIP3    H124482   4.294   2.536   2.099
 8175TIP3    H224483   4.253   2.650   2.007
 8176TIP3   OH224484   7.935   5.447   3.927
 8176TIP3    H124485   7.882   5.379   3.885
 8176TIP3    H224486   8.000   5.398   3.977
 8177TIP3   OH224487   5.284   0.745   5.766
 8177TIP3    H124488   5.367   0.759   5.720
 8177TIP3    H224489   5.306   0.757   5.858
 8178TIP3   OH224490   2.904   1.663   1.032
 8178TIP3    H124491   2.901   1.634   0.941
 8178TIP3    H224492   2.842   1.606   1.077
 8179TIP3   OH224493   4.145   3.238   5.103
 8179TIP3    H124494   4.077   3.223   5.169
 8179TIP3    H224495   4.146   3.333   5.091
 8180TIP3   OH224496   0.967   5.903   6.248
 8180TIP3    H124497   1.040   5.847   6.223
 8180TIP3    H224498   0.991   5.990   6.215
 8181TIP3   OH224499   5.602   0.993   4.510
 8181TIP3    H124500   5.513   0.963   4.490
 8181TIP3    H224501   5.639   0.923   4.564
 8182TIP3   OH224502   1.365   4.921   5.750
 8182TIP3    H124503   1.277   4.938   5.714
 8182TIP3    H224504   1.421   4.915   5.673
 8183TIP3   OH224505   2.626   2.922   3.535
 8183TIP3    H124506   2.713   2.961   3.545
 8183TIP3    H224507   2.641   2.838   3.493
 8184TIP3   OH224508   1.444   4.468   6.584
 8184TIP3    H124509   1.368   4.502   6.538
 8184TIP3    H224510   1.494   4.546   6.608
 8185TIP3   OH224511   7.541   3.950   4.046
 8185TIP3    H124512   7.455   3.909   4.038
 8185TIP3    H224513   7.581   3.937   3.960
 8186TIP3   OH224514   6.566   4.344   1.050
 8186TIP3    H124515   6.561   4.421   0.993
 8186TIP3    H224516   6.509   4.366   1.124
 8187TIP3   OH224517   8.305   4.231   0.596
 8187TIP3    H124518   8.217   4.200   0.617
 8187TIP3    H224519   8.361   4.154   0.605
 8188TIP3   OH224520   0.480   4.945   6.166
 8188TIP3    H124521   0.564   4.905   6.188
 8188TIP3    H224522   0.503   5.020   6.111
 8189TIP3   OH224523   0.306   7.185   4.624
 8189TIP3    H124524   0.379   7.214   4.569
 8189TIP3    H224525   0.314   7.239   4.703
 8190TIP3   OH224526   1.197   5.308   5.300
 8190TIP3    H124527   1.196   5.275   5.210
 8190TIP3    H224528   1.145   5.244   5.350
 8191TIP3   OH224529   4.403   7.746   5.139
 8191TIP3    H124530   4.345   7.744   5.063
 8191TIP3    H224531   4.357   7.800   5.203
 8192TIP3   OH224532   6.964   7.724   2.915
 8192TIP3    H124533   6.873   7.715   2.942
 8192TIP3    H224534   6.961   7.785   2.841
 8193TIP3   OH224535   5.578   0.884   5.751
 8193TIP3    H124536   5.542   0.955   5.696
 8193TIP3    H224537   5.616   0.929   5.826
 8194TIP3   OH224538   4.501   4.187   6.523
 8194TIP3    H124539   4.457   4.262   6.564
 8194TIP3    H224540   4.443   4.160   6.452
 8195TIP3   OH224541   5.263   1.556   4.959
 8195TIP3    H124542   5.303   1.515   5.036
 8195TIP3    H224543   5.208   1.625   4.994
 8196TIP3   OH224544   6.245   2.247   1.833
 8196TIP3    H124545   6.240   2.167   1.885
 8196TIP3    H224546   6.153   2.274   1.822
 8197TIP3   OH224547   4.968   7.700   5.754
 8197TIP3    H124548   5.004   7.686   5.667
 8197TIP3    H224549   5.035   7.666   5.814
 8198TIP3   OH224550   1.612   7.410   3.608
 8198TIP3    H124551   1.578   7.442   3.692
 8198TIP3    H224552   1.535   7.407   3.551
 8199TIP3   OH224553   7.124   4.182   4.792
 8199TIP3    H124554   7.179   4.108   4.817
 8199TIP3    H224555   7.065   4.146   4.725
 8200TIP3   OH224556   4.304   6.070   1.911
 8200TIP3    H124557   4.272   6.043   1.997
 8200TIP3    H224558   4.317   6.165   1.919
 8201TIP3   OH224559   1.837   0.937   5.540
 8201TIP3    H124560   1.820   1.031   5.536
 8201TIP3    H224561   1.802   0.903   5.457
 8202TIP3   OH224562   3.324   7.683   1.104
 8202TIP3    H124563   3.275   7.649   1.179
 8202TIP3    H224564   3.310   7.778   1.107
 8203TIP3   OH224565   3.001   3.809   4.199
 8203TIP3    H124566   2.955   3.776   4.122
 8203TIP3    H224567   3.069   3.866   4.162
 8204TIP3   OH224568   5.874   4.745   4.016
 8204TIP3    H124569   5.859   4.700   3.932
 8204TIP3    H224570   5.786   4.765   4.048
 8205TIP3   OH224571   4.088   2.041   4.857
 8205TIP3    H124572   4.020   2.020   4.793
 8205TIP3    H224573   4.111   1.957   4.896
 8206TIP3   OH224574   6.092   6.940   2.871
 8206TIP3    H124575   6.047   7.023   2.857
 8206TIP3    H224576   6.183   6.964   2.889
 8207TIP3   OH224577   2.711   4.077   2.786
 8207TIP3    H124578   2.673   4.037   2.708
 8207TIP3    H224579   2.698   4.012   2.855
 8208TIP3   OH224580   4.938   4.503   2.786
 8208TIP3    H124581   5.020   4.493   2.738
 8208TIP3    H224582   4.961   4.558   2.861
 8209TIP3   OH224583   1.961   6.507   3.090
 8209TIP3    H124584   1.913   6.495   3.172
 8209TIP3    H224585   1.982   6.418   3.061
 8210TIP3   OH224586   4.215   1.746   4.900
 8210TIP3    H124587   4.303   1.718   4.928
 8210TIP3    H224588   4.164   1.665   4.898
 8211TIP3   OH224589   5.152   4.888   6.164
 8211TIP3    H124590   5.070   4.854   6.199
 8211TIP3    H224591   5.203   4.914   6.241
 8212TIP3   OH224592   8.152   0.685   4.446
 8212TIP3    H124593   8.214   0.624   4.486
 8212TIP3    H224594   8.194   0.710   4.363
 8213TIP3   OH224595   4.698   2.586   5.130
 8213TIP3    H124596   4.772   2.645   5.111
 8213TIP3    H224597   4.729   2.534   5.204
 8214TIP3   OH224598   4.623   6.423   0.689
 8214TIP3    H124599   4.610   6.429   0.783
 8214TIP3    H224600   4.713   6.452   0.675
 8215TIP3   OH224601   8.240   6.009   1.196
 8215TIP3    H124602   8.199   6.004   1.110
 8215TIP3    H224603   8.326   6.047   1.180
 8216TIP3   OH224604   2.454   1.932   6.004
 8216TIP3    H124605   2.378   1.989   5.993
 8216TIP3    H224606   2.522   1.972   5.949
 8217TIP3   OH224607   1.188   5.949   2.914
 8217TIP3    H124608   1.216   5.865   2.878
 8217TIP3    H224609   1.214   6.013   2.847
 8218TIP3   OH224610   7.373   4.107   3.136
 8218TIP3    H124611   7.353   4.169   3.206
 8218TIP3    H224612   7.306   4.124   3.069
 8219TIP3   OH224613   4.772   2.867   2.047
 8219TIP3    H124614   4.782   2.961   2.064
 8219TIP3    H224615   4.683   2.858   2.015
 8220TIP3   OH224616   3.611   5.232   3.536
 8220TIP3    H124617   3.593   5.172   3.608
 8220TIP3    H224618   3.682   5.288   3.569
 8221TIP3   OH224619   1.838   5.549   3.523
 8221TIP3    H124620   1.918   5.536   3.574
 8221TIP3    H224621   1.803   5.632   3.554
 8222TIP3   OH224622   1.373   0.172   5.154
 8222TIP3    H124623   1.303   0.238   5.156
 8222TIP3    H224624   1.449   0.219   5.122
 8223TIP3   OH224625   7.019   7.841   4.283
 8223TIP3    H124626   7.082   7.790   4.334
 8223TIP3    H224627   7.032   7.812   4.193
 8224TIP3   OH224628   5.740   4.128   6.638
 8224TIP3    H124629   5.757   4.077   6.717
 8224TIP3    H224630   5.738   4.064   6.568
 8225TIP3   OH224631   1.300   6.545   2.382
 8225TIP3    H124632   1.325   6.486   2.311
 8225TIP3    H224633   1.230   6.599   2.346
 8226TIP3   OH224634   8.285   1.194   5.041
 8226TIP3    H124635   8.309   1.285   5.060
 8226TIP3    H224636   8.217   1.201   4.975
 8227TIP3   OH224637   5.927   6.088   3.330
 8227TIP3    H124638   5.896   6.051   3.248
 8227TIP3    H224639   6.022   6.088   3.322
 8228TIP3   OH224640   7.305   7.666   1.991
 8228TIP3    H124641   7.296   7.759   2.013
 8228TIP3    H224642   7.304   7.665   1.895
 8229TIP3   OH224643   2.682   0.926   2.560
 8229TIP3    H124644   2.656   0.896   2.473
 8229TIP3    H224645   2.755   0.869   2.585
 8230TIP3   OH224646   5.383   4.296   0.105
 8230TIP3    H124647   5.450   4.227   0.103
 8230TIP3    H224648   5.300   4.249   0.109
 8231TIP3   OH224649   7.113   6.232   2.686
 8231TIP3    H124650   7.133   6.270   2.601
 8231TIP3    H224651   7.094   6.306   2.742
 8232TIP3   OH224652   3.954   6.777   1.940
 8232TIP3    H124653   4.043   6.814   1.935
 8232TIP3    H224654   3.962   6.690   1.901
 8233TIP3   OH224655   5.001   1.708   1.622
 8233TIP3    H124656   4.936   1.654   1.667
 8233TIP3    H224657   4.993   1.795   1.663
 8234TIP3   OH224658   1.854   7.530   0.211
 8234TIP3    H124659   1.826   7.619   0.232
 8234TIP3    H224660   1.888   7.495   0.294
 8235TIP3   OH224661   3.915   5.225   0.530
 8235TIP3    H124662   3.866   5.228   0.613
 8235TIP3    H224663   3.989   5.167   0.548
 8236TIP3   OH224664   3.337   7.689   4.880
 8236TIP3    H124665   3.402   7.759   4.884
 8236TIP3    H224666   3.348   7.653   4.792
 8237TIP3   OH224667   6.741   1.661   0.280
 8237TIP3    H124668   6.742   1.659   0.185
 8237TIP3    H224669   6.658   1.620   0.304
 8238TIP3   OH224670   5.504   7.132   3.251
 8238TIP3    H124671   5.518   7.218   3.211
 8238TIP3    H224672   5.564   7.074   3.204
 8239TIP3   OH224673   1.597   0.882  -0.001
 8239TIP3    H124674   1.546   0.843   0.070
 8239TIP3    H224675   1.658   0.941   0.043
 8240TIP3   OH224676   4.105   3.997   2.952
 8240TIP3    H124677   4.185   4.049   2.946
 8240TIP3    H224678   4.072   4.014   3.041
 8241TIP3   OH224679   4.425   5.179   0.651
 8241TIP3    H124680   4.379   5.246   0.602
 8241TIP3    H224681   4.454   5.116   0.585
 8242TIP3   OH224682   1.585   3.174   1.842
 8242TIP3    H124683   1.627   3.238   1.784
 8242TIP3    H224684   1.553   3.105   1.784
 8243TIP3   OH224685   3.339   7.470   2.957
 8243TIP3    H124686   3.377   7.555   2.935
 8243TIP3    H224687   3.260   7.464   2.903
 8244TIP3   OH224688   6.787   7.096   2.778
 8244TIP3    H124689   6.737   7.127   2.853
 8244TIP3    H224690   6.728   7.110   2.703
 8245TIP3   OH224691   4.985   7.787   5.261
 8245TIP3    H124692   4.930   7.858   5.230
 8245TIP3    H224693   4.925   7.714   5.274
 8246TIP3   OH224694   0.162   3.762   0.244
 8246TIP3    H124695   0.215   3.720   0.176
 8246TIP3    H224696   0.196   3.727   0.326
 8247TIP3   OH224697   4.013   2.327   1.444
 8247TIP3    H124698   4.066   2.291   1.515
 8247TIP3    H224699   3.943   2.376   1.488
 8248TIP3   OH224700   0.976   0.542   5.872
 8248TIP3    H124701   1.053   0.489   5.852
 8248TIP3    H224702   0.902   0.487   5.847
 8249TIP3   OH224703   3.727   6.566   4.281
 8249TIP3    H124704   3.775   6.486   4.306
 8249TIP3    H224705   3.777   6.602   4.208
 8250TIP3   OH224706   7.085   7.261   3.375
 8250TIP3    H124707   7.115   7.275   3.465
 8250TIP3    H224708   7.154   7.208   3.335
 8251TIP3   OH224709   1.675   7.372   5.250
 8251TIP3    H124710   1.751   7.430   5.245
 8251TIP3    H224711   1.693   7.303   5.185
 8252TIP3   OH224712   3.275   4.066   0.290
 8252TIP3    H124713   3.255   4.155   0.263
 8252TIP3    H224714   3.206   4.043   0.352
 8253TIP3   OH224715   1.217   1.404   6.681
 8253TIP3    H124716   1.287   1.340   6.668
 8253TIP3    H224717   1.187   1.389   6.771
 8254TIP3   OH224718   0.410   5.210   3.839
 8254TIP3    H124719   0.349   5.283   3.830
 8254TIP3    H224720   0.496   5.249   3.824
 8255TIP3   OH224721   3.645   6.982   2.200
 8255TIP3    H124722   3.565   7.023   2.234
 8255TIP3    H224723   3.715   7.042   2.227
 8256TIP3   OH224724   6.770   4.971   3.652
 8256TIP3    H124725   6.776   4.999   3.744
 8256TIP3    H224726   6.699   5.024   3.616
 8257TIP3   OH224727   3.959   3.288   2.951
 8257TIP3    H124728   3.883   3.231   2.937
 8257TIP3    H224729   3.939   3.367   2.901
 8258TIP3   OH224730   1.584   0.639   2.074
 8258TIP3    H124731   1.510   0.689   2.108
 8258TIP3    H224732   1.647   0.705   2.044
 8259TIP3   OH224733   2.808   2.439   4.211
 8259TIP3    H124734   2.859   2.447   4.131
 8259TIP3    H224735   2.783   2.528   4.233
 8260TIP3   OH224736   3.678   0.627   6.576
 8260TIP3    H124737   3.670   0.574   6.655
 8260TIP3    H224738   3.754   0.589   6.530
 8261TIP3   OH224739   1.765   4.190   3.472
 8261TIP3    H124740   1.732   4.144   3.548
 8261TIP3    H224741   1.687   4.226   3.429
 8262TIP3   OH224742   0.286   3.304   1.280
 8262TIP3    H124743   0.253   3.364   1.347
 8262TIP3    H224744   0.370   3.274   1.313
 8263TIP3   OH224745   0.559   0.192   3.480
 8263TIP3    H124746   0.623   0.135   3.438
 8263TIP3    H224747   0.479   0.139   3.484
 8264TIP3   OH224748   3.060   7.228   5.398
 8264TIP3    H124749   3.142   7.273   5.420
 8264TIP3    H224750   3.006   7.295   5.356
 8265TIP3   OH224751   5.988   7.536   2.714
 8265TIP3    H124752   6.063   7.519   2.771
 8265TIP3    H224753   6.002   7.480   2.638
 8266TIP3   OH224754   7.437   1.812   4.765
 8266TIP3    H124755   7.497   1.811   4.839
 8266TIP3    H224756   7.385   1.892   4.778
 8267TIP3   OH224757   5.257   2.910   1.533
 8267TIP3    H124758   5.197   2.985   1.541
 8267TIP3    H224759   5.200   2.837   1.507
 8268TIP3   OH224760   0.990   2.131   6.653
 8268TIP3    H124761   1.004   2.217   6.694
 8268TIP3    H224762   1.078   2.092   6.648
 8269TIP3   OH224763   0.068   4.793   4.728
 8269TIP3    H124764   0.066   4.755   4.640
 8269TIP3    H224765   0.154   4.833   4.734
 8270TIP3   OH224766   8.111   6.118   3.704
 8270TIP3    H124767   8.089   6.194   3.651
 8270TIP3    H224768   8.172   6.067   3.651
 8271TIP3   OH224769   0.920   6.797   2.351
 8271TIP3    H124770   0.924   6.707   2.318
 8271TIP3    H224771   0.940   6.789   2.444
 8272TIP3   OH224772   1.986   5.469   4.282
 8272TIP3    H124773   2.054   5.512   4.232
 8272TIP3    H224774   2.031   5.433   4.358
 8273TIP3   OH224775   5.533   7.254   5.157
 8273TIP3    H124776   5.547   7.305   5.077
 8273TIP3    H224777   5.589   7.296   5.223
 8274TIP3   OH224778   2.467   0.210   4.603
 8274TIP3    H124779   2.555   0.194   4.570
 8274TIP3    H224780   2.409   0.163   4.543
 8275TIP3   OH224781   0.800   1.671   5.712
 8275TIP3    H124782   0.815   1.764   5.695
 8275TIP3    H224783   0.815   1.629   5.627
 8276TIP3   OH224784   4.450   3.246   3.515
 8276TIP3    H124785   4.402   3.194   3.451
 8276TIP3    H224786   4.542   3.230   3.495
 8277TIP3   OH224787   4.968   1.275   4.942
 8277TIP3    H124788   5.052   1.236   4.967
 8277TIP3    H224789   4.905   1.205   4.955
 8278TIP3   OH224790   2.750   5.942   1.950
 8278TIP3    H124791   2.715   5.996   1.879
 8278TIP3    H224792   2.774   5.859   1.908
 8279TIP3   OH224793   0.500   7.533   3.241
 8279TIP3    H124794   0.437   7.580   3.295
 8279TIP3    H224795   0.460   7.448   3.225
 8280TIP3   OH224796   1.014   6.406   4.060
 8280TIP3    H124797   1.104   6.439   4.066
 8280TIP3    H224798   0.969   6.469   4.003
 8281TIP3   OH224799   0.922   0.676   3.636
 8281TIP3    H124800   0.940   0.748   3.697
 8281TIP3    H224801   0.836   0.643   3.663
 8282TIP3   OH224802   4.407   5.426   5.103
 8282TIP3    H124803   4.457   5.479   5.166
 8282TIP3    H224804   4.371   5.490   5.041
 8283TIP3   OH224805   8.209   0.720   1.777
 8283TIP3    H124806   8.183   0.807   1.748
 8283TIP3    H224807   8.304   0.722   1.780
 8284TIP3   OH224808   5.574   0.633   5.913
 8284TIP3    H124809   5.663   0.613   5.884
 8284TIP3    H224810   5.558   0.721   5.882
 8285TIP3   OH224811   4.249   6.262   5.257
 8285TIP3    H124812   4.280   6.173   5.270
 8285TIP3    H224813   4.265   6.305   5.342
 8286TIP3   OH224814   0.431   0.260   1.917
 8286TIP3    H124815   0.490   0.328   1.950
 8286TIP3    H224816   0.353   0.266   1.973
 8287TIP3   OH224817   3.963   5.102   2.266
 8287TIP3    H124818   3.899   5.031   2.276
 8287TIP3    H224819   4.024   5.070   2.199
 8288TIP3   OH224820   7.953   7.241   4.712
 8288TIP3    H124821   7.978   7.331   4.734
 8288TIP3    H224822   8.011   7.186   4.765
 8289TIP3   OH224823   0.759   1.910   2.042
 8289TIP3    H124824   0.677   1.891   1.997
 8289TIP3    H224825   0.737   1.908   2.135
 8290TIP3   OH224826   4.244   5.162   3.950
 8290TIP3    H124827   4.181   5.230   3.974
 8290TIP3    H224828   4.320   5.178   4.006
 8291TIP3   OH224829   3.535   6.775   5.919
 8291TIP3    H124830   3.478   6.818   5.855
 8291TIP3    H224831   3.605   6.736   5.866
 8292TIP3   OH224832   0.431   2.885   2.376
 8292TIP3    H124833   0.439   2.812   2.315
 8292TIP3    H224834   0.371   2.853   2.443
 8293TIP3   OH224835   7.542   6.895   3.304
 8293TIP3    H124836   7.513   6.863   3.389
 8293TIP3    H224837   7.620   6.843   3.284
 8294TIP3   OH224838   5.941   5.663   6.283
 8294TIP3    H124839   5.901   5.749   6.271
 8294TIP3    H224840   5.885   5.620   6.348
 8295TIP3   OH224841   0.624   1.795   0.259
 8295TIP3    H124842   0.608   1.813   0.352
 8295TIP3    H224843   0.719   1.785   0.253
 8296TIP3   OH224844   1.350   7.410   5.326
 8296TIP3    H124845   1.404   7.333   5.345
 8296TIP3    H224846   1.411   7.483   5.329
 8297TIP3   OH224847   7.366   5.860   4.611
 8297TIP3    H124848   7.319   5.867   4.694
 8297TIP3    H224849   7.457   5.878   4.633
 8298TIP3   OH224850   2.452   0.537   6.599
 8298TIP3    H124851   2.435   0.612   6.541
 8298TIP3    H224852   2.482   0.468   6.540
 8299TIP3   OH224853   8.223   5.812   0.143
 8299TIP3    H124854   8.237   5.767   0.060
 8299TIP3    H224855   8.209   5.742   0.206
 8300TIP3   OH224856   4.564   7.534   5.219
 8300TIP3    H124857   4.482   7.583   5.229
 8300TIP3    H224858   4.571   7.519   5.125
 8301TIP3   OH224859   5.552   0.222   0.471
 8301TIP3    H124860   5.493   0.267   0.410
 8301TIP3    H224861   5.635   0.269   0.463
 8302TIP3   OH224862   3.654   6.201   4.249
 8302TIP3    H124863   3.564   6.224   4.274
 8302TIP3    H224864   3.662   6.229   4.158
 8303TIP3   OH224865   5.156   1.171   1.939
 8303TIP3    H124866   5.236   1.144   1.984
 8303TIP3    H224867   5.186   1.213   1.859
 8304TIP3   OH224868   0.750   1.806   6.129
 8304TIP3    H124869   0.691   1.860   6.077
 8304TIP3    H224870   0.733   1.717   6.099
 8305TIP3   OH224871   5.739   1.220   4.482
 8305TIP3    H124872   5.689   1.139   4.491
 8305TIP3    H224873   5.829   1.191   4.465
 8306TIP3   OH224874   7.612   6.649   1.930
 8306TIP3    H124875   7.544   6.606   1.878
 8306TIP3    H224876   7.565   6.687   2.004
 8307TIP3   OH224877   4.778   3.346   5.744
 8307TIP3    H124878   4.827   3.425   5.763
 8307TIP3    H224879   4.722   3.332   5.820
 8308TIP3   OH224880   6.336   0.286   4.507
 8308TIP3    H124881   6.370   0.362   4.555
 8308TIP3    H224882   6.403   0.269   4.440
 8309TIP3   OH224883   3.488   4.422   6.314
 8309TIP3    H124884   3.558   4.484   6.297
 8309TIP3    H224885   3.482   4.370   6.234
 8310TIP3   OH224886   5.742   4.260   0.995
 8310TIP3    H124887   5.814   4.264   0.932
 8310TIP3    H224888   5.765   4.187   1.052
 8311TIP3   OH224889   7.438   6.831   3.548
 8311TIP3    H124890   7.496   6.855   3.620
 8311TIP3    H224891   7.392   6.753   3.579
 8312TIP3   OH224892   3.907   6.068   2.086
 8312TIP3    H124893   3.840   6.062   2.155
 8312TIP3    H224894   3.904   6.159   2.058
 8313TIP3   OH224895   3.961   4.253   0.370
 8313TIP3    H124896   4.021   4.255   0.296
 8313TIP3    H224897   3.918   4.168   0.364
 8314TIP3   OH224898   7.606   7.614   5.138
 8314TIP3    H124899   7.555   7.687   5.102
 8314TIP3    H224900   7.614   7.634   5.231
 8315TIP3   OH224901   5.049   7.063   2.519
 8315TIP3    H124902   4.964   7.054   2.474
 8315TIP3    H224903   5.079   7.150   2.494
 8316TIP3   OH224904   7.967   1.277   4.233
 8316TIP3    H124905   7.884   1.325   4.239
 8316TIP3    H224906   7.968   1.221   4.311
 8317TIP3   OH224907   0.437   7.224   1.512
 8317TIP3    H124908   0.458   7.290   1.579
 8317TIP3    H224909   0.519   7.211   1.465
 8318TIP3   OH224910   3.282   2.038   1.133
 8318TIP3    H124911   3.232   1.956   1.127
 8318TIP3    H224912   3.291   2.067   1.042
 8319TIP3   OH224913   1.715   7.736   3.646
 8319TIP3    H124914   1.810   7.722   3.641
 8319TIP3    H224915   1.694   7.724   3.739
 8320TIP3   OH224916   1.664   3.823   0.150
 8320TIP3    H124917   1.630   3.912   0.139
 8320TIP3    H224918   1.704   3.823   0.237
 8321TIP3   OH224919   0.242   7.625   2.748
 8321TIP3    H124920   0.317   7.599   2.801
 8321TIP3    H224921   0.231   7.553   2.685
 8322TIP3   OH224922   2.541   3.618   1.553
 8322TIP3    H124923   2.492   3.573   1.485
 8322TIP3    H224924   2.618   3.562   1.568
 8323TIP3   OH224925   3.562   2.401   2.048
 8323TIP3    H124926   3.506   2.344   1.995
 8323TIP3    H224927   3.643   2.351   2.058
 8324TIP3   OH224928   5.745   1.991   4.813
 8324TIP3    H124929   5.765   1.910   4.767
 8324TIP3    H224930   5.827   2.016   4.855
 8325TIP3   OH224931   0.229   5.933   6.265
 8325TIP3    H124932   0.227   5.984   6.346
 8325TIP3    H224933   0.159   5.970   6.211
 8326TIP3   OH224934   6.659   1.014   0.943
 8326TIP3    H124935   6.699   1.089   0.986
 8326TIP3    H224936   6.609   1.051   0.871
 8327TIP3   OH224937   6.055   5.999   0.124
 8327TIP3    H124938   6.073   6.019   0.033
 8327TIP3    H224939   6.077   6.079   0.172
 8328TIP3   OH224940   7.274   3.387   5.826
 8328TIP3    H124941   7.330   3.360   5.899
 8328TIP3    H224942   7.190   3.408   5.867
 8329TIP3   OH224943   3.365   5.658   2.883
 8329TIP3    H124944   3.292   5.713   2.911
 8329TIP3    H224945   3.410   5.633   2.965
 8330TIP3   OH224946   5.313   7.168   2.050
 8330TIP3    H124947   5.331   7.100   1.985
 8330TIP3    H224948   5.224   7.199   2.029
 8331TIP3   OH224949   5.115   5.102   1.511
 8331TIP3    H124950   5.065   5.031   1.472
 8331TIP3    H224951   5.102   5.176   1.451
 8332TIP3   OH224952   5.279   7.077   6.006
 8332TIP3    H124953   5.310   6.992   5.972
 8332TIP3    H224954   5.211   7.103   5.945
 8333TIP3   OH224955   0.542   4.751   5.638
 8333TIP3    H124956   0.560   4.836   5.679
 8333TIP3    H224957   0.539   4.769   5.544
 8334TIP3   OH224958   0.486   1.816   4.176
 8334TIP3    H124959   0.553   1.784   4.237
 8334TIP3    H224960   0.409   1.763   4.195
 8335TIP3   OH224961   0.835   6.883   0.411
 8335TIP3    H124962   0.781   6.910   0.486
 8335TIP3    H224963   0.785   6.813   0.369
 8336TIP3   OH224964   5.613   1.614   3.763
 8336TIP3    H124965   5.547   1.675   3.795
 8336TIP3    H224966   5.616   1.629   3.669
 8337TIP3   OH224967   7.955   0.237   2.573
 8337TIP3    H124968   7.998   0.220   2.489
 8337TIP3    H224969   8.001   0.180   2.635
 8338TIP3   OH224970   3.652   2.132   6.208
 8338TIP3    H124971   3.658   2.198   6.139
 8338TIP3    H224972   3.701   2.057   6.174
 8339TIP3   OH224973   2.179   2.761   6.724
 8339TIP3    H124974   2.169   2.855   6.711
 8339TIP3    H224975   2.237   2.753   6.800
 8340TIP3   OH224976   0.044   1.569   6.403
 8340TIP3    H124977   0.110   1.500   6.411
 8340TIP3    H224978   0.095   1.648   6.386
 8341TIP3   OH224979   1.764   2.648   1.211
 8341TIP3    H124980   1.672   2.658   1.238
 8341TIP3    H224981   1.800   2.737   1.217
 8342TIP3   OH224982   2.898   3.533   0.140
 8342TIP3    H124983   2.923   3.531   0.047
 8342TIP3    H224984   2.823   3.592   0.143
 8343TIP3   OH224985   6.624   6.104   1.223
 8343TIP3    H124986   6.595   6.181   1.175
 8343TIP3    H224987   6.558   6.037   1.204
 8344TIP3   OH224988   7.264   1.039   6.696
 8344TIP3    H124989   7.319   0.964   6.672
 8344TIP3    H224990   7.318   1.115   6.678
 8345TIP3   OH224991   5.441   3.110   0.977
 8345TIP3    H124992   5.514   3.050   0.962
 8345TIP3    H224993   5.437   3.164   0.897
 8346TIP3   OH224994   2.421   1.494   1.763
 8346TIP3    H124995   2.425   1.531   1.675
 8346TIP3    H224996   2.354   1.545   1.808
 8347TIP3   OH224997   2.019   7.659   0.456
 8347TIP3    H124998   2.000   7.575   0.413
 8347TIP3    H224999   2.108   7.650   0.489
 8348TIP3   OH225000   4.451   1.333   5.273
 8348TIP3    H125001   4.545   1.330   5.253
 8348TIP3    H225002   4.422   1.417   5.238
 8349TIP3   OH225003   7.032   4.241   2.065
 8349TIP3    H125004   7.116   4.282   2.049
 8349TIP3    H225005   7.009   4.199   1.982
 8350TIP3   OH225006   6.593   7.406   0.184
 8350TIP3    H125007   6.639   7.489   0.173
 8350TIP3    H225008   6.530   7.421   0.254
 8351TIP3   OH225009   0.143   7.721   4.558
 8351TIP3    H125010   0.236   7.742   4.555
 8351TIP3    H225011   0.116   7.724   4.466
 8352TIP3   OH225012   7.605   7.275   2.161
 8352TIP3    H125013   7.594   7.209   2.092
 8352TIP3    H225014   7.564   7.236   2.238
 8353TIP3   OH225015   3.847   5.000   3.969
 8353TIP3    H125016   3.893   4.994   3.886
 8353TIP3    H225017   3.904   4.956   4.032
 8354TIP3   OH225018   0.889   1.205   2.061
 8354TIP3    H125019   0.819   1.215   2.125
 8354TIP3    H225020   0.910   1.295   2.035
 8355TIP3   OH225021   0.867   1.062   5.223
 8355TIP3    H125022   0.951   1.050   5.267
 8355TIP3    H225023   0.887   1.060   5.130
 8356TIP3   OH225024   3.830   5.695   2.086
 8356TIP3    H125025   3.795   5.784   2.072
 8356TIP3    H225026   3.781   5.641   2.025
 8357TIP3   OH225027   0.732   7.319   3.152
 8357TIP3    H125028   0.688   7.308   3.068
 8357TIP3    H225029   0.666   7.293   3.217
 8358TIP3   OH225030   5.157   1.009   6.574
 8358TIP3    H125031   5.128   0.949   6.506
 8358TIP3    H225032   5.095   1.082   6.569
 8359TIP3   OH225033   1.039   7.050   2.358
 8359TIP3    H125034   1.026   6.956   2.350
 8359TIP3    H225035   1.134   7.062   2.347
 8360TIP3   OH225036   0.076   7.840   6.684
 8360TIP3    H125037   0.117   7.755   6.699
 8360TIP3    H225038   0.143   7.904   6.708
 8361TIP3   OH225039   6.278   0.280   3.491
 8361TIP3    H125040   6.371   0.272   3.513
 8361TIP3    H225041   6.269   0.370   3.458
 8362TIP3   OH225042   0.697   6.214   5.373
 8362TIP3    H125043   0.710   6.294   5.425
 8362TIP3    H225044   0.783   6.172   5.372
 8363TIP3   OH225045   2.132   2.725   0.257
 8363TIP3    H125046   2.116   2.761   0.344
 8363TIP3    H225047   2.055   2.670   0.239
 8364TIP3   OH225048   7.186   5.240   1.507
 8364TIP3    H125049   7.147   5.267   1.423
 8364TIP3    H225050   7.225   5.154   1.488
 8365TIP3   OH225051   1.388   4.498   5.852
 8365TIP3    H125052   1.400   4.410   5.887
 8365TIP3    H225053   1.296   4.518   5.869
 8366TIP3   OH225054   6.705   6.173   6.161
 8366TIP3    H125055   6.686   6.265   6.141
 8366TIP3    H225056   6.691   6.166   6.256
 8367TIP3   OH225057   6.087   5.713   4.633
 8367TIP3    H125058   6.180   5.704   4.617
 8367TIP3    H225059   6.049   5.730   4.546
 8368TIP3   OH225060   4.256   7.262   6.174
 8368TIP3    H125061   4.344   7.298   6.175
 8368TIP3    H225062   4.245   7.223   6.261
 8369TIP3   OH225063   2.250   2.206   4.245
 8369TIP3    H125064   2.225   2.260   4.170
 8369TIP3    H225065   2.243   2.116   4.213
 8370TIP3   OH225066   0.144   4.699   2.126
 8370TIP3    H125067   0.212   4.691   2.059
 8370TIP3    H225068   0.144   4.614   2.170
 8371TIP3   OH225069   5.646   3.479   4.999
 8371TIP3    H125070   5.585   3.502   4.929
 8371TIP3    H225071   5.717   3.432   4.955
 8372TIP3   OH225072   3.317   3.702   6.183
 8372TIP3    H125073   3.291   3.655   6.104
 8372TIP3    H225074   3.234   3.728   6.224
 8373TIP3   OH225075   6.877   0.235   1.234
 8373TIP3    H125076   6.933   0.292   1.182
 8373TIP3    H225077   6.938   0.174   1.277
 8374TIP3   OH225078   3.447   0.844   3.366
 8374TIP3    H125079   3.532   0.823   3.405
 8374TIP3    H225080   3.387   0.779   3.402
 8375TIP3   OH225081   0.552   4.612   3.992
 8375TIP3    H125082   0.543   4.620   3.897
 8375TIP3    H225083   0.462   4.602   4.023
 8376TIP3   OH225084   6.838   2.100   6.764
 8376TIP3    H125085   6.789   2.063   6.837
 8376TIP3    H225086   6.804   2.054   6.687
 8377TIP3   OH225087   0.324   5.390   0.503
 8377TIP3    H125088   0.333   5.330   0.577
 8377TIP3    H225089   0.259   5.454   0.533
 8378TIP3   OH225090   4.395   0.139   6.469
 8378TIP3    H125091   4.430   0.224   6.443
 8378TIP3    H225092   4.459   0.105   6.531
 8379TIP3   OH225093   5.272   4.260   4.406
 8379TIP3    H125094   5.317   4.176   4.415
 8379TIP3    H225095   5.269   4.295   4.495
 8380TIP3   OH225096   7.606   7.431   0.490
 8380TIP3    H125097   7.623   7.519   0.523
 8380TIP3    H225098   7.515   7.413   0.514
 8381TIP3   OH225099   6.260   7.834   0.761
 8381TIP3    H125100   6.308   7.753   0.779
 8381TIP3    H225101   6.180   7.806   0.719
 8382TIP3   OH225102   3.130   3.308   5.753
 8382TIP3    H125103   3.173   3.226   5.779
 8382TIP3    H225104   3.087   3.339   5.833
 8383TIP3   OH225105   2.749   5.854   3.554
 8383TIP3    H125106   2.698   5.878   3.632
 8383TIP3    H225107   2.697   5.886   3.480
 8384TIP3   OH225108   4.729   7.624   3.601
 8384TIP3    H125109   4.799   7.558   3.602
 8384TIP3    H225110   4.773   7.704   3.573
 8385TIP3   OH225111   2.743   5.502   5.083
 8385TIP3    H125112   2.745   5.434   5.150
 8385TIP3    H225113   2.723   5.582   5.131
 8386TIP3   OH225114   1.582   7.634   2.205
 8386TIP3    H125115   1.570   7.548   2.246
 8386TIP3    H225116   1.568   7.697   2.276
 8387TIP3   OH225117   0.779   7.126   5.584
 8387TIP3    H125118   0.823   7.168   5.511
 8387TIP3    H225119   0.745   7.044   5.548
 8388TIP3   OH225120   1.928   6.810   2.116
 8388TIP3    H125121   1.964   6.733   2.160
 8388TIP3    H225122   1.938   6.791   2.023
 8389TIP3   OH225123   5.484   4.745   3.279
 8389TIP3    H125124   5.452   4.720   3.365
 8389TIP3    H225125   5.448   4.832   3.265
 8390TIP3   OH225126   6.040   3.011   1.207
 8390TIP3    H125127   6.089   3.076   1.158
 8390TIP3    H225128   6.074   2.927   1.177
 8391TIP3   OH225129   7.289   5.195   2.521
 8391TIP3    H125130   7.220   5.145   2.565
 8391TIP3    H225131   7.244   5.270   2.483
 8392TIP3   OH225132   4.363   3.442   0.258
 8392TIP3    H125133   4.402   3.356   0.248
 8392TIP3    H225134   4.287   3.428   0.313
 8393TIP3   OH225135   6.778   4.522   0.015
 8393TIP3    H125136   6.711   4.590   0.022
 8393TIP3    H225137   6.811   4.511   0.104
 8394TIP3   OH225138   1.827   7.620   5.963
 8394TIP3    H125139   1.827   7.627   6.058
 8394TIP3    H225140   1.870   7.536   5.945
 8395TIP3   OH225141   5.681   3.705   3.794
 8395TIP3    H125142   5.678   3.793   3.829
 8395TIP3    H225143   5.770   3.696   3.760
 8396TIP3   OH225144   4.831   5.639   0.087
 8396TIP3    H125145   4.897   5.708   0.096
 8396TIP3    H225146   4.823   5.603   0.175
 8397TIP3   OH225147   0.706   7.738   1.071
 8397TIP3    H125148   0.779   7.753   1.131
 8397TIP3    H225149   0.649   7.675   1.117
 8398TIP3   OH225150   3.098   5.641   3.925
 8398TIP3    H125151   3.048   5.684   3.856
 8398TIP3    H225152   3.189   5.644   3.895
 8399TIP3   OH225153   4.643   2.649   1.775
 8399TIP3    H125154   4.622   2.671   1.866
 8399TIP3    H225155   4.576   2.693   1.723
 8400TIP3   OH225156   5.789   6.196   6.326
 8400TIP3    H125157   5.752   6.215   6.240
 8400TIP3    H225158   5.874   6.155   6.307
 8401TIP3   OH225159   7.092   7.651   5.673
 8401TIP3    H125160   7.072   7.731   5.721
 8401TIP3    H225161   7.175   7.669   5.629
 8402TIP3   OH225162   2.649   1.239   2.891
 8402TIP3    H125163   2.621   1.301   2.958
 8402TIP3    H225164   2.634   1.285   2.808
 8403TIP3   OH225165   2.660   1.088   1.771
 8403TIP3    H125166   2.731   1.108   1.711
 8403TIP3    H225167   2.640   0.996   1.755
 8404TIP3   OH225168   6.957   2.259   5.905
 8404TIP3    H125169   7.016   2.255   5.830
 8404TIP3    H225170   6.975   2.344   5.946
 8405TIP3   OH225171   6.191   2.530   4.900
 8405TIP3    H125172   6.170   2.565   4.987
 8405TIP3    H225173   6.260   2.589   4.868
 8406TIP3   OH225174   2.966   7.822   2.178
 8406TIP3    H125175   2.901   7.837   2.246
 8406TIP3    H225176   2.963   7.901   2.124
 8407TIP3   OH225177   1.140   4.604   5.880
 8407TIP3    H125178   1.051   4.570   5.886
 8407TIP3    H225179   1.147   4.665   5.953
 8408TIP3   OH225180   0.493   1.102   5.498
 8408TIP3    H125181   0.457   1.096   5.586
 8408TIP3    H225182   0.434   1.050   5.444
 8409TIP3   OH225183   3.295   1.079   3.438
 8409TIP3    H125184   3.310   1.154   3.380
 8409TIP3    H225185   3.353   1.010   3.403
 8410TIP3   OH225186   2.090   6.355   1.835
 8410TIP3    H125187   2.160   6.396   1.887
 8410TIP3    H225188   2.114   6.373   1.744
 8411TIP3   OH225189   0.348   3.665   3.038
 8411TIP3    H125190   0.354   3.571   3.023
 8411TIP3    H225191   0.298   3.699   2.963
 8412TIP3   OH225192   0.142   3.886   1.080
 8412TIP3    H125193   0.181   3.807   1.117
 8412TIP3    H225194   0.049   3.881   1.103
 8413TIP3   OH225195   0.349   7.303   1.986
 8413TIP3    H125196   0.417   7.245   2.020
 8413TIP3    H225197   0.361   7.301   1.891
 8414TIP3   OH225198   7.150   2.263   5.707
 8414TIP3    H125199   7.136   2.337   5.648
 8414TIP3    H225200   7.140   2.186   5.652
 8415TIP3   OH225201   3.270   5.146   5.048
 8415TIP3    H125202   3.335   5.076   5.052
 8415TIP3    H225203   3.309   5.218   5.097
 8416TIP3   OH225204   0.125   5.282   1.750
 8416TIP3    H125205   0.090   5.327   1.673
 8416TIP3    H225206   0.071   5.203   1.758
 8417TIP3   OH225207   5.328   7.475   3.115
 8417TIP3    H125208   5.381   7.494   3.037
 8417TIP3    H225209   5.378   7.511   3.188
 8418TIP3   OH225210   7.774   0.365   0.156
 8418TIP3    H125211   7.789   0.413   0.075
 8418TIP3    H225212   7.773   0.273   0.128
 8419TIP3   OH225213   2.234   4.451   1.497
 8419TIP3    H125214   2.307   4.415   1.446
 8419TIP3    H225215   2.174   4.486   1.431
 8420TIP3   OH225216   8.053   0.613   1.561
 8420TIP3    H125217   8.105   0.625   1.641
 8420TIP3    H225218   7.964   0.634   1.587
 8421TIP3   OH225219   2.913   0.122   3.333
 8421TIP3    H125220   2.854   0.106   3.259
 8421TIP3    H225221   2.910   0.216   3.346
 8422TIP3   OH225222   6.229   4.366   4.135
 8422TIP3    H125223   6.142   4.400   4.113
 8422TIP3    H225224   6.290   4.427   4.093
 8423TIP3   OH225225   2.966   1.544   4.221
 8423TIP3    H125226   2.880   1.552   4.178
 8423TIP3    H225227   3.027   1.585   4.160
 8424TIP3   OH225228   8.206   7.560   3.652
 8424TIP3    H125229   8.272   7.572   3.721
 8424TIP3    H225230   8.224   7.630   3.590
 8425TIP3   OH225231   1.869   4.922   1.505
 8425TIP3    H125232   1.852   5.016   1.514
 8425TIP3    H225233   1.786   4.886   1.474
 8426TIP3   OH225234   0.308   7.194   2.745
 8426TIP3    H125235   0.254   7.184   2.823
 8426TIP3    H225236   0.265   7.142   2.678
 8427TIP3   OH225237   5.187   5.781   2.443
 8427TIP3    H125238   5.244   5.824   2.506
 8427TIP3    H225239   5.114   5.841   2.431
 8428TIP3   OH225240   4.695   4.559   5.555
 8428TIP3    H125241   4.631   4.628   5.536
 8428TIP3    H225242   4.768   4.577   5.496
 8429TIP3   OH225243   5.167   7.117   1.618
 8429TIP3    H125244   5.196   7.188   1.561
 8429TIP3    H225245   5.211   7.039   1.584
 8430TIP3   OH225246   7.509   5.097   4.097
 8430TIP3    H125247   7.433   5.115   4.041
 8430TIP3    H225248   7.479   5.027   4.155
 8431TIP3   OH225249   7.775   4.333   5.742
 8431TIP3    H125250   7.704   4.273   5.762
 8431TIP3    H225251   7.836   4.281   5.688
 8432TIP3   OH225252   2.203   0.380   6.502
 8432TIP3    H125253   2.123   0.376   6.450
 8432TIP3    H225254   2.183   0.444   6.571
 8433TIP3   OH225255   5.062   5.813   3.228
 8433TIP3    H125256   5.042   5.723   3.253
 8433TIP3    H225257   5.009   5.867   3.287
 8434TIP3   OH225258   7.484   7.386   3.697
 8434TIP3    H125259   7.461   7.473   3.664
 8434TIP3    H225260   7.573   7.395   3.730
 8435TIP3   OH225261   6.228   3.279   1.817
 8435TIP3    H125262   6.235   3.371   1.794
 8435TIP3    H225263   6.134   3.263   1.821
 8436TIP3   OH225264   5.446   2.258   5.051
 8436TIP3    H125265   5.432   2.217   5.136
 8436TIP3    H225266   5.385   2.212   4.992
 8437TIP3   OH225267   6.512   6.971   2.079
 8437TIP3    H125268   6.448   6.954   2.148
 8437TIP3    H225269   6.589   6.920   2.105
 8438TIP3   OH225270   1.926   7.396   5.863
 8438TIP3    H125271   1.973   7.459   5.809
 8438TIP3    H225272   1.974   7.314   5.852
 8439TIP3   OH225273   2.220   2.801   3.840
 8439TIP3    H125274   2.236   2.774   3.931
 8439TIP3    H225275   2.132   2.839   3.842
 8440TIP3   OH225276   5.226   5.713   6.036
 8440TIP3    H125277   5.244   5.772   5.963
 8440TIP3    H225278   5.167   5.763   6.093
 8441TIP3   OH225279   0.702   3.649   1.854
 8441TIP3    H125280   0.713   3.606   1.939
 8441TIP3    H225281   0.722   3.580   1.790
 8442TIP3   OH225282   0.946   7.325   1.462
 8442TIP3    H125283   1.012   7.370   1.515
 8442TIP3    H225284   0.995   7.280   1.394
 8443TIP3   OH225285   4.505   0.419   0.431
 8443TIP3    H125286   4.444   0.421   0.506
 8443TIP3    H225287   4.589   0.445   0.468
 8444TIP3   OH225288   1.587   0.488   1.785
 8444TIP3    H125289   1.538   0.553   1.836
 8444TIP3    H225290   1.587   0.522   1.696
 8445TIP3   OH225291   2.021   5.067   5.773
 8445TIP3    H125292   2.036   5.114   5.855
 8445TIP3    H225293   2.083   4.994   5.775
 8446TIP3   OH225294   4.770   4.619   4.902
 8446TIP3    H125295   4.699   4.563   4.934
 8446TIP3    H225296   4.728   4.703   4.884
 8447TIP3   OH225297   2.584   1.708   4.565
 8447TIP3    H125298   2.589   1.768   4.639
 8447TIP3    H225299   2.492   1.682   4.562
 8448TIP3   OH225300   6.974   0.415   1.592
 8448TIP3    H125301   6.893   0.434   1.546
 8448TIP3    H225302   6.981   0.319   1.589
 8449TIP3   OH225303   0.292   3.003   1.794
 8449TIP3    H125304   0.363   3.006   1.730
 8449TIP3    H225305   0.311   2.926   1.847
 8450TIP3   OH225306   6.147   6.357   3.285
 8450TIP3    H125307   6.227   6.403   3.308
 8450TIP3    H225308   6.177   6.272   3.252
 8451TIP3   OH225309   4.608   6.920   6.524
 8451TIP3    H125310   4.643   6.841   6.483
 8451TIP3    H225311   4.543   6.952   6.462
 8452TIP3   OH225312   0.696   3.188   2.904
 8452TIP3    H125313   0.700   3.253   2.834
 8452TIP3    H225314   0.655   3.111   2.864
 8453TIP3   OH225315   0.317   5.797   4.517
 8453TIP3    H125316   0.411   5.796   4.501
 8453TIP3    H225317   0.294   5.890   4.522
 8454TIP3   OH225318   3.503   4.688   2.420
 8454TIP3    H125319   3.479   4.780   2.433
 8454TIP3    H225320   3.427   4.639   2.451
 8455TIP3   OH225321   1.556   2.255   1.938
 8455TIP3    H125322   1.556   2.185   2.003
 8455TIP3    H225323   1.549   2.336   1.990
 8456TIP3   OH225324   0.454   3.719   1.282
 8456TIP3    H125325   0.490   3.636   1.312
 8456TIP3    H225326   0.391   3.695   1.214
 8457TIP3   OH225327   7.749   3.772   2.553
 8457TIP3    H125328   7.664   3.768   2.598
 8457TIP3    H225329   7.733   3.827   2.477
 8458TIP3   OH225330   7.298   1.951   1.160
 8458TIP3    H125331   7.219   1.984   1.201
 8458TIP3    H225332   7.317   2.013   1.090
 8459TIP3   OH225333   3.710   1.200   0.328
 8459TIP3    H125334   3.782   1.160   0.279
 8459TIP3    H225335   3.643   1.217   0.262
 8460TIP3   OH225336   6.155   0.545   2.621
 8460TIP3    H125337   6.188   0.635   2.626
 8460TIP3    H225338   6.072   0.548   2.668
 8461TIP3   OH225339   4.203   0.721   5.846
 8461TIP3    H125340   4.245   0.798   5.806
 8461TIP3    H225341   4.265   0.650   5.832
 8462TIP3   OH225342   3.386   1.820   0.894
 8462TIP3    H125343   3.324   1.749   0.911
 8462TIP3    H225344   3.380   1.835   0.799
 8463TIP3   OH225345   2.671   6.329   3.615
 8463TIP3    H125346   2.651   6.253   3.670
 8463TIP3    H225347   2.642   6.404   3.667
 8464TIP3   OH225348   0.413   0.707   5.557
 8464TIP3    H125349   0.342   0.766   5.531
 8464TIP3    H225350   0.463   0.758   5.621
 8465TIP3   OH225351   4.058   6.928   6.495
 8465TIP3    H125352   4.058   6.839   6.460
 8465TIP3    H225353   4.091   6.919   6.584
 8466TIP3   OH225354   7.311   3.017   5.471
 8466TIP3    H125355   7.268   3.006   5.386
 8466TIP3    H225356   7.289   2.938   5.520
 8467TIP3   OH225357   6.391   7.444   3.838
 8467TIP3    H125358   6.392   7.365   3.891
 8467TIP3    H225359   6.312   7.436   3.784
 8468TIP3   OH225360   6.407   5.497   1.489
 8468TIP3    H125361   6.399   5.569   1.427
 8468TIP3    H225362   6.398   5.537   1.575
 8469TIP3   OH225363   1.895   2.301   1.371
 8469TIP3    H125364   1.805   2.324   1.395
 8469TIP3    H225365   1.911   2.349   1.289
 8470TIP3   OH225366   3.819   1.238   5.240
 8470TIP3    H125367   3.732   1.269   5.214
 8470TIP3    H225368   3.853   1.307   5.296
 8471TIP3   OH225369   3.873   5.393   6.346
 8471TIP3    H125370   3.965   5.369   6.347
 8471TIP3    H225371   3.831   5.324   6.295
 8472TIP3   OH225372   1.197   7.321   1.653
 8472TIP3    H125373   1.189   7.412   1.625
 8472TIP3    H225374   1.264   7.322   1.720
 8473TIP3   OH225375   6.026   4.667   0.326
 8473TIP3    H125376   6.108   4.654   0.374
 8473TIP3    H225377   6.050   4.720   0.250
 8474TIP3   OH225378   3.930   2.391   5.140
 8474TIP3    H125379   3.973   2.365   5.059
 8474TIP3    H225380   3.966   2.478   5.159
 8475TIP3   OH225381   1.022   4.510   1.458
 8475TIP3    H125382   0.985   4.424   1.479
 8475TIP3    H225383   0.949   4.571   1.466
 8476TIP3   OH225384   7.657   2.888   1.656
 8476TIP3    H125385   7.578   2.935   1.684
 8476TIP3    H225386   7.623   2.809   1.614
 8477TIP3   OH225387   5.626   5.467   1.170
 8477TIP3    H125388   5.569   5.541   1.188
 8477TIP3    H225389   5.631   5.463   1.074
 8478TIP3   OH225390   4.576   7.065   0.325
 8478TIP3    H125391   4.655   7.020   0.296
 8478TIP3    H225392   4.538   7.100   0.244
 8479TIP3   OH225393   5.949   4.904   5.645
 8479TIP3    H125394   5.865   4.924   5.604
 8479TIP3    H225395   5.936   4.926   5.737
 8480TIP3   OH225396   1.908   0.591   3.013
 8480TIP3    H125397   1.861   0.675   3.011
 8480TIP3    H225398   1.909   0.566   3.105
 8481TIP3   OH225399   1.727   0.067   6.642
 8481TIP3    H125400   1.811   0.052   6.598
 8481TIP3    H225401   1.724   0.001   6.712
 8482TIP3   OH225402   1.084   4.626   3.535
 8482TIP3    H125403   1.149   4.648   3.468
 8482TIP3    H225404   1.136   4.592   3.608
 8483TIP3   OH225405   0.146   7.358   5.723
 8483TIP3    H125406   0.122   7.370   5.631
 8483TIP3    H225407   0.074   7.307   5.760
 8484TIP3   OH225408   7.152   1.731   4.910
 8484TIP3    H125409   7.225   1.753   4.852
 8484TIP3    H225410   7.080   1.710   4.850
 8485TIP3   OH225411   7.783   6.603   3.559
 8485TIP3    H125412   7.792   6.519   3.602
 8485TIP3    H225413   7.726   6.654   3.617
 8486TIP3   OH225414   6.646   2.963   3.999
 8486TIP3    H125415   6.728   2.982   4.044
 8486TIP3    H225416   6.588   2.932   4.069
 8487TIP3   OH225417   1.794   5.753   3.890
 8487TIP3    H125418   1.778   5.765   3.797
 8487TIP3    H225419   1.793   5.842   3.927
 8488TIP3   OH225420   7.235   0.757   4.137
 8488TIP3    H125421   7.164   0.696   4.157
 8488TIP3    H225422   7.217   0.787   4.048
 8489TIP3   OH225423   0.368   6.294   2.536
 8489TIP3    H125424   0.304   6.224   2.520
 8489TIP3    H225425   0.354   6.356   2.464
 8490TIP3   OH225426   0.594   6.416   4.777
 8490TIP3    H125427   0.646   6.336   4.766
 8490TIP3    H225428   0.644   6.483   4.731
 8491TIP3   OH225429   1.462   5.481   5.982
 8491TIP3    H125430   1.405   5.450   5.911
 8491TIP3    H225431   1.549   5.449   5.958
 8492TIP3   OH225432   6.788   7.637   3.639
 8492TIP3    H125433   6.821   7.636   3.729
 8492TIP3    H225434   6.734   7.559   3.631
 8493TIP3   OH225435   4.910   7.437   0.979
 8493TIP3    H125436   4.897   7.386   0.898
 8493TIP3    H225437   4.998   7.412   1.008
 8494TIP3   OH225438   7.637   7.212   4.828
 8494TIP3    H125439   7.676   7.255   4.904
 8494TIP3    H225440   7.684   7.129   4.819
 8495TIP3   OH225441   7.292   0.203   2.849
 8495TIP3    H125442   7.276   0.291   2.814
 8495TIP3    H225443   7.387   0.195   2.851
 8496TIP3   OH225444   5.916   5.554   2.735
 8496TIP3    H125445   5.973   5.586   2.666
 8496TIP3    H225446   5.832   5.538   2.692
 8497TIP3   OH225447   0.762   7.795   3.229
 8497TIP3    H125448   0.831   7.845   3.272
 8497TIP3    H225449   0.750   7.718   3.284
 8498TIP3   OH225450   6.707   5.450   5.009
 8498TIP3    H125451   6.736   5.475   4.922
 8498TIP3    H225452   6.671   5.362   4.999
 8499TIP3   OH225453   5.521   6.181   2.199
 8499TIP3    H125454   5.523   6.238   2.275
 8499TIP3    H225455   5.432   6.147   2.196
 8500TIP3   OH225456   0.299   6.436   2.322
 8500TIP3    H125457   0.298   6.410   2.230
 8500TIP3    H225458   0.206   6.446   2.345
 8501TIP3   OH225459   4.070   1.894   0.390
 8501TIP3    H125460   4.047   1.986   0.400
 8501TIP3    H225461   4.000   1.846   0.434
 8502TIP3   OH225462   2.484   7.522   1.923
 8502TIP3    H125463   2.407   7.498   1.975
 8502TIP3    H225464   2.546   7.557   1.987
 8503TIP3   OH225465   4.173   5.691   5.038
 8503TIP3    H125466   4.106   5.754   5.014
 8503TIP3    H225467   4.188   5.705   5.131
 8504TIP3   OH225468   0.757   6.913   5.373
 8504TIP3    H125469   0.800   6.941   5.292
 8504TIP3    H225470   0.663   6.914   5.352
 8505TIP3   OH225471   0.741   4.674   6.340
 8505TIP3    H125472   0.723   4.749   6.395
 8505TIP3    H225473   0.690   4.603   6.378
 8506TIP3   OH225474   7.199   1.209   0.780
 8506TIP3    H125475   7.260   1.213   0.706
 8506TIP3    H225476   7.189   1.300   0.808
 8507TIP3   OH225477   2.588   0.277   3.446
 8507TIP3    H125478   2.582   0.202   3.387
 8507TIP3    H225479   2.594   0.238   3.533
 8508TIP3   OH225480   6.754   1.747   6.649
 8508TIP3    H125481   6.755   1.683   6.578
 8508TIP3    H225482   6.840   1.739   6.690
 8509TIP3   OH225483   6.180   4.613   1.476
 8509TIP3    H125484   6.092   4.597   1.442
 8509TIP3    H225485   6.171   4.694   1.527
 8510TIP3   OH225486   2.145   4.943   0.813
 8510TIP3    H125487   2.157   4.882   0.740
 8510TIP3    H225488   2.094   5.015   0.776
 8511TIP3   OH225489   6.134   5.716   2.573
 8511TIP3    H125490   6.184   5.796   2.558
 8511TIP3    H225491   6.047   5.747   2.599
 8512TIP3   OH225492   7.512   3.797   5.679
 8512TIP3    H125493   7.571   3.854   5.728
 8512TIP3    H225494   7.444   3.856   5.645
 8513TIP3   OH225495   0.794   6.960   3.507
 8513TIP3    H125496   0.824   6.960   3.416
 8513TIP3    H225497   0.867   7.000   3.556
 8514TIP3   OH225498   5.568   2.639   2.290
 8514TIP3    H125499   5.506   2.625   2.219
 8514TIP3    H225500   5.654   2.634   2.248
 8515TIP3   OH225501   7.900   3.103   0.519
 8515TIP3    H125502   7.900   3.007   0.524
 8515TIP3    H225503   7.844   3.122   0.444
 8516TIP3   OH225504   1.691   1.213   1.174
 8516TIP3    H125505   1.768   1.159   1.192
 8516TIP3    H225506   1.722   1.303   1.185
 8517TIP3   OH225507   1.808   2.675   5.536
 8517TIP3    H125508   1.895   2.713   5.548
 8517TIP3    H225509   1.791   2.628   5.617
 8518TIP3   OH225510   2.203   2.044   0.126
 8518TIP3    H125511   2.218   2.112   0.192
 8518TIP3    H225512   2.275   2.056   0.063
 8519TIP3   OH225513   5.172   1.644   6.083
 8519TIP3    H125514   5.260   1.647   6.121
 8519TIP3    H225515   5.114   1.654   6.158
 8520TIP3   OH225516   4.698   7.743   2.053
 8520TIP3    H125517   4.641   7.795   1.997
 8520TIP3    H225518   4.659   7.656   2.054
 8521TIP3   OH225519   6.530   2.039   5.387
 8521TIP3    H125520   6.601   1.985   5.351
 8521TIP3    H225521   6.485   1.981   5.449
 8522TIP3   OH225522   1.985   6.786   4.379
 8522TIP3    H125523   2.074   6.807   4.351
 8522TIP3    H225524   1.982   6.813   4.471
 8523TIP3   OH225525   2.886   1.688   0.379
 8523TIP3    H125526   2.970   1.727   0.354
 8523TIP3    H225527   2.910   1.606   0.422
 8524TIP3   OH225528   3.381   0.427   1.774
 8524TIP3    H125529   3.392   0.342   1.816
 8524TIP3    H225530   3.315   0.472   1.827
 8525TIP3   OH225531   4.880   5.330   4.960
 8525TIP3    H125532   4.853   5.352   4.871
 8525TIP3    H225533   4.971   5.301   4.951
 8526TIP3   OH225534   6.576   3.271   2.940
 8526TIP3    H125535   6.532   3.341   2.892
 8526TIP3    H225536   6.519   3.195   2.929
 8527TIP3   OH225537   6.288   5.667   5.439
 8527TIP3    H125538   6.223   5.723   5.482
 8527TIP3    H225539   6.311   5.601   5.505
 8528TIP3   OH225540   7.573   3.418   6.607
 8528TIP3    H125541   7.488   3.409   6.564
 8528TIP3    H225542   7.635   3.377   6.546
 8529TIP3   OH225543   2.617   5.493   6.143
 8529TIP3    H125544   2.673   5.415   6.146
 8529TIP3    H225545   2.566   5.490   6.224
 8530TIP3   OH225546   6.096   0.174   1.492
 8530TIP3    H125547   6.160   0.167   1.562
 8530TIP3    H225548   6.073   0.267   1.489
 8531TIP3   OH225549   4.101   6.478   1.365
 8531TIP3    H125550   4.058   6.492   1.281
 8531TIP3    H225551   4.192   6.460   1.343
 8532TIP3   OH225552   7.440   4.705   2.432
 8532TIP3    H125553   7.464   4.797   2.438
 8532TIP3    H225554   7.354   4.701   2.475
 8533TIP3   OH225555   7.542   3.247   1.846
 8533TIP3    H125556   7.527   3.251   1.751
 8533TIP3    H225557   7.537   3.338   1.875
 8534TIP3   OH225558   5.389   3.101   4.582
 8534TIP3    H125559   5.301   3.097   4.546
 8534TIP3    H225560   5.439   3.040   4.528
 8535TIP3   OH225561   0.787   5.456   6.015
 8535TIP3    H125562   0.749   5.544   6.013
 8535TIP3    H225563   0.744   5.410   5.942
 8536TIP3   OH225564   6.239   7.372   4.280
 8536TIP3    H125565   6.154   7.337   4.308
 8536TIP3    H225566   6.219   7.460   4.247
 8537TIP3   OH225567   6.175   3.622   5.204
 8537TIP3    H125568   6.144   3.574   5.280
 8537TIP3    H225569   6.133   3.580   5.129
 8538TIP3   OH225570   1.856   3.288   4.241
 8538TIP3    H125571   1.872   3.198   4.269
 8538TIP3    H225572   1.783   3.282   4.180
 8539TIP3   OH225573   3.283   2.314   2.887
 8539TIP3    H125574   3.252   2.396   2.925
 8539TIP3    H225575   3.376   2.311   2.908
 8540TIP3   OH225576   1.990   2.550   4.811
 8540TIP3    H125577   1.979   2.476   4.751
 8540TIP3    H225578   2.085   2.563   4.815
 8541TIP3   OH225579   5.455   2.545   1.282
 8541TIP3    H125580   5.462   2.519   1.373
 8541TIP3    H225581   5.479   2.638   1.281
 8542TIP3   OH225582   7.647   7.040   2.708
 8542TIP3    H125583   7.709   7.076   2.772
 8542TIP3    H225584   7.687   6.957   2.682
 8543TIP3   OH225585   6.158   4.617   6.666
 8543TIP3    H125586   6.066   4.596   6.650
 8543TIP3    H225587   6.194   4.636   6.580
 8544TIP3   OH225588   0.059   2.873   4.694
 8544TIP3    H125589   0.141   2.829   4.716
 8544TIP3    H225590  -0.002   2.847   4.763
 8545TIP3   OH225591   3.894   3.302   2.632
 8545TIP3    H125592   3.888   3.213   2.598
 8545TIP3    H225593   3.803   3.327   2.651
 8546TIP3   OH225594   8.222   2.057   3.826
 8546TIP3    H125595   8.240   2.070   3.733
 8546TIP3    H225596   8.261   1.972   3.846
 8547TIP3   OH225597   3.682   4.659   4.133
 8547TIP3    H125598   3.615   4.603   4.173
 8547TIP3    H225599   3.663   4.655   4.039
 8548TIP3   OH225600   0.894   3.380   2.038
 8548TIP3    H125601   0.822   3.319   2.050
 8548TIP3    H225602   0.859   3.464   2.069
 8549TIP3   OH225603   1.869   2.511   3.532
 8549TIP3    H125604   1.904   2.599   3.516
 8549TIP3    H225605   1.775   2.524   3.540
 8550TIP3   OH225606   5.613   3.740   5.068
 8550TIP3    H125607   5.610   3.651   5.032
 8550TIP3    H225608   5.584   3.796   4.996
 8551TIP3   OH225609   3.706   2.187   4.997
 8551TIP3    H125610   3.758   2.119   5.040
 8551TIP3    H225611   3.771   2.248   4.962
 8552TIP3   OH225612   4.159   2.798   3.790
 8552TIP3    H125613   4.210   2.793   3.709
 8552TIP3    H225614   4.217   2.841   3.853
 8553TIP3   OH225615   2.787   6.081   5.171
 8553TIP3    H125616   2.707   6.128   5.194
 8553TIP3    H225617   2.772   5.992   5.203
 8554TIP3   OH225618   7.713   2.165   0.252
 8554TIP3    H125619   7.791   2.112   0.269
 8554TIP3    H225620   7.672   2.177   0.338
 8555TIP3   OH225621   3.482   0.572   5.007
 8555TIP3    H125622   3.387   0.575   5.021
 8555TIP3    H225623   3.511   0.496   5.057
 8556TIP3   OH225624   1.460   2.339   1.224
 8556TIP3    H125625   1.532   2.355   1.286
 8556TIP3    H225626   1.388   2.391   1.259
 8557TIP3   OH225627   1.422   6.861   5.842
 8557TIP3    H125628   1.362   6.791   5.869
 8557TIP3    H225629   1.377   6.904   5.770
 8558TIP3   OH225630   4.747   4.252   5.963
 8558TIP3    H125631   4.704   4.307   5.897
 8558TIP3    H225632   4.835   4.238   5.929
 8559TIP3   OH225633   0.350   0.222   3.877
 8559TIP3    H125634   0.282   0.226   3.809
 8559TIP3    H225635   0.325   0.290   3.940
 8560TIP3   OH225636   0.708   3.283   3.410
 8560TIP3    H125637   0.741   3.194   3.422
 8560TIP3    H225638   0.659   3.279   3.328
 8561TIP3   OH225639   4.799   5.792   1.268
 8561TIP3    H125640   4.775   5.771   1.178
 8561TIP3    H225641   4.813   5.886   1.268
 8562TIP3   OH225642   7.688   3.869   3.818
 8562TIP3    H125643   7.776   3.905   3.823
 8562TIP3    H225644   7.700   3.784   3.775
 8563TIP3   OH225645   7.070   0.434   5.005
 8563TIP3    H125646   7.071   0.416   4.911
 8563TIP3    H225647   7.127   0.510   5.016
 8564TIP3   OH225648   0.553   7.373   1.745
 8564TIP3    H125649   0.631   7.356   1.798
 8564TIP3    H225650   0.573   7.454   1.698
 8565TIP3   OH225651   7.291   5.749   1.394
 8565TIP3    H125652   7.266   5.842   1.393
 8565TIP3    H225653   7.221   5.706   1.443
 8566TIP3   OH225654   0.838   5.115   5.213
 8566TIP3    H125655   0.920   5.071   5.190
 8566TIP3    H225656   0.778   5.092   5.143
 8567TIP3   OH225657   4.548   3.577   4.052
 8567TIP3    H125658   4.639   3.563   4.078
 8567TIP3    H225659   4.499   3.514   4.105
 8568TIP3   OH225660   4.280   4.008   0.456
 8568TIP3    H125661   4.263   3.945   0.385
 8568TIP3    H225662   4.200   4.006   0.508
 8569TIP3   OH225663   1.289   6.334   6.327
 8569TIP3    H125664   1.300   6.239   6.330
 8569TIP3    H225665   1.309   6.364   6.415
 8570TIP3   OH225666   1.939   5.023   2.451
 8570TIP3    H125667   2.028   5.056   2.437
 8570TIP3    H225668   1.922   4.967   2.374
 8571TIP3   OH225669   5.255   5.165   3.018
 8571TIP3    H125670   5.229   5.235   3.077
 8571TIP3    H225671   5.342   5.191   2.986
 8572TIP3   OH225672   3.760   1.303   6.344
 8572TIP3    H125673   3.789   1.345   6.426
 8572TIP3    H225674   3.758   1.210   6.364
 8573TIP3   OH225675   4.331   7.006   5.986
 8573TIP3    H125676   4.393   7.060   5.938
 8573TIP3    H225677   4.341   6.918   5.949
 8574TIP3   OH225678   7.352   6.215   3.487
 8574TIP3    H125679   7.331   6.273   3.560
 8574TIP3    H225680   7.445   6.230   3.470
 8575TIP3   OH225681   3.693   1.668   4.808
 8575TIP3    H125682   3.620   1.629   4.759
 8575TIP3    H225683   3.712   1.604   4.876
 8576TIP3   OH225684   1.786   3.305   3.756
 8576TIP3    H125685   1.871   3.267   3.779
 8576TIP3    H225686   1.803   3.398   3.747
 8577TIP3   OH225687   4.069   0.814   2.563
 8577TIP3    H125688   4.077   0.753   2.636
 8577TIP3    H225689   4.135   0.784   2.500
 8578TIP3   OH225690   3.985   1.786   3.187
 8578TIP3    H125691   3.965   1.828   3.103
 8578TIP3    H225692   4.048   1.717   3.165
 8579TIP3   OH225693   6.082   2.185   5.808
 8579TIP3    H125694   5.988   2.164   5.800
 8579TIP3    H225695   6.121   2.148   5.729
 8580TIP3   OH225696   0.703   7.205   6.456
 8580TIP3    H125697   0.637   7.174   6.394
 8580TIP3    H225698   0.777   7.231   6.401
 8581TIP3   OH225699   6.793   5.286   1.431
 8581TIP3    H125700   6.856   5.358   1.422
 8581TIP3    H225701   6.734   5.315   1.500
 8582TIP3   OH225702   1.141   3.925   3.565
 8582TIP3    H125703   1.104   3.975   3.493
 8582TIP3    H225704   1.228   3.899   3.534
 8583TIP3   OH225705   1.051   3.358   4.918
 8583TIP3    H125706   1.091   3.421   4.859
 8583TIP3    H225707   1.113   3.285   4.923
 8584TIP3   OH225708   0.421   3.081   6.153
 8584TIP3    H125709   0.403   3.174   6.166
 8584TIP3    H225710   0.516   3.076   6.140
 8585TIP3   OH225711   2.265   5.842   0.525
 8585TIP3    H125712   2.246   5.935   0.516
 8585TIP3    H225713   2.260   5.808   0.435
 8586TIP3   OH225714   6.236   3.901   4.220
 8586TIP3    H125715   6.275   3.883   4.135
 8586TIP3    H225716   6.294   3.856   4.282
 8587TIP3   OH225717   2.203   1.661   0.412
 8587TIP3    H125718   2.244   1.647   0.326
 8587TIP3    H225719   2.268   1.711   0.461
 8588TIP3   OH225720   4.542   3.949   0.467
 8588TIP3    H125721   4.447   3.961   0.473
 8588TIP3    H225722   4.570   3.934   0.557
 8589TIP3   OH225723   7.921   1.545   0.432
 8589TIP3    H125724   8.001   1.572   0.478
 8589TIP3    H225725   7.953   1.508   0.349
 8590TIP3   OH225726   1.105   0.427   2.236
 8590TIP3    H125727   1.014   0.405   2.255
 8590TIP3    H225728   1.140   0.458   2.320
 8591TIP3   OH225729   1.110   1.197   3.751
 8591TIP3    H125730   1.133   1.279   3.795
 8591TIP3    H225731   1.124   1.214   3.658
 8592TIP3   OH225732   7.986   5.373   0.200
 8592TIP3    H125733   8.071   5.392   0.239
 8592TIP3    H225734   7.944   5.459   0.191
 8593TIP3   OH225735   3.231   5.375   0.807
 8593TIP3    H125736   3.279   5.361   0.889
 8593TIP3    H225737   3.180   5.295   0.796
 8594TIP3   OH225738   5.562   3.277   4.071
 8594TIP3    H125739   5.475   3.318   4.080
 8594TIP3    H225740   5.546   3.197   4.022
 8595TIP3   OH225741   7.278   6.579   4.384
 8595TIP3    H125742   7.214   6.648   4.369
 8595TIP3    H225743   7.338   6.615   4.449
 8596TIP3   OH225744   7.253   3.225   1.309
 8596TIP3    H125745   7.199   3.240   1.386
 8596TIP3    H225746   7.274   3.312   1.276
 8597TIP3   OH225747   5.010   5.207   3.687
 8597TIP3    H125748   5.086   5.265   3.681
 8597TIP3    H225749   5.021   5.162   3.771
 8598TIP3   OH225750   0.568   7.095   0.599
 8598TIP3    H125751   0.549   7.186   0.580
 8598TIP3    H225752   0.529   7.079   0.685
 8599TIP3   OH225753   2.630   3.325   1.787
 8599TIP3    H125754   2.671   3.409   1.806
 8599TIP3    H225755   2.576   3.307   1.864
 8600TIP3   OH225756   3.227   0.397   6.688
 8600TIP3    H125757   3.227   0.474   6.632
 8600TIP3    H225758   3.255   0.429   6.774
 8601TIP3   OH225759   5.248   5.422   1.743
 8601TIP3    H125760   5.195   5.383   1.813
 8601TIP3    H225761   5.193   5.492   1.707
 8602TIP3   OH225762   6.061   0.605   1.738
 8602TIP3    H125763   6.115   0.676   1.773
 8602TIP3    H225764   6.080   0.530   1.794
 8603TIP3   OH225765   4.786   0.918   6.578
 8603TIP3    H125766   4.776   0.866   6.499
 8603TIP3    H225767   4.841   0.992   6.551
 8604TIP3   OH225768   4.737   1.911   0.877
 8604TIP3    H125769   4.769   1.822   0.866
 8604TIP3    H225770   4.752   1.932   0.969
 8605TIP3   OH225771   2.297   0.030   0.339
 8605TIP3    H125772   2.363   0.097   0.359
 8605TIP3    H225773   2.327  -0.047   0.387
 8606TIP3   OH225774   3.309   4.853   0.761
 8606TIP3    H125775   3.217   4.877   0.762
 8606TIP3    H225776   3.320   4.800   0.681
 8607TIP3   OH225777   4.035   3.701   4.156
 8607TIP3    H125778   3.944   3.680   4.136
 8607TIP3    H225779   4.075   3.720   4.070
 8608TIP3   OH225780   0.638   0.520   5.151
 8608TIP3    H125781   0.619   0.609   5.121
 8608TIP3    H225782   0.642   0.468   5.070
 8609TIP3   OH225783   7.806   7.454   4.325
 8609TIP3    H125784   7.873   7.502   4.374
 8609TIP3    H225785   7.824   7.362   4.345
 8610TIP3   OH225786   6.438   3.431   4.954
 8610TIP3    H125787   6.471   3.487   4.884
 8610TIP3    H225788   6.503   3.440   5.024
 8611TIP3   OH225789   5.717   1.043   3.992
 8611TIP3    H125790   5.681   1.086   4.069
 8611TIP3    H225791   5.710   0.949   4.011
 8612TIP3   OH225792   6.353   2.226   2.888
 8612TIP3    H125793   6.282   2.250   2.947
 8612TIP3    H225794   6.338   2.133   2.869
 8613TIP3   OH225795   6.538   3.238   4.783
 8613TIP3    H125796   6.465   3.202   4.733
 8613TIP3    H225797   6.502   3.317   4.824
 8614TIP3   OH225798   5.489   3.928   4.623
 8614TIP3    H125799   5.447   3.849   4.589
 8614TIP3    H225800   5.582   3.905   4.628
 8615TIP3   OH225801   3.515   1.021   2.779
 8615TIP3    H125802   3.448   0.981   2.724
 8615TIP3    H225803   3.583   1.050   2.718
 8616TIP3   OH225804   0.322   7.675   3.915
 8616TIP3    H125805   0.410   7.643   3.893
 8616TIP3    H225806   0.304   7.638   4.001
 8617TIP3   OH225807   1.536   7.547   2.974
 8617TIP3    H125808   1.451   7.513   2.949
 8617TIP3    H225809   1.573   7.481   3.032
 8618TIP3   OH225810   2.154   5.931   1.164
 8618TIP3    H125811   2.217   5.942   1.235
 8618TIP3    H225812   2.199   5.876   1.100
 8619TIP3   OH225813   2.336   0.637   3.054
 8619TIP3    H125814   2.416   0.625   3.003
 8619TIP3    H225815   2.267   0.652   2.989
 8620TIP3   OH225816   8.072   2.307   6.352
 8620TIP3    H125817   8.036   2.282   6.438
 8620TIP3    H225818   8.093   2.400   6.360
 8621TIP3   OH225819   4.551   5.535   1.879
 8621TIP3    H125820   4.472   5.577   1.912
 8621TIP3    H225821   4.569   5.465   1.942
 8622TIP3   OH225822   6.854   7.507   3.880
 8622TIP3    H125823   6.941   7.496   3.918
 8622TIP3    H225824   6.795   7.475   3.948
 8623TIP3   OH225825   6.582   4.883   3.388
 8623TIP3    H125826   6.591   4.967   3.342
 8623TIP3    H225827   6.661   4.877   3.442
 8624TIP3   OH225828   1.363   2.228   2.830
 8624TIP3    H125829   1.428   2.160   2.844
 8624TIP3    H225830   1.372   2.251   2.737
 8625TIP3   OH225831   4.434   1.820   0.056
 8625TIP3    H125832   4.518   1.861   0.076
 8625TIP3    H225833   4.381   1.834   0.134
 8626TIP3   OH225834   2.542   6.602   2.781
 8626TIP3    H125835   2.592   6.680   2.806
 8626TIP3    H225836   2.559   6.591   2.687
 8627TIP3   OH225837   4.348   5.673   1.944
 8627TIP3    H125838   4.349   5.650   2.037
 8627TIP3    H225839   4.261   5.712   1.930
 8628TIP3   OH225840   4.442   5.531   6.264
 8628TIP3    H125841   4.534   5.534   6.291
 8628TIP3    H225842   4.405   5.457   6.312
 8629TIP3   OH225843   1.009   4.034   2.643
 8629TIP3    H125844   1.023   4.016   2.550
 8629TIP3    H225845   0.959   4.116   2.644
 8630TIP3   OH225846   3.781   3.904   1.195
 8630TIP3    H125847   3.762   3.881   1.286
 8630TIP3    H225848   3.763   3.824   1.146
 8631TIP3   OH225849   1.035   2.176   5.369
 8631TIP3    H125850   1.001   2.109   5.428
 8631TIP3    H225851   1.101   2.222   5.420
 8632TIP3   OH225852   6.452   0.844   6.202
 8632TIP3    H125853   6.519   0.777   6.212
 8632TIP3    H225854   6.423   0.836   6.111
 8633TIP3   OH225855   8.058   6.592   5.287
 8633TIP3    H125856   7.987   6.569   5.227
 8633TIP3    H225857   8.120   6.518   5.279
 8634TIP3   OH225858   6.365   1.593   1.293
 8634TIP3    H125859   6.393   1.503   1.310
 8634TIP3    H225860   6.425   1.647   1.344
 8635TIP3   OH225861   7.281   5.005   2.229
 8635TIP3    H125862   7.345   4.942   2.197
 8635TIP3    H225863   7.327   5.089   2.228
 8636TIP3   OH225864   4.195   3.325   4.690
 8636TIP3    H125865   4.110   3.312   4.649
 8636TIP3    H225866   4.258   3.314   4.619
 8637TIP3   OH225867   3.941   4.684   1.997
 8637TIP3    H125868   3.945   4.773   1.963
 8637TIP3    H225869   3.855   4.677   2.038
 8638TIP3   OH225870   0.095   2.370   1.025
 8638TIP3    H125871   0.132   2.335   1.106
 8638TIP3    H225872   0.104   2.465   1.033
 8639TIP3   OH225873   3.193   2.014   2.588
 8639TIP3    H125874   3.208   2.076   2.517
 8639TIP3    H225875   3.179   2.068   2.666
 8640TIP3   OH225876   2.962   5.661   6.053
 8640TIP3    H125877   2.999   5.590   6.000
 8640TIP3    H225878   2.959   5.626   6.142
 8641TIP3   OH225879   1.235   3.367   3.038
 8641TIP3    H125880   1.280   3.283   3.027
 8641TIP3    H225881   1.195   3.383   2.952
 8642TIP3   OH225882   4.871   6.601   0.584
 8642TIP3    H125883   4.850   6.663   0.654
 8642TIP3    H225884   4.964   6.581   0.597
 8643TIP3   OH225885   5.601   6.372   2.383
 8643TIP3    H125886   5.688   6.383   2.420
 8643TIP3    H225887   5.542   6.416   2.445
 8644TIP3   OH225888   3.763   4.928   2.355
 8644TIP3    H125889   3.769   4.832   2.355
 8644TIP3    H225890   3.716   4.949   2.436
 8645TIP3   OH225891   0.098   2.196   4.723
 8645TIP3    H125892   0.075   2.120   4.669
 8645TIP3    H225893   0.089   2.271   4.664
 8646TIP3   OH225894   0.686   3.159   5.470
 8646TIP3    H125895   0.765   3.120   5.433
 8646TIP3    H225896   0.627   3.085   5.483
 8647TIP3   OH225897   7.763   0.190   2.010
 8647TIP3    H125898   7.710   0.163   1.935
 8647TIP3    H225899   7.851   0.200   1.974
 8648TIP3   OH225900  -0.028   7.353   4.926
 8648TIP3    H125901  -0.044   7.398   4.843
 8648TIP3    H225902  -0.071   7.268   4.916
 8649TIP3   OH225903   4.275   3.288   3.013
 8649TIP3    H125904   4.259   3.358   3.077
 8649TIP3    H225905   4.197   3.289   2.957
 8650TIP3   OH225906   6.343   3.974   1.699
 8650TIP3    H125907   6.284   3.902   1.719
 8650TIP3    H225908   6.291   4.053   1.713
 8651TIP3   OH225909  -0.004   4.325   1.032
 8651TIP3    H125910   0.007   4.294   1.122
 8651TIP3    H225911   0.070   4.286   0.984
 8652TIP3   OH225912   1.507   6.794   4.501
 8652TIP3    H125913   1.477   6.790   4.410
 8652TIP3    H225914   1.597   6.825   4.495
 8653TIP3   OH225915   2.109   5.709   5.398
 8653TIP3    H125916   2.098   5.675   5.309
 8653TIP3    H225917   2.054   5.652   5.452
 8654TIP3   OH225918   8.177   1.318   2.649
 8654TIP3    H125919   8.084   1.335   2.637
 8654TIP3    H225920   8.209   1.294   2.562
 8655TIP3   OH225921   1.235   3.055   5.233
 8655TIP3    H125922   1.262   2.966   5.255
 8655TIP3    H225923   1.257   3.108   5.310
 8656TIP3   OH225924   6.039   7.314   2.532
 8656TIP3    H125925   5.978   7.295   2.461
 8656TIP3    H225926   6.125   7.317   2.491
 8657TIP3   OH225927   0.653   6.291   3.105
 8657TIP3    H125928   0.613   6.300   3.191
 8657TIP3    H225929   0.600   6.346   3.047
 8658TIP3   OH225930   7.759   4.163   4.238
 8658TIP3    H125931   7.791   4.252   4.248
 8658TIP3    H225932   7.664   4.173   4.229
 8659TIP3   OH225933   2.544   3.347   3.823
 8659TIP3    H125934   2.542   3.385   3.910
 8659TIP3    H225935   2.515   3.417   3.765
 8660TIP3   OH225936   5.010   6.808   2.162
 8660TIP3    H125937   5.008   6.735   2.100
 8660TIP3    H225938   5.019   6.766   2.248
 8661TIP3   OH225939   4.845   1.657   4.058
 8661TIP3    H125940   4.847   1.700   4.143
 8661TIP3    H225941   4.934   1.666   4.024
 8662TIP3   OH225942   0.921   5.241   6.473
 8662TIP3    H125943   0.835   5.282   6.472
 8662TIP3    H225944   0.917   5.175   6.404
 8663TIP3   OH225945  -0.013   0.139   5.951
 8663TIP3    H125946  -0.018   0.045   5.938
 8663TIP3    H225947   0.053   0.169   5.888
 8664TIP3   OH225948   2.566   0.936   3.566
 8664TIP3    H125949   2.482   0.896   3.542
 8664TIP3    H225950   2.631   0.885   3.518
 8665TIP3   OH225951   6.861   2.981   5.126
 8665TIP3    H125952   6.884   2.895   5.160
 8665TIP3    H225953   6.781   3.005   5.173
 8666TIP3   OH225954   5.584   4.310   4.377
 8666TIP3    H125955   5.491   4.305   4.354
 8666TIP3    H225956   5.601   4.403   4.390
 8667TIP3   OH225957   7.111   4.095   3.417
 8667TIP3    H125958   7.152   4.009   3.417
 8667TIP3    H225959   7.046   4.091   3.347
 8668TIP3   OH225960   3.685   0.103   0.796
 8668TIP3    H125961   3.597   0.075   0.821
 8668TIP3    H225962   3.700   0.183   0.845
 8669TIP3   OH225963   7.621   0.234   3.225
 8669TIP3    H125964   7.538   0.228   3.178
 8669TIP3    H225965   7.646   0.143   3.241
 8670TIP3   OH225966   1.289   6.407   5.733
 8670TIP3    H125967   1.361   6.435   5.676
 8670TIP3    H225968   1.292   6.311   5.729
 8671TIP3   OH225969   5.569   0.295   5.154
 8671TIP3    H125970   5.598   0.233   5.088
 8671TIP3    H225971   5.630   0.368   5.149
 8672TIP3   OH225972   2.181   5.824   3.290
 8672TIP3    H125973   2.215   5.890   3.229
 8672TIP3    H225974   2.183   5.742   3.240
 8673TIP3   OH225975   5.996   5.357   5.857
 8673TIP3    H125976   5.954   5.382   5.939
 8673TIP3    H225977   6.032   5.439   5.822
 8674TIP3   OH225978   8.060   2.475   1.706
 8674TIP3    H125979   8.033   2.482   1.797
 8674TIP3    H225980   7.999   2.411   1.668
 8675TIP3   OH225981   4.515   0.688   1.653
 8675TIP3    H125982   4.554   0.770   1.625
 8675TIP3    H225983   4.469   0.709   1.734
 8676TIP3   OH225984   0.615   7.270   0.347
 8676TIP3    H125985   0.672   7.212   0.397
 8676TIP3    H225986   0.637   7.254   0.256
 8677TIP3   OH225987   2.251   5.591   3.164
 8677TIP3    H125988   2.271   5.504   3.198
 8677TIP3    H225989   2.317   5.606   3.096
 8678TIP3   OH225990   4.202   5.879   0.882
 8678TIP3    H125991   4.183   5.787   0.862
 8678TIP3    H225992   4.281   5.877   0.935
 8679TIP3   OH225993   1.154   2.760   3.214
 8679TIP3    H125994   1.211   2.720   3.280
 8679TIP3    H225995   1.164   2.705   3.137
 8680TIP3   OH225996   0.529   2.272   6.076
 8680TIP3    H125997   0.440   2.279   6.043
 8680TIP3    H225998   0.524   2.205   6.145
 8681TIP3   OH225999   1.008   7.062   3.636
 8681TIP3    H126000   1.079   7.095   3.581
 8681TIP3    H226001   0.980   7.138   3.687
 8682TIP3   OH226002   7.283   2.810   1.747
 8682TIP3    H126003   7.235   2.763   1.678
 8682TIP3    H226004   7.352   2.749   1.774
 8683TIP3   OH226005   1.367   3.088   2.018
 8683TIP3    H126006   1.319   3.073   1.936
 8683TIP3    H226007   1.422   3.164   1.999
 8684TIP3   OH226008   7.337   5.262   5.197
 8684TIP3    H126009   7.428   5.289   5.187
 8684TIP3    H226010   7.290   5.313   5.131
 8685TIP3   OH226011   1.712   6.260   5.998
 8685TIP3    H126012   1.729   6.230   6.087
 8685TIP3    H226013   1.618   6.276   5.995
 8686TIP3   OH226014   3.450   1.094   1.009
 8686TIP3    H126015   3.359   1.077   0.986
 8686TIP3    H226016   3.459   1.062   1.099
 8687TIP3   OH226017   1.044   4.564   1.990
 8687TIP3    H126018   1.135   4.592   1.982
 8687TIP3    H226019   1.016   4.594   2.076
 8688TIP3   OH226020   5.218   4.039   1.195
 8688TIP3    H126021   5.248   4.017   1.283
 8688TIP3    H226022   5.299   4.052   1.145
 8689TIP3   OH226023   0.688   2.302   0.758
 8689TIP3    H126024   0.644   2.345   0.685
 8689TIP3    H226025   0.686   2.209   0.737
 8690TIP3   OH226026   3.725   7.071   2.503
 8690TIP3    H126027   3.633   7.060   2.478
 8690TIP3    H226028   3.722   7.087   2.598
 8691TIP3   OH226029   2.565   7.596   0.312
 8691TIP3    H126030   2.574   7.517   0.364
 8691TIP3    H226031   2.627   7.585   0.240
 8692TIP3   OH226032   3.616   0.554   2.398
 8692TIP3    H126033   3.534   0.600   2.380
 8692TIP3    H226034   3.650   0.529   2.312
 8693TIP3   OH226035   7.816   7.777   4.961
 8693TIP3    H126036   7.746   7.732   5.009
 8693TIP3    H226037   7.775   7.803   4.879
 8694TIP3   OH226038   1.663   6.204   0.850
 8694TIP3    H126039   1.716   6.138   0.895
 8694TIP3    H226040   1.725   6.270   0.822
 8695TIP3   OH226041   5.876   1.058   2.242
 8695TIP3    H126042   5.866   1.056   2.337
 8695TIP3    H226043   5.955   1.007   2.224
 8696TIP3   OH226044   8.055   6.605   0.838
 8696TIP3    H126045   8.040   6.651   0.921
 8696TIP3    H226046   8.074   6.514   0.864
 8697TIP3   OH226047   0.943   3.624   2.517
 8697TIP3    H126048   1.035   3.628   2.543
 8697TIP3    H226049   0.908   3.710   2.538
 8698TIP3   OH226050   0.917   3.314   1.035
 8698TIP3    H126051   0.885   3.360   1.113
 8698TIP3    H226052   1.012   3.318   1.042
 8699TIP3   OH226053   3.776   3.917   6.245
 8699TIP3    H126054   3.683   3.921   6.221
 8699TIP3    H226055   3.776   3.891   6.337
 8700TIP3   OH226056   4.206   5.941   5.577
 8700TIP3    H126057   4.144   5.990   5.631
 8700TIP3    H226058   4.157   5.918   5.498
 8701TIP3   OH226059   6.025   3.282   6.648
 8701TIP3    H126060   6.032   3.350   6.581
 8701TIP3    H226061   6.111   3.281   6.689
 8702TIP3   OH226062   2.265   7.352   4.156
 8702TIP3    H126063   2.241   7.431   4.108
 8702TIP3    H226064   2.214   7.282   4.114
 8703TIP3   OH226065   2.893   2.697   4.325
 8703TIP3    H126066   2.851   2.750   4.392
 8703TIP3    H226067   2.904   2.757   4.251
 8704TIP3   OH226068   1.937   3.601   5.116
 8704TIP3    H126069   2.007   3.665   5.102
 8704TIP3    H226070   1.876   3.616   5.044
 8705TIP3   OH226071   8.225   6.759   4.879
 8705TIP3    H126072   8.132   6.738   4.888
 8705TIP3    H226073   8.259   6.757   4.969
 8706TIP3   OH226074   5.378   0.802   6.290
 8706TIP3    H126075   5.437   0.736   6.326
 8706TIP3    H226076   5.433   0.880   6.278
 8707TIP3   OH226077   5.489   5.233   2.904
 8707TIP3    H126078   5.531   5.314   2.933
 8707TIP3    H226079   5.556   5.190   2.850
 8708TIP3   OH226080   7.007   3.114   0.096
 8708TIP3    H126081   6.921   3.145   0.069
 8708TIP3    H226082   7.069   3.161   0.039
 8709TIP3   OH226083   5.183   2.770   1.805
 8709TIP3    H126084   5.218   2.806   1.723
 8709TIP3    H226085   5.211   2.832   1.872
 8710TIP3   OH226086   5.373   0.748   3.845
 8710TIP3    H126087   5.449   0.691   3.858
 8710TIP3    H226088   5.409   0.827   3.804
 8711TIP3   OH226089   2.985   0.831   1.479
 8711TIP3    H126090   3.062   0.843   1.535
 8711TIP3    H226091   2.965   0.738   1.486
 8712TIP3   OH226092   6.643   0.142   5.345
 8712TIP3    H126093   6.705   0.140   5.272
 8712TIP3    H226094   6.656   0.059   5.391
 8713TIP3   OH226095   6.711   7.662   5.016
 8713TIP3    H126096   6.690   7.674   4.923
 8713TIP3    H226097   6.738   7.570   5.022
 8714TIP3   OH226098   0.049   6.741   5.120
 8714TIP3    H126099   0.133   6.784   5.107
 8714TIP3    H226100   0.071   6.654   5.153
 8715TIP3   OH226101   5.620   6.902   0.410
 8715TIP3    H126102   5.590   6.990   0.431
 8715TIP3    H226103   5.577   6.881   0.327
 8716TIP3   OH226104   2.623   3.087   6.320
 8716TIP3    H126105   2.531   3.079   6.345
 8716TIP3    H226106   2.647   3.000   6.290
 8717TIP3   OH226107   2.311   5.315   2.208
 8717TIP3    H126108   2.289   5.407   2.194
 8717TIP3    H226109   2.392   5.302   2.159
 8718TIP3   OH226110   7.066   5.911   6.600
 8718TIP3    H126111   7.149   5.958   6.598
 8718TIP3    H226112   7.028   5.933   6.685
 8719TIP3   OH226113   1.650   3.757   2.132
 8719TIP3    H126114   1.716   3.809   2.085
 8719TIP3    H226115   1.671   3.768   2.224
 8720TIP3   OH226116   3.702   1.158   1.857
 8720TIP3    H126117   3.618   1.184   1.896
 8720TIP3    H226118   3.682   1.141   1.765
 8721TIP3   OH226119   8.010   2.467   6.026
 8721TIP3    H126120   7.981   2.385   5.987
 8721TIP3    H226121   7.938   2.528   6.010
 8722TIP3   OH226122   2.412   1.648   1.552
 8722TIP3    H126123   2.317   1.651   1.544
 8722TIP3    H226124   2.439   1.740   1.554
 8723TIP3   OH226125   5.866   2.793   1.601
 8723TIP3    H126126   5.957   2.779   1.573
 8723TIP3    H226127   5.844   2.879   1.568
 8724TIP3   OH226128   7.797   5.422   5.033
 8724TIP3    H126129   7.804   5.382   4.946
 8724TIP3    H226130   7.887   5.442   5.057
 8725TIP3   OH226131   8.360   3.087   2.850
 8725TIP3    H126132   8.371   3.114   2.942
 8725TIP3    H226133   8.275   3.123   2.825
 8726TIP3   OH226134   7.195   6.567   5.855
 8726TIP3    H126135   7.204   6.517   5.935
 8726TIP3    H226136   7.201   6.659   5.882
 8727TIP3   OH226137   3.982   4.494   2.800
 8727TIP3    H126138   4.004   4.415   2.849
 8727TIP3    H226139   4.042   4.493   2.725
 8728TIP3   OH226140   7.154   1.156   6.146
 8728TIP3    H126141   7.177   1.087   6.083
 8728TIP3    H226142   7.170   1.237   6.098
 8729TIP3   OH226143   2.344   1.410   4.343
 8729TIP3    H126144   2.360   1.480   4.406
 8729TIP3    H226145   2.254   1.422   4.315
 8730TIP3   OH226146   2.435   2.968   5.891
 8730TIP3    H126147   2.349   2.997   5.860
 8730TIP3    H226148   2.416   2.918   5.971
 8731TIP3   OH226149   2.483   4.151   5.781
 8731TIP3    H126150   2.396   4.126   5.751
 8731TIP3    H226151   2.543   4.096   5.732
 8732TIP3   OH226152   4.148   4.997   5.573
 8732TIP3    H126153   4.060   4.960   5.582
 8732TIP3    H226154   4.135   5.091   5.582
 8733TIP3   OH226155   7.729   2.408   6.610
 8733TIP3    H126156   7.768   2.408   6.698
 8733TIP3    H226157   7.775   2.478   6.563
 8734TIP3   OH226158   6.648   7.511   4.090
 8734TIP3    H126159   6.581   7.444   4.102
 8734TIP3    H226160   6.702   7.505   4.169
 8735TIP3   OH226161   2.696   1.761   4.315
 8735TIP3    H126162   2.740   1.715   4.244
 8735TIP3    H226163   2.668   1.692   4.374
 8736TIP3   OH226164   1.120   0.995   6.387
 8736TIP3    H126165   1.152   0.913   6.348
 8736TIP3    H226166   1.179   1.011   6.461
 8737TIP3   OH226167   7.219   0.835   2.094
 8737TIP3    H126168   7.138   0.878   2.122
 8737TIP3    H226169   7.210   0.828   1.998
 8738TIP3   OH226170   8.207   5.542   2.663
 8738TIP3    H126171   8.118   5.513   2.644
 8738TIP3    H226172   8.211   5.549   2.758
 8739TIP3   OH226173   2.881   6.732   2.885
 8739TIP3    H126174   2.839   6.683   2.815
 8739TIP3    H226175   2.889   6.821   2.851
 8740TIP3   OH226176   1.225   0.034   4.378
 8740TIP3    H126177   1.319   0.026   4.365
 8740TIP3    H226178   1.214   0.041   4.473
 8741TIP3   OH226179   3.664   3.082   1.236
 8741TIP3    H126180   3.640   3.024   1.163
 8741TIP3    H226181   3.670   3.024   1.311
 8742TIP3   OH226182   5.098   4.672   5.788
 8742TIP3    H126183   5.161   4.708   5.849
 8742TIP3    H226184   5.018   4.661   5.840
 8743TIP3   OH226185   7.509   2.154   2.039
 8743TIP3    H126186   7.414   2.142   2.035
 8743TIP3    H226187   7.541   2.074   2.079
 8744TIP3   OH226188   6.358   1.264   6.756
 8744TIP3    H126189   6.424   1.313   6.805
 8744TIP3    H226190   6.409   1.208   6.697
 8745TIP3   OH226191   6.672   1.053   3.541
 8745TIP3    H126192   6.683   1.068   3.447
 8745TIP3    H226193   6.610   0.980   3.547
 8746TIP3   OH226194   0.892   1.975   4.763
 8746TIP3    H126195   0.831   1.936   4.701
 8746TIP3    H226196   0.905   2.064   4.730
 8747TIP3   OH226197   3.172   5.781   3.031
 8747TIP3    H126198   3.168   5.856   2.971
 8747TIP3    H226199   3.146   5.816   3.116
 8748TIP3   OH226200   3.071   1.905   0.907
 8748TIP3    H126201   3.037   1.836   0.851
 8748TIP3    H226202   3.158   1.924   0.872
 8749TIP3   OH226203   6.853   0.397   4.665
 8749TIP3    H126204   6.922   0.388   4.732
 8749TIP3    H226205   6.781   0.343   4.698
 8750TIP3   OH226206   1.266   0.909   0.365
 8750TIP3    H126207   1.232   0.821   0.383
 8750TIP3    H226208   1.192   0.955   0.325
 8751TIP3   OH226209   6.897   4.598   4.389
 8751TIP3    H126210   6.976   4.545   4.397
 8751TIP3    H226211   6.902   4.636   4.301
 8752TIP3   OH226212   5.258   2.841   4.322
 8752TIP3    H126213   5.206   2.921   4.330
 8752TIP3    H226214   5.284   2.821   4.411
 8753TIP3   OH226215   0.485   3.660   3.599
 8753TIP3    H126216   0.400   3.631   3.633
 8753TIP3    H226217   0.470   3.750   3.570
 8754TIP3   OH226218   6.471   1.508   1.765
 8754TIP3    H126219   6.468   1.591   1.813
 8754TIP3    H226220   6.481   1.441   1.833
 8755TIP3   OH226221   3.876   3.992   0.420
 8755TIP3    H126222   3.900   3.939   0.496
 8755TIP3    H226223   3.853   3.928   0.352
 8756TIP3   OH226224   3.966   6.429   6.562
 8756TIP3    H126225   4.026   6.356   6.578
 8756TIP3    H226226   3.925   6.445   6.647
 8757TIP3   OH226227   3.161   3.912   5.870
 8757TIP3    H126228   3.182   3.969   5.944
 8757TIP3    H226229   3.097   3.962   5.819
 8758TIP3   OH226230   1.165   2.770   0.469
 8758TIP3    H126231   1.154   2.809   0.556
 8758TIP3    H226232   1.089   2.712   0.459
 8759TIP3   OH226233   3.418   0.109   0.901
 8759TIP3    H126234   3.336   0.076   0.864
 8759TIP3    H226235   3.443   0.043   0.966
 8760TIP3   OH226236   2.164   4.378   2.072
 8760TIP3    H126237   2.247   4.396   2.117
 8760TIP3    H226238   2.144   4.460   2.026
 8761TIP3   OH226239   3.499   1.551   5.910
 8761TIP3    H126240   3.487   1.596   5.994
 8761TIP3    H226241   3.583   1.584   5.877
 8762TIP3   OH226242   7.155   2.324   0.221
 8762TIP3    H126243   7.116   2.249   0.266
 8762TIP3    H226244   7.226   2.351   0.279
 8763TIP3   OH226245   0.329   7.720   0.396
 8763TIP3    H126246   0.399   7.740   0.333
 8763TIP3    H226247   0.273   7.657   0.350
 8764TIP3   OH226248   5.274   0.737   0.808
 8764TIP3    H126249   5.227   0.709   0.886
 8764TIP3    H226250   5.279   0.833   0.815
 8765TIP3   OH226251   2.350   2.215   2.641
 8765TIP3    H126252   2.271   2.249   2.682
 8765TIP3    H226253   2.388   2.157   2.707
 8766TIP3   OH226254   7.095   2.955   1.411
 8766TIP3    H126255   7.028   2.939   1.345
 8766TIP3    H226256   7.175   2.968   1.361
 8767TIP3   OH226257   0.994   4.253   1.484
 8767TIP3    H126258   1.065   4.189   1.478
 8767TIP3    H226259   0.927   4.209   1.537
 8768TIP3   OH226260   4.093   4.998   3.777
 8768TIP3    H126261   4.165   4.955   3.732
 8768TIP3    H226262   4.135   5.060   3.836
 8769TIP3   OH226263   1.386   5.179   2.527
 8769TIP3    H126264   1.356   5.097   2.488
 8769TIP3    H226265   1.429   5.153   2.609
 8770TIP3   OH226266   0.848   3.000   0.047
 8770TIP3    H126267   0.855   3.095   0.054
 8770TIP3    H226268   0.808   2.972   0.130
 8771TIP3   OH226269   4.882   1.028   2.943
 8771TIP3    H126270   4.819   1.022   3.015
 8771TIP3    H226271   4.828   1.024   2.864
 8772TIP3   OH226272   4.063   0.942   6.098
 8772TIP3    H126273   4.052   0.970   6.189
 8772TIP3    H226274   4.038   1.018   6.046
 8773TIP3   OH226275   1.598   4.400   1.298
 8773TIP3    H126276   1.504   4.399   1.284
 8773TIP3    H226277   1.635   4.431   1.215
 8774TIP3   OH226278   1.751   3.927   3.154
 8774TIP3    H126279   1.673   3.976   3.127
 8774TIP3    H226280   1.822   3.966   3.103
 8775TIP3   OH226281   5.057   5.349   2.488
 8775TIP3    H126282   5.061   5.254   2.495
 8775TIP3    H226283   5.055   5.367   2.395
 8776TIP3   OH226284   3.224   1.604   2.940
 8776TIP3    H126285   3.173   1.523   2.931
 8776TIP3    H226286   3.227   1.640   2.852
 8777TIP3   OH226287   4.634   3.529   1.196
 8777TIP3    H126288   4.680   3.608   1.169
 8777TIP3    H226289   4.603   3.491   1.114
 8778TIP3   OH226290   5.733   0.443   6.434
 8778TIP3    H126291   5.726   0.494   6.515
 8778TIP3    H226292   5.743   0.508   6.365
 8779TIP3   OH226293   6.459   4.387   0.548
 8779TIP3    H126294   6.370   4.359   0.527
 8779TIP3    H226295   6.510   4.306   0.550
 8780TIP3   OH226296   3.081   0.151   0.553
 8780TIP3    H126297   3.157   0.179   0.502
 8780TIP3    H226298   3.045   0.078   0.504
 8781TIP3   OH226299  -0.003   6.437   5.239
 8781TIP3    H126300   0.081   6.419   5.198
 8781TIP3    H226301  -0.067   6.430   5.168
 8782TIP3   OH226302   1.456   0.324   4.197
 8782TIP3    H126303   1.550   0.314   4.187
 8782TIP3    H226304   1.419   0.248   4.152
 8783TIP3   OH226305   7.988   2.536   2.732
 8783TIP3    H126306   8.071   2.561   2.772
 8783TIP3    H226307   7.922   2.564   2.796
 8784TIP3   OH226308   7.229   6.380   5.624
 8784TIP3    H126309   7.212   6.441   5.696
 8784TIP3    H226310   7.160   6.314   5.632
 8785TIP3   OH226311   4.522   3.682   6.633
 8785TIP3    H126312   4.615   3.690   6.652
 8785TIP3    H226313   4.518   3.618   6.561
 8786TIP3   OH226314   6.908   4.469   3.140
 8786TIP3    H126315   6.844   4.502   3.077
 8786TIP3    H226316   6.860   4.403   3.191
 8787TIP3   OH226317   5.960   7.666   6.375
 8787TIP3    H126318   5.977   7.755   6.406
 8787TIP3    H226319   5.926   7.677   6.287
 8788TIP3   OH226320   7.480   3.131   6.198
 8788TIP3    H126321   7.465   3.211   6.248
 8788TIP3    H226322   7.444   3.061   6.252
 8789TIP3   OH226323   0.708   5.319   0.209
 8789TIP3    H126324   0.699   5.252   0.278
 8789TIP3    H226325   0.696   5.271   0.127
 8790TIP3   OH226326   6.182   0.881   4.666
 8790TIP3    H126327   6.221   0.944   4.727
 8790TIP3    H226328   6.211   0.909   4.580
 8791TIP3   OH226329   6.983   2.355   3.876
 8791TIP3    H126330   6.938   2.354   3.961
 8791TIP3    H226331   7.074   2.335   3.897
 8792TIP3   OH226332   3.543   7.196   4.696
 8792TIP3    H126333   3.530   7.107   4.727
 8792TIP3    H226334   3.634   7.198   4.666
 8793TIP3   OH226335   6.983   4.797   3.888
 8793TIP3    H126336   7.013   4.883   3.859
 8793TIP3    H226337   6.901   4.783   3.841
 8794TIP3   OH226338   1.964   5.989   2.039
 8794TIP3    H126339   1.876   5.970   2.009
 8794TIP3    H226340   1.953   6.037   2.121
 8795TIP3   OH226341   1.102   3.997   4.413
 8795TIP3    H126342   1.066   3.916   4.451
 8795TIP3    H226343   1.136   4.046   4.489
 8796TIP3   OH226344   3.798   7.591   3.759
 8796TIP3    H126345   3.803   7.569   3.666
 8796TIP3    H226346   3.889   7.606   3.785
 8797TIP3   OH226347   6.361   7.161   4.758
 8797TIP3    H126348   6.319   7.242   4.788
 8797TIP3    H226349   6.292   7.113   4.713
 8798TIP3   OH226350   7.999   3.804   2.149
 8798TIP3    H126351   8.019   3.728   2.095
 8798TIP3    H226352   7.923   3.776   2.201
 8799TIP3   OH226353   7.508   6.104   2.232
 8799TIP3    H126354   7.477   6.156   2.307
 8799TIP3    H226355   7.429   6.066   2.195
 8800TIP3   OH226356   7.255   0.153   4.267
 8800TIP3    H126357   7.174   0.164   4.316
 8800TIP3    H226358   7.302   0.235   4.280
 8801TIP3   OH226359   0.142   1.555   3.865
 8801TIP3    H126360   0.211   1.619   3.887
 8801TIP3    H226361   0.175   1.472   3.900
 8802TIP3   OH226362   5.402   2.515   5.757
 8802TIP3    H126363   5.374   2.467   5.835
 8802TIP3    H226364   5.353   2.475   5.685
 8803TIP3   OH226365   0.181   4.021   0.661
 8803TIP3    H126366   0.249   3.975   0.612
 8803TIP3    H226367   0.163   3.964   0.736
 8804TIP3   OH226368   1.983   4.184   5.478
 8804TIP3    H126369   1.990   4.155   5.569
 8804TIP3    H226370   1.900   4.230   5.474
 8805TIP3   OH226371   0.931   2.471   5.573
 8805TIP3    H126372   0.875   2.493   5.647
 8805TIP3    H226373   1.016   2.451   5.612
 8806TIP3   OH226374   1.142   1.125   1.587
 8806TIP3    H126375   1.059   1.115   1.633
 8806TIP3    H226376   1.174   1.211   1.613
 8807TIP3   OH226377   4.777   0.880   5.827
 8807TIP3    H126378   4.862   0.841   5.847
 8807TIP3    H226379   4.784   0.970   5.858
 8808TIP3   OH226380   1.981   7.093   0.071
 8808TIP3    H126381   2.023   7.173   0.102
 8808TIP3    H226382   2.047   7.024   0.086
 8809TIP3   OH226383   1.951   6.083   3.433
 8809TIP3    H126384   1.875   6.137   3.454
 8809TIP3    H226385   2.013   6.143   3.392
 8810TIP3   OH226386   0.797   7.628   6.030
 8810TIP3    H126387   0.746   7.612   5.950
 8810TIP3    H226388   0.875   7.573   6.019
 8811TIP3   OH226389   4.765   7.587   2.679
 8811TIP3    H126390   4.821   7.554   2.608
 8811TIP3    H226391   4.821   7.582   2.757
 8812TIP3   OH226392   5.746   5.267   5.500
 8812TIP3    H126393   5.788   5.281   5.415
 8812TIP3    H226394   5.770   5.343   5.552
 8813TIP3   OH226395   0.195   2.027   3.019
 8813TIP3    H126396   0.227   1.973   3.091
 8813TIP3    H226397   0.163   1.965   2.954
 8814TIP3   OH226398   7.308   3.002   3.655
 8814TIP3    H126399   7.299   2.961   3.569
 8814TIP3    H226400   7.271   2.939   3.716
 8815TIP3   OH226401   0.538   3.186   1.349
 8815TIP3    H126402   0.607   3.134   1.391
 8815TIP3    H226403   0.515   3.137   1.271
 8816TIP3   OH226404   2.395   5.796   2.615
 8816TIP3    H126405   2.486   5.820   2.599
 8816TIP3    H226406   2.400   5.724   2.677
 8817TIP3   OH226407   6.654   3.041   6.475
 8817TIP3    H126408   6.731   3.014   6.426
 8817TIP3    H226409   6.688   3.077   6.557
 8818TIP3   OH226410   1.337   4.482   6.255
 8818TIP3    H126411   1.245   4.480   6.283
 8818TIP3    H226412   1.352   4.573   6.228
 8819TIP3   OH226413   1.493   2.921   0.333
 8819TIP3    H126414   1.563   2.985   0.347
 8819TIP3    H226415   1.490   2.870   0.414
 8820TIP3   OH226416   6.187   2.351   6.019
 8820TIP3    H126417   6.170   2.287   6.089
 8820TIP3    H226418   6.166   2.304   5.938
 8821TIP3   OH226419   6.626   1.034   6.332
 8821TIP3    H126420   6.556   0.990   6.284
 8821TIP3    H226421   6.687   0.964   6.356
 8822TIP3   OH226422   0.637   2.643   4.700
 8822TIP3    H126423   0.577   2.581   4.658
 8822TIP3    H226424   0.680   2.591   4.768
 8823TIP3   OH226425   1.282   1.850   0.228
 8823TIP3    H126426   1.315   1.866   0.316
 8823TIP3    H226427   1.279   1.937   0.188
 8824TIP3   OH226428   5.475   3.582   3.621
 8824TIP3    H126429   5.401   3.556   3.677
 8824TIP3    H226430   5.534   3.630   3.680
 8825TIP3   OH226431   5.018   4.785   4.712
 8825TIP3    H126432   5.027   4.880   4.710
 8825TIP3    H226433   4.930   4.770   4.748
 8826TIP3   OH226434   2.581   1.406   3.882
 8826TIP3    H126435   2.507   1.375   3.933
 8826TIP3    H226436   2.587   1.345   3.808
 8827TIP3   OH226437   3.606   6.168   0.986
 8827TIP3    H126438   3.575   6.257   0.973
 8827TIP3    H226439   3.681   6.177   1.046
 8828TIP3   OH226440   3.631   6.447   2.957
 8828TIP3    H126441   3.668   6.473   2.872
 8828TIP3    H226442   3.539   6.428   2.938
 8829TIP3   OH226443   1.071   7.433   0.341
 8829TIP3    H126444   1.094   7.481   0.421
 8829TIP3    H226445   1.078   7.499   0.272
 8830TIP3   OH226446   2.671   3.775   3.198
 8830TIP3    H126447   2.711   3.699   3.239
 8830TIP3    H226448   2.705   3.850   3.247
 8831TIP3   OH226449   7.374   5.951   4.160
 8831TIP3    H126450   7.366   5.991   4.247
 8831TIP3    H226451   7.446   5.889   4.170
 8832TIP3   OH226452   8.179   6.166   3.074
 8832TIP3    H126453   8.251   6.224   3.048
 8832TIP3    H226454   8.187   6.090   3.016
 8833TIP3   OH226455   0.575   3.018   2.712
 8833TIP3    H126456   0.583   3.053   2.623
 8833TIP3    H226457   0.508   3.072   2.754
 8834TIP3   OH226458   6.638   5.175   4.140
 8834TIP3    H126459   6.657   5.269   4.143
 8834TIP3    H226460   6.605   5.154   4.227
 8835TIP3   OH226461   4.416   3.164   5.133
 8835TIP3    H126462   4.322   3.176   5.125
 8835TIP3    H226463   4.431   3.073   5.109
 8836TIP3   OH226464   6.025   5.081   0.956
 8836TIP3    H126465   6.065   5.161   0.921
 8836TIP3    H226466   6.067   5.010   0.908
 8837TIP3   OH226467   1.753   3.772   6.687
 8837TIP3    H126468   1.840   3.792   6.652
 8837TIP3    H226469   1.720   3.702   6.631
 8838TIP3   OH226470   6.516   5.666   3.173
 8838TIP3    H126471   6.457   5.591   3.162
 8838TIP3    H226472   6.542   5.688   3.083
 8839TIP3   OH226473   4.028   1.926   4.526
 8839TIP3    H126474   4.072   1.844   4.547
 8839TIP3    H226475   4.005   1.919   4.434
 8840TIP3   OH226476   7.066   6.440   4.554
 8840TIP3    H126477   7.044   6.421   4.462
 8840TIP3    H226478   7.041   6.531   4.566
 8841TIP3   OH226479   6.782   1.611   3.318
 8841TIP3    H126480   6.813   1.654   3.397
 8841TIP3    H226481   6.686   1.615   3.325
 8842TIP3   OH226482   3.971   7.002   1.213
 8842TIP3    H126483   3.951   6.942   1.284
 8842TIP3    H226484   4.055   7.040   1.237
 8843TIP3   OH226485   7.542   2.668   5.886
 8843TIP3    H126486   7.503   2.682   5.800
 8843TIP3    H226487   7.483   2.608   5.931
 8844TIP3   OH226488   6.579   7.780   5.977
 8844TIP3    H126489   6.543   7.698   6.011
 8844TIP3    H226490   6.589   7.765   5.883
 8845TIP3   OH226491   4.382   4.876   0.892
 8845TIP3    H126492   4.336   4.958   0.878
 8845TIP3    H226493   4.351   4.818   0.822
 8846TIP3   OH226494   3.992   5.613   4.051
 8846TIP3    H126495   3.906   5.652   4.065
 8846TIP3    H226496   4.054   5.679   4.082
 8847TIP3   OH226497   2.990   3.699   3.940
 8847TIP3    H126498   3.055   3.629   3.935
 8847TIP3    H226499   3.022   3.766   3.879
 8848TIP3   OH226500   0.690   1.306   3.643
 8848TIP3    H126501   0.727   1.267   3.564
 8848TIP3    H226502   0.755   1.288   3.711
 8849TIP3   OH226503   6.417   6.331   1.066
 8849TIP3    H126504   6.350   6.396   1.045
 8849TIP3    H226505   6.500   6.375   1.044
 8850TIP3   OH226506   2.480   3.955   3.085
 8850TIP3    H126507   2.507   4.047   3.086
 8850TIP3    H226508   2.555   3.908   3.123
 8851TIP3   OH226509   4.335   0.614   3.308
 8851TIP3    H126510   4.326   0.523   3.335
 8851TIP3    H226511   4.423   0.621   3.273
 8852TIP3   OH226512   4.190   3.618   1.582
 8852TIP3    H126513   4.171   3.665   1.662
 8852TIP3    H226514   4.112   3.565   1.566
 8853TIP3   OH226515   7.620   0.882   5.291
 8853TIP3    H126516   7.536   0.907   5.252
 8853TIP3    H226517   7.666   0.964   5.305
 8854TIP3   OH226518   4.110   5.092   2.812
 8854TIP3    H126519   4.172   5.164   2.812
 8854TIP3    H226520   4.031   5.128   2.773
 8855TIP3   OH226521   8.222   4.625   3.505
 8855TIP3    H126522   8.266   4.650   3.586
 8855TIP3    H226523   8.140   4.584   3.534
 8856TIP3   OH226524   1.085   3.282   5.497
 8856TIP3    H126525   1.150   3.302   5.430
 8856TIP3    H226526   1.011   3.340   5.477
 8857TIP3   OH226527   3.915   4.447   0.568
 8857TIP3    H126528   3.933   4.390   0.494
 8857TIP3    H226529   3.870   4.391   0.632
 8858TIP3   OH226530   4.462   6.496   2.889
 8858TIP3    H126531   4.464   6.401   2.901
 8858TIP3    H226532   4.523   6.530   2.954
 8859TIP3   OH226533   8.071   5.995   3.245
 8859TIP3    H126534   8.144   5.967   3.300
 8859TIP3    H226535   8.098   6.079   3.209
 8860TIP3   OH226536   4.014   1.129   5.544
 8860TIP3    H126537   3.994   1.065   5.475
 8860TIP3    H226538   3.932   1.137   5.593
 8861TIP3   OH226539   6.634   6.957   3.502
 8861TIP3    H126540   6.578   6.973   3.578
 8861TIP3    H226541   6.715   7.004   3.522
 8862TIP3   OH226542   7.507   7.181   3.476
 8862TIP3    H126543   7.561   7.122   3.529
 8862TIP3    H226544   7.474   7.245   3.538
 8863TIP3   OH226545   7.474   3.574   5.810
 8863TIP3    H126546   7.388   3.534   5.797
 8863TIP3    H226547   7.488   3.627   5.731
 8864TIP3   OH226548   5.898   3.285   3.301
 8864TIP3    H126549   5.859   3.287   3.214
 8864TIP3    H226550   5.840   3.228   3.352
 8865TIP3   OH226551   3.672   5.480   2.914
 8865TIP3    H126552   3.723   5.406   2.948
 8865TIP3    H226553   3.587   5.473   2.960
 8866TIP3   OH226554   3.796   7.604   1.572
 8866TIP3    H126555   3.833   7.631   1.487
 8866TIP3    H226556   3.775   7.687   1.616
 8867TIP3   OH226557   2.221   1.393   2.782
 8867TIP3    H126558   2.177   1.462   2.732
 8867TIP3    H226559   2.188   1.403   2.871
 8868TIP3   OH226560   6.443   2.981   3.277
 8868TIP3    H126561   6.492   3.035   3.215
 8868TIP3    H226562   6.351   2.996   3.255
 8869TIP3   OH226563   4.276   1.925   3.792
 8869TIP3    H126564   4.229   1.980   3.856
 8869TIP3    H226565   4.215   1.917   3.719
 8870TIP3   OH226566   7.713   4.101   5.250
 8870TIP3    H126567   7.764   4.029   5.287
 8870TIP3    H226568   7.778   4.154   5.203
 8871TIP3   OH226569   3.546   7.641   3.058
 8871TIP3    H126570   3.600   7.570   3.092
 8871TIP3    H226571   3.586   7.721   3.093
 8872TIP3   OH226572   3.589   6.074   5.833
 8872TIP3    H126573   3.549   6.042   5.913
 8872TIP3    H226574   3.641   6.000   5.801
 8873TIP3   OH226575   8.241   0.489   3.456
 8873TIP3    H126576   8.259   0.563   3.397
 8873TIP3    H226577   8.304   0.422   3.431
 8874TIP3   OH226578   5.865   1.291   2.644
 8874TIP3    H126579   5.840   1.353   2.575
 8874TIP3    H226580   5.946   1.326   2.680
 8875TIP3   OH226581   6.112   4.763   0.072
 8875TIP3    H126582   6.139   4.855   0.080
 8875TIP3    H226583   6.187   4.713   0.104
 8876TIP3   OH226584   6.838   4.980   3.238
 8876TIP3    H126585   6.923   4.976   3.194
 8876TIP3    H226586   6.841   4.909   3.302
 8877TIP3   OH226587   0.770   5.580   3.620
 8877TIP3    H126588   0.846   5.554   3.671
 8877TIP3    H226589   0.793   5.666   3.584
 8878TIP3   OH226590   1.011   5.371   0.570
 8878TIP3    H126591   1.065   5.397   0.495
 8878TIP3    H226592   0.937   5.325   0.532
 8879TIP3   OH226593   4.138   5.017   0.517
 8879TIP3    H126594   4.226   5.056   0.513
 8879TIP3    H226595   4.154   4.923   0.527
 8880TIP3   OH226596   7.244   5.014   2.808
 8880TIP3    H126597   7.237   4.942   2.745
 8880TIP3    H226598   7.157   5.018   2.849
 8881TIP3   OH226599   0.757   2.683   0.189
 8881TIP3    H126600   0.754   2.738   0.267
 8881TIP3    H226601   0.676   2.703   0.142
 8882TIP3   OH226602   6.646   6.432   0.202
 8882TIP3    H126603   6.658   6.360   0.140
 8882TIP3    H226604   6.625   6.507   0.147
 8883TIP3   OH226605   7.075   6.985   0.296
 8883TIP3    H126606   6.990   6.980   0.252
 8883TIP3    H226607   7.061   7.043   0.371
 8884TIP3   OH226608   5.152   1.288   2.975
 8884TIP3    H126609   5.082   1.290   3.039
 8884TIP3    H226610   5.150   1.374   2.934
 8885TIP3   OH226611   2.766   6.791   3.133
 8885TIP3    H126612   2.823   6.797   3.057
 8885TIP3    H226613   2.704   6.864   3.123
 8886TIP3   OH226614   3.134   3.615   2.771
 8886TIP3    H126615   3.111   3.565   2.849
 8886TIP3    H226616   3.205   3.673   2.799
 8887TIP3   OH226617   7.556   7.883   4.064
 8887TIP3    H126618   7.512   7.952   4.014
 8887TIP3    H226619   7.546   7.804   4.010
 8888TIP3   OH226620   6.343   0.515   4.045
 8888TIP3    H126621   6.408   0.585   4.051
 8888TIP3    H226622   6.358   0.476   3.959
 8889TIP3   OH226623   7.972   3.210   5.495
 8889TIP3    H126624   7.890   3.161   5.501
 8889TIP3    H226625   7.956   3.290   5.545
 8890TIP3   OH226626   3.018   3.290   6.261
 8890TIP3    H126627   3.018   3.372   6.211
 8890TIP3    H226628   2.925   3.270   6.275
 8891TIP3   OH226629   5.730   3.939   4.353
 8891TIP3    H126630   5.684   3.974   4.276
 8891TIP3    H226631   5.692   3.986   4.427
 8892TIP3   OH226632   0.818   1.877   3.749
 8892TIP3    H126633   0.780   1.920   3.826
 8892TIP3    H226634   0.765   1.797   3.738
 8893TIP3   OH226635   2.098   0.322   2.737
 8893TIP3    H126636   2.064   0.325   2.826
 8893TIP3    H226637   2.193   0.327   2.747
 8894TIP3   OH226638   0.252   6.494   2.897
 8894TIP3    H126639   0.183   6.435   2.927
 8894TIP3    H226640   0.303   6.512   2.975
 8895TIP3   OH226641   1.947   3.897   5.994
 8895TIP3    H126642   1.901   3.945   5.925
 8895TIP3    H226643   2.030   3.871   5.954
 8896TIP3   OH226644   2.878   3.545   4.680
 8896TIP3    H126645   2.862   3.451   4.675
 8896TIP3    H226646   2.840   3.580   4.599
 8897TIP3   OH226647   3.280   3.412   1.954
 8897TIP3    H126648   3.251   3.344   1.894
 8897TIP3    H226649   3.363   3.379   1.989
 8898TIP3   OH226650   3.388   7.529   5.678
 8898TIP3    H126651   3.321   7.583   5.720
 8898TIP3    H226652   3.430   7.483   5.750
 8899TIP3   OH226653   7.661   4.263   3.080
 8899TIP3    H126654   7.753   4.279   3.057
 8899TIP3    H226655   7.611   4.291   3.004
 8900TIP3   OH226656   2.424   4.904   1.460
 8900TIP3    H126657   2.404   4.818   1.422
 8900TIP3    H226658   2.457   4.955   1.386
 8901TIP3   OH226659   8.100   3.742   1.293
 8901TIP3    H126660   8.032   3.791   1.339
 8901TIP3    H226661   8.124   3.797   1.219
 8902TIP3   OH226662   5.080   6.997   3.381
 8902TIP3    H126663   5.056   6.939   3.309
 8902TIP3    H226664   5.104   6.937   3.452
 8903TIP3   OH226665   5.858   5.942   5.358
 8903TIP3    H126666   5.820   5.930   5.445
 8903TIP3    H226667   5.857   5.855   5.319
 8904TIP3   OH226668   5.821   5.472   2.339
 8904TIP3    H126669   5.797   5.408   2.406
 8904TIP3    H226670   5.764   5.452   2.264
 8905TIP3   OH226671   6.771   6.740   1.018
 8905TIP3    H126672   6.683   6.713   1.046
 8905TIP3    H226673   6.775   6.833   1.040
 8906TIP3   OH226674   3.418   6.807   1.605
 8906TIP3    H126675   3.508   6.781   1.624
 8906TIP3    H226676   3.410   6.895   1.640
 8907TIP3   OH226677   2.169   7.336   4.440
 8907TIP3    H126678   2.235   7.367   4.378
 8907TIP3    H226679   2.086   7.368   4.403
 8908TIP3   OH226680   5.152   2.427   6.211
 8908TIP3    H126681   5.085   2.441   6.143
 8908TIP3    H226682   5.102   2.408   6.290
 8909TIP3   OH226683   7.954   4.282   5.338
 8909TIP3    H126684   7.907   4.256   5.417
 8909TIP3    H226685   8.025   4.218   5.331
 8910TIP3   OH226686   0.658   5.541   2.239
 8910TIP3    H126687   0.717   5.514   2.310
 8910TIP3    H226688   0.685   5.631   2.219
 8911TIP3   OH226689   0.488   7.081   2.143
 8911TIP3    H126690   0.500   7.062   2.050
 8911TIP3    H226691   0.561   7.036   2.186
 8912TIP3   OH226692   3.287   7.086   5.129
 8912TIP3    H126693   3.334   7.166   5.154
 8912TIP3    H226694   3.353   7.017   5.135
 8913TIP3   OH226695   5.538   2.090   1.442
 8913TIP3    H126696   5.520   2.016   1.385
 8913TIP3    H226697   5.452   2.115   1.478
 8914TIP3   OH226698   2.119   5.247   1.635
 8914TIP3    H126699   2.192   5.257   1.696
 8914TIP3    H226700   2.068   5.327   1.646
 8915TIP3   OH226701   6.257   3.919   6.536
 8915TIP3    H126702   6.348   3.891   6.550
 8915TIP3    H226703   6.210   3.888   6.613
 8916TIP3   OH226704   4.941   5.467   0.299
 8916TIP3    H126705   4.893   5.412   0.361
 8916TIP3    H226706   4.981   5.535   0.353
 8917TIP3   OH226707   2.093   1.713   5.732
 8917TIP3    H126708   2.128   1.798   5.760
 8917TIP3    H226709   2.153   1.649   5.770
 8918TIP3   OH226710   5.346   1.747   4.434
 8918TIP3    H126711   5.400   1.799   4.494
 8918TIP3    H226712   5.257   1.758   4.467
 8919TIP3   OH226713   3.237   5.508   4.150
 8919TIP3    H126714   3.189   5.425   4.154
 8919TIP3    H226715   3.180   5.567   4.103
 8920TIP3   OH226716   7.184   0.838   1.807
 8920TIP3    H126717   7.246   0.892   1.757
 8920TIP3    H226718   7.201   0.749   1.779
 8921TIP3   OH226719   1.878   5.553   5.140
 8921TIP3    H126720   1.834   5.519   5.218
 8921TIP3    H226721   1.810   5.602   5.094
 8922TIP3   OH226722   7.178   7.072   6.107
 8922TIP3    H126723   7.198   7.020   6.185
 8922TIP3    H226724   7.253   7.059   6.049
 8923TIP3   OH226725   1.393   4.257   1.618
 8923TIP3    H126726   1.323   4.306   1.659
 8923TIP3    H226727   1.458   4.245   1.687
 8924TIP3   OH226728   7.200   5.846   4.844
 8924TIP3    H126729   7.186   5.754   4.863
 8924TIP3    H226730   7.245   5.880   4.922
 8925TIP3   OH226731   1.495   1.740   2.158
 8925TIP3    H126732   1.568   1.685   2.132
 8925TIP3    H226733   1.499   1.741   2.254
 8926TIP3   OH226734   4.928   7.409   0.137
 8926TIP3    H126735   4.992   7.347   0.172
 8926TIP3    H226736   4.883   7.444   0.214
 8927TIP3   OH226737   2.549   1.788   3.345
 8927TIP3    H126738   2.525   1.881   3.351
 8927TIP3    H226739   2.593   1.769   3.428
 8928TIP3   OH226740   4.150   3.471   6.319
 8928TIP3    H126741   4.200   3.461   6.238
 8928TIP3    H226742   4.217   3.486   6.386
 8929TIP3   OH226743   2.030   2.898   5.111
 8929TIP3    H126744   2.076   2.922   5.031
 8929TIP3    H226745   2.063   2.811   5.133
 8930TIP3   OH226746   7.994   2.939   4.368
 8930TIP3    H126747   7.959   3.023   4.397
 8930TIP3    H226748   8.086   2.957   4.348
 8931TIP3   OH226749   7.140   1.826   0.919
 8931TIP3    H126750   7.086   1.903   0.903
 8931TIP3    H226751   7.104   1.787   0.999
 8932TIP3   OH226752   1.935   2.507   6.651
 8932TIP3    H126753   2.024   2.495   6.684
 8932TIP3    H226754   1.896   2.420   6.652
 8933TIP3   OH226755   5.430   4.563   4.042
 8933TIP3    H126756   5.381   4.544   4.122
 8933TIP3    H226757   5.394   4.647   4.012
 8934TIP3   OH226758   0.439   0.741   2.786
 8934TIP3    H126759   0.438   0.708   2.696
 8934TIP3    H226760   0.351   0.722   2.820
 8935TIP3   OH226761   6.157   7.177   3.462
 8935TIP3    H126762   6.113   7.173   3.377
 8935TIP3    H226763   6.137   7.094   3.504
 8936TIP3   OH226764   7.942   5.703   5.508
 8936TIP3    H126765   7.975   5.632   5.564
 8936TIP3    H226766   7.960   5.783   5.557
 8937TIP3   OH226767   6.730   3.309   1.754
 8937TIP3    H126768   6.644   3.344   1.774
 8937TIP3    H226769   6.783   3.328   1.832
 8938TIP3   OH226770   5.388   4.702   6.667
 8938TIP3    H126771   5.409   4.611   6.689
 8938TIP3    H226772   5.443   4.723   6.592
 8939TIP3   OH226773   7.154   4.851   3.590
 8939TIP3    H126774   7.213   4.901   3.533
 8939TIP3    H226775   7.170   4.760   3.568
 8940TIP3   OH226776   0.556   0.371   4.566
 8940TIP3    H126777   0.501   0.343   4.493
 8940TIP3    H226778   0.632   0.313   4.562
 8941TIP3   OH226779   6.959   3.255   5.080
 8941TIP3    H126780   6.901   3.188   5.114
 8941TIP3    H226781   7.026   3.267   5.147
 8942TIP3   OH226782   3.462   5.456   4.324
 8942TIP3    H126783   3.514   5.536   4.329
 8942TIP3    H226784   3.387   5.480   4.269
 8943TIP3   OH226785   0.872   4.910   3.731
 8943TIP3    H126786   0.954   4.936   3.773
 8943TIP3    H226787   0.833   4.847   3.791
 8944TIP3   OH226788   4.331   0.299   1.256
 8944TIP3    H126789   4.417   0.334   1.234
 8944TIP3    H226790   4.314   0.232   1.190
 8945TIP3   OH226791   6.172   2.597   6.136
 8945TIP3    H126792   6.085   2.602   6.174
 8945TIP3    H226793   6.171   2.516   6.085
 8946TIP3   OH226794   6.893   4.739   4.151
 8946TIP3    H126795   6.941   4.779   4.079
 8946TIP3    H226796   6.838   4.673   4.110
 8947TIP3   OH226797   5.772   1.512   0.835
 8947TIP3    H126798   5.703   1.465   0.788
 8947TIP3    H226799   5.733   1.596   0.859
 8948TIP3   OH226800   5.427   1.384   4.567
 8948TIP3    H126801   5.408   1.352   4.478
 8948TIP3    H226802   5.522   1.379   4.575
 8949TIP3   OH226803   6.097   7.475   0.507
 8949TIP3    H126804   6.112   7.387   0.542
 8949TIP3    H226805   6.017   7.466   0.455
 8950TIP3   OH226806   0.510   2.159   4.805
 8950TIP3    H126807   0.548   2.157   4.892
 8950TIP3    H226808   0.425   2.202   4.817
 8951TIP3   OH226809   2.359   3.737   5.549
 8951TIP3    H126810   2.335   3.824   5.582
 8951TIP3    H226811   2.428   3.707   5.609
 8952TIP3   OH226812   6.764   5.921   5.801
 8952TIP3    H126813   6.781   5.868   5.879
 8952TIP3    H226814   6.695   5.982   5.827
 8953TIP3   OH226815   4.151   4.452   2.307
 8953TIP3    H126816   4.112   4.450   2.219
 8953TIP3    H226817   4.230   4.505   2.297
 8954TIP3   OH226818   8.240   6.316   6.534
 8954TIP3    H126819   8.264   6.224   6.527
 8954TIP3    H226820   8.148   6.320   6.507
 8955TIP3   OH226821   3.174   3.953   4.047
 8955TIP3    H126822   3.250   3.952   3.989
 8955TIP3    H226823   3.121   4.026   4.017
 8956TIP3   OH226824   4.023   3.185   3.220
 8956TIP3    H126825   3.946   3.130   3.233
 8956TIP3    H226826   4.000   3.244   3.148
 8957TIP3   OH226827   5.835   5.217   2.078
 8957TIP3    H126828   5.859   5.237   1.987
 8957TIP3    H226829   5.765   5.279   2.098
 8958TIP3   OH226830   6.428   3.612   0.884
 8958TIP3    H126831   6.477   3.678   0.933
 8958TIP3    H226832   6.340   3.649   0.875
 8959TIP3   OH226833   7.994   0.585   5.289
 8959TIP3    H126834   8.052   0.659   5.277
 8959TIP3    H226835   7.993   0.570   5.383
 8960TIP3   OH226836   4.763   7.875   3.984
 8960TIP3    H126837   4.809   7.792   3.996
 8960TIP3    H226838   4.679   7.850   3.945
 8961TIP3   OH226839   5.849   7.211   5.107
 8961TIP3    H126840   5.835   7.176   5.194
 8961TIP3    H226841   5.811   7.146   5.048
 8962TIP3   OH226842   4.727   1.919   3.133
 8962TIP3    H126843   4.821   1.924   3.112
 8962TIP3    H226844   4.706   2.005   3.169
 8963TIP3   OH226845   4.080   0.963   0.910
 8963TIP3    H126846   4.157   0.968   0.854
 8963TIP3    H226847   4.114   0.928   0.993
 8964TIP3   OH226848   0.091   2.517   6.700
 8964TIP3    H126849   0.019   2.559   6.748
 8964TIP3    H226850   0.105   2.434   6.746
 8965TIP3   OH226851   3.770   4.871   6.044
 8965TIP3    H126852   3.816   4.918   6.113
 8965TIP3    H226853   3.836   4.857   5.976
 8966TIP3   OH226854   6.494   3.343   4.170
 8966TIP3    H126855   6.448   3.291   4.236
 8966TIP3    H226856   6.530   3.417   4.218
 8967TIP3   OH226857   2.493   5.726   4.283
 8967TIP3    H126858   2.512   5.727   4.377
 8967TIP3    H226859   2.522   5.813   4.252
 8968TIP3   OH226860   4.280   4.463   0.713
 8968TIP3    H126861   4.278   4.441   0.806
 8968TIP3    H226862   4.286   4.379   0.668
 8969TIP3   OH226863   1.436   1.128   0.277
 8969TIP3    H126864   1.414   1.183   0.201
 8969TIP3    H226865   1.354   1.086   0.302
 8970TIP3   OH226866   5.129   2.730   5.470
 8970TIP3    H126867   5.072   2.653   5.479
 8970TIP3    H226868   5.095   2.775   5.392
 8971TIP3   OH226869   3.981   7.862   3.494
 8971TIP3    H126870   4.061   7.851   3.442
 8971TIP3    H226871   4.012   7.892   3.579
 8972TIP3   OH226872   3.733   0.213   0.561
 8972TIP3    H126873   3.670   0.172   0.502
 8972TIP3    H226874   3.721   0.167   0.644
 8973TIP3   OH226875   8.300   5.738   4.987
 8973TIP3    H126876   8.286   5.832   4.992
 8973TIP3    H226877   8.220   5.699   5.023
 8974TIP3   OH226878   8.161   6.975   0.059
 8974TIP3    H126879   8.207   6.929  -0.012
 8974TIP3    H226880   8.231   7.002   0.119
 8975TIP3   OH226881   4.016   2.100   1.305
 8975TIP3    H126882   3.925   2.101   1.277
 8975TIP3    H226883   4.027   2.182   1.353
 8976TIP3   OH226884   2.820   2.328   4.653
 8976TIP3    H126885   2.855   2.264   4.592
 8976TIP3    H226886   2.755   2.377   4.602
 8977TIP3   OH226887   4.947   5.014   5.764
 8977TIP3    H126888   4.973   5.051   5.680
 8977TIP3    H226889   5.003   5.058   5.828
 8978TIP3   OH226890   4.130   1.752   3.637
 8978TIP3    H126891   4.040   1.720   3.639
 8978TIP3    H226892   4.157   1.743   3.546
 8979TIP3   OH226893   7.389   3.266   6.407
 8979TIP3    H126894   7.390   3.199   6.475
 8979TIP3    H226895   7.311   3.319   6.426
 8980TIP3   OH226896   5.469   3.756   4.200
 8980TIP3    H126897   5.558   3.722   4.195
 8980TIP3    H226898   5.428   3.707   4.271
 8981TIP3   OH226899   6.855   1.232   5.056
 8981TIP3    H126900   6.792   1.264   4.991
 8981TIP3    H226901   6.803   1.216   5.135
 8982TIP3   OH226902   5.432   6.065   2.964
 8982TIP3    H126903   5.352   6.083   2.914
 8982TIP3    H226904   5.433   6.133   3.032
 8983TIP3   OH226905   5.553   1.790   1.398
 8983TIP3    H126906   5.551   1.695   1.389
 8983TIP3    H226907   5.617   1.807   1.468
 8984TIP3   OH226908   8.114   0.990   4.011
 8984TIP3    H126909   8.160   0.968   3.931
 8984TIP3    H226910   8.055   1.061   3.986
 8985TIP3   OH226911   5.747   0.480   0.429
 8985TIP3    H126912   5.694   0.537   0.373
 8985TIP3    H226913   5.696   0.472   0.510
 8986TIP3   OH226914   7.525   7.042   3.068
 8986TIP3    H126915   7.564   6.997   3.143
 8986TIP3    H226916   7.459   6.981   3.035
 8987TIP3   OH226917   7.060   6.176   1.252
 8987TIP3    H126918   7.127   6.163   1.319
 8987TIP3    H226919   6.999   6.104   1.265
 8988TIP3   OH226920   4.125   3.541   6.704
 8988TIP3    H126921   4.215   3.513   6.724
 8988TIP3    H226922   4.097   3.590   6.780
 8989TIP3   OH226923   0.480   5.633   3.734
 8989TIP3    H126924   0.448   5.616   3.823
 8989TIP3    H226925   0.550   5.697   3.745
 8990TIP3   OH226926   3.090   0.580   5.270
 8990TIP3    H126927   3.156   0.577   5.340
 8990TIP3    H226928   3.007   0.595   5.317
 8991TIP3   OH226929   7.515   6.045   6.596
 8991TIP3    H126930   7.523   6.022   6.504
 8991TIP3    H226931   7.588   6.105   6.612
 8992TIP3   OH226932   6.087   3.977   3.171
 8992TIP3    H126933   6.122   4.047   3.116
 8992TIP3    H226934   6.160   3.916   3.182
 8993TIP3   OH226935   3.194   7.204   2.654
 8993TIP3    H126936   3.289   7.212   2.649
 8993TIP3    H226937   3.179   7.124   2.705
 8994TIP3   OH226938   5.922   7.769   4.305
 8994TIP3    H126939   5.830   7.779   4.328
 8994TIP3    H226940   5.959   7.715   4.375
 8995TIP3   OH226941   0.441   3.260   0.122
 8995TIP3    H126942   0.494   3.338   0.132
 8995TIP3    H226943   0.379   3.281   0.052
 8996TIP3   OH226944   6.935   5.085   2.625
 8996TIP3    H126945   6.985   5.036   2.559
 8996TIP3    H226946   6.936   5.175   2.594
 8997TIP3   OH226947   6.327   3.037   0.056
 8997TIP3    H126948   6.390   2.984   0.007
 8997TIP3    H226949   6.291   2.977   0.121
 8998TIP3   OH226950   3.507   0.998   1.264
 8998TIP3    H126951   3.435   1.003   1.326
 8998TIP3    H226952   3.562   1.074   1.285
 8999TIP3   OH226953   1.306   0.357   5.606
 8999TIP3    H126954   1.385   0.399   5.642
 8999TIP3    H226955   1.302   0.388   5.515
 9000TIP3   OH226956   2.884   2.609   2.889
 9000TIP3    H126957   2.889   2.552   2.966
 9000TIP3    H226958   2.847   2.691   2.923
 9001TIP3   OH226959   3.292   5.145   3.254
 9001TIP3    H126960   3.254   5.102   3.178
 9001TIP3    H226961   3.240   5.224   3.266
 9002TIP3   OH226962   2.605   5.992   3.331
 9002TIP3    H126963   2.629   6.074   3.289
 9002TIP3    H226964   2.521   6.009   3.374
 9003TIP3   OH226965   3.486   3.181   5.437
 9003TIP3    H126966   3.404   3.226   5.418
 9003TIP3    H226967   3.471   3.090   5.412
 9004TIP3   OH226968   4.712   1.149   5.630
 9004TIP3    H126969   4.750   1.158   5.542
 9004TIP3    H226970   4.620   1.175   5.619
 9005TIP3   OH226971   1.919   5.001   4.923
 9005TIP3    H126972   1.965   5.083   4.940
 9005TIP3    H226973   1.914   4.958   5.008
 9006TIP3   OH226974   6.458   2.113   1.698
 9006TIP3    H126975   6.527   2.168   1.736
 9006TIP3    H226976   6.376   2.158   1.720
 9007TIP3   OH226977   7.798   2.803   4.201
 9007TIP3    H126978   7.875   2.839   4.244
 9007TIP3    H226979   7.767   2.873   4.143
 9008TIP3   OH226980   7.874   5.594   0.748
 9008TIP3    H126981   7.905   5.566   0.834
 9008TIP3    H226982   7.914   5.681   0.736
 9009TIP3   OH226983   5.005   6.763   5.577
 9009TIP3    H126984   5.087   6.756   5.625
 9009TIP3    H226985   5.010   6.849   5.534
 9010TIP3   OH226986   5.183   0.552   3.817
 9010TIP3    H126987   5.219   0.526   3.732
 9010TIP3    H226988   5.224   0.636   3.836
 9011TIP3   OH226989   6.931   4.246   6.209
 9011TIP3    H126990   6.970   4.196   6.281
 9011TIP3    H226991   7.003   4.258   6.146
 9012TIP3   OH226992   0.100   6.770   5.987
 9012TIP3    H126993   0.112   6.741   6.077
 9012TIP3    H226994   0.127   6.694   5.934
 9013TIP3   OH226995   3.126   4.826   3.349
 9013TIP3    H126996   3.041   4.868   3.365
 9013TIP3    H226997   3.107   4.756   3.286
 9014TIP3   OH226998   5.903   3.654   6.739
 9014TIP3    H126999   5.864   3.567   6.748
 9014TIP3    H227000   5.982   3.651   6.793
 9015TIP3   OH227001   5.561   3.908   3.964
 9015TIP3    H127002   5.588   3.978   4.024
 9015TIP3    H227003   5.583   3.827   4.009
 9016TIP3   OH227004   3.208   4.170   2.402
 9016TIP3    H127005   3.130   4.172   2.347
 9016TIP3    H227006   3.280   4.195   2.344
 9017TIP3   OH227007   5.829   1.628   5.796
 9017TIP3    H127008   5.807   1.674   5.714
 9017TIP3    H227009   5.749   1.579   5.817
 9018TIP3   OH227010   5.619   6.415   1.462
 9018TIP3    H127011   5.526   6.393   1.467
 9018TIP3    H227012   5.660   6.338   1.424
 9019TIP3   OH227013   6.552   2.239   2.469
 9019TIP3    H127014   6.536   2.204   2.557
 9019TIP3    H227015   6.644   2.266   2.470
 9020TIP3   OH227016   3.698   7.868   5.740
 9020TIP3    H127017   3.719   7.778   5.765
 9020TIP3    H227018   3.610   7.883   5.775
 9021TIP3   OH227019   6.817   3.497   5.041
 9021TIP3    H127020   6.858   3.414   5.065
 9021TIP3    H227021   6.785   3.532   5.125
 9022TIP3   OH227022   3.687   5.065   4.416
 9022TIP3    H127023   3.739   4.985   4.412
 9022TIP3    H227024   3.596   5.035   4.405
 9023TIP3   OH227025   2.755   3.275   3.631
 9023TIP3    H127026   2.756   3.327   3.711
 9023TIP3    H227027   2.700   3.199   3.652
 9024TIP3   OH227028   1.194   3.347   2.031
 9024TIP3    H127029   1.247   3.412   2.077
 9024TIP3    H227030   1.108   3.352   2.073
 9025TIP3   OH227031   6.498   7.146   4.342
 9025TIP3    H127032   6.432   7.090   4.300
 9025TIP3    H227033   6.499   7.226   4.289
 9026TIP3   OH227034   6.063   2.006   4.312
 9026TIP3    H127035   6.021   1.940   4.257
 9026TIP3    H227036   6.067   2.084   4.257
 9027TIP3   OH227037   1.515   3.986   2.244
 9027TIP3    H127038   1.562   3.992   2.327
 9027TIP3    H227039   1.535   3.898   2.211
 9028TIP3   OH227040   1.599   7.273   2.471
 9028TIP3    H127041   1.522   7.222   2.497
 9028TIP3    H227042   1.625   7.320   2.550
 9029TIP3   OH227043   3.180   6.009   3.778
 9029TIP3    H127044   3.158   6.041   3.690
 9029TIP3    H227045   3.139   6.072   3.837
 9030TIP3   OH227046   1.238   7.024   0.759
 9030TIP3    H127047   1.205   6.961   0.696
 9030TIP3    H227048   1.186   7.103   0.743
 9031TIP3   OH227049   6.023   5.710   4.258
 9031TIP3    H127050   5.945   5.766   4.261
 9031TIP3    H227051   6.096   5.770   4.247
 9032TIP3   OH227052   3.014   4.232   2.126
 9032TIP3    H127053   2.920   4.221   2.117
 9032TIP3    H227054   3.047   4.240   2.036
 9033TIP3   OH227055   3.525   4.961   6.050
 9033TIP3    H127056   3.610   4.917   6.055
 9033TIP3    H227057   3.463   4.896   6.082
 9034TIP3   OH227058   1.398   7.519   6.205
 9034TIP3    H127059   1.334   7.509   6.275
 9034TIP3    H227060   1.471   7.566   6.245
 9035TIP3   OH227061   2.611   3.829   6.543
 9035TIP3    H127062   2.639   3.744   6.577
 9035TIP3    H227063   2.525   3.814   6.505
 9036TIP3   OH227064   7.044   4.327   1.703
 9036TIP3    H127065   7.019   4.383   1.776
 9036TIP3    H227066   7.006   4.241   1.724
 9037TIP3   OH227067   7.491   7.646   6.430
 9037TIP3    H127068   7.456   7.582   6.492
 9037TIP3    H227069   7.547   7.702   6.484
 9038TIP3   OH227070   1.047   3.343   0.773
 9038TIP3    H127071   1.038   3.258   0.730
 9038TIP3    H227072   0.987   3.338   0.847
 9039TIP3   OH227073   0.769   0.346   1.946
 9039TIP3    H127074   0.835   0.279   1.963
 9039TIP3    H227075   0.818   0.425   1.926
 9040TIP3   OH227076   1.576   7.048   5.468
 9040TIP3    H127077   1.626   6.974   5.502
 9040TIP3    H227078   1.629   7.125   5.492
 9041TIP3   OH227079   8.142   3.062   4.652
 9041TIP3    H127080   8.132   2.985   4.707
 9041TIP3    H227081   8.179   3.129   4.710
 9042TIP3   OH227082   2.157   3.658   2.039
 9042TIP3    H127083   2.139   3.751   2.051
 9042TIP3    H227084   2.184   3.650   1.947
 9043TIP3   OH227085   1.572   1.530   6.590
 9043TIP3    H127086   1.644   1.565   6.539
 9043TIP3    H227087   1.542   1.603   6.644
 9044TIP3   OH227088   6.912   1.402   1.984
 9044TIP3    H127089   6.934   1.462   1.912
 9044TIP3    H227090   6.883   1.460   2.054
 9045TIP3   OH227091   1.822   5.437   0.870
 9045TIP3    H127092   1.765   5.361   0.886
 9045TIP3    H227093   1.860   5.421   0.784
 9046TIP3   OH227094   5.324   0.847   5.187
 9046TIP3    H127095   5.284   0.906   5.123
 9046TIP3    H227096   5.253   0.828   5.249
 9047TIP3   OH227097   7.157   0.895   5.992
 9047TIP3    H127098   7.112   0.814   6.014
 9047TIP3    H227099   7.248   0.870   5.978
 9048TIP3   OH227100   6.610   7.293   5.152
 9048TIP3    H127101   6.698   7.313   5.184
 9048TIP3    H227102   6.621   7.281   5.058
 9049TIP3   OH227103   1.031   3.798   5.242
 9049TIP3    H127104   1.049   3.842   5.159
 9049TIP3    H227105   1.008   3.709   5.218
 9050TIP3   OH227106   5.492   5.205   2.156
 9050TIP3    H127107   5.415   5.262   2.154
 9050TIP3    H227108   5.565   5.263   2.133
 9051TIP3   OH227109   7.563   4.816   3.029
 9051TIP3    H127110   7.541   4.763   2.953
 9051TIP3    H227111   7.513   4.777   3.101
 9052TIP3   OH227112   3.341   4.551   3.090
 9052TIP3    H127113   3.343   4.460   3.117
 9052TIP3    H227114   3.253   4.582   3.114
 9053TIP3   OH227115   7.056   7.380   6.030
 9053TIP3    H127116   7.049   7.291   5.996
 9053TIP3    H227117   6.994   7.431   5.979
 9054TIP3   OH227118   5.275   5.966   0.770
 9054TIP3    H127119   5.251   5.930   0.685
 9054TIP3    H227120   5.254   5.897   0.833
 9055TIP3   OH227121   1.872   3.553   3.593
 9055TIP3    H127122   1.789   3.585   3.627
 9055TIP3    H227123   1.848   3.501   3.516
 9056TIP3   OH227124   1.241   5.287   3.543
 9056TIP3    H127125   1.217   5.280   3.635
 9056TIP3    H227126   1.195   5.365   3.512
 9057TIP3   OH227127   6.088   3.983   0.710
 9057TIP3    H127128   6.128   4.064   0.677
 9057TIP3    H227129   5.994   3.999   0.704
 9058TIP3   OH227130   7.346   3.368   3.600
 9058TIP3    H127131   7.431   3.371   3.555
 9058TIP3    H227132   7.365   3.326   3.684
 9059TIP3   OH227133   2.068   3.250   0.865
 9059TIP3    H127134   1.984   3.213   0.837
 9059TIP3    H227135   2.125   3.240   0.789
 9060TIP3   OH227136   7.407   2.584   4.820
 9060TIP3    H127137   7.441   2.561   4.734
 9060TIP3    H227138   7.417   2.504   4.872
 9061TIP3   OH227139   6.646   0.113   5.062
 9061TIP3    H127140   6.726   0.157   5.034
 9061TIP3    H227141   6.576   0.175   5.044
 9062TIP3   OH227142   4.530   1.765   6.156
 9062TIP3    H127143   4.501   1.715   6.080
 9062TIP3    H227144   4.468   1.741   6.225
 9063TIP3   OH227145   3.991   3.279   1.282
 9063TIP3    H127146   3.923   3.344   1.265
 9063TIP3    H227147   3.975   3.249   1.371
 9064TIP3   OH227148   2.755   4.520   2.242
 9064TIP3    H127149   2.723   4.606   2.215
 9064TIP3    H227150   2.848   4.521   2.222
 9065TIP3   OH227151   1.577   4.164   4.042
 9065TIP3    H127152   1.487   4.131   4.047
 9065TIP3    H227153   1.626   4.107   4.101
 9066TIP3   OH227154   3.216   2.246   6.405
 9066TIP3    H127155   3.135   2.263   6.452
 9066TIP3    H227156   3.189   2.231   6.314
 9067TIP3   OH227157   2.799   4.611   3.072
 9067TIP3    H127158   2.831   4.525   3.043
 9067TIP3    H227159   2.728   4.632   3.012
 9068TIP3   OH227160   6.858   6.024   4.486
 9068TIP3    H127161   6.891   5.934   4.489
 9068TIP3    H227162   6.830   6.041   4.576
 9069TIP3   OH227163   0.560   0.422   3.147
 9069TIP3    H127164   0.520   0.419   3.234
 9069TIP3    H227165   0.567   0.516   3.128
 9070TIP3   OH227166   7.163   4.711   4.592
 9070TIP3    H127167   7.157   4.778   4.523
 9070TIP3    H227168   7.230   4.744   4.651
 9071TIP3   OH227169   2.576   6.859   1.552
 9071TIP3    H127170   2.585   6.764   1.563
 9071TIP3    H227171   2.513   6.885   1.619
 9072TIP3   OH227172   5.548   4.404   1.506
 9072TIP3    H127173   5.496   4.404   1.425
 9072TIP3    H227174   5.534   4.491   1.543
 9073TIP3   OH227175   1.179   1.368   5.128
 9073TIP3    H127176   1.222   1.448   5.097
 9073TIP3    H227177   1.087   1.392   5.140
 9074TIP3   OH227178   1.191   1.636   1.897
 9074TIP3    H127179   1.117   1.576   1.909
 9074TIP3    H227180   1.152   1.723   1.903
 9075TIP3   OH227181   0.878   6.476   3.804
 9075TIP3    H127182   0.942   6.506   3.739
 9075TIP3    H227183   0.793   6.493   3.764
 9076TIP3   OH227184   0.653   6.451   2.506
 9076TIP3    H127185   0.625   6.526   2.453
 9076TIP3    H227186   0.571   6.412   2.537
 9077TIP3   OH227187   1.510   2.734   1.236
 9077TIP3    H127188   1.525   2.818   1.280
 9077TIP3    H227189   1.414   2.727   1.232
 9078TIP3   OH227190   4.391   7.163   2.086
 9078TIP3    H127191   4.320   7.211   2.043
 9078TIP3    H227192   4.352   7.131   2.168
 9079TIP3   OH227193   2.376   1.298   6.235
 9079TIP3    H127194   2.355   1.229   6.173
 9079TIP3    H227195   2.341   1.267   6.319
 9080TIP3   OH227196   6.010   3.112   1.947
 9080TIP3    H127197   6.076   3.163   1.994
 9080TIP3    H227198   6.059   3.039   1.910
 9081TIP3   OH227199   3.071   1.463   3.272
 9081TIP3    H127200   3.159   1.450   3.307
 9081TIP3    H227201   3.027   1.379   3.286
 9082TIP3   OH227202   2.667   4.240   3.080
 9082TIP3    H127203   2.606   4.274   3.015
 9082TIP3    H227204   2.749   4.286   3.063
 9083TIP3   OH227205   1.971   7.242   1.087
 9083TIP3    H127206   2.036   7.277   1.026
 9083TIP3    H227207   1.923   7.319   1.118
 9084TIP3   OH227208   6.447   6.315   2.647
 9084TIP3    H127209   6.485   6.229   2.630
 9084TIP3    H227210   6.451   6.325   2.742
 9085TIP3   OH227211   6.768   0.515   5.864
 9085TIP3    H127212   6.683   0.543   5.898
 9085TIP3    H227213   6.756   0.423   5.843
 9086TIP3   OH227214   7.460   1.548   0.236
 9086TIP3    H127215   7.404   1.505   0.300
 9086TIP3    H227216   7.452   1.641   0.254
 9087TIP3   OH227217   1.478   6.682   6.414
 9087TIP3    H127218   1.389   6.717   6.411
 9087TIP3    H227219   1.469   6.596   6.456
 9088TIP3   OH227220   4.446   5.664   5.306
 9088TIP3    H127221   4.360   5.666   5.348
 9088TIP3    H227222   4.449   5.743   5.252
 9089TIP3   OH227223   7.199   1.710   0.685
 9089TIP3    H127224   7.202   1.754   0.770
 9089TIP3    H227225   7.141   1.765   0.632
 9090TIP3   OH227226   6.418   5.118   4.304
 9090TIP3    H127227   6.430   5.203   4.346
 9090TIP3    H227228   6.325   5.115   4.281
 9091TIP3   OH227229   7.705   3.353   1.563
 9091TIP3    H127230   7.709   3.441   1.528
 9091TIP3    H227231   7.623   3.317   1.530
 9092TIP3   OH227232   0.796   3.677   5.035
 9092TIP3    H127233   0.791   3.585   5.011
 9092TIP3    H227234   0.705   3.706   5.038
 9093TIP3   OH227235   6.195   3.760   0.792
 9093TIP3    H127236   6.119   3.707   0.768
 9093TIP3    H227237   6.168   3.850   0.771
 9094TIP3   OH227238  -0.005   2.466   2.530
 9094TIP3    H127239  -0.048   2.464   2.445
 9094TIP3    H227240  -0.063   2.521   2.584
 9095TIP3   OH227241   1.617   5.936   0.214
 9095TIP3    H127242   1.560   5.891   0.152
 9095TIP3    H227243   1.672   5.993   0.160
 9096TIP3   OH227244   3.023   0.821   0.829
 9096TIP3    H127245   3.017   0.738   0.875
 9096TIP3    H227246   3.105   0.817   0.780
 9097TIP3   OH227247   7.178   4.993   1.390
 9097TIP3    H127248   7.235   5.024   1.320
 9097TIP3    H227249   7.185   4.898   1.386
 9098TIP3   OH227250   3.573   7.421   4.881
 9098TIP3    H127251   3.588   7.347   4.822
 9098TIP3    H227252   3.479   7.419   4.900
 9099TIP3   OH227253   2.812   3.562   0.831
 9099TIP3    H127254   2.754   3.510   0.888
 9099TIP3    H227255   2.870   3.608   0.892
 9100TIP3   OH227256   6.843   6.907   4.203
 9100TIP3    H127257   6.865   6.910   4.110
 9100TIP3    H227258   6.843   6.999   4.230
 9101TIP3   OH227259   6.563  -0.035   2.319
 9101TIP3    H127260   6.582   0.040   2.375
 9101TIP3    H227261   6.551   0.002   2.231
 9102TIP3   OH227262   7.097   4.455   5.890
 9102TIP3    H127263   7.082   4.544   5.920
 9102TIP3    H227264   7.025   4.437   5.830
 9103TIP3   OH227265   3.230   2.975   0.810
 9103TIP3    H127266   3.171   3.049   0.803
 9103TIP3    H227267   3.317   3.014   0.815
 9104TIP3   OH227268   6.470   4.873   1.384
 9104TIP3    H127269   6.508   4.928   1.452
 9104TIP3    H227270   6.546   4.830   1.343
 9105TIP3   OH227271   3.998   0.654   0.320
 9105TIP3    H127272   4.042   0.696   0.246
 9105TIP3    H227273   3.905   0.675   0.308
 9106TIP3   OH227274   4.650   5.972   4.190
 9106TIP3    H127275   4.616   6.047   4.238
 9106TIP3    H227276   4.571   5.926   4.160
 9107TIP3   OH227277   5.138   2.740   3.165
 9107TIP3    H127278   5.133   2.679   3.239
 9107TIP3    H227279   5.196   2.810   3.196
 9108TIP3   OH227280   2.735   3.487   5.500
 9108TIP3    H127281   2.669   3.554   5.519
 9108TIP3    H227282   2.691   3.404   5.516
 9109TIP3   OH227283   4.653   1.587   4.600
 9109TIP3    H127284   4.609   1.609   4.682
 9109TIP3    H227285   4.740   1.626   4.609
 9110TIP3   OH227286   0.397   0.983   2.917
 9110TIP3    H127287   0.414   0.906   2.862
 9110TIP3    H227288   0.306   0.973   2.944
 9111TIP3   OH227289   0.121   1.948   0.450
 9111TIP3    H127290   0.054   1.969   0.386
 9111TIP3    H227291   0.192   1.909   0.399
 9112TIP3   OH227292   3.582   3.742   3.204
 9112TIP3    H127293   3.625   3.827   3.209
 9112TIP3    H227294   3.635   3.685   3.260
 9113TIP3   OH227295   5.803   6.050   3.086
 9113TIP3    H127296   5.787   6.127   3.031
 9113TIP3    H227297   5.743   5.984   3.052
 9114TIP3   OH227298   4.554   7.407   0.981
 9114TIP3    H127299   4.582   7.318   1.002
 9114TIP3    H227300   4.636   7.455   0.967
 9115TIP3   OH227301   8.107   0.073   6.150
 9115TIP3    H127302   8.148   0.079   6.064
 9115TIP3    H227303   8.128  -0.016   6.180
 9116TIP3   OH227304   6.704   5.801   6.600
 9116TIP3    H127305   6.645   5.804   6.675
 9116TIP3    H227306   6.762   5.727   6.618
 9117TIP3   OH227307   5.329   1.906   4.200
 9117TIP3    H127308   5.338   1.830   4.257
 9117TIP3    H227309   5.396   1.967   4.230
 9118TIP3   OH227310   3.233   6.599   3.112
 9118TIP3    H127311   3.150   6.559   3.084
 9118TIP3    H227312   3.224   6.691   3.088
 9119TIP3   OH227313   1.082   7.045   3.353
 9119TIP3    H127314   1.085   7.140   3.338
 9119TIP3    H227315   1.055   7.008   3.269
 9120TIP3   OH227316   1.121   3.878   5.538
 9120TIP3    H127317   1.085   3.808   5.482
 9120TIP3    H227318   1.052   3.945   5.539
 9121TIP3   OH227319   4.968   1.296   3.186
 9121TIP3    H127320   5.005   1.383   3.170
 9121TIP3    H227321   4.899   1.311   3.251
 9122TIP3   OH227322   8.302   4.736   6.715
 9122TIP3    H127323   8.344   4.668   6.769
 9122TIP3    H227324   8.208   4.719   6.725
 9123TIP3   OH227325   4.397   2.436   5.790
 9123TIP3    H127326   4.365   2.354   5.828
 9123TIP3    H227327   4.451   2.474   5.859
 9124TIP3   OH227328   2.919   7.268   2.493
 9124TIP3    H127329   2.925   7.193   2.434
 9124TIP3    H227330   2.987   7.251   2.559
 9125TIP3   OH227331   3.588   5.342   1.706
 9125TIP3    H127332   3.623   5.269   1.655
 9125TIP3    H227333   3.604   5.317   1.797
 9126TIP3   OH227334   5.970   4.713   3.361
 9126TIP3    H127335   6.055   4.670   3.374
 9126TIP3    H227336   5.906   4.644   3.377
 9127TIP3   OH227337   3.832   1.976   5.102
 9127TIP3    H127338   3.868   1.919   5.034
 9127TIP3    H227339   3.752   1.932   5.130
 9128TIP3   OH227340   0.049   6.150   3.386
 9128TIP3    H127341   0.117   6.195   3.437
 9128TIP3    H227342   0.094   6.074   3.349
 9129TIP3   OH227343   3.110   1.292   4.731
 9129TIP3    H127344   3.051   1.318   4.660
 9129TIP3    H227345   3.105   1.364   4.794
 9130TIP3   OH227346   2.919   4.338   4.824
 9130TIP3    H127347   2.892   4.263   4.771
 9130TIP3    H227348   3.012   4.348   4.807
 9131TIP3   OH227349   2.605   5.111   0.417
 9131TIP3    H127350   2.672   5.149   0.474
 9131TIP3    H227351   2.636   5.129   0.329
 9132TIP3   OH227352   5.076   7.668   3.886
 9132TIP3    H127353   5.070   7.753   3.842
 9132TIP3    H227354   4.991   7.658   3.930
 9133TIP3   OH227355   6.326   7.810   2.749
 9133TIP3    H127356   6.372   7.838   2.670
 9133TIP3    H227357   6.235   7.835   2.734
 9134TIP3   OH227358   0.881   3.805   6.353
 9134TIP3    H127359   0.844   3.869   6.292
 9134TIP3    H227360   0.957   3.769   6.306
 9135TIP3   OH227361   4.777   6.476   5.035
 9135TIP3    H127362   4.813   6.440   5.115
 9135TIP3    H227363   4.682   6.471   5.047
 9136TIP3   OH227364   1.535   0.107   3.988
 9136TIP3    H127365   1.545   0.012   3.995
 9136TIP3    H227366   1.587   0.143   4.060
 9137TIP3   OH227367   0.444   4.560   2.273
 9137TIP3    H127368   0.516   4.523   2.325
 9137TIP3    H227369   0.365   4.524   2.313
 9138TIP3   OH227370   7.837   2.025   2.753
 9138TIP3    H127371   7.867   2.045   2.664
 9138TIP3    H227372   7.786   2.101   2.779
 9139TIP3   OH227373   6.354   0.947   5.660
 9139TIP3    H127374   6.323   1.031   5.627
 9139TIP3    H227375   6.274   0.894   5.669
 9140TIP3   OH227376   3.744   0.410   4.892
 9140TIP3    H127377   3.767   0.323   4.859
 9140TIP3    H227378   3.678   0.394   4.960
 9141TIP3   OH227379   6.748   7.257   1.748
 9141TIP3    H127380   6.765   7.233   1.839
 9141TIP3    H227381   6.753   7.174   1.700
 9142TIP3   OH227382   7.915   6.637   5.734
 9142TIP3    H127383   7.900   6.722   5.691
 9142TIP3    H227384   7.974   6.657   5.807
 9143TIP3   OH227385   7.304   5.561   5.469
 9143TIP3    H127386   7.373   5.496   5.481
 9143TIP3    H227387   7.223   5.509   5.469
 9144TIP3   OH227388   1.057   1.858   3.199
 9144TIP3    H127389   1.075   1.799   3.126
 9144TIP3    H227390   1.059   1.802   3.277
 9145TIP3   OH227391   1.647   4.417   3.906
 9145TIP3    H127392   1.579   4.478   3.877
 9145TIP3    H227393   1.599   4.338   3.930
 9146TIP3   OH227394   5.892   4.343   1.897
 9146TIP3    H127395   5.877   4.324   1.989
 9146TIP3    H227396   5.935   4.429   1.897
 9147TIP3   OH227397   6.611   5.377   6.573
 9147TIP3    H127398   6.605   5.453   6.631
 9147TIP3    H227399   6.677   5.402   6.508
 9148TIP3   OH227400   3.555   4.497   2.781
 9148TIP3    H127401   3.614   4.423   2.769
 9148TIP3    H227402   3.468   4.458   2.792
 9149TIP3   OH227403   0.319   0.214   6.198
 9149TIP3    H127404   0.252   0.242   6.261
 9149TIP3    H227405   0.320   0.284   6.133
 9150TIP3   OH227406   1.597   7.803   5.128
 9150TIP3    H127407   1.545   7.881   5.144
 9150TIP3    H227408   1.608   7.801   5.033
 9151TIP3   OH227409   6.202   7.328   6.630
 9151TIP3    H127410   6.291   7.316   6.599
 9151TIP3    H227411   6.193   7.423   6.642
 9152TIP3   OH227412   4.554   7.766   0.463
 9152TIP3    H127413   4.611   7.814   0.524
 9152TIP3    H227414   4.479   7.740   0.516
 9153TIP3   OH227415   4.759   0.575   3.412
 9153TIP3    H127416   4.706   0.619   3.345
 9153TIP3    H227417   4.704   0.575   3.490
 9154TIP3   OH227418   1.637   1.250   2.627
 9154TIP3    H127419   1.617   1.284   2.540
 9154TIP3    H227420   1.712   1.191   2.614
 9155TIP3   OH227421   0.166   1.192   5.424
 9155TIP3    H127422   0.218   1.145   5.358
 9155TIP3    H227423   0.205   1.279   5.429
 9156TIP3   OH227424   1.494   3.074   2.470
 9156TIP3    H127425   1.457   3.101   2.554
 9156TIP3    H227426   1.581   3.042   2.492
 9157TIP3   OH227427   6.907   4.389   3.751
 9157TIP3    H127428   6.815   4.408   3.770
 9157TIP3    H227429   6.955   4.463   3.789
 9158TIP3   OH227430   2.345   1.614   4.509
 9158TIP3    H127431   2.256   1.645   4.491
 9158TIP3    H227432   2.337   1.564   4.590
 9159TIP3   OH227433   7.983   2.895   2.146
 9159TIP3    H127434   7.920   2.943   2.200
 9159TIP3    H227435   8.068   2.932   2.168
 9160TIP3   OH227436   0.230   1.217   3.236
 9160TIP3    H127437   0.162   1.264   3.283
 9160TIP3    H227438   0.286   1.180   3.304
 9161TIP3   OH227439   1.494   0.063   5.479
 9161TIP3    H127440   1.509  -0.020   5.433
 9161TIP3    H227441   1.451   0.118   5.414
 9162TIP3   OH227442   7.771   3.653   1.612
 9162TIP3    H127443   7.795   3.739   1.577
 9162TIP3    H227444   7.698   3.670   1.671
 9163TIP3   OH227445   1.503   2.994   1.301
 9163TIP3    H127446   1.555   3.075   1.297
 9163TIP3    H227447   1.441   3.002   1.228
 9164TIP3   OH227448   0.693   3.904   6.051
 9164TIP3    H127449   0.741   3.955   6.116
 9164TIP3    H227450   0.759   3.845   6.013
 9165TIP3   OH227451   2.662   6.416   0.783
 9165TIP3    H127452   2.723   6.487   0.803
 9165TIP3    H227453   2.580   6.459   0.761
 9166TIP3   OH227454   5.508   4.644   4.751
 9166TIP3    H127455   5.558   4.665   4.829
 9166TIP3    H227456   5.418   4.669   4.773
 9167TIP3   OH227457   0.197   3.087   4.951
 9167TIP3    H127458   0.249   3.165   4.972
 9167TIP3    H227459   0.258   3.028   4.908
 9168TIP3   OH227460   4.301   6.567   6.446
 9168TIP3    H127461   4.214   6.585   6.409
 9168TIP3    H227462   4.361   6.576   6.372
 9169TIP3   OH227463   1.430   1.968   3.795
 9169TIP3    H127464   1.396   1.982   3.884
 9169TIP3    H227465   1.379   1.894   3.761
 9170TIP3   OH227466   0.856   5.808   2.007
 9170TIP3    H127467   0.917   5.776   1.941
 9170TIP3    H227468   0.879   5.900   2.018
 9171TIP3   OH227469   5.272   2.656   6.159
 9171TIP3    H127470   5.240   2.695   6.078
 9171TIP3    H227471   5.236   2.567   6.159
 9172TIP3   OH227472   7.296   6.605   3.859
 9172TIP3    H127473   7.235   6.655   3.804
 9172TIP3    H227474   7.276   6.514   3.840
 9173TIP3   OH227475   2.364   2.812   4.979
 9173TIP3    H127476   2.310   2.887   4.954
 9173TIP3    H227477   2.334   2.791   5.068
 9174TIP3   OH227478   0.946   3.073   0.438
 9174TIP3    H127479   1.025   3.079   0.383
 9174TIP3    H227480   0.876   3.105   0.382
 9175TIP3   OH227481   7.503   0.654   6.811
 9175TIP3    H127482   7.429   0.629   6.757
 9175TIP3    H227483   7.567   0.690   6.750
 9176TIP3   OH227484   8.208   1.944   3.138
 9176TIP3    H127485   8.233   1.963   3.229
 9176TIP3    H227486   8.257   1.864   3.116
 9177TIP3   OH227487   2.384   4.449   1.754
 9177TIP3    H127488   2.305   4.453   1.699
 9177TIP3    H227489   2.406   4.356   1.757
 9178TIP3   OH227490   3.116   0.430   0.268
 9178TIP3    H127491   3.164   0.358   0.309
 9178TIP3    H227492   3.174   0.462   0.199
 9179TIP3   OH227493   1.990   0.271   0.596
 9179TIP3    H127494   1.997   0.364   0.577
 9179TIP3    H227495   2.048   0.257   0.671
 9180TIP3   OH227496   2.156   3.837   4.439
 9180TIP3    H127497   2.135   3.912   4.383
 9180TIP3    H227498   2.193   3.875   4.518
 9181TIP3   OH227499   5.378   5.499   6.079
 9181TIP3    H127500   5.383   5.497   6.175
 9181TIP3    H227501   5.322   5.574   6.060
 9182TIP3   OH227502   4.338   5.991   5.224
 9182TIP3    H127503   4.262   5.940   5.252
 9182TIP3    H227504   4.341   5.979   5.129
 9183TIP3   OH227505   0.544   6.891   0.859
 9183TIP3    H127506   0.451   6.875   0.839
 9183TIP3    H227507   0.591   6.826   0.808
 9184TIP3   OH227508   1.227   5.029   0.034
 9184TIP3    H127509   1.315   5.054   0.062
 9184TIP3    H227510   1.174   5.035   0.114
 9185TIP3   OH227511   3.777   4.949   6.327
 9185TIP3    H127512   3.810   4.865   6.360
 9185TIP3    H227513   3.693   4.961   6.372
 9186TIP3   OH227514   3.272   5.896   4.246
 9186TIP3    H127515   3.295   5.913   4.155
 9186TIP3    H227516   3.183   5.861   4.242
 9187TIP3   OH227517   6.197   6.007   0.797
 9187TIP3    H127518   6.163   6.076   0.854
 9187TIP3    H227519   6.285   5.990   0.829
 9188TIP3   OH227520   2.902   7.677   1.377
 9188TIP3    H127521   2.984   7.716   1.407
 9188TIP3    H227522   2.849   7.751   1.348
 9189TIP3   OH227523   1.428   0.022   2.631
 9189TIP3    H127524   1.465   0.023   2.543
 9189TIP3    H227525   1.466   0.100   2.673
 9190TIP3   OH227526   1.425   3.505   3.196
 9190TIP3    H127527   1.356   3.474   3.138
 9190TIP3    H227528   1.421   3.601   3.189
 9191TIP3   OH227529   7.827   2.725   3.742
 9191TIP3    H127530   7.823   2.668   3.665
 9191TIP3    H227531   7.872   2.672   3.808
 9192TIP3   OH227532   3.104   3.525   6.396
 9192TIP3    H127533   3.022   3.501   6.440
 9192TIP3    H227534   3.145   3.442   6.373
 9193TIP3   OH227535   5.297   5.619   4.276
 9193TIP3    H127536   5.355   5.552   4.311
 9193TIP3    H227537   5.354   5.695   4.261
 9194TIP3   OH227538   5.826   4.874   0.790
 9194TIP3    H127539   5.882   4.889   0.714
 9194TIP3    H227540   5.886   4.876   0.865
 9195TIP3   OH227541   1.139   6.725   5.281
 9195TIP3    H127542   1.164   6.736   5.189
 9195TIP3    H227543   1.098   6.808   5.306
 9196TIP3   OH227544   1.730   6.557   2.669
 9196TIP3    H127545   1.725   6.594   2.757
 9196TIP3    H227546   1.820   6.524   2.661
 9197TIP3   OH227547   4.768   7.610   0.494
 9197TIP3    H127548   4.700   7.657   0.445
 9197TIP3    H227549   4.791   7.669   0.566
 9198TIP3   OH227550   5.072   6.945   1.232
 9198TIP3    H127551   5.000   6.899   1.275
 9198TIP3    H227552   5.032   7.025   1.198
 9199TIP3   OH227553   4.441   4.382   4.604
 9199TIP3    H127554   4.492   4.331   4.667
 9199TIP3    H227555   4.353   4.344   4.607
 9200TIP3   OH227556   2.407   4.874   0.554
 9200TIP3    H127557   2.345   4.815   0.598
 9200TIP3    H227558   2.354   4.950   0.530
 9201TIP3   OH227559   3.221   2.262   4.581
 9201TIP3    H127560   3.152   2.208   4.619
 9201TIP3    H227561   3.176   2.340   4.549
 9202TIP3   OH227562   2.879   2.155   0.032
 9202TIP3    H127563   2.788   2.145   0.006
 9202TIP3    H227564   2.924   2.186  -0.047
 9203TIP3   OH227565   4.328   4.365   4.132
 9203TIP3    H127566   4.320   4.274   4.105
 9203TIP3    H227567   4.278   4.371   4.214
 9204TIP3   OH227568   0.263   5.147   6.246
 9204TIP3    H127569   0.190   5.197   6.210
 9204TIP3    H227570   0.278   5.185   6.333
 9205TIP3   OH227571   1.139   2.839   2.113
 9205TIP3    H127572   1.209   2.856   2.176
 9205TIP3    H227573   1.079   2.913   2.123
 9206TIP3   OH227574   6.782   5.547   2.638
 9206TIP3    H127575   6.844   5.602   2.590
 9206TIP3    H227576   6.733   5.501   2.570
 9207TIP3   OH227577   0.620   3.115   6.599
 9207TIP3    H127578   0.708   3.108   6.635
 9207TIP3    H227579   0.565   3.069   6.662
 9208TIP3   OH227580   6.804   3.126   1.277
 9208TIP3    H127581   6.840   3.176   1.350
 9208TIP3    H227582   6.713   3.111   1.299
 9209TIP3   OH227583   6.136   5.761   6.545
 9209TIP3    H127584   6.194   5.829   6.511
 9209TIP3    H227585   6.182   5.724   6.620
 9210TIP3   OH227586   1.279   3.817   4.238
 9210TIP3    H127587   1.259   3.902   4.277
 9210TIP3    H227588   1.200   3.765   4.253
 9211TIP3   OH227589   1.973   7.096   1.887
 9211TIP3    H127590   2.036   7.127   1.821
 9211TIP3    H227591   1.890   7.090   1.839
 9212TIP3   OH227592   4.307   7.355   4.377
 9212TIP3    H127593   4.213   7.348   4.394
 9212TIP3    H227594   4.325   7.449   4.381
 9213TIP3   OH227595   7.948   7.043   6.792
 9213TIP3    H127596   7.911   7.126   6.762
 9213TIP3    H227597   7.956   7.053   6.887
 9214TIP3   OH227598   4.148   6.857   1.504
 9214TIP3    H127599   4.055   6.841   1.494
 9214TIP3    H227600   4.155   6.953   1.509
 9215TIP3   OH227601   2.827   0.340   1.367
 9215TIP3    H127602   2.819   0.246   1.349
 9215TIP3    H227603   2.919   0.360   1.348
 9216TIP3   OH227604   3.948   4.272   2.354
 9216TIP3    H127605   4.002   4.350   2.344
 9216TIP3    H227606   3.974   4.214   2.283
 9217TIP3   OH227607   1.299   2.090   6.785
 9217TIP3    H127608   1.319   2.166   6.731
 9217TIP3    H227609   1.385   2.058   6.814
 9218TIP3   OH227610   3.552   0.263   6.330
 9218TIP3    H127611   3.458   0.276   6.347
 9218TIP3    H227612   3.581   0.205   6.401
 9219TIP3   OH227613   7.314   6.281   4.567
 9219TIP3    H127614   7.353   6.346   4.625
 9219TIP3    H227615   7.242   6.327   4.525
 9220TIP3   OH227616   3.586   1.403   4.587
 9220TIP3    H127617   3.524   1.362   4.647
 9220TIP3    H227618   3.548   1.489   4.567
 9221TIP3   OH227619   7.918   7.786   2.842
 9221TIP3    H127620   7.973   7.823   2.773
 9221TIP3    H227621   7.941   7.837   2.920
 9222TIP3   OH227622   5.426   1.881   5.210
 9222TIP3    H127623   5.418   1.885   5.115
 9222TIP3    H227624   5.398   1.967   5.241
 9223TIP3   OH227625   5.383   6.737   4.863
 9223TIP3    H127626   5.476   6.715   4.862
 9223TIP3    H227627   5.367   6.766   4.953
 9224TIP3   OH227628   5.132   3.280   4.680
 9224TIP3    H127629   5.213   3.257   4.726
 9224TIP3    H227630   5.063   3.263   4.743
 9225TIP3   OH227631   5.983   1.682   2.154
 9225TIP3    H127632   5.982   1.638   2.069
 9225TIP3    H227633   5.948   1.769   2.136
 9226TIP3   OH227634   1.715   1.431   0.921
 9226TIP3    H127635   1.727   1.437   1.016
 9226TIP3    H227636   1.789   1.379   0.891
 9227TIP3   OH227637   5.271   3.202   0.255
 9227TIP3    H127638   5.209   3.256   0.303
 9227TIP3    H227639   5.352   3.252   0.255
 9228TIP3   OH227640   0.195   4.473   2.762
 9228TIP3    H127641   0.114   4.488   2.714
 9228TIP3    H227642   0.176   4.505   2.851
 9229TIP3   OH227643   1.093   5.010   2.661
 9229TIP3    H127644   1.176   4.963   2.661
 9229TIP3    H227645   1.081   5.037   2.752
 9230TIP3   OH227646   1.825   3.887   5.543
 9230TIP3    H127647   1.805   3.801   5.580
 9230TIP3    H227648   1.868   3.935   5.613
 9231TIP3   OH227649   8.265   6.541   0.299
 9231TIP3    H127650   8.269   6.454   0.339
 9231TIP3    H227651   8.234   6.524   0.210
 9232TIP3   OH227652   3.469   3.198   6.245
 9232TIP3    H127653   3.555   3.217   6.209
 9232TIP3    H227654   3.463   3.103   6.245
 9233TIP3   OH227655   2.484   5.501   0.522
 9233TIP3    H127656   2.516   5.539   0.440
 9233TIP3    H227657   2.555   5.446   0.552
 9234TIP3   OH227658   2.055   5.186   6.016
 9234TIP3    H127659   2.015   5.123   6.076
 9234TIP3    H227660   2.089   5.254   6.074
 9235TIP3   OH227661   7.303   2.765   4.538
 9235TIP3    H127662   7.270   2.690   4.488
 9235TIP3    H227663   7.354   2.725   4.609
 9236TIP3   OH227664   3.654   5.347   0.679
 9236TIP3    H127665   3.634   5.274   0.738
 9236TIP3    H227666   3.612   5.323   0.597
 9237TIP3   OH227667   5.236   7.026   2.262
 9237TIP3    H127668   5.148   7.063   2.253
 9237TIP3    H227669   5.282   7.054   2.183
 9238TIP3   OH227670   1.472   7.186   4.334
 9238TIP3    H127671   1.496   7.122   4.267
 9238TIP3    H227672   1.466   7.135   4.415
 9239TIP3   OH227673   1.037   6.086   2.694
 9239TIP3    H127674   1.055   6.002   2.652
 9239TIP3    H227675   1.102   6.146   2.657
 9240TIP3   OH227676   2.753   7.543   0.592
 9240TIP3    H127677   2.683   7.479   0.580
 9240TIP3    H227678   2.734   7.611   0.528
 9241TIP3   OH227679   2.663   4.351   5.246
 9241TIP3    H127680   2.713   4.393   5.176
 9241TIP3    H227681   2.593   4.304   5.200
 9242TIP3   OH227682   4.435   0.477   0.942
 9242TIP3    H127683   4.396   0.389   0.939
 9242TIP3    H227684   4.529   0.461   0.945
 9243TIP3   OH227685   5.536   5.021   2.674
 9243TIP3    H127686   5.476   5.060   2.611
 9243TIP3    H227687   5.482   4.960   2.724
 9244TIP3   OH227688   7.062   1.059   5.031
 9244TIP3    H127689   6.990   1.122   5.036
 9244TIP3    H227690   7.127   1.093   5.093
 9245TIP3   OH227691   6.637   6.854   6.386
 9245TIP3    H127692   6.715   6.863   6.331
 9245TIP3    H227693   6.656   6.907   6.464
 9246TIP3   OH227694   2.002   5.191   3.657
 9246TIP3    H127695   2.046   5.240   3.726
 9246TIP3    H227696   1.924   5.155   3.699
 9247TIP3   OH227697   3.753   7.608   5.826
 9247TIP3    H127698   3.708   7.531   5.792
 9247TIP3    H227699   3.832   7.574   5.867
 9248TIP3   OH227700   3.528   0.255   2.531
 9248TIP3    H127701   3.578   0.335   2.522
 9248TIP3    H227702   3.593   0.185   2.519
 9249TIP3   OH227703   4.564   6.203   0.560
 9249TIP3    H127704   4.477   6.200   0.599
 9249TIP3    H227705   4.604   6.282   0.597
 9250TIP3   OH227706   3.919   2.619   4.666
 9250TIP3    H127707   3.941   2.653   4.753
 9250TIP3    H227708   3.855   2.681   4.631
 9251TIP3   OH227709   0.074   7.588   3.180
 9251TIP3    H127710   0.039   7.668   3.140
 9251TIP3    H227711   0.001   7.553   3.232
 9252TIP3   OH227712   7.444   4.296   1.648
 9252TIP3    H127713   7.519   4.301   1.707
 9252TIP3    H227714   7.397   4.378   1.661
 9253TIP3   OH227715   7.135   0.268   2.478
 9253TIP3    H127716   7.115   0.276   2.571
 9253TIP3    H227717   7.179   0.350   2.455
 9254TIP3   OH227718   6.124   0.245   4.325
 9254TIP3    H127719   6.191   0.281   4.384
 9254TIP3    H227720   6.085   0.321   4.284
 9255TIP3   OH227721   4.473   5.931   4.958
 9255TIP3    H127722   4.403   5.918   4.894
 9255TIP3    H227723   4.508   5.843   4.972
 9256TIP3   OH227724   8.185   2.143   0.664
 9256TIP3    H127725   8.146   2.070   0.711
 9256TIP3    H227726   8.273   2.151   0.701
 9257TIP3   OH227727   3.399   2.181   5.976
 9257TIP3    H127728   3.314   2.208   6.012
 9257TIP3    H227729   3.453   2.259   5.981
 9258TIP3   OH227730   3.431   6.373   4.225
 9258TIP3    H127731   3.365   6.410   4.284
 9258TIP3    H227732   3.437   6.436   4.153
 9259TIP3   OH227733   1.667   2.801   4.326
 9259TIP3    H127734   1.578   2.798   4.291
 9259TIP3    H227735   1.657   2.779   4.419
 9260TIP3   OH227736   1.971   2.802   4.449
 9260TIP3    H127737   2.026   2.744   4.501
 9260TIP3    H227738   1.892   2.751   4.431
 9261TIP3   OH227739   6.146   5.951   5.346
 9261TIP3    H127740   6.059   5.987   5.327
 9261TIP3    H227741   6.192   5.955   5.262
 9262TIP3   OH227742   7.268   4.314   5.274
 9262TIP3    H127743   7.349   4.345   5.235
 9262TIP3    H227744   7.285   4.223   5.297
 9263TIP3   OH227745   0.178   6.395   4.695
 9263TIP3    H127746   0.117   6.324   4.675
 9263TIP3    H227747   0.217   6.371   4.779
 9264TIP3   OH227748   5.541   4.524   3.756
 9264TIP3    H127749   5.503   4.514   3.669
 9264TIP3    H227750   5.465   4.532   3.814
 9265TIP3   OH227751   7.042   3.732   3.289
 9265TIP3    H127752   7.052   3.637   3.279
 9265TIP3    H227753   7.131   3.764   3.301
 9266TIP3   OH227754   5.633   1.210   2.924
 9266TIP3    H127755   5.677   1.210   3.009
 9266TIP3    H227756   5.598   1.122   2.914
 9267TIP3   OH227757   4.448   6.576   1.664
 9267TIP3    H127758   4.377   6.518   1.692
 9267TIP3    H227759   4.489   6.530   1.591
 9268TIP3   OH227760   2.206   0.891   2.917
 9268TIP3    H127761   2.220   0.825   2.849
 9268TIP3    H227762   2.218   0.975   2.872
 9269TIP3   OH227763   7.069   3.440   1.111
 9269TIP3    H127764   7.147   3.494   1.097
 9269TIP3    H227765   7.025   3.481   1.185
 9270TIP3   OH227766   3.783   3.905   0.768
 9270TIP3    H127767   3.876   3.913   0.746
 9270TIP3    H227768   3.776   3.822   0.815
 9271TIP3   OH227769   5.822   5.780   1.923
 9271TIP3    H127770   5.760   5.719   1.883
 9271TIP3    H227771   5.899   5.728   1.942
 9272TIP3   OH227772   5.331   7.786   6.458
 9272TIP3    H127773   5.415   7.749   6.430
 9272TIP3    H227774   5.267   7.718   6.439
 9273TIP3   OH227775   7.175   7.745   4.657
 9273TIP3    H127776   7.156   7.718   4.567
 9273TIP3    H227777   7.235   7.820   4.647
 9274TIP3   OH227778   7.172   1.761   1.976
 9274TIP3    H127779   7.104   1.766   2.044
 9274TIP3    H227780   7.132   1.708   1.907
 9275TIP3   OH227781   1.509   0.809   3.909
 9275TIP3    H127782   1.546   0.748   3.845
 9275TIP3    H227783   1.430   0.843   3.867
 9276TIP3   OH227784   6.555   6.167   2.370
 9276TIP3    H127785   6.608   6.233   2.325
 9276TIP3    H227786   6.468   6.207   2.377
 9277TIP3   OH227787   5.755   5.389   6.470
 9277TIP3    H127788   5.811   5.313   6.455
 9277TIP3    H227789   5.670   5.365   6.433
 9278TIP3   OH227790   8.342   5.446   0.518
 9278TIP3    H127791   8.293   5.437   0.600
 9278TIP3    H227792   8.358   5.357   0.488
 9279TIP3   OH227793   1.417   4.236   2.756
 9279TIP3    H127794   1.420   4.145   2.783
 9279TIP3    H227795   1.385   4.283   2.834
 9280TIP3   OH227796   4.880   2.790   1.401
 9280TIP3    H127797   4.802   2.833   1.365
 9280TIP3    H227798   4.884   2.706   1.357
 9281TIP3   OH227799   4.926   1.789   2.597
 9281TIP3    H127800   5.018   1.772   2.575
 9281TIP3    H227801   4.879   1.783   2.514
 9282TIP3   OH227802   0.552   2.790   6.160
 9282TIP3    H127803   0.592   2.704   6.169
 9282TIP3    H227804   0.613   2.850   6.202
 9283TIP3   OH227805   2.610   2.675   1.588
 9283TIP3    H127806   2.664   2.597   1.573
 9283TIP3    H227807   2.667   2.748   1.563
 9284TIP3   OH227808   5.830   4.252   4.964
 9284TIP3    H127809   5.812   4.161   4.939
 9284TIP3    H227810   5.751   4.300   4.939
 9285TIP3   OH227811   5.957  -0.034   2.467
 9285TIP3    H127812   5.965  -0.058   2.374
 9285TIP3    H227813   5.867  -0.003   2.476
 9286TIP3   OH227814   5.642   0.645   5.117
 9286TIP3    H127815   5.606   0.722   5.162
 9286TIP3    H227816   5.602   0.571   5.162
 9287TIP3   OH227817   2.497   0.728   2.656
 9287TIP3    H127818   2.437   0.708   2.585
 9287TIP3    H227819   2.539   0.810   2.630
 9288TIP3   OH227820   6.098   2.259   2.220
 9288TIP3    H127821   6.050   2.306   2.289
 9288TIP3    H227822   6.184   2.242   2.259
 9289TIP3   OH227823  -0.015   7.090   0.852
 9289TIP3    H127824   0.059   7.079   0.912
 9289TIP3    H227825  -0.092   7.095   0.908
 9290TIP3   OH227826   6.213   3.698   5.860
 9290TIP3    H127827   6.138   3.728   5.809
 9290TIP3    H227828   6.234   3.612   5.824
 9291TIP3   OH227829   3.659   4.719   2.036
 9291TIP3    H127830   3.656   4.718   2.132
 9291TIP3    H227831   3.585   4.666   2.009
 9292TIP3   OH227832   7.561   1.408   5.770
 9292TIP3    H127833   7.546   1.366   5.855
 9292TIP3    H227834   7.629   1.355   5.729
 9293TIP3   OH227835   3.935   6.793   2.473
 9293TIP3    H127836   3.950   6.791   2.567
 9293TIP3    H227837   3.964   6.880   2.446
 9294TIP3   OH227838   2.137   0.759   0.193
 9294TIP3    H127839   2.230   0.737   0.189
 9294TIP3    H227840   2.121   0.808   0.112
 9295TIP3   OH227841   7.103   0.426   1.175
 9295TIP3    H127842   7.184   0.476   1.186
 9295TIP3    H227843   7.104   0.396   1.085
 9296TIP3   OH227844   0.332   1.582   4.275
 9296TIP3    H127845   0.246   1.579   4.234
 9296TIP3    H227846   0.392   1.549   4.208
 9297TIP3   OH227847   1.386   4.639   3.584
 9297TIP3    H127848   1.464   4.615   3.633
 9297TIP3    H227849   1.416   4.644   3.493
 9298TIP3   OH227850   0.575   5.730   5.493
 9298TIP3    H127851   0.554   5.725   5.586
 9298TIP3    H227852   0.660   5.687   5.485
 9299TIP3   OH227853   0.246   1.540   2.115
 9299TIP3    H127854   0.269   1.448   2.104
 9299TIP3    H227855   0.279   1.583   2.036
 9300TIP3   OH227856   7.880   0.577   3.094
 9300TIP3    H127857   7.946   0.573   3.025
 9300TIP3    H227858   7.907   0.510   3.157
 9301TIP3   OH227859   4.028   3.579   3.334
 9301TIP3    H127860   4.112   3.590   3.290
 9301TIP3    H227861   3.995   3.669   3.345
 9302TIP3   OH227862   3.334   0.090   6.071
 9302TIP3    H127863   3.424   0.119   6.057
 9302TIP3    H227864   3.298   0.153   6.133
 9303TIP3   OH227865   3.458   2.654   1.462
 9303TIP3    H127866   3.541   2.664   1.415
 9303TIP3    H227867   3.414   2.582   1.417
 9304TIP3   OH227868   6.092   3.141   0.635
 9304TIP3    H127869   6.135   3.194   0.568
 9304TIP3    H227870   5.999   3.153   0.618
 9305TIP3   OH227871   7.256   3.750   1.877
 9305TIP3    H127872   7.220   3.676   1.925
 9305TIP3    H227873   7.319   3.789   1.937
 9306TIP3   OH227874   1.177   4.412   0.910
 9306TIP3    H127875   1.252   4.467   0.934
 9306TIP3    H227876   1.101   4.468   0.923
 9307TIP3   OH227877   3.267   6.638   5.389
 9307TIP3    H127878   3.317   6.616   5.468
 9307TIP3    H227879   3.312   6.714   5.351
 9308TIP3   OH227880   6.441   5.361   2.591
 9308TIP3    H127881   6.422   5.284   2.537
 9308TIP3    H227882   6.431   5.331   2.681
 9309TIP3   OH227883   3.085   7.202   1.726
 9309TIP3    H127884   3.106   7.180   1.635
 9309TIP3    H227885   3.142   7.276   1.746
 9310TIP3   OH227886   6.947   6.723   0.538
 9310TIP3    H127887   6.894   6.691   0.465
 9310TIP3    H227888   6.916   6.812   0.553
 9311TIP3   OH227889   2.256   1.714   1.298
 9311TIP3    H127890   2.193   1.648   1.270
 9311TIP3    H227891   2.342   1.673   1.285
 9312TIP3   OH227892   7.351   0.638   6.437
 9312TIP3    H127893   7.416   0.569   6.446
 9312TIP3    H227894   7.284   0.616   6.501
 9313TIP3   OH227895   5.441   0.076   4.249
 9313TIP3    H127896   5.465  -0.009   4.213
 9313TIP3    H227897   5.451   0.066   4.343
 9314TIP3   OH227898   5.603   6.020   6.438
 9314TIP3    H127899   5.653   6.090   6.396
 9314TIP3    H227900   5.539   6.065   6.493
 9315TIP3   OH227901   5.696   2.808   6.715
 9315TIP3    H127902   5.707   2.764   6.799
 9315TIP3    H227903   5.753   2.885   6.720
 9316TIP3   OH227904   5.750   0.184   2.495
 9316TIP3    H127905   5.667   0.139   2.478
 9316TIP3    H227906   5.775   0.220   2.409
 9317TIP3   OH227907   1.651   1.466   0.144
 9317TIP3    H127908   1.644   1.502   0.232
 9317TIP3    H227909   1.575   1.409   0.135
 9318TIP3   OH227910   1.173   1.715   3.972
 9318TIP3    H127911   1.200   1.734   4.062
 9318TIP3    H227912   1.096   1.770   3.957
 9319TIP3   OH227913   3.720   4.766   5.111
 9319TIP3    H127914   3.734   4.859   5.125
 9319TIP3    H227915   3.704   4.730   5.198
 9320TIP3   OH227916   4.130   7.122   1.511
 9320TIP3    H127917   4.147   7.140   1.418
 9320TIP3    H227918   4.179   7.190   1.558
 9321TIP3   OH227919   7.254   4.594   6.476
 9321TIP3    H127920   7.265   4.545   6.395
 9321TIP3    H227921   7.173   4.558   6.514
 9322TIP3   OH227922   0.595   3.496   0.114
 9322TIP3    H127923   0.671   3.498   0.172
 9322TIP3    H227924   0.529   3.549   0.159
 9323TIP3   OH227925   7.587   6.799   0.775
 9323TIP3    H127926   7.505   6.798   0.725
 9323TIP3    H227927   7.559   6.814   0.865
 9324TIP3   OH227928   2.904   2.354   2.270
 9324TIP3    H127929   2.979   2.412   2.279
 9324TIP3    H227930   2.928   2.293   2.200
 9325TIP3   OH227931   5.300   0.654   3.488
 9325TIP3    H127932   5.281   0.585   3.552
 9325TIP3    H227933   5.395   0.648   3.474
 9326TIP3   OH227934   2.212   2.769   4.126
 9326TIP3    H127935   2.223   2.821   4.205
 9326TIP3    H227936   2.128   2.725   4.137
 9327TIP3   OH227937   0.072   0.976   5.159
 9327TIP3    H127938   0.094   0.920   5.084
 9327TIP3    H227939   0.042   1.058   5.120
 9328TIP3   OH227940   4.354   1.450   6.718
 9328TIP3    H127941   4.387   1.378   6.771
 9328TIP3    H227942   4.428   1.475   6.662
 9329TIP3   OH227943   6.979   3.587   1.342
 9329TIP3    H127944   6.972   3.586   1.438
 9329TIP3    H227945   7.067   3.619   1.325
 9330TIP3   OH227946   3.659   5.551   1.554
 9330TIP3    H127947   3.663   5.636   1.599
 9330TIP3    H227948   3.639   5.488   1.623
 9331TIP3   OH227949   6.234   2.938   5.885
 9331TIP3    H127950   6.156   2.992   5.868
 9331TIP3    H227951   6.232   2.923   5.980
 9332TIP3   OH227952   1.882   1.260   6.337
 9332TIP3    H127953   1.912   1.337   6.289
 9332TIP3    H227954   1.787   1.261   6.326
 9333TIP3   OH227955   0.116   1.856   1.911
 9333TIP3    H127956   0.206   1.881   1.893
 9333TIP3    H227957   0.114   1.838   2.005
 9334TIP3   OH227958   7.172   1.550   4.639
 9334TIP3    H127959   7.263   1.566   4.666
 9334TIP3    H227960   7.171   1.571   4.546
 9335TIP3   OH227961   3.420   0.784   4.105
 9335TIP3    H127962   3.366   0.708   4.130
 9335TIP3    H227963   3.510   0.757   4.124
 9336TIP3   OH227964   0.205   6.750   4.343
 9336TIP3    H127965   0.273   6.693   4.307
 9336TIP3    H227966   0.193   6.718   4.433
 9337TIP3   OH227967   7.904   0.113   0.224
 9337TIP3    H127968   7.922   0.022   0.246
 9337TIP3    H227969   7.950   0.127   0.141
 9338TIP3   OH227970   0.383   2.849   0.502
 9338TIP3    H127971   0.388   2.911   0.429
 9338TIP3    H227972   0.291   2.827   0.508
 9339TIP3   OH227973   7.468   4.371   6.478
 9339TIP3    H127974   7.492   4.311   6.548
 9339TIP3    H227975   7.376   4.391   6.495
 9340TIP3   OH227976   7.918   1.392   1.335
 9340TIP3    H127977   7.865   1.394   1.414
 9340TIP3    H227978   7.931   1.299   1.316
 9341TIP3   OH227979   7.224   5.247   4.584
 9341TIP3    H127980   7.211   5.189   4.659
 9341TIP3    H227981   7.197   5.195   4.508
 9342TIP3   OH227982   7.833   7.727   1.723
 9342TIP3    H127983   7.798   7.638   1.721
 9342TIP3    H227984   7.766   7.779   1.767
 9343TIP3   OH227985   3.937   6.181   3.492
 9343TIP3    H127986   3.927   6.103   3.437
 9343TIP3    H227987   4.019   6.168   3.538
 9344TIP3   OH227988   5.700   0.275   3.884
 9344TIP3    H127989   5.737   0.300   3.799
 9344TIP3    H227990   5.768   0.220   3.923
 9345TIP3   OH227991   3.238   3.940   5.370
 9345TIP3    H127992   3.273   3.915   5.455
 9345TIP3    H227993   3.281   3.880   5.308
 9346TIP3   OH227994   6.546   4.588   0.400
 9346TIP3    H127995   6.524   4.501   0.434
 9346TIP3    H227996   6.595   4.630   0.471
 9347TIP3   OH227997   4.328   2.806   0.081
 9347TIP3    H127998   4.302   2.892   0.047
 9347TIP3    H227999   4.380   2.767   0.011
 9348TIP3   OH228000   7.513   2.650   1.800
 9348TIP3    H128001   7.551   2.631   1.714
 9348TIP3    H228002   7.587   2.644   1.860
 9349TIP3   OH228003   5.000   0.075   3.732
 9349TIP3    H128004   5.055   0.018   3.785
 9349TIP3    H228005   5.056   0.101   3.659
 9350TIP3   OH228006   1.756   0.485   5.386
 9350TIP3    H128007   1.823   0.417   5.396
 9350TIP3    H228008   1.807   0.566   5.374
 9351TIP3   OH228009   6.735   5.947   4.265
 9351TIP3    H128010   6.790   5.966   4.189
 9351TIP3    H228011   6.780   5.988   4.339
 9352TIP3   OH228012   1.291   7.451   2.128
 9352TIP3    H128013   1.256   7.364   2.108
 9352TIP3    H228014   1.386   7.441   2.118
 9353TIP3   OH228015   0.832   1.297   2.850
 9353TIP3    H128016   0.900   1.268   2.790
 9353TIP3    H228017   0.751   1.261   2.814
 9354TIP3   OH228018   0.455   2.995   4.873
 9354TIP3    H128019   0.459   3.030   4.784
 9354TIP3    H228020   0.542   3.012   4.909
 9355TIP3   OH228021   2.154   2.995   4.888
 9355TIP3    H128022   2.220   3.054   4.851
 9355TIP3    H228023   2.100   2.970   4.813
 9356TIP3   OH228024   3.501   4.165   3.588
 9356TIP3    H128025   3.521   4.128   3.502
 9356TIP3    H228026   3.432   4.230   3.571
 9357TIP3   OH228027   2.530   5.859   5.604
 9357TIP3    H128028   2.575   5.778   5.580
 9357TIP3    H228029   2.440   5.845   5.573
 9358TIP3   OH228030   3.858   4.985   4.722
 9358TIP3    H128031   3.909   4.929   4.781
 9358TIP3    H228032   3.892   5.073   4.737
 9359TIP3   OH228033   7.555   7.559   4.357
 9359TIP3    H128034   7.649   7.541   4.355
 9359TIP3    H228035   7.516   7.489   4.305
 9360TIP3   OH228036   2.835   4.672   6.805
 9360TIP3    H128037   2.778   4.717   6.868
 9360TIP3    H228038   2.775   4.639   6.738
 9361TIP3   OH228039   4.082   5.422   3.415
 9361TIP3    H128040   4.166   5.399   3.378
 9361TIP3    H228041   4.082   5.382   3.502
 9362TIP3   OH228042   2.549   4.958   1.206
 9362TIP3    H128043   2.618   4.903   1.170
 9362TIP3    H228044   2.580   5.048   1.191
 9363TIP3   OH228045   6.134   6.508   2.703
 9363TIP3    H128046   6.069   6.577   2.711
 9363TIP3    H228047   6.121   6.472   2.616
 9364TIP3   OH228048   4.710   1.943   5.880
 9364TIP3    H128049   4.743   2.025   5.842
 9364TIP3    H228050   4.789   1.891   5.896
 9365TIP3   OH228051   1.990   2.034   6.745
 9365TIP3    H128052   1.979   1.955   6.692
 9365TIP3    H228053   2.083   2.055   6.739
 9366TIP3   OH228054   4.260   0.877   2.135
 9366TIP3    H128055   4.337   0.928   2.160
 9366TIP3    H228056   4.207   0.937   2.083
 9367TIP3   OH228057   5.896   4.217   3.454
 9367TIP3    H128058   5.974   4.250   3.408
 9367TIP3    H228059   5.867   4.143   3.401
 9368TIP3   OH228060   5.519   4.540   2.725
 9368TIP3    H128061   5.480   4.589   2.797
 9368TIP3    H228062   5.461   4.557   2.651
 9369TIP3   OH228063   1.630   2.036   6.759
 9369TIP3    H128064   1.644   2.060   6.667
 9369TIP3    H228065   1.717   2.012   6.790
 9370TIP3   OH228066   5.895   2.325   3.951
 9370TIP3    H128067   5.898   2.231   3.935
 9370TIP3    H228068   5.817   2.338   4.005
 9371TIP3   OH228069   2.287   6.795   1.197
 9371TIP3    H128070   2.340   6.754   1.265
 9371TIP3    H228071   2.269   6.725   1.135
 9372TIP3   OH228072   4.984   2.532   2.960
 9372TIP3    H128073   5.040   2.595   3.005
 9372TIP3    H228074   4.895   2.565   2.974
 9373TIP3   OH228075   3.389   5.919   6.329
 9373TIP3    H128076   3.366   5.848   6.268
 9373TIP3    H228077   3.483   5.931   6.318
 9374TIP3   OH228078   1.927   0.511   5.744
 9374TIP3    H128079   1.857   0.575   5.754
 9374TIP3    H228080   1.980   0.544   5.671
 9375TIP3   OH228081   4.191   4.116   1.933
 9375TIP3    H128082   4.278   4.095   1.898
 9375TIP3    H228083   4.188   4.211   1.933
 9376TIP3   OH228084   3.699   0.042   3.835
 9376TIP3    H128085   3.759   0.115   3.821
 9376TIP3    H228086   3.612   0.081   3.826
 9377TIP3   OH228087   6.070   3.998   5.991
 9377TIP3    H128088   6.046   3.951   5.911
 9377TIP3    H228089   6.033   3.945   6.062
 9378TIP3   OH228090   3.009   2.103   4.743
 9378TIP3    H128091   2.975   2.193   4.744
 9378TIP3    H228092   2.983   2.067   4.828
 9379TIP3   OH228093   5.019   0.792   6.475
 9379TIP3    H128094   4.929   0.795   6.442
 9379TIP3    H228095   5.067   0.741   6.410
 9380TIP3   OH228096   4.476   1.783   5.827
 9380TIP3    H128097   4.556   1.829   5.850
 9380TIP3    H228098   4.409   1.851   5.826
 9381TIP3   OH228099   6.845   6.351   5.191
 9381TIP3    H128100   6.927   6.398   5.208
 9381TIP3    H228101   6.826   6.305   5.273
 9382TIP3   OH228102   2.999   1.318   5.369
 9382TIP3    H128103   2.970   1.241   5.418
 9382TIP3    H228104   3.035   1.377   5.435
 9383TIP3   OH228105   0.403   2.488   4.646
 9383TIP3    H128106   0.373   2.448   4.565
 9383TIP3    H228107   0.379   2.427   4.715
 9384TIP3   OH228108   7.452   3.531   0.342
 9384TIP3    H128109   7.423   3.615   0.376
 9384TIP3    H228110   7.424   3.468   0.409
 9385TIP3   OH228111   7.473   0.970   3.596
 9385TIP3    H128112   7.492   0.956   3.503
 9385TIP3    H228113   7.393   0.921   3.611
 9386TIP3   OH228114   0.501   2.198   3.559
 9386TIP3    H128115   0.489   2.128   3.623
 9386TIP3    H228116   0.594   2.219   3.563
 9387TIP3   OH228117   6.043   3.344   4.205
 9387TIP3    H128118   6.043   3.439   4.209
 9387TIP3    H228119   6.044   3.315   4.296
 9388TIP3   OH228120   5.318   0.262   3.258
 9388TIP3    H128121   5.252   0.323   3.291
 9388TIP3    H228122   5.310   0.268   3.163
 9389TIP3   OH228123   5.256   4.112   5.148
 9389TIP3    H128124   5.264   4.062   5.067
 9389TIP3    H228125   5.237   4.202   5.120
 9390TIP3   OH228126   6.300   2.064   3.849
 9390TIP3    H128127   6.341   1.990   3.895
 9390TIP3    H228128   6.290   2.132   3.916
 9391TIP3   OH228129   6.002   4.650   6.270
 9391TIP3    H128130   6.048   4.568   6.289
 9391TIP3    H228131   6.047   4.685   6.194
 9392TIP3   OH228132   2.375   7.779   2.683
 9392TIP3    H128133   2.423   7.783   2.766
 9392TIP3    H228134   2.295   7.731   2.704
 9393TIP3   OH228135   5.632   4.662   3.057
 9393TIP3    H128136   5.579   4.701   3.128
 9393TIP3    H228137   5.619   4.568   3.067
 9394TIP3   OH228138   3.404   2.612   0.894
 9394TIP3    H128139   3.350   2.588   0.819
 9394TIP3    H228140   3.464   2.679   0.860
 9395TIP3   OH228141   4.348   6.469   2.331
 9395TIP3    H128142   4.301   6.387   2.316
 9395TIP3    H228143   4.361   6.472   2.426
 9396TIP3   OH228144   8.077   4.877   4.217
 9396TIP3    H128145   8.169   4.861   4.198
 9396TIP3    H228146   8.073   4.969   4.241
 9397TIP3   OH228147   7.555   4.476   2.610
 9397TIP3    H128148   7.549   4.553   2.554
 9397TIP3    H228149   7.551   4.402   2.550
 9398TIP3   OH228150   2.516   7.400   0.524
 9398TIP3    H128151   2.423   7.400   0.546
 9398TIP3    H228152   2.546   7.312   0.547
 9399TIP3   OH228153   0.489   4.042   5.562
 9399TIP3    H128154   0.475   4.047   5.467
 9399TIP3    H228155   0.441   3.963   5.588
 9400TIP3   OH228156   6.502   3.035   4.339
 9400TIP3    H128157   6.431   3.054   4.400
 9400TIP3    H228158   6.579   3.077   4.380
 9401TIP3   OH228159   7.153   5.568   1.733
 9401TIP3    H128160   7.219   5.498   1.727
 9401TIP3    H228161   7.172   5.611   1.817
 9402TIP3   OH228162   5.222   2.288   1.356
 9402TIP3    H128163   5.278   2.233   1.301
 9402TIP3    H228164   5.212   2.238   1.437
 9403TIP3   OH228165   7.774   0.258   0.961
 9403TIP3    H128166   7.838   0.277   0.893
 9403TIP3    H228167   7.738   0.173   0.937
 9404TIP3   OH228168   1.854   0.348   6.748
 9404TIP3    H128169   1.799   0.271   6.732
 9404TIP3    H228170   1.940   0.311   6.770
 9405TIP3   OH228171   0.343   2.329   2.392
 9405TIP3    H128172   0.412   2.326   2.458
 9405TIP3    H228173   0.303   2.415   2.403
 9406TIP3   OH228174   2.968   5.466   2.764
 9406TIP3    H128175   2.881   5.429   2.754
 9406TIP3    H228176   3.025   5.410   2.712
 9407TIP3   OH228177   2.863   7.347   6.219
 9407TIP3    H128178   2.852   7.440   6.196
 9407TIP3    H228179   2.774   7.313   6.223
 9408TIP3   OH228180   3.964   0.747   5.315
 9408TIP3    H128181   3.923   0.669   5.278
 9408TIP3    H228182   3.941   0.817   5.254
 9409TIP3   OH228183   7.412   4.267   3.882
 9409TIP3    H128184   7.474   4.315   3.938
 9409TIP3    H228185   7.467   4.220   3.820
 9410TIP3   OH228186   5.085   3.460   3.387
 9410TIP3    H128187   5.162   3.443   3.333
 9410TIP3    H228188   5.063   3.375   3.425
 9411TIP3   OH228189   4.978   2.517   2.523
 9411TIP3    H128190   5.018   2.430   2.514
 9411TIP3    H228191   4.915   2.521   2.450
 9412TIP3   OH228192   1.082   4.668   1.155
 9412TIP3    H128193   1.091   4.763   1.145
 9412TIP3    H228194   1.002   4.657   1.206
 9413TIP3   OH228195   5.908   5.746   0.008
 9413TIP3    H128196   5.897   5.810  -0.063
 9413TIP3    H228197   5.935   5.799   0.083
 9414TIP3   OH228198   7.355   3.599   4.799
 9414TIP3    H128199   7.410   3.620   4.875
 9414TIP3    H228200   7.289   3.540   4.833
 9415TIP3   OH228201   7.534   0.191   5.971
 9415TIP3    H128202   7.456   0.205   6.025
 9415TIP3    H228203   7.603   0.239   6.017
 9416TIP3   OH228204   4.031   7.415   5.656
 9416TIP3    H128205   4.079   7.467   5.720
 9416TIP3    H228206   4.088   7.340   5.637
 9417TIP3   OH228207   6.336   7.662   5.727
 9417TIP3    H128208   6.407   7.726   5.730
 9417TIP3    H228209   6.376   7.580   5.757
 9418TIP3   OH228210   4.321   6.925   5.521
 9418TIP3    H128211   4.237   6.929   5.566
 9418TIP3    H228212   4.376   6.988   5.567
 9419TIP3   OH228213   2.306   6.025   4.437
 9419TIP3    H128214   2.279   5.933   4.436
 9419TIP3    H228215   2.388   6.026   4.486
 9420TIP3   OH228216   2.351   5.194   0.226
 9420TIP3    H128217   2.273   5.216   0.276
 9420TIP3    H228218   2.422   5.191   0.291
 9421TIP3   OH228219   0.797   5.686   0.932
 9421TIP3    H128220   0.781   5.753   0.999
 9421TIP3    H228221   0.863   5.629   0.971
 9422TIP3   OH228222   1.109   2.145   6.251
 9422TIP3    H128223   1.163   2.219   6.278
 9422TIP3    H228224   1.173   2.074   6.237
 9423TIP3   OH228225   2.208   2.904   2.198
 9423TIP3    H128226   2.252   2.978   2.239
 9423TIP3    H228227   2.279   2.855   2.156
 9424TIP3   OH228228   5.914   6.798   4.947
 9424TIP3    H128229   5.966   6.797   5.027
 9424TIP3    H228230   5.935   6.882   4.906
 9425TIP3   OH228231   5.814   5.307   3.050
 9425TIP3    H128232   5.791   5.383   2.996
 9425TIP3    H228233   5.874   5.256   2.997
 9426TIP3   OH228234   7.333   0.511   0.987
 9426TIP3    H128235   7.316   0.599   1.021
 9426TIP3    H228236   7.387   0.470   1.055
 9427TIP3   OH228237   3.040   6.516   0.740
 9427TIP3    H128238   3.046   6.526   0.835
 9427TIP3    H228239   2.963   6.567   0.715
 9428TIP3   OH228240   4.130   1.071   1.996
 9428TIP3    H128241   4.158   1.161   1.980
 9428TIP3    H228242   4.086   1.045   1.915
 9429TIP3   OH228243   3.115   1.074   6.113
 9429TIP3    H128244   3.057   1.124   6.055
 9429TIP3    H228245   3.064   0.997   6.137
 9430TIP3   OH228246   6.766   0.792   3.401
 9430TIP3    H128247   6.846   0.805   3.350
 9430TIP3    H228248   6.713   0.734   3.347
 9431TIP3   OH228249   0.359   5.997   5.173
 9431TIP3    H128250   0.264   6.004   5.166
 9431TIP3    H228251   0.374   5.920   5.227
 9432TIP3   OH228252   7.031   0.013   3.406
 9432TIP3    H128253   7.123   0.009   3.432
 9432TIP3    H228254   7.027   0.086   3.344
 9433TIP3   OH228255   6.013   3.183   1.409
 9433TIP3    H128256   6.023   3.136   1.327
 9433TIP3    H228257   5.995   3.115   1.474
 9434TIP3   OH228258   1.379   5.310   3.811
 9434TIP3    H128259   1.307   5.370   3.827
 9434TIP3    H228260   1.363   5.236   3.869
 9435TIP3   OH228261   4.044   2.262   2.923
 9435TIP3    H128262   4.077   2.352   2.930
 9435TIP3    H228263   4.110   2.209   2.967
 9436TIP3   OH228264   5.103   3.164   1.527
 9436TIP3    H128265   5.037   3.184   1.461
 9436TIP3    H228266   5.052   3.146   1.607
 9437TIP3   OH228267   0.903   7.429   6.722
 9437TIP3    H128268   0.931   7.338   6.725
 9437TIP3    H228269   0.827   7.430   6.664
 9438TIP3   OH228270   1.725   2.265   6.323
 9438TIP3    H128271   1.713   2.259   6.228
 9438TIP3    H228272   1.785   2.338   6.335
 9439TIP3   OH228273   0.949   7.802   1.907
 9439TIP3    H128274   0.906   7.768   1.985
 9439TIP3    H228275   1.034   7.759   1.904
 9440TIP3   OH228276   0.870   2.677   4.938
 9440TIP3    H128277   0.938   2.720   4.991
 9440TIP3    H228278   0.800   2.658   5.000
 9441TIP3   OH228279   2.555   0.577   2.884
 9441TIP3    H128280   2.568   0.636   2.810
 9441TIP3    H228281   2.642   0.545   2.905
 9442TIP3   OH228282   5.712   3.406   3.549
 9442TIP3    H128283   5.764   3.484   3.570
 9442TIP3    H228284   5.626   3.441   3.525
 9443TIP3   OH228285   4.558   2.766   2.260
 9443TIP3    H128286   4.605   2.810   2.331
 9443TIP3    H228287   4.619   2.765   2.187
 9444TIP3   OH228288   4.253   0.098   1.011
 9444TIP3    H128289   4.280   0.007   1.024
 9444TIP3    H228290   4.255   0.110   0.916
 9445TIP3   OH228291   6.680   3.504   3.590
 9445TIP3    H128292   6.728   3.586   3.597
 9445TIP3    H228293   6.719   3.460   3.515
 9446TIP3   OH228294   2.047   3.653   2.324
 9446TIP3    H128295   1.983   3.584   2.343
 9446TIP3    H228296   2.072   3.638   2.233
 9447TIP3   OH228297   4.397   0.741   6.607
 9447TIP3    H128298   4.332   0.684   6.565
 9447TIP3    H228299   4.480   0.696   6.593
 9448TIP3   OH228300   6.324   2.815   6.116
 9448TIP3    H128301   6.400   2.769   6.080
 9448TIP3    H228302   6.264   2.745   6.141
 9449TIP3   OH228303   2.620   2.264   0.290
 9449TIP3    H128304   2.588   2.200   0.354
 9449TIP3    H228305   2.705   2.230   0.262
 9450TIP3   OH228306   6.510   4.638   5.589
 9450TIP3    H128307   6.477   4.685   5.513
 9450TIP3    H228308   6.480   4.548   5.577
 9451TIP3   OH228309   7.743   7.011   1.385
 9451TIP3    H128310   7.726   7.104   1.405
 9451TIP3    H228311   7.747   6.969   1.471
 9452TIP3   OH228312   1.997   5.862   5.709
 9452TIP3    H128313   2.033   5.935   5.658
 9452TIP3    H228314   1.904   5.861   5.688
 9453TIP3   OH228315   7.622   7.159   4.029
 9453TIP3    H128316   7.546   7.112   3.997
 9453TIP3    H228317   7.697   7.104   4.005
 9454TIP3   OH228318   4.319   1.182   4.969
 9454TIP3    H128319   4.294   1.133   5.048
 9454TIP3    H228320   4.414   1.183   4.970
 9455TIP3   OH228321   1.570   1.428   6.060
 9455TIP3    H128322   1.577   1.355   6.121
 9455TIP3    H228323   1.507   1.399   5.995
 9456TIP3   OH228324   4.391   0.892   2.802
 9456TIP3    H128325   4.366   0.960   2.865
 9456TIP3    H228326   4.482   0.911   2.780
 9457TIP3   OH228327   5.424   4.174   6.572
 9457TIP3    H128328   5.511   4.214   6.564
 9457TIP3    H228329   5.368   4.226   6.516
 9458TIP3   OH228330   2.929   2.132   0.330
 9458TIP3    H128331   3.020   2.118   0.354
 9458TIP3    H228332   2.931   2.144   0.235
 9459TIP3   OH228333   6.589   1.430   4.611
 9459TIP3    H128334   6.525   1.383   4.558
 9459TIP3    H228335   6.541   1.502   4.651
 9460TIP3   OH228336   4.260   3.061   2.603
 9460TIP3    H128337   4.226   2.980   2.565
 9460TIP3    H228338   4.300   3.107   2.529
 9461TIP3   OH228339   2.972   2.478   3.143
 9461TIP3    H128340   2.970   2.516   3.231
 9461TIP3    H228341   2.985   2.384   3.157
 9462TIP3   OH228342   1.766   6.878   3.678
 9462TIP3    H128343   1.779   6.797   3.629
 9462TIP3    H228344   1.835   6.937   3.647
 9463TIP3   OH228345  -0.066   2.700   4.067
 9463TIP3    H128346   0.008   2.744   4.107
 9463TIP3    H228347  -0.030   2.621   4.027
 9464TIP3   OH228348   0.489   3.259   5.874
 9464TIP3    H128349   0.488   3.287   5.965
 9464TIP3    H228350   0.543   3.325   5.829
 9465TIP3   OH228351   3.478   2.246   3.148
 9465TIP3    H128352   3.551   2.185   3.161
 9465TIP3    H228353   3.473   2.295   3.230
 9466TIP3   OH228354   3.746   2.111   5.879
 9466TIP3    H128355   3.661   2.123   5.921
 9466TIP3    H228356   3.807   2.163   5.932
 9467TIP3   OH228357   6.979   6.927   4.819
 9467TIP3    H128358   6.942   7.005   4.861
 9467TIP3    H228359   6.905   6.887   4.773
 9468TIP3   OH228360   1.804   3.828   0.448
 9468TIP3    H128361   1.843   3.815   0.534
 9468TIP3    H228362   1.712   3.805   0.459
 9469TIP3   OH228363   2.414   4.431   5.113
 9469TIP3    H128364   2.434   4.352   5.063
 9469TIP3    H228365   2.335   4.410   5.162
 9470TIP3   OH228366   1.861   3.353   6.483
 9470TIP3    H128367   1.815   3.282   6.438
 9470TIP3    H228368   1.897   3.312   6.562
 9471TIP3   OH228369   7.972   7.736   5.205
 9471TIP3    H128370   7.936   7.804   5.262
 9471TIP3    H228371   7.964   7.773   5.117
 9472TIP3   OH228372   2.256   6.714   1.527
 9472TIP3    H128373   2.299   6.651   1.469
 9472TIP3    H228374   2.325   6.776   1.550
 9473TIP3   OH228375   7.777   5.910   4.397
 9473TIP3    H128376   7.859   5.926   4.350
 9473TIP3    H228377   7.735   5.839   4.347
 9474TIP3   OH228378   0.096   6.900   1.290
 9474TIP3    H128379   0.112   6.987   1.328
 9474TIP3    H228380   0.105   6.839   1.363
 9475TIP3   OH228381   2.191   6.520   4.684
 9475TIP3    H128382   2.228   6.607   4.668
 9475TIP3    H228383   2.145   6.498   4.602
 9476TIP3   OH228384   5.501   2.525   3.980
 9476TIP3    H128385   5.464   2.561   4.061
 9476TIP3    H228386   5.465   2.580   3.911
 9477TIP3   OH228387   3.716   7.542   2.405
 9477TIP3    H128388   3.710   7.554   2.500
 9477TIP3    H228389   3.707   7.630   2.369
 9478TIP3   OH228390   7.252   1.466   4.082
 9478TIP3    H128391   7.323   1.403   4.092
 9478TIP3    H228392   7.172   1.414   4.085
 9479TIP3   OH228393   8.064   1.727   5.551
 9479TIP3    H128394   8.078   1.821   5.563
 9479TIP3    H228395   8.152   1.689   5.557
 9480TIP3   OH228396   5.806   6.215   6.623
 9480TIP3    H128397   5.879   6.189   6.680
 9480TIP3    H228398   5.818   6.162   6.544
 9481TIP3   OH228399   6.508   0.361   1.018
 9481TIP3    H128400   6.414   0.347   1.026
 9481TIP3    H228401   6.520   0.455   1.029
 9482TIP3   OH228402   5.988   1.677   0.680
 9482TIP3    H128403   5.930   1.626   0.737
 9482TIP3    H228404   6.032   1.738   0.739
 9483TIP3   OH228405   6.244   1.554   3.340
 9483TIP3    H128406   6.219   1.496   3.412
 9483TIP3    H228407   6.209   1.639   3.365
 9484TIP3   OH228408   2.333   6.738   4.617
 9484TIP3    H128409   2.303   6.798   4.548
 9484TIP3    H228410   2.328   6.790   4.698
 9485TIP3   OH228411   4.824   5.753   5.498
 9485TIP3    H128412   4.781   5.668   5.492
 9485TIP3    H228413   4.801   5.798   5.417
 9486TIP3   OH228414   1.535   5.086   3.009
 9486TIP3    H128415   1.521   5.048   2.922
 9486TIP3    H228416   1.545   5.011   3.067
 9487TIP3   OH228417   4.310   5.476   3.845
 9487TIP3    H128418   4.242   5.523   3.797
 9487TIP3    H228419   4.276   5.387   3.854
 9488TIP3   OH228420   8.243   2.149   3.561
 9488TIP3    H128421   8.285   2.165   3.476
 9488TIP3    H228422   8.149   2.150   3.542
 9489TIP3   OH228423   0.569   1.409   4.975
 9489TIP3    H128424   0.652   1.454   4.961
 9489TIP3    H228425   0.503   1.466   4.935
 9490TIP3   OH228426   6.859   7.306   5.636
 9490TIP3    H128427   6.777   7.256   5.644
 9490TIP3    H228428   6.906   7.262   5.565
 9491TIP3   OH228429   0.430   6.956   4.692
 9491TIP3    H128430   0.339   6.942   4.720
 9491TIP3    H228431   0.443   7.050   4.701
 9492TIP3   OH228432   5.339   3.831   5.866
 9492TIP3    H128433   5.303   3.742   5.855
 9492TIP3    H228434   5.365   3.834   5.958
 9493TIP3   OH228435   2.044   7.411   1.422
 9493TIP3    H128436   2.090   7.357   1.357
 9493TIP3    H228437   1.956   7.373   1.426
 9494TIP3   OH228438   4.689   3.115   6.464
 9494TIP3    H128439   4.692   3.021   6.450
 9494TIP3    H228440   4.765   3.149   6.415
 9495TIP3   OH228441   1.387   1.683   1.368
 9495TIP3    H128442   1.368   1.738   1.292
 9495TIP3    H228443   1.303   1.641   1.388
 9496TIP3   OH228444   5.797   0.185   6.586
 9496TIP3    H128445   5.829   0.170   6.498
 9496TIP3    H228446   5.772   0.278   6.587
 9497TIP3   OH228447   6.271   5.847   3.280
 9497TIP3    H128448   6.248   5.804   3.363
 9497TIP3    H228449   6.363   5.823   3.266
 9498TIP3   OH228450   2.047   1.131   4.869
 9498TIP3    H128451   1.982   1.187   4.910
 9498TIP3    H228452   2.105   1.191   4.823
 9499TIP3   OH228453   6.530   4.300   1.378
 9499TIP3    H128454   6.488   4.372   1.333
 9499TIP3    H228455   6.461   4.236   1.392
 9500TIP3   OH228456   3.053   6.633  -0.019
 9500TIP3    H128457   2.977   6.585  -0.052
 9500TIP3    H228458   3.030   6.656   0.071
 9501TIP3   OH228459   8.095   4.215   0.916
 9501TIP3    H128460   8.025   4.271   0.884
 9501TIP3    H228461   8.162   4.277   0.947
 9502TIP3   OH228462   4.900   4.528   5.354
 9502TIP3    H128463   4.980   4.510   5.304
 9502TIP3    H228464   4.830   4.490   5.301
 9503TIP3   OH228465   5.063   4.012   1.986
 9503TIP3    H128466   5.078   3.977   2.074
 9503TIP3    H228467   5.041   4.104   2.001
 9504TIP3   OH228468   6.492   2.747   3.414
 9504TIP3    H128469   6.539   2.679   3.367
 9504TIP3    H228470   6.488   2.821   3.353
 9505TIP3   OH228471   8.115   2.634   0.698
 9505TIP3    H128472   8.102   2.639   0.603
 9505TIP3    H228473   8.030   2.608   0.732
 9506TIP3   OH228474   1.228   4.145   4.765
 9506TIP3    H128475   1.198   4.214   4.824
 9506TIP3    H228476   1.244   4.190   4.682
 9507TIP3   OH228477   0.750   6.092   5.976
 9507TIP3    H128478   0.845   6.089   5.971
 9507TIP3    H228479   0.732   6.156   6.044
 9508TIP3   OH228480   0.217   6.806   0.233
 9508TIP3    H128481   0.312   6.805   0.249
 9508TIP3    H228482   0.181   6.748   0.301
 9509TIP3   OH228483   2.500   2.398   1.907
 9509TIP3    H128484   2.481   2.343   1.831
 9509TIP3    H228485   2.581   2.444   1.883
 9510TIP3   OH228486   6.073   6.645   6.704
 9510TIP3    H128487   5.978   6.633   6.704
 9510TIP3    H228488   6.089   6.710   6.772
 9511TIP3   OH228489   4.443   6.331   1.498
 9511TIP3    H128490   4.452   6.251   1.550
 9511TIP3    H228491   4.387   6.306   1.425
 9512TIP3   OH228492   4.545   7.290   5.350
 9512TIP3    H128493   4.550   7.357   5.282
 9512TIP3    H228494   4.471   7.315   5.404
 9513TIP3   OH228495   0.844   0.907   6.168
 9513TIP3    H128496   0.901   0.833   6.147
 9513TIP3    H228497   0.782   0.911   6.096
 9514TIP3   OH228498   7.888   1.991   6.417
 9514TIP3    H128499   7.873   2.086   6.424
 9514TIP3    H228500   7.970   1.977   6.463
 9515TIP3   OH228501   0.792   1.638   4.950
 9515TIP3    H128502   0.793   1.723   4.994
 9515TIP3    H228503   0.741   1.653   4.871
 9516TIP3   OH228504   4.778   1.853   5.450
 9516TIP3    H128505   4.754   1.772   5.496
 9516TIP3    H228506   4.708   1.914   5.470
 9517TIP3   OH228507   8.177   3.701   4.917
 9517TIP3    H128508   8.112   3.698   4.987
 9517TIP3    H228509   8.174   3.614   4.877
 9518TIP3   OH228510   7.151   2.523   4.541
 9518TIP3    H128511   7.124   2.471   4.617
 9518TIP3    H228512   7.168   2.458   4.473
 9519TIP3   OH228513   3.906   7.134   6.464
 9519TIP3    H128514   3.951   7.190   6.527
 9519TIP3    H228515   3.948   7.048   6.474
 9520TIP3   OH228516   8.199   4.937   2.436
 9520TIP3    H128517   8.113   4.906   2.466
 9520TIP3    H228518   8.204   4.909   2.344
 9521TIP3   OH228519   1.880   5.133   1.765
 9521TIP3    H128520   1.953   5.071   1.771
 9521TIP3    H228521   1.899   5.185   1.687
 9522TIP3   OH228522   5.186   7.726   1.121
 9522TIP3    H128523   5.201   7.651   1.063
 9522TIP3    H228524   5.234   7.798   1.080
 9523TIP3   OH228525   2.828   3.945   1.993
 9523TIP3    H128526   2.795   4.034   2.003
 9523TIP3    H228527   2.759   3.898   1.946
 9524TIP3   OH228528   8.209   4.448   0.254
 9524TIP3    H128529   8.195   4.500   0.174
 9524TIP3    H228530   8.139   4.382   0.252
 9525TIP3   OH228531   3.618   2.097   0.717
 9525TIP3    H128532   3.676   2.050   0.776
 9525TIP3    H228533   3.572   2.161   0.772
 9526TIP3   OH228534   4.618   6.931   5.636
 9526TIP3    H128535   4.669   6.868   5.688
 9526TIP3    H228536   4.645   6.915   5.546
 9527TIP3   OH228537   1.275   3.152   4.981
 9527TIP3    H128538   1.355   3.204   4.970
 9527TIP3    H228539   1.271   3.134   5.075
 9528TIP3   OH228540   0.613   2.427   5.586
 9528TIP3    H128541   0.540   2.474   5.627
 9528TIP3    H228542   0.604   2.337   5.619
 9529TIP3   OH228543   4.317   2.324   4.540
 9529TIP3    H128544   4.283   2.385   4.606
 9529TIP3    H228545   4.275   2.241   4.561
 9530TIP3   OH228546   5.884   1.472   4.493
 9530TIP3    H128547   5.814   1.407   4.504
 9530TIP3    H228548   5.956   1.423   4.454
 9531TIP3   OH228549   6.653   3.438   4.587
 9531TIP3    H128550   6.708   3.362   4.606
 9531TIP3    H228551   6.617   3.464   4.672
 9532TIP3   OH228552   5.152   1.004   1.417
 9532TIP3    H128553   5.219   1.037   1.356
 9532TIP3    H228554   5.074   1.056   1.397
 9533TIP3   OH228555   5.154   3.683   1.486
 9533TIP3    H128556   5.178   3.703   1.576
 9533TIP3    H228557   5.155   3.587   1.482
 9534TIP3   OH228558   6.821   5.365   4.454
 9534TIP3    H128559   6.836   5.454   4.486
 9534TIP3    H228560   6.878   5.310   4.509
 9535TIP3   OH228561   1.094   6.196   4.739
 9535TIP3    H128562   1.002   6.193   4.764
 9535TIP3    H228563   1.097   6.154   4.653
 9536TIP3   OH228564   3.974   2.968   0.126
 9536TIP3    H128565   4.027   3.047   0.109
 9536TIP3    H228566   3.978   2.957   0.221
 9537TIP3   OH228567   6.354   5.609   4.594
 9537TIP3    H128568   6.360   5.619   4.499
 9537TIP3    H228569   6.435   5.566   4.619
 9538TIP3   OH228570   6.965   1.019   1.483
 9538TIP3    H128571   7.024   1.014   1.558
 9538TIP3    H228572   7.009   0.970   1.414
 9539TIP3   OH228573   7.117   7.616   3.220
 9539TIP3    H128574   7.059   7.691   3.206
 9539TIP3    H228575   7.136   7.617   3.314
 9540TIP3   OH228576   6.856   2.797   5.639
 9540TIP3    H128577   6.821   2.875   5.681
 9540TIP3    H228578   6.800   2.783   5.562
 9541TIP3   OH228579   5.656   1.475   5.946
 9541TIP3    H128580   5.652   1.381   5.966
 9541TIP3    H228581   5.744   1.501   5.973
 9542TIP3   OH228582   4.857   7.445   4.999
 9542TIP3    H128583   4.906   7.383   4.943
 9542TIP3    H228584   4.766   7.435   4.972
 9543TIP3   OH228585   1.936   6.809   6.480
 9543TIP3    H128586   2.002   6.741   6.494
 9543TIP3    H228587   1.979   6.872   6.421
 9544TIP3   OH228588   5.284   7.599   1.358
 9544TIP3    H128589   5.236   7.611   1.275
 9544TIP3    H228590   5.329   7.682   1.372
 9545TIP3   OH228591   0.409   5.133   5.664
 9545TIP3    H128592   0.357   5.203   5.703
 9545TIP3    H228593   0.385   5.133   5.572
 9546TIP3   OH228594   4.576   4.358   0.861
 9546TIP3    H128595   4.521   4.307   0.920
 9546TIP3    H228596   4.542   4.339   0.773
 9547TIP3   OH228597   7.959   3.128   4.992
 9547TIP3    H128598   8.037   3.160   5.038
 9547TIP3    H228599   7.896   3.109   5.062
 9548TIP3   OH228600   3.325   0.561   4.500
 9548TIP3    H128601   3.294   0.485   4.550
 9548TIP3    H228602   3.391   0.601   4.558
 9549TIP3   OH228603   7.815   6.167   3.118
 9549TIP3    H128604   7.773   6.118   3.188
 9549TIP3    H228605   7.799   6.114   3.039
 9550TIP3   OH228606   8.032   3.925   4.803
 9550TIP3    H128607   7.940   3.904   4.789
 9550TIP3    H228608   8.076   3.841   4.811
 9551TIP3   OH228609   3.911   4.607   2.494
 9551TIP3    H128610   3.997   4.575   2.521
 9551TIP3    H228611   3.889   4.674   2.559
 9552TIP3   OH228612   7.722   2.496   5.071
 9552TIP3    H128613   7.731   2.476   5.164
 9552TIP3    H228614   7.786   2.565   5.055
 9553TIP3   OH228615   6.946   5.621   6.617
 9553TIP3    H128616   6.995   5.698   6.590
 9553TIP3    H228617   6.971   5.553   6.553
 9554TIP3   OH228618   0.557   3.788   4.997
 9554TIP3    H128619   0.479   3.753   4.954
 9554TIP3    H228620   0.599   3.844   4.932
 9555TIP3   OH228621   2.593   4.641   1.824
 9555TIP3    H128622   2.579   4.549   1.848
 9555TIP3    H228623   2.510   4.684   1.847
 9556TIP3   OH228624   7.070   2.555   4.227
 9556TIP3    H128625   7.000   2.606   4.186
 9556TIP3    H228626   7.026   2.500   4.291
 9557TIP3   OH228627  -0.003   5.492   3.753
 9557TIP3    H128628   0.042   5.520   3.833
 9557TIP3    H228629   0.007   5.397   3.752
 9558TIP3   OH228630  -0.012   3.585   2.573
 9558TIP3    H128631   0.032   3.654   2.623
 9558TIP3    H228632   0.048   3.511   2.576
 9559TIP3   OH228633   5.440   2.262   3.539
 9559TIP3    H128634   5.514   2.321   3.521
 9559TIP3    H228635   5.411   2.287   3.627
 9560TIP3   OH228636   3.703   0.716   4.212
 9560TIP3    H128637   3.782   0.666   4.234
 9560TIP3    H228638   3.678   0.683   4.125
 9561TIP3   OH228639   7.189   4.675   0.099
 9561TIP3    H128640   7.171   4.663   0.006
 9561TIP3    H228641   7.284   4.688   0.104
 9562TIP3   OH228642   6.640   7.217   2.029
 9562TIP3    H128643   6.597   7.131   2.022
 9562TIP3    H228644   6.733   7.196   2.041
 9563TIP3   OH228645   4.956   5.757   1.873
 9563TIP3    H128646   4.987   5.847   1.881
 9563TIP3    H228647   4.871   5.765   1.831
 9564TIP3   OH228648   4.845   6.890   1.808
 9564TIP3    H128649   4.760   6.847   1.819
 9564TIP3    H228650   4.904   6.821   1.779
 9565TIP3   OH228651   4.374   4.958   3.290
 9565TIP3    H128652   4.286   4.993   3.307
 9565TIP3    H228653   4.412   4.946   3.377
 9566TIP3   OH228654   3.804   4.815   2.660
 9566TIP3    H128655   3.711   4.792   2.654
 9566TIP3    H228656   3.821   4.819   2.754
 9567TIP3   OH228657   7.643   3.014   1.375
 9567TIP3    H128658   7.600   3.088   1.419
 9567TIP3    H228659   7.589   2.938   1.397
 9568TIP3   OH228660   1.057   1.494   4.138
 9568TIP3    H128661   0.968   1.518   4.111
 9568TIP3    H228662   1.046   1.414   4.189
 9569TIP3   OH228663   0.710   1.535   4.704
 9569TIP3    H128664   0.670   1.549   4.618
 9569TIP3    H228665   0.787   1.481   4.686
 9570TIP3   OH228666   2.653   2.272   5.484
 9570TIP3    H128667   2.700   2.191   5.468
 9570TIP3    H228668   2.695   2.336   5.427
 9571TIP3   OH228669   6.541   0.074   0.135
 9571TIP3    H128670   6.614   0.127   0.165
 9571TIP3    H228671   6.490   0.056   0.214
 9572TIP3   OH228672   3.678   4.933   0.686
 9572TIP3    H128673   3.713   4.844   0.673
 9572TIP3    H228674   3.596   4.933   0.636
 9573TIP3   OH228675   1.584   3.505   1.424
 9573TIP3    H128676   1.564   3.480   1.514
 9573TIP3    H228677   1.611   3.597   1.430
 9574TIP3   OH228678   8.056   2.639   2.198
 9574TIP3    H128679   8.021   2.708   2.142
 9574TIP3    H228680   8.063   2.679   2.284
 9575TIP3   OH228681   6.298   1.057   1.084
 9575TIP3    H128682   6.301   0.993   1.155
 9575TIP3    H228683   6.205   1.066   1.065
 9576TIP3   OH228684   2.804   0.572   6.018
 9576TIP3    H128685   2.750   0.521   6.078
 9576TIP3    H228686   2.867   0.509   5.982
 9577TIP3   OH228687   6.300   3.537   1.324
 9577TIP3    H128688   6.244   3.605   1.288
 9577TIP3    H228689   6.326   3.485   1.248
 9578TIP3   OH228690   2.371   4.407   6.726
 9578TIP3    H128691   2.413   4.482   6.767
 9578TIP3    H228692   2.442   4.361   6.681
 9579TIP3   OH228693   6.311   4.107   1.409
 9579TIP3    H128694   6.259   4.104   1.489
 9579TIP3    H228695   6.247   4.096   1.338
 9580TIP3   OH228696   6.854   0.515   0.924
 9580TIP3    H128697   6.911   0.443   0.953
 9580TIP3    H228698   6.913   0.576   0.881
 9581TIP3   OH228699   1.557   7.030   3.779
 9581TIP3    H128700   1.619   6.969   3.738
 9581TIP3    H228701   1.613   7.099   3.815
 9582TIP3   OH228702   4.091   4.627   3.165
 9582TIP3    H128703   4.105   4.686   3.239
 9582TIP3    H228704   4.144   4.664   3.094
 9583TIP3   OH228705   4.397   3.561   3.471
 9583TIP3    H128706   4.330   3.503   3.506
 9583TIP3    H228707   4.468   3.502   3.445
 9584TIP3   OH228708   3.176   1.405   6.548
 9584TIP3    H128709   3.162   1.336   6.483
 9584TIP3    H228710   3.094   1.454   6.548
 9585TIP3   OH228711   7.857   6.920   3.481
 9585TIP3    H128712   7.839   6.826   3.480
 9585TIP3    H228713   7.803   6.954   3.553
 9586TIP3   OH228714   5.538   4.865   6.080
 9586TIP3    H128715   5.541   4.913   5.998
 9586TIP3    H228716   5.485   4.919   6.138
 9587TIP3   OH228717   1.585   6.844   3.395
 9587TIP3    H128718   1.510   6.825   3.452
 9587TIP3    H228719   1.656   6.790   3.431
 9588TIP3   OH228720   7.564   5.955   3.750
 9588TIP3    H128721   7.646   5.999   3.729
 9588TIP3    H228722   7.539   5.912   3.669
 9589TIP3   OH228723   7.448   1.632   0.941
 9589TIP3    H128724   7.498   1.712   0.922
 9589TIP3    H228725   7.480   1.603   1.026
 9590TIP3   OH228726   4.863   1.952   6.685
 9590TIP3    H128727   4.833   2.042   6.693
 9590TIP3    H228728   4.797   1.910   6.629
 9591TIP3   OH228729   6.162   0.128   1.034
 9591TIP3    H128730   6.225   0.095   0.970
 9591TIP3    H228731   6.095   0.171   0.981
 9592TIP3   OH228732   6.709   7.329   5.986
 9592TIP3    H128733   6.623   7.325   6.028
 9592TIP3    H228734   6.763   7.268   6.035
 9593TIP3   OH228735   4.884   5.063   5.060
 9593TIP3    H128736   4.844   4.987   5.101
 9593TIP3    H228737   4.970   5.033   5.031
 9594TIP3   OH228738   0.774   0.444   3.725
 9594TIP3    H128739   0.695   0.464   3.674
 9594TIP3    H228740   0.752   0.365   3.773
 9595TIP3   OH228741   4.139   5.320   6.295
 9595TIP3    H128742   4.196   5.358   6.362
 9595TIP3    H228743   4.136   5.227   6.316
 9596TIP3   OH228744   2.970   1.268   6.000
 9596TIP3    H128745   3.024   1.334   6.044
 9596TIP3    H228746   2.966   1.297   5.909
 9597TIP3   OH228747   5.541   7.428   4.026
 9597TIP3    H128748   5.463   7.482   4.036
 9597TIP3    H228749   5.605   7.486   3.984
 9598TIP3   OH228750   1.777   5.274   6.084
 9598TIP3    H128751   1.730   5.223   6.150
 9598TIP3    H228752   1.813   5.208   6.024
 9599TIP3   OH228753   3.402   4.632   4.872
 9599TIP3    H128754   3.449   4.587   4.942
 9599TIP3    H228755   3.450   4.715   4.861
 9600TIP3   OH228756   1.381   6.129   3.548
 9600TIP3    H128757   1.413   6.054   3.599
 9600TIP3    H228758   1.306   6.095   3.500
 9601TIP3   OH228759   3.163   3.514   4.678
 9601TIP3    H128760   3.130   3.473   4.598
 9601TIP3    H228761   3.086   3.558   4.715
 9602TIP3   OH228762   4.742   3.908   1.206
 9602TIP3    H128763   4.782   3.915   1.119
 9602TIP3    H228764   4.652   3.882   1.189
 9603TIP3   OH228765   6.779   5.913   1.897
 9603TIP3    H128766   6.701   5.865   1.926
 9603TIP3    H228767   6.783   5.989   1.954
 9604TIP3   OH228768   4.751   4.427   1.644
 9604TIP3    H128769   4.676   4.486   1.647
 9604TIP3    H228770   4.736   4.364   1.714
 9605TIP3   OH228771   7.605   0.793   3.897
 9605TIP3    H128772   7.636   0.705   3.919
 9605TIP3    H228773   7.563   0.824   3.977
 9606TIP3   OH228774   1.277   0.148   6.437
 9606TIP3    H128775   1.331   0.224   6.456
 9606TIP3    H228776   1.285   0.136   6.342
 9607TIP3   OH228777   5.429   2.155   4.067
 9607TIP3    H128778   5.393   2.203   4.142
 9607TIP3    H228779   5.381   2.072   4.067
 9608TIP3   OH228780   7.336   1.008   5.497
 9608TIP3    H128781   7.376   1.094   5.483
 9608TIP3    H228782   7.260   1.025   5.552
 9609TIP3   OH228783   5.786   5.736   5.196
 9609TIP3    H128784   5.871   5.712   5.160
 9609TIP3    H228785   5.743   5.785   5.127
 9610TIP3   OH228786   1.439   2.198   0.977
 9610TIP3    H128787   1.417   2.239   1.060
 9610TIP3    H228788   1.534   2.203   0.972
 9611TIP3   OH228789   7.958   2.643   0.119
 9611TIP3    H128790   7.899   2.631   0.194
 9611TIP3    H228791   7.908   2.698   0.059
 9612TIP3   OH228792   2.356   1.799   6.231
 9612TIP3    H128793   2.268   1.836   6.229
 9612TIP3    H228794   2.394   1.822   6.147
 9613TIP3   OH228795   5.145   0.272   5.183
 9613TIP3    H128796   5.057   0.238   5.164
 9613TIP3    H228797   5.145   0.361   5.146
 9614TIP3   OH228798   7.988   6.452   6.513
 9614TIP3    H128799   7.898   6.444   6.542
 9614TIP3    H228800   8.033   6.498   6.584
 9615TIP3   OH228801   1.330   7.503   0.627
 9615TIP3    H128802   1.353   7.527   0.537
 9615TIP3    H228803   1.237   7.526   0.636
 9616TIP3   OH228804   1.074   1.997   2.374
 9616TIP3    H128805   1.130   2.022   2.300
 9616TIP3    H228806   1.060   2.079   2.422
 9617TIP3   OH228807   6.840   6.935   3.726
 9617TIP3    H128808   6.763   6.888   3.758
 9617TIP3    H228809   6.904   6.928   3.798
 9618TIP3   OH228810   1.529   4.719   2.025
 9618TIP3    H128811   1.457   4.742   2.083
 9618TIP3    H228812   1.543   4.797   1.971
 9619TIP3   OH228813   7.292   1.687   5.995
 9619TIP3    H128814   7.240   1.726   5.925
 9619TIP3    H228815   7.329   1.761   6.042
 9620TIP3   OH228816   1.080   4.720   6.139
 9620TIP3    H128817   1.092   4.811   6.168
 9620TIP3    H228818   1.052   4.673   6.218
 9621TIP3   OH228819   6.676   2.613   0.880
 9621TIP3    H128820   6.656   2.706   0.889
 9621TIP3    H228821   6.590   2.571   0.878
 9622TIP3   OH228822   4.518   6.247   2.949
 9622TIP3    H128823   4.570   6.196   3.010
 9622TIP3    H228824   4.427   6.233   2.977
 9623TIP3   OH228825   4.073   0.316   3.762
 9623TIP3    H128826   4.152   0.306   3.814
 9623TIP3    H228827   4.074   0.408   3.733
 9624TIP3   OH228828   4.335   0.245   0.300
 9624TIP3    H128829   4.387   0.298   0.362
 9624TIP3    H228830   4.269   0.305   0.267
 9625TIP3   OH228831   0.234   4.652   1.810
 9625TIP3    H128832   0.169   4.704   1.762
 9625TIP3    H228833   0.305   4.713   1.828
 9626TIP3   OH228834   3.291   3.708   4.187
 9626TIP3    H128835   3.366   3.768   4.187
 9626TIP3    H228836   3.217   3.763   4.161
 9627TIP3   OH228837   0.245   1.600   3.371
 9627TIP3    H128838   0.200   1.518   3.349
 9627TIP3    H228839   0.199   1.632   3.448
 9628TIP3   OH228840   7.762   3.666   0.415
 9628TIP3    H128841   7.839   3.660   0.358
 9628TIP3    H228842   7.730   3.577   0.423
 9629TIP3   OH228843   7.188   1.957   3.079
 9629TIP3    H128844   7.228   1.924   3.159
 9629TIP3    H228845   7.131   2.029   3.109
 9630TIP3   OH228846   4.799   6.675   4.106
 9630TIP3    H128847   4.762   6.632   4.029
 9630TIP3    H228848   4.894   6.662   4.098
 9631TIP3   OH228849   8.065   4.435   5.070
 9631TIP3    H128850   8.076   4.340   5.072
 9631TIP3    H228851   8.123   4.465   5.000
 9632TIP3   OH228852   2.650   3.982   3.543
 9632TIP3    H128853   2.690   4.064   3.571
 9632TIP3    H228854   2.660   3.924   3.618
 9633TIP3   OH228855   3.194   4.358   6.213
 9633TIP3    H128856   3.273   4.400   6.244
 9633TIP3    H228857   3.159   4.313   6.290
 9634TIP3   OH228858   2.589   1.869   3.059
 9634TIP3    H128859   2.632   1.788   3.087
 9634TIP3    H228860   2.573   1.916   3.141
 9635TIP3   OH228861   3.966   7.755   1.939
 9635TIP3    H128862   3.919   7.790   2.015
 9635TIP3    H228863   3.960   7.660   1.948
 9636TIP3   OH228864   2.715   5.351   2.698
 9636TIP3    H128865   2.650   5.295   2.740
 9636TIP3    H228866   2.666   5.399   2.631
 9637TIP3   OH228867   8.164   0.372   0.971
 9637TIP3    H128868   8.230   0.406   1.032
 9637TIP3    H228869   8.092   0.435   0.975
 9638TIP3   OH228870   4.412   0.639   3.754
 9638TIP3    H128871   4.386   0.667   3.842
 9638TIP3    H228872   4.433   0.721   3.709
 9639TIP3   OH228873   4.479   0.397   6.374
 9639TIP3    H128874   4.521   0.466   6.426
 9639TIP3    H228875   4.389   0.427   6.363
 9640TIP3   OH228876   7.249   7.426   1.770
 9640TIP3    H128877   7.229   7.476   1.691
 9640TIP3    H228878   7.222   7.483   1.842
 9641TIP3   OH228879   7.470   3.462   1.330
 9641TIP3    H128880   7.472   3.414   1.247
 9641TIP3    H228881   7.531   3.534   1.318
 9642TIP3   OH228882   4.598   4.362   1.237
 9642TIP3    H128883   4.547   4.355   1.318
 9642TIP3    H228884   4.570   4.287   1.185
 9643TIP3   OH228885   0.594   7.141   4.179
 9643TIP3    H128886   0.551   7.074   4.232
 9643TIP3    H228887   0.654   7.091   4.123
 9644TIP3   OH228888   2.210   5.771   0.920
 9644TIP3    H128889   2.240   5.704   0.858
 9644TIP3    H228890   2.136   5.814   0.876
 9645TIP3   OH228891   4.535   2.445   2.049
 9645TIP3    H128892   4.545   2.419   2.141
 9645TIP3    H228893   4.492   2.530   2.053
 9646TIP3   OH228894   4.254   0.897   1.646
 9646TIP3    H128895   4.334   0.899   1.594
 9646TIP3    H228896   4.281   0.862   1.731
 9647TIP3   OH228897   2.350   6.734   4.939
 9647TIP3    H128898   2.329   6.657   4.992
 9647TIP3    H228899   2.436   6.716   4.902
 9648TIP3   OH228900   0.084   4.872   0.592
 9648TIP3    H128901   0.139   4.795   0.602
 9648TIP3    H228902   0.018   4.864   0.661
 9649TIP3   OH228903   1.766   1.581   4.946
 9649TIP3    H128904   1.854   1.579   4.983
 9649TIP3    H228905   1.709   1.603   5.019
 9650TIP3   OH228906   7.727   4.753   4.502
 9650TIP3    H128907   7.669   4.815   4.546
 9650TIP3    H228908   7.682   4.668   4.510
 9651TIP3   OH228909   5.977   1.131   1.787
 9651TIP3    H128910   5.981   1.171   1.874
 9651TIP3    H228911   6.031   1.053   1.794
 9652TIP3   OH228912   0.761   0.220   5.166
 9652TIP3    H128913   0.780   0.284   5.097
 9652TIP3    H228914   0.843   0.173   5.179
 9653TIP3   OH228915   6.613   7.702   4.749
 9653TIP3    H128916   6.657   7.778   4.711
 9653TIP3    H228917   6.566   7.737   4.825
 9654TIP3   OH228918   3.490   3.325   2.326
 9654TIP3    H128919   3.435   3.338   2.403
 9654TIP3    H228920   3.539   3.406   2.317
 9655TIP3   OH228921   7.140   0.835   4.366
 9655TIP3    H128922   7.183   0.810   4.284
 9655TIP3    H228923   7.097   0.918   4.347
 9656TIP3   OH228924   5.787   7.649   1.789
 9656TIP3    H128925   5.875   7.641   1.751
 9656TIP3    H228926   5.783   7.577   1.852
 9657TIP3   OH228927   1.462   3.700   3.541
 9657TIP3    H128928   1.375   3.683   3.504
 9657TIP3    H228929   1.520   3.700   3.465
 9658TIP3   OH228930   7.952   0.788   2.060
 9658TIP3    H128931   7.912   0.873   2.039
 9658TIP3    H228932   7.958   0.744   1.975
 9659TIP3   OH228933   2.898   0.935   6.251
 9659TIP3    H128934   2.910   0.853   6.298
 9659TIP3    H228935   2.896   1.002   6.319
 9660TIP3   OH228936   6.574   3.527   4.342
 9660TIP3    H128937   6.606   3.486   4.422
 9660TIP3    H228938   6.639   3.596   4.323
 9661TIP3   OH228939   1.416   7.346   4.747
 9661TIP3    H128940   1.325   7.373   4.759
 9661TIP3    H228941   1.463   7.383   4.821
 9662TIP3   OH228942   4.513   0.725   1.013
 9662TIP3    H128943   4.462   0.645   1.006
 9662TIP3    H228944   4.505   0.751   1.105
 9663TIP3   OH228945   8.216   4.600   3.181
 9663TIP3    H128946   8.243   4.536   3.115
 9663TIP3    H228947   8.154   4.554   3.236
 9664TIP3   OH228948   3.601   3.322   4.236
 9664TIP3    H128949   3.651   3.279   4.305
 9664TIP3    H228950   3.542   3.382   4.282
 9665TIP3   OH228951   1.816   2.160   0.598
 9665TIP3    H128952   1.740   2.171   0.656
 9665TIP3    H228953   1.779   2.156   0.510
 9666TIP3   OH228954   5.289   4.029   6.743
 9666TIP3    H128955   5.324   4.087   6.675
 9666TIP3    H228956   5.221   4.082   6.786
 9667TIP3   OH228957   1.505   2.652   3.218
 9667TIP3    H128958   1.442   2.584   3.195
 9667TIP3    H228959   1.542   2.623   3.301
 9668TIP3   OH228960   7.494   1.193   6.701
 9668TIP3    H128961   7.583   1.217   6.724
 9668TIP3    H228962   7.466   1.258   6.637
 9669TIP3   OH228963   5.491   5.317   1.830
 9669TIP3    H128964   5.419   5.380   1.843
 9669TIP3    H228965   5.450   5.231   1.838
 9670TIP3   OH228966   1.915   1.619   0.398
 9670TIP3    H128967   2.007   1.632   0.375
 9670TIP3    H228968   1.886   1.705   0.429
 9671TIP3   OH228969   0.525   7.694   4.561
 9671TIP3    H128970   0.487   7.677   4.475
 9671TIP3    H228971   0.577   7.774   4.548
 9672TIP3   OH228972   5.975   3.547   0.717
 9672TIP3    H128973   5.976   3.550   0.812
 9672TIP3    H228974   5.943   3.459   0.696
 9673TIP3   OH228975   4.432   2.381   5.379
 9673TIP3    H128976   4.506   2.379   5.439
 9673TIP3    H228977   4.468   2.351   5.295
 9674TIP3   OH228978   4.279   3.090   0.008
 9674TIP3    H128979   4.210   3.153   0.028
 9674TIP3    H228980   4.345   3.104   0.077
 9675TIP3   OH228981   5.930   1.095   3.521
 9675TIP3    H128982   5.886   1.055   3.447
 9675TIP3    H228983   5.860   1.113   3.584
 9676TIP3   OH228984   2.228   2.000   0.619
 9676TIP3    H128985   2.170   1.965   0.687
 9676TIP3    H228986   2.190   2.084   0.596
 9677TIP3   OH228987   6.925   7.444   1.339
 9677TIP3    H128988   7.016   7.473   1.334
 9677TIP3    H228989   6.895   7.476   1.424
 9678TIP3   OH228990   7.585   4.502   4.558
 9678TIP3    H128991   7.657   4.453   4.599
 9678TIP3    H228992   7.530   4.435   4.518
 9679TIP3   OH228993   0.026   4.252   5.135
 9679TIP3    H128994   0.004   4.337   5.095
 9679TIP3    H228995   0.048   4.196   5.060
 9680TIP3   OH228996   6.217   3.321   1.528
 9680TIP3    H128997   6.156   3.273   1.473
 9680TIP3    H228998   6.235   3.402   1.479
 9681TIP3   OH228999   7.190   6.649   1.000
 9681TIP3    H129000   7.207   6.713   0.931
 9681TIP3    H229001   7.096   6.658   1.019
 9682TIP3   OH229002   4.035   7.731   1.016
 9682TIP3    H129003   4.007   7.822   1.005
 9682TIP3    H229004   3.972   7.680   0.965
 9683TIP3   OH229005   4.189   2.708   1.223
 9683TIP3    H129006   4.253   2.641   1.198
 9683TIP3    H229007   4.160   2.680   1.310
 9684TIP3   OH229008   6.936   2.055   3.623
 9684TIP3    H129009   6.986   2.129   3.660
 9684TIP3    H229010   6.845   2.084   3.627
 9685TIP3   OH229011   8.363   4.067   5.613
 9685TIP3    H129012   8.358   4.013   5.534
 9685TIP3    H229013   8.284   4.044   5.662
 9686TIP3   OH229014   3.870   5.468   0.764
 9686TIP3    H129015   3.794   5.426   0.723
 9686TIP3    H229016   3.939   5.463   0.699
 9687TIP3   OH229017   5.579   1.661   2.301
 9687TIP3    H129018   5.587   1.679   2.394
 9687TIP3    H229019   5.485   1.659   2.284
 9688TIP3   OH229020   3.235   0.704   6.612
 9688TIP3    H129021   3.297   0.742   6.674
 9688TIP3    H229022   3.161   0.764   6.612
 9689TIP3   OH229023   5.554   7.529   2.409
 9689TIP3    H129024   5.479   7.487   2.366
 9689TIP3    H229025   5.630   7.499   2.360
 9690TIP3   OH229026   4.581   1.626   0.271
 9690TIP3    H129027   4.489   1.609   0.251
 9690TIP3    H229028   4.605   1.698   0.213
 9691TIP3   OH229029   7.953   5.341   1.621
 9691TIP3    H129030   7.924   5.355   1.711
 9691TIP3    H229031   8.016   5.411   1.605
 9692TIP3   OH229032   4.971   0.290   3.893
 9692TIP3    H129033   5.028   0.276   3.967
 9692TIP3    H229034   4.981   0.213   3.838
 9693TIP3   OH229035   3.081   6.113   0.216
 9693TIP3    H129036   3.068   6.084   0.306
 9693TIP3    H229037   3.129   6.042   0.174
 9694TIP3   OH229038   4.008   4.427   2.058
 9694TIP3    H129039   3.978   4.518   2.059
 9694TIP3    H229040   3.929   4.376   2.074
 9695TIP3   OH229041   2.446   3.028   4.374
 9695TIP3    H129042   2.443   3.068   4.288
 9695TIP3    H229043   2.397   3.088   4.430
 9696TIP3   OH229044   1.168   5.002   5.333
 9696TIP3    H129045   1.256   4.965   5.323
 9696TIP3    H229046   1.113   4.951   5.274
 9697TIP3   OH229047   4.769   5.796   3.616
 9697TIP3    H129048   4.774   5.710   3.574
 9697TIP3    H229049   4.745   5.777   3.706
 9698TIP3   OH229050   3.646   0.253   1.918
 9698TIP3    H129051   3.670   0.160   1.912
 9698TIP3    H229052   3.677   0.291   1.836
 9699TIP3   OH229053   5.786   5.500   5.665
 9699TIP3    H129054   5.743   5.521   5.748
 9699TIP3    H229055   5.876   5.531   5.677
 9700TIP3   OH229056   6.209   0.897   1.297
 9700TIP3    H129057   6.150   0.971   1.307
 9700TIP3    H229058   6.286   0.920   1.349
 9701TIP3   OH229059   2.624   6.586   1.598
 9701TIP3    H129060   2.704   6.621   1.637
 9701TIP3    H229061   2.560   6.585   1.669
 9702TIP3   OH229062   8.275   3.688   2.126
 9702TIP3    H129063   8.226   3.763   2.161
 9702TIP3    H229064   8.265   3.620   2.192
 9703TIP3   OH229065   3.556   4.865   3.607
 9703TIP3    H129066   3.622   4.820   3.555
 9703TIP3    H229067   3.481   4.875   3.548
 9704TIP3   OH229068   7.885   2.817   0.562
 9704TIP3    H129069   7.832   2.742   0.588
 9704TIP3    H229070   7.951   2.781   0.503
 9705TIP3   OH229071   0.552   1.504   3.818
 9705TIP3    H129072   0.632   1.452   3.815
 9705TIP3    H229073   0.491   1.459   3.760
 9706TIP3   OH229074   4.852   5.887   0.356
 9706TIP3    H129075   4.787   5.817   0.362
 9706TIP3    H229076   4.828   5.948   0.426
 9707TIP3   OH229077   6.676   4.098   0.879
 9707TIP3    H129078   6.767   4.104   0.909
 9707TIP3    H229079   6.630   4.168   0.926
 9708TIP3   OH229080   7.456   2.505   6.472
 9708TIP3    H129081   7.521   2.498   6.542
 9708TIP3    H229082   7.436   2.414   6.448
 9709TIP3   OH229083   0.761   1.622   1.890
 9709TIP3    H129084   0.712   1.697   1.924
 9709TIP3    H229085   0.730   1.613   1.800
 9710TIP3   OH229086   8.128   5.781   0.443
 9710TIP3    H129087   8.113   5.793   0.537
 9710TIP3    H229088   8.171   5.861   0.415
 9711TIP3   OH229089   4.832   1.467   6.075
 9711TIP3    H129090   4.922   1.437   6.082
 9711TIP3    H229091   4.780   1.387   6.067
 9712TIP3   OH229092   6.735   4.504   4.038
 9712TIP3    H129093   6.818   4.459   4.052
 9712TIP3    H229094   6.671   4.433   4.029
 9713TIP3   OH229095   6.446   2.408   0.898
 9713TIP3    H129096   6.459   2.424   0.804
 9713TIP3    H229097   6.351   2.399   0.908
 9714TIP3   OH229098   6.116   1.993   1.360
 9714TIP3    H129099   6.103   2.076   1.316
 9714TIP3    H229100   6.211   1.984   1.370
 9715TIP3   OH229101   4.814   3.891   2.504
 9715TIP3    H129102   4.850   3.860   2.421
 9715TIP3    H229103   4.846   3.828   2.569
 9716TIP3   OH229104   2.660   5.179   6.451
 9716TIP3    H129105   2.675   5.116   6.521
 9716TIP3    H229106   2.681   5.264   6.491
 9717TIP3   OH229107   5.070   6.384   1.575
 9717TIP3    H129108   5.026   6.308   1.536
 9717TIP3    H229109   5.027   6.395   1.659
 9718TIP3   OH229110   1.425   6.398   6.103
 9718TIP3    H129111   1.402   6.378   6.193
 9718TIP3    H229112   1.419   6.314   6.057
 9719TIP3   OH229113   0.430   4.251   5.145
 9719TIP3    H129114   0.504   4.201   5.179
 9719TIP3    H229115   0.467   4.338   5.126
 9720TIP3   OH229116   3.784   6.239   1.694
 9720TIP3    H129117   3.783   6.303   1.765
 9720TIP3    H229118   3.824   6.161   1.734
 9721TIP3   OH229119   1.047   5.974   1.626
 9721TIP3    H129120   1.125   5.925   1.600
 9721TIP3    H229121   0.974   5.915   1.607
 9722TIP3   OH229122   5.890   5.083   5.863
 9722TIP3    H129123   5.947   5.147   5.820
 9722TIP3    H229124   5.935   5.062   5.944
 9723TIP3   OH229125   0.622   1.158   5.178
 9723TIP3    H129126   0.592   1.069   5.162
 9723TIP3    H229127   0.707   1.148   5.221
 9724TIP3   OH229128   7.814   5.075   4.997
 9724TIP3    H129129   7.894   5.064   5.047
 9724TIP3    H229130   7.836   5.045   4.909
 9725TIP3   OH229131   2.602   5.540   4.680
 9725TIP3    H129132   2.524   5.514   4.729
 9725TIP3    H229133   2.654   5.460   4.672
 9726TIP3   OH229134   5.885   3.993   1.442
 9726TIP3    H129135   5.946   3.926   1.411
 9726TIP3    H229136   5.913   4.013   1.531
 9727TIP3   OH229137   1.508   4.269   6.352
 9727TIP3    H129138   1.443   4.202   6.373
 9727TIP3    H229139   1.456   4.347   6.333
 9728TIP3   OH229140   7.027   0.393   3.034
 9728TIP3    H129141   7.057   0.457   2.969
 9728TIP3    H229142   7.028   0.441   3.117
 9729TIP3   OH229143   1.349   3.349   3.459
 9729TIP3    H129144   1.360   3.397   3.377
 9729TIP3    H229145   1.267   3.382   3.496
 9730TIP3   OH229146   2.703   4.470   1.328
 9730TIP3    H129147   2.787   4.442   1.292
 9730TIP3    H229148   2.725   4.543   1.386
 9731TIP3   OH229149   2.226   7.359   2.036
 9731TIP3    H129150   2.189   7.439   2.072
 9731TIP3    H229151   2.221   7.296   2.107
 9732TIP3   OH229152   0.744   3.733   3.600
 9732TIP3    H129153   0.655   3.700   3.607
 9732TIP3    H229154   0.777   3.696   3.518
 9733TIP3   OH229155   0.571   2.956   1.988
 9733TIP3    H129156   0.597   3.047   1.997
 9733TIP3    H229157   0.619   2.924   1.911
 9734TIP3   OH229158   4.764   0.909   1.974
 9734TIP3    H129159   4.723   0.849   2.036
 9734TIP3    H229160   4.811   0.972   2.028
 9735TIP3   OH229161   1.758   2.672   4.113
 9735TIP3    H129162   1.713   2.589   4.127
 9735TIP3    H229163   1.733   2.726   4.188
 9736TIP3   OH229164   1.689   3.547   2.903
 9736TIP3    H129165   1.741   3.475   2.868
 9736TIP3    H229166   1.735   3.572   2.983
 9737TIP3   OH229167   7.854   5.708   6.221
 9737TIP3    H129168   7.863   5.626   6.271
 9737TIP3    H229169   7.897   5.690   6.138
 9738TIP3   OH229170   6.113   1.121   5.617
 9738TIP3    H129171   6.095   1.134   5.523
 9738TIP3    H229172   6.034   1.153   5.660
 9739TIP3   OH229173   1.755   7.144   5.113
 9739TIP3    H129174   1.849   7.156   5.123
 9739TIP3    H229175   1.746   7.095   5.031
 9740TIP3   OH229176   7.274   6.318   5.005
 9740TIP3    H129177   7.246   6.327   4.914
 9740TIP3    H229178   7.208   6.365   5.055
 9741TIP3   OH229179   2.470   5.923   0.214
 9741TIP3    H129180   2.464   6.018   0.223
 9741TIP3    H229181   2.483   5.891   0.303
 9742TIP3   OH229182   2.289   4.422   3.561
 9742TIP3    H129183   2.217   4.478   3.530
 9742TIP3    H229184   2.252   4.334   3.558
 9743TIP3   OH229185   3.171   0.311   2.874
 9743TIP3    H129186   3.217   0.254   2.812
 9743TIP3    H229187   3.084   0.272   2.882
 9744TIP3   OH229188   6.889   4.763   4.855
 9744TIP3    H129189   6.981   4.752   4.882
 9744TIP3    H229190   6.871   4.687   4.801
 9745TIP3   OH229191   6.508   5.372   0.664
 9745TIP3    H129192   6.443   5.322   0.614
 9745TIP3    H229193   6.592   5.332   0.641
 9746TIP3   OH229194   2.586   1.005   2.813
 9746TIP3    H129195   2.590   1.101   2.811
 9746TIP3    H229196   2.623   0.977   2.730
 9747TIP3   OH229197   0.439   7.642   1.658
 9747TIP3    H129198   0.436   7.670   1.567
 9747TIP3    H229199   0.527   7.666   1.688
 9748TIP3   OH229200   7.383   1.579   3.319
 9748TIP3    H129201   7.291   1.603   3.326
 9748TIP3    H229202   7.386   1.485   3.340
 9749TIP3   OH229203   6.957   3.457   0.106
 9749TIP3    H129204   6.919   3.443   0.193
 9749TIP3    H229205   6.918   3.389   0.052
 9750TIP3   OH229206   7.898   1.179   2.839
 9750TIP3    H129207   7.860   1.181   2.751
 9750TIP3    H229208   7.941   1.264   2.847
 9751TIP3   OH229209   5.151   4.176   0.184
 9751TIP3    H129210   5.176   4.085   0.196
 9751TIP3    H229211   5.125   4.182   0.092
 9752TIP3   OH229212   2.710   2.841   3.048
 9752TIP3    H129213   2.615   2.832   3.043
 9752TIP3    H229214   2.729   2.922   3.001
 9753TIP3   OH229215   1.737   1.991   5.352
 9753TIP3    H129216   1.799   1.918   5.354
 9753TIP3    H229217   1.726   2.011   5.259
 9754TIP3   OH229218   4.654   6.647   1.871
 9754TIP3    H129219   4.612   6.561   1.877
 9754TIP3    H229220   4.610   6.690   1.797
 9755TIP3   OH229221   7.714   0.119   2.631
 9755TIP3    H129222   7.790   0.173   2.609
 9755TIP3    H229223   7.650   0.140   2.562
 9756TIP3   OH229224   1.698   6.817   5.821
 9756TIP3    H129225   1.606   6.841   5.830
 9756TIP3    H229226   1.712   6.752   5.890
 9757TIP3   OH229227   8.076   6.258   0.523
 9757TIP3    H129228   8.034   6.181   0.561
 9757TIP3    H229229   8.023   6.332   0.554
 9758TIP3   OH229230   7.554   3.214   4.889
 9758TIP3    H129231   7.571   3.210   4.795
 9758TIP3    H229232   7.472   3.165   4.901
 9759TIP3   OH229233   1.027   5.011   5.052
 9759TIP3    H129234   1.115   5.040   5.029
 9759TIP3    H229235   1.012   4.934   4.997
 9760TIP3   OH229236   6.105   5.474   1.218
 9760TIP3    H129237   6.050   5.540   1.261
 9760TIP3    H229238   6.074   5.390   1.253
 9761TIP3   OH229239   0.258   1.465   4.551
 9761TIP3    H129240   0.346   1.461   4.514
 9761TIP3    H229241   0.237   1.558   4.554
 9762TIP3   OH229242   1.411   4.901   5.265
 9762TIP3    H129243   1.475   4.920   5.197
 9762TIP3    H229244   1.371   4.818   5.238
 9763TIP3   OH229245   0.614   4.338   3.554
 9763TIP3    H129246   0.625   4.404   3.623
 9763TIP3    H229247   0.549   4.375   3.495
 9764TIP3   OH229248   2.334   7.116   6.412
 9764TIP3    H129249   2.320   7.024   6.434
 9764TIP3    H229250   2.428   7.131   6.425
 9765TIP3   OH229251   4.860   5.066   0.889
 9765TIP3    H129252   4.791   4.999   0.884
 9765TIP3    H229253   4.937   5.018   0.919
 9766TIP3   OH229254   2.949   6.385   3.745
 9766TIP3    H129255   2.948   6.458   3.684
 9766TIP3    H229256   2.925   6.309   3.693
 9767TIP3   OH229257   4.925   5.281   1.776
 9767TIP3    H129258   4.904   5.364   1.819
 9767TIP3    H229259   4.956   5.306   1.689
 9768TIP3   OH229260   0.333   7.581   6.452
 9768TIP3    H129261   0.395   7.654   6.452
 9768TIP3    H229262   0.361   7.526   6.525
 9769TIP3   OH229263   7.019   6.702   1.521
 9769TIP3    H129264   6.965   6.632   1.483
 9769TIP3    H229265   7.085   6.721   1.454
 9770TIP3   OH229266   8.228   3.515   3.616
 9770TIP3    H129267   8.300   3.579   3.610
 9770TIP3    H229268   8.188   3.516   3.529
 9771TIP3   OH229269   4.240   1.195   5.886
 9771TIP3    H129270   4.248   1.288   5.904
 9771TIP3    H229271   4.156   1.186   5.842
 9772TIP3   OH229272   2.259   5.740   4.786
 9772TIP3    H129273   2.276   5.679   4.713
 9772TIP3    H229274   2.340   5.739   4.837
 9773TIP3   OH229275   3.817   5.447   3.288
 9773TIP3    H129276   3.897   5.461   3.338
 9773TIP3    H229277   3.750   5.495   3.337
 9774TIP3   OH229278   7.761   3.363   3.599
 9774TIP3    H129279   7.696   3.395   3.536
 9774TIP3    H229280   7.837   3.419   3.585
 9775TIP3   OH229281   7.269   0.121   5.739
 9775TIP3    H129282   7.311   0.193   5.785
 9775TIP3    H229283   7.341   0.065   5.711
 9776TIP3   OH229284   2.996   7.373   4.889
 9776TIP3    H129285   2.954   7.288   4.877
 9776TIP3    H229286   2.971   7.424   4.812
 9777TIP3   OH229287   3.385   7.491   5.959
 9777TIP3    H129288   3.329   7.562   5.989
 9777TIP3    H229289   3.326   7.416   5.949
 9778TIP3   OH229290   2.522   5.003   2.329
 9778TIP3    H129291   2.452   4.943   2.305
 9778TIP3    H229292   2.511   5.015   2.423
 9779TIP3   OH229293   7.954   5.867   3.030
 9779TIP3    H129294   8.036   5.894   2.990
 9779TIP3    H229295   7.958   5.902   3.119
 9780TIP3   OH229296   0.435   5.456   6.056
 9780TIP3    H129297   0.378   5.533   6.064
 9780TIP3    H229298   0.482   5.453   6.140
 9781TIP3   OH229299   7.342   5.359   6.591
 9781TIP3    H129300   7.367   5.439   6.637
 9781TIP3    H229301   7.306   5.302   6.659
 9782TIP3   OH229302   0.115   7.042   1.953
 9782TIP3    H129303   0.022   7.065   1.944
 9782TIP3    H229304   0.159   7.096   1.887
 9783TIP3   OH229305   3.932   0.818   6.455
 9783TIP3    H129306   3.928   0.738   6.402
 9783TIP3    H229307   4.025   0.841   6.457
 9784TIP3   OH229308   0.433   1.546   1.385
 9784TIP3    H129309   0.509   1.504   1.345
 9784TIP3    H229310   0.361   1.485   1.371
 9785TIP3   OH229311   6.427   2.382   2.046
 9785TIP3    H129312   6.507   2.350   2.004
 9785TIP3    H229313   6.396   2.451   1.989
 9786TIP3   OH229314   7.679   5.674   3.038
 9786TIP3    H129315   7.717   5.647   3.121
 9786TIP3    H229316   7.740   5.642   2.972
 9787TIP3   OH229317   6.774   3.654   0.619
 9787TIP3    H129318   6.678   3.665   0.616
 9787TIP3    H229319   6.787   3.560   0.630
 9788TIP3   OH229320   1.099   0.306  -0.069
 9788TIP3    H129321   1.085   0.360   0.009
 9788TIP3    H229322   1.086   0.216  -0.038
 9789TIP3   OH229323   4.467   7.439   6.110
 9789TIP3    H129324   4.555   7.473   6.095
 9789TIP3    H229325   4.422   7.509   6.157
 9790TIP3   OH229326   5.945   4.351   3.104
 9790TIP3    H129327   5.854   4.355   3.134
 9790TIP3    H229328   5.974   4.442   3.103
 9791TIP3   OH229329   6.832   3.469   2.182
 9791TIP3    H129330   6.765   3.439   2.120
 9791TIP3    H229331   6.802   3.556   2.209
 9792TIP3   OH229332   1.936   5.606   2.253
 9792TIP3    H129333   1.912   5.552   2.328
 9792TIP3    H229334   1.938   5.696   2.287
 9793TIP3   OH229335   0.489   3.566   0.592
 9793TIP3    H129336   0.473   3.567   0.687
 9793TIP3    H229337   0.441   3.490   0.561
 9794TIP3   OH229338   0.342   6.311   4.877
 9794TIP3    H129339   0.388   6.240   4.922
 9794TIP3    H229340   0.413   6.368   4.845
 9795TIP3   OH229341   1.309   1.308   1.706
 9795TIP3    H129342   1.307   1.402   1.689
 9795TIP3    H229343   1.398   1.281   1.683
 9796TIP3   OH229344   1.085   7.048   6.610
 9796TIP3    H129345   1.128   6.971   6.646
 9796TIP3    H229346   1.064   7.025   6.520
 9797TIP3   OH229347   3.994   0.162   6.488
 9797TIP3    H129348   3.956   0.183   6.403
 9797TIP3    H229349   4.057   0.232   6.504
 9798TIP3   OH229350   1.620   5.046   1.712
 9798TIP3    H129351   1.700   5.095   1.725
 9798TIP3    H229352   1.595   5.063   1.621
 9799TIP3   OH229353   2.968   2.034   6.157
 9799TIP3    H129354   3.011   1.953   6.183
 9799TIP3    H229355   2.880   2.008   6.131
 9800TIP3   OH229356   6.311   1.215   6.380
 9800TIP3    H129357   6.307   1.240   6.287
 9800TIP3    H229358   6.301   1.120   6.380
 9801TIP3   OH229359   7.331   4.882   6.208
 9801TIP3    H129360   7.361   4.835   6.130
 9801TIP3    H229361   7.357   4.973   6.193
 9802TIP3   OH229362   1.169   5.753   4.119
 9802TIP3    H129363   1.206   5.692   4.054
 9802TIP3    H229364   1.095   5.706   4.156
 9803TIP3   OH229365   6.283   1.304   1.736
 9803TIP3    H129366   6.316   1.393   1.727
 9803TIP3    H229367   6.356   1.248   1.711
 9804TIP3   OH229368   1.656   7.602   0.666
 9804TIP3    H129369   1.611   7.543   0.726
 9804TIP3    H229370   1.654   7.557   0.582
 9805TIP3   OH229371   5.723   3.705   2.070
 9805TIP3    H129372   5.718   3.774   2.003
 9805TIP3    H229373   5.788   3.643   2.036
 9806TIP3   OH229374   3.195   2.951   4.174
 9806TIP3    H129375   3.125   3.001   4.216
 9806TIP3    H229376   3.265   3.015   4.160
 9807TIP3   OH229377   2.305   6.131   1.906
 9807TIP3    H129378   2.345   6.161   1.825
 9807TIP3    H229379   2.287   6.211   1.955
 9808TIP3   OH229380   5.220   3.553   0.187
 9808TIP3    H129381   5.183   3.489   0.248
 9808TIP3    H229382   5.300   3.512   0.155
 9809TIP3   OH229383   7.645   0.253   1.457
 9809TIP3    H129384   7.699   0.316   1.408
 9809TIP3    H229385   7.680   0.167   1.433
 9810TIP3   OH229386   4.802   3.049   5.742
 9810TIP3    H129387   4.822   3.142   5.732
 9810TIP3    H229388   4.856   3.005   5.677
 9811TIP3   OH229389   1.461   3.929   1.270
 9811TIP3    H129390   1.514   4.004   1.298
 9811TIP3    H229391   1.379   3.967   1.239
 9812TIP3   OH229392   8.208   1.461   6.082
 9812TIP3    H129393   8.201   1.548   6.121
 9812TIP3    H229394   8.162   1.470   5.998
 9813TIP3   OH229395   0.743   1.954   5.656
 9813TIP3    H129396   0.677   2.008   5.612
 9813TIP3    H229397   0.786   2.013   5.718
 9814TIP3   OH229398   2.845   3.651   1.305
 9814TIP3    H129399   2.863   3.737   1.343
 9814TIP3    H229400   2.750   3.649   1.294
 9815TIP3   OH229401   2.229   6.173   2.905
 9815TIP3    H129402   2.225   6.086   2.867
 9815TIP3    H229403   2.267   6.227   2.835
 9816TIP3   OH229404   1.491   7.537   1.565
 9816TIP3    H129405   1.484   7.535   1.661
 9816TIP3    H229406   1.507   7.446   1.540
 9817TIP3   OH229407   6.515   0.987   3.917
 9817TIP3    H129408   6.431   1.000   3.874
 9817TIP3    H229409   6.511   1.040   3.996
 9818TIP3   OH229410   5.890   6.939   5.582
 9818TIP3    H129411   5.968   6.916   5.632
 9818TIP3    H229412   5.837   6.859   5.581
 9819TIP3   OH229413   4.745   4.928   6.457
 9819TIP3    H129414   4.742   5.011   6.503
 9819TIP3    H229415   4.660   4.888   6.472
 9820TIP3   OH229416   7.586   7.053   2.005
 9820TIP3    H129417   7.518   6.991   2.033
 9820TIP3    H229418   7.636   7.006   1.938
 9821TIP3   OH229419   4.043   3.615   0.165
 9821TIP3    H129420   4.136   3.597   0.151
 9821TIP3    H229421   4.006   3.626   0.078
 9822TIP3   OH229422   0.456   4.183   3.749
 9822TIP3    H129423   0.363   4.172   3.728
 9822TIP3    H229424   0.489   4.241   3.680
 9823TIP3   OH229425   4.177   4.639   1.038
 9823TIP3    H129426   4.093   4.625   0.994
 9823TIP3    H229427   4.185   4.734   1.045
 9824TIP3   OH229428   4.237   5.893   4.804
 9824TIP3    H129429   4.178   5.867   4.734
 9824TIP3    H229430   4.180   5.926   4.873
 9825TIP3   OH229431   4.390   1.658   4.519
 9825TIP3    H129432   4.477   1.618   4.512
 9825TIP3    H229433   4.344   1.632   4.440
 9826TIP3   OH229434   0.039   4.287   1.292
 9826TIP3    H129435   0.080   4.226   1.353
 9826TIP3    H229436   0.012   4.361   1.347
 9827TIP3   OH229437   4.112   3.104   6.012
 9827TIP3    H129438   4.098   3.149   5.928
 9827TIP3    H229439   4.113   3.011   5.990
 9828TIP3   OH229440   0.880   6.869   3.781
 9828TIP3    H129441   0.802   6.871   3.727
 9828TIP3    H229442   0.942   6.927   3.738
 9829TIP3   OH229443   7.228   1.135   2.734
 9829TIP3    H129444   7.320   1.147   2.758
 9829TIP3    H229445   7.225   1.157   2.641
 9830TIP3   OH229446   1.415   0.978   0.774
 9830TIP3    H129447   1.335   1.021   0.745
 9830TIP3    H229448   1.459   1.043   0.829
 9831TIP3   OH229449   4.210   5.648   6.167
 9831TIP3    H129450   4.149   5.644   6.240
 9831TIP3    H229451   4.281   5.589   6.192
 9832TIP3   OH229452   5.365   1.301   4.288
 9832TIP3    H129453   5.320   1.382   4.262
 9832TIP3    H229454   5.399   1.265   4.206
 9833TIP3   OH229455   4.453   1.351   2.891
 9833TIP3    H129456   4.504   1.325   2.815
 9833TIP3    H229457   4.363   1.322   2.870
 9834TIP3   OH229458   7.178   3.298   3.296
 9834TIP3    H129459   7.213   3.387   3.298
 9834TIP3    H229460   7.247   3.244   3.336
 9835TIP3   OH229461   4.634   4.167   1.730
 9835TIP3    H129462   4.653   4.160   1.824
 9835TIP3    H229463   4.547   4.128   1.720
 9836TIP3   OH229464   2.348   4.675   1.989
 9836TIP3    H129465   2.255   4.661   1.973
 9836TIP3    H229466   2.377   4.596   2.034
 9837TIP3   OH229467   5.633   3.627   5.954
 9837TIP3    H129468   5.538   3.624   5.968
 9837TIP3    H229469   5.648   3.714   5.916
 9838TIP3   OH229470   5.986   3.194   4.817
 9838TIP3    H129471   6.035   3.115   4.836
 9838TIP3    H229472   5.906   3.186   4.870
 9839TIP3   OH229473   2.779   6.855   5.137
 9839TIP3    H129474   2.797   6.853   5.231
 9839TIP3    H229475   2.850   6.909   5.101
 9840TIP3   OH229476   7.932   3.581   3.577
 9840TIP3    H129477   7.978   3.608   3.656
 9840TIP3    H229478   7.988   3.611   3.505
 9841TIP3   OH229479   4.496   5.940   4.620
 9841TIP3    H129480   4.405   5.921   4.645
 9841TIP3    H229481   4.510   6.030   4.649
 9842TIP3   OH229482   6.242   5.515   0.632
 9842TIP3    H129483   6.166   5.572   0.646
 9842TIP3    H229484   6.232   5.446   0.697
 9843TIP3   OH229485   8.199   4.876   0.279
 9843TIP3    H129486   8.158   4.923   0.206
 9843TIP3    H229487   8.293   4.881   0.261
 9844TIP3   OH229488   0.307   5.664   1.174
 9844TIP3    H129489   0.312   5.758   1.190
 9844TIP3    H229490   0.361   5.651   1.096
 9845TIP3   OH229491   2.236   0.000   4.419
 9845TIP3    H129492   2.299  -0.049   4.366
 9845TIP3    H229493   2.191   0.057   4.356
 9846TIP3   OH229494   0.045   4.431   6.304
 9846TIP3    H129495  -0.009   4.432   6.225
 9846TIP3    H229496   0.029   4.516   6.345
 9847TIP3   OH229497   6.823   6.966   5.161
 9847TIP3    H129498   6.739   6.994   5.126
 9847TIP3    H229499   6.886   7.026   5.122
 9848TIP3   OH229500   2.248   3.226   5.485
 9848TIP3    H129501   2.207   3.218   5.571
 9848TIP3    H229502   2.254   3.321   5.471
 9849TIP3   OH229503   2.473   2.066   4.667
 9849TIP3    H129504   2.478   2.161   4.663
 9849TIP3    H229505   2.564   2.038   4.683
 9850TIP3   OH229506   8.336   3.009   6.200
 9850TIP3    H129507   8.292   3.087   6.235
 9850TIP3    H229508   8.363   2.960   6.278
 9851TIP3   OH229509   1.359   2.293   5.041
 9851TIP3    H129510   1.334   2.200   5.037
 9851TIP3    H229511   1.383   2.307   5.133
 9852TIP3   OH229512   6.758   5.062   0.384
 9852TIP3    H129513   6.687   5.117   0.352
 9852TIP3    H229514   6.816   5.123   0.430
 9853TIP3   OH229515   1.371   2.796   6.045
 9853TIP3    H129516   1.427   2.721   6.029
 9853TIP3    H229517   1.282   2.763   6.032
 9854TIP3   OH229518   3.514   7.066   3.626
 9854TIP3    H129519   3.477   7.038   3.542
 9854TIP3    H229520   3.492   6.997   3.687
 9855TIP3   OH229521   0.613   3.890   3.872
 9855TIP3    H129522   0.537   3.937   3.837
 9855TIP3    H229523   0.668   3.959   3.910
 9856TIP3   OH229524   4.392   6.815   6.656
 9856TIP3    H129525   4.478   6.842   6.624
 9856TIP3    H229526   4.359   6.754   6.589
 9857TIP3   OH229527   5.421   2.019   2.007
 9857TIP3    H129528   5.350   1.958   1.986
 9857TIP3    H229529   5.495   1.962   2.032
 9858TIP3   OH229530   4.564   7.521   3.958
 9858TIP3    H129531   4.624   7.575   4.009
 9858TIP3    H229532   4.546   7.446   4.015
 9859TIP3   OH229533   2.698   0.568   1.222
 9859TIP3    H129534   2.769   0.522   1.267
 9859TIP3    H229535   2.674   0.509   1.150
 9860TIP3   OH229536   1.194   5.553   6.179
 9860TIP3    H129537   1.221   5.613   6.109
 9860TIP3    H229538   1.152   5.480   6.133
 9861TIP3   OH229539   7.401   7.093   1.106
 9861TIP3    H129540   7.329   7.068   1.048
 9861TIP3    H229541   7.478   7.099   1.049
 9862TIP3   OH229542   6.123   6.850   0.381
 9862TIP3    H129543   6.039   6.871   0.424
 9862TIP3    H229544   6.103   6.853   0.288
 9863TIP3   OH229545   1.745   4.455   2.635
 9863TIP3    H129546   1.724   4.371   2.594
 9863TIP3    H229547   1.831   4.440   2.675
 9864TIP3   OH229548   5.177   5.795   6.306
 9864TIP3    H129549   5.119   5.813   6.380
 9864TIP3    H229550   5.221   5.713   6.329
 9865TIP3   OH229551   4.286   2.498   5.104
 9865TIP3    H129552   4.223   2.570   5.107
 9865TIP3    H229553   4.233   2.421   5.083
 9866TIP3   OH229554   3.811   2.606   1.086
 9866TIP3    H129555   3.806   2.582   0.994
 9866TIP3    H229556   3.875   2.545   1.123
 9867TIP3   OH229557   6.040   7.715   4.530
 9867TIP3    H129558   6.074   7.626   4.538
 9867TIP3    H229559   6.013   7.739   4.619
 9868TIP3   OH229560   4.647   6.640   3.065
 9868TIP3    H129561   4.611   6.726   3.085
 9868TIP3    H229562   4.645   6.592   3.148
 9869TIP3   OH229563   1.717   6.514   4.890
 9869TIP3    H129564   1.703   6.419   4.894
 9869TIP3    H229565   1.809   6.526   4.914
 9870TIP3   OH229566   4.523   7.594   6.505
 9870TIP3    H129567   4.482   7.582   6.591
 9870TIP3    H229568   4.613   7.620   6.525
 9871TIP3   OH229569   1.629   1.322   1.877
 9871TIP3    H129570   1.720   1.350   1.872
 9871TIP3    H229571   1.590   1.376   1.946
 9872TIP3   OH229572   6.268   5.918   5.101
 9872TIP3    H129573   6.356   5.882   5.094
 9872TIP3    H229574   6.246   5.947   5.012
 9873TIP3   OH229575   3.748   2.800   3.477
 9873TIP3    H129576   3.766   2.718   3.431
 9873TIP3    H229577   3.825   2.812   3.533
 9874TIP3   OH229578   2.599   3.647   5.860
 9874TIP3    H129579   2.555   3.708   5.919
 9874TIP3    H229580   2.663   3.700   5.813
 9875TIP3   OH229581   3.207   4.267   3.314
 9875TIP3    H129582   3.223   4.181   3.353
 9875TIP3    H229583   3.236   4.330   3.381
 9876TIP3   OH229584   5.928   3.061   2.366
 9876TIP3    H129585   5.987   2.987   2.377
 9876TIP3    H229586   5.893   3.052   2.277
 9877TIP3   OH229587   7.588   3.882   0.353
 9877TIP3    H129588   7.645   3.805   0.342
 9877TIP3    H229589   7.527   3.856   0.422
 9878TIP3   OH229590   0.289   6.819   5.050
 9878TIP3    H129591   0.311   6.760   4.977
 9878TIP3    H229592   0.348   6.893   5.041
 9879TIP3   OH229593   6.713   1.669  -0.007
 9879TIP3    H129594   6.647   1.639  -0.070
 9879TIP3    H229595   6.793   1.675  -0.059
 9880TIP3   OH229596   4.059   5.851   4.451
 9880TIP3    H129597   4.000   5.777   4.465
 9880TIP3    H229598   4.022   5.922   4.505
 9881TIP3   OH229599   0.798   5.613   0.594
 9881TIP3    H129600   0.810   5.707   0.611
 9881TIP3    H229601   0.757   5.579   0.673
 9882TIP3   OH229602   4.219   0.117   5.381
 9882TIP3    H129603   4.298   0.062   5.376
 9882TIP3    H229604   4.247   0.201   5.345
 9883TIP3   OH229605   0.346   2.017   2.666
 9883TIP3    H129606   0.319   2.098   2.623
 9883TIP3    H229607   0.267   1.985   2.710
 9884TIP3   OH229608   6.909   2.468   0.260
 9884TIP3    H129609   6.986   2.419   0.232
 9884TIP3    H229610   6.835   2.419   0.222
 9885TIP3   OH229611   6.456   7.686   3.930
 9885TIP3    H129612   6.477   7.593   3.922
 9885TIP3    H229613   6.403   7.706   3.853
 9886TIP3   OH229614   3.199   1.959   3.123
 9886TIP3    H129615   3.184   1.923   3.035
 9886TIP3    H229616   3.280   1.917   3.152
 9887TIP3   OH229617   3.621   1.457   2.547
 9887TIP3    H129618   3.716   1.474   2.546
 9887TIP3    H229619   3.597   1.463   2.640
 9888TIP3   OH229620   2.245   0.903   4.258
 9888TIP3    H129621   2.328   0.939   4.289
 9888TIP3    H229622   2.267   0.816   4.225
 9889TIP3   OH229623   6.168   6.623   6.253
 9889TIP3    H129624   6.111   6.689   6.213
 9889TIP3    H229625   6.128   6.539   6.229
 9890TIP3   OH229626   7.868   7.808   3.222
 9890TIP3    H129627   7.864   7.728   3.170
 9890TIP3    H229628   7.792   7.804   3.279
 9891TIP3   OH229629   4.579   3.500   0.083
 9891TIP3    H129630   4.528   3.509   0.163
 9891TIP3    H229631   4.670   3.505   0.110
 9892TIP3   OH229632   7.967   2.214   3.597
 9892TIP3    H129633   7.911   2.259   3.660
 9892TIP3    H229634   7.906   2.172   3.536
 9893TIP3   OH229635   7.107   0.168   5.531
 9893TIP3    H129636   7.150   0.180   5.616
 9893TIP3    H229637   7.033   0.228   5.533
 9894TIP3   OH229638   0.315   4.975   1.898
 9894TIP3    H129639   0.313   4.970   1.802
 9894TIP3    H229640   0.403   4.946   1.922
 9895TIP3   OH229641   6.277   3.472   6.728
 9895TIP3    H129642   6.341   3.429   6.784
 9895TIP3    H229643   6.211   3.506   6.789
 9896TIP3   OH229644   7.946   4.490   6.365
 9896TIP3    H129645   7.858   4.492   6.328
 9896TIP3    H229646   7.970   4.583   6.372
 9897TIP3   OH229647   5.534   7.108   0.720
 9897TIP3    H129648   5.532   7.141   0.631
 9897TIP3    H229649   5.572   7.179   0.772
 9898TIP3   OH229650   6.403   4.363   5.805
 9898TIP3    H129651   6.443   4.319   5.729
 9898TIP3    H229652   6.441   4.319   5.881
 9899TIP3   OH229653   1.670   0.930   1.643
 9899TIP3    H129654   1.599   0.961   1.699
 9899TIP3    H229655   1.643   0.843   1.614
 9900TIP3   OH229656   3.074   0.555   2.956
 9900TIP3    H129657   3.122   0.579   3.035
 9900TIP3    H229658   3.106   0.468   2.933
 9901TIP3   OH229659   2.043   4.019   4.270
 9901TIP3    H129660   2.040   3.990   4.179
 9901TIP3    H229661   2.042   4.114   4.266
 9902TIP3   OH229662   5.935   6.650   6.089
 9902TIP3    H129663   5.874   6.652   6.163
 9902TIP3    H229664   5.920   6.565   6.047
 9903TIP3   OH229665   7.274   1.953   5.330
 9903TIP3    H129666   7.271   2.004   5.249
 9903TIP3    H229667   7.273   1.862   5.301
 9904TIP3   OH229668   2.665   1.415   4.504
 9904TIP3    H129669   2.691   1.379   4.589
 9904TIP3    H229670   2.680   1.509   4.512
 9905TIP3   OH229671   6.069   5.667   5.160
 9905TIP3    H129672   6.143   5.607   5.165
 9905TIP3    H229673   6.106   5.753   5.175
 9906TIP3   OH229674   2.818   2.562   5.986
 9906TIP3    H129675   2.782   2.642   6.022
 9906TIP3    H229676   2.744   2.520   5.942
 9907TIP3   OH229677   2.327   3.133   2.299
 9907TIP3    H129678   2.407   3.160   2.344
 9907TIP3    H229679   2.321   3.192   2.224
 9908TIP3   OH229680   7.826   1.086   3.086
 9908TIP3    H129681   7.867   1.102   3.001
 9908TIP3    H229682   7.858   0.999   3.112
 9909TIP3   OH229683   6.547   0.921   1.365
 9909TIP3    H129684   6.549   1.011   1.396
 9909TIP3    H229685   6.619   0.916   1.301
 9910TIP3   OH229686   7.322   1.983   1.893
 9910TIP3    H129687   7.302   2.051   1.829
 9910TIP3    H229688   7.237   1.943   1.912
 9911TIP3   OH229689   7.221   7.028   0.611
 9911TIP3    H129690   7.148   7.067   0.563
 9911TIP3    H229691   7.299   7.069   0.573
 9912TIP3   OH229692   7.650   5.465   2.343
 9912TIP3    H129693   7.641   5.381   2.388
 9912TIP3    H229694   7.744   5.480   2.337
 9913TIP3   OH229695   6.136   0.794   5.676
 9913TIP3    H129696   6.057   0.837   5.645
 9913TIP3    H229697   6.131   0.706   5.639
 9914TIP3   OH229698   1.299   3.658   5.838
 9914TIP3    H129699   1.233   3.725   5.855
 9914TIP3    H229700   1.355   3.696   5.771
 9915TIP3   OH229701   4.089   6.896   5.701
 9915TIP3    H129702   4.055   6.895   5.791
 9915TIP3    H229703   4.042   6.825   5.658
 9916TIP3   OH229704   2.996   0.909   1.205
 9916TIP3    H129705   2.991   0.888   1.298
 9916TIP3    H229706   2.907   0.935   1.181
 9917TIP3   OH229707   1.934   2.892   2.269
 9917TIP3    H129708   1.941   2.891   2.364
 9917TIP3    H229709   2.019   2.861   2.238
 9918TIP3   OH229710   7.806   4.011   0.718
 9918TIP3    H129711   7.712   4.028   0.714
 9918TIP3    H229712   7.813   3.916   0.728
 9919TIP3   OH229713   0.964   5.742   2.274
 9919TIP3    H129714   0.941   5.736   2.181
 9919TIP3    H229715   0.882   5.727   2.320
 9920TIP3   OH229716   1.821   4.294   0.605
 9920TIP3    H129717   1.861   4.247   0.679
 9920TIP3    H229718   1.886   4.288   0.535
 9921TIP3   OH229719   8.076   2.870   1.661
 9921TIP3    H129720   8.145   2.903   1.718
 9921TIP3    H229721   8.018   2.822   1.720
 9922TIP3   OH229722   0.270   0.188   0.165
 9922TIP3    H129723   0.200   0.246   0.134
 9922TIP3    H229724   0.267   0.197   0.260
 9923TIP3   OH229725   1.762   4.683   3.892
 9923TIP3    H129726   1.816   4.688   3.814
 9923TIP3    H229727   1.674   4.705   3.862
 9924TIP3   OH229728   0.290   2.050   5.069
 9924TIP3    H129729   0.350   2.007   5.130
 9924TIP3    H229730   0.275   2.137   5.108
 9925TIP3   OH229731   3.316   4.397   0.489
 9925TIP3    H129732   3.274   4.360   0.411
 9925TIP3    H229733   3.257   4.374   0.561
 9926TIP3   OH229734   2.078   4.704   3.840
 9926TIP3    H129735   2.020   4.735   3.909
 9926TIP3    H229736   2.034   4.729   3.758
 9927TIP3   OH229737   5.444   6.909   1.321
 9927TIP3    H129738   5.471   6.853   1.248
 9927TIP3    H229739   5.452   6.998   1.286
 9928TIP3   OH229740   1.958   3.506   5.920
 9928TIP3    H129741   2.033   3.484   5.976
 9928TIP3    H229742   1.895   3.547   5.980
 9929TIP3   OH229743   0.624   4.810   1.106
 9929TIP3    H129744   0.665   4.827   1.191
 9929TIP3    H229745   0.696   4.821   1.043
 9930TIP3   OH229746   1.308   0.868   6.122
 9930TIP3    H129747   1.260   0.859   6.205
 9930TIP3    H229748   1.355   0.950   6.130
 9931TIP3   OH229749   2.814   4.790   1.321
 9931TIP3    H129750   2.819   4.877   1.360
 9931TIP3    H229751   2.767   4.737   1.386
 9932TIP3   OH229752   6.830   7.607   2.569
 9932TIP3    H129753   6.877   7.674   2.619
 9932TIP3    H229754   6.889   7.585   2.497
 9933TIP3   OH229755   5.733   6.625   4.854
 9933TIP3    H129756   5.714   6.669   4.771
 9933TIP3    H229757   5.800   6.679   4.895
 9934TIP3   OH229758   5.141   2.762   2.470
 9934TIP3    H129759   5.078   2.696   2.442
 9934TIP3    H229760   5.225   2.716   2.473
 9935TIP3   OH229761   0.969   3.217   1.673
 9935TIP3    H129762   0.979   3.143   1.733
 9935TIP3    H229763   1.049   3.215   1.620
 9936TIP3   OH229764   4.932   2.966   0.061
 9936TIP3    H129765   4.961   3.047   0.018
 9936TIP3    H229766   4.844   2.986   0.091
 9937TIP3   OH229767   0.102   4.652   2.980
 9937TIP3    H129768   0.186   4.694   3.002
 9937TIP3    H229769   0.050   4.662   3.059
 9938TIP3   OH229770   0.332   4.302   4.899
 9938TIP3    H129771   0.337   4.395   4.923
 9938TIP3    H229772   0.352   4.256   4.980
 9939TIP3   OH229773   5.638   2.354   6.403
 9939TIP3    H129774   5.591   2.271   6.397
 9939TIP3    H229775   5.576   2.414   6.444
 9940TIP3   OH229776   0.714   3.200   1.921
 9940TIP3    H129777   0.644   3.198   1.856
 9940TIP3    H229778   0.774   3.268   1.891
 9941TIP3   OH229779   0.699   0.436   0.130
 9941TIP3    H129780   0.740   0.440   0.216
 9941TIP3    H229781   0.644   0.514   0.125
 9942TIP3   OH229782   4.637   0.581   6.537
 9942TIP3    H129783   4.684   0.582   6.453
 9942TIP3    H229784   4.700   0.549   6.600
 9943TIP3   OH229785   4.804   1.838   6.163
 9943TIP3    H129786   4.807   1.915   6.107
 9943TIP3    H229787   4.718   1.798   6.145
 9944TIP3   OH229788   0.090   1.250   6.695
 9944TIP3    H129789   0.059   1.261   6.785
 9944TIP3    H229790   0.012   1.261   6.641
 9945TIP3   OH229791   3.654   3.081   5.050
 9945TIP3    H129792   3.566   3.056   5.021
 9945TIP3    H229793   3.699   3.106   4.970
 9946TIP3   OH229794   1.307   6.405   3.547
 9946TIP3    H129795   1.306   6.317   3.586
 9946TIP3    H229796   1.289   6.389   3.454
 9947TIP3   OH229797   7.237   4.356   4.609
 9947TIP3    H129798   7.198   4.283   4.657
 9947TIP3    H229799   7.321   4.321   4.577
 9948TIP3   OH229800   7.266   7.328   2.094
 9948TIP3    H129801   7.179   7.361   2.070
 9948TIP3    H229802   7.258   7.306   2.187
 9949TIP3   OH229803   3.750   1.160   5.656
 9949TIP3    H129804   3.665   1.127   5.627
 9949TIP3    H229805   3.737   1.183   5.748
 9950TIP3   OH229806   8.242   7.450   4.213
 9950TIP3    H129807   8.313   7.402   4.255
 9950TIP3    H229808   8.167   7.391   4.216
 9951TIP3   OH229809   4.337   0.905   0.803
 9951TIP3    H129810   4.303   0.820   0.830
 9951TIP3    H229811   4.412   0.885   0.748
 9952TIP3   OH229812   2.678   0.686   3.402
 9952TIP3    H129813   2.697   0.716   3.314
 9952TIP3    H229814   2.605   0.625   3.392
 9953TIP3   OH229815   3.137   1.759   1.420
 9953TIP3    H129816   3.091   1.821   1.476
 9953TIP3    H229817   3.147   1.805   1.336
 9954TIP3   OH229818   7.041   6.169   5.628
 9954TIP3    H129819   7.028   6.116   5.707
 9954TIP3    H229820   6.953   6.187   5.596
 9955TIP3   OH229821   6.641   1.726   2.680
 9955TIP3    H129822   6.712   1.768   2.730
 9955TIP3    H229823   6.627   1.784   2.605
 9956TIP3   OH229824   3.981   4.807   5.383
 9956TIP3    H129825   3.986   4.728   5.328
 9956TIP3    H229826   4.020   4.876   5.329
 9957TIP3   OH229827   5.316   4.269   2.805
 9957TIP3    H129828   5.251   4.318   2.755
 9957TIP3    H229829   5.398   4.286   2.760
 9958TIP3   OH229830   3.230   5.946   2.127
 9958TIP3    H129831   3.157   5.888   2.149
 9958TIP3    H229832   3.234   6.009   2.199
 9959TIP3   OH229833   4.567   0.813   6.234
 9959TIP3    H129834   4.482   0.771   6.247
 9959TIP3    H229835   4.548   0.907   6.241
 9960TIP3   OH229836   7.804   1.054   5.429
 9960TIP3    H129837   7.886   1.071   5.383
 9960TIP3    H229838   7.831   1.027   5.517
 9961TIP3   OH229839   7.658   6.920   4.419
 9961TIP3    H129840   7.742   6.896   4.379
 9961TIP3    H229841   7.667   6.894   4.511
 9962TIP3   OH229842   3.861   6.183   3.764
 9962TIP3    H129843   3.858   6.151   3.674
 9962TIP3    H229844   3.926   6.254   3.762
 9963TIP3   OH229845   5.547   7.537   5.117
 9963TIP3    H129846   5.626   7.484   5.113
 9963TIP3    H229847   5.576   7.623   5.147
 9964TIP3   OH229848   3.909   2.753  -0.031
 9964TIP3    H129849   3.866   2.681   0.016
 9964TIP3    H229850   3.927   2.818   0.037
 9965TIP3   OH229851   7.889   2.547   0.937
 9965TIP3    H129852   7.943   2.469   0.927
 9965TIP3    H229853   7.846   2.558   0.852
 9966TIP3   OH229854   5.513   3.396   2.476
 9966TIP3    H129855   5.570   3.425   2.404
 9966TIP3    H229856   5.553   3.432   2.555
 9967TIP3   OH229857   4.557   6.256   5.767
 9967TIP3    H129858   4.526   6.269   5.857
 9967TIP3    H229859   4.570   6.161   5.759
 9968TIP3   OH229860   2.679   1.192   2.499
 9968TIP3    H129861   2.659   1.179   2.406
 9968TIP3    H229862   2.685   1.103   2.535
 9969TIP3   OH229863   3.817   1.497   0.679
 9969TIP3    H129864   3.753   1.519   0.747
 9969TIP3    H229865   3.802   1.404   0.661
 9970TIP3   OH229866   8.057   0.239   0.516
 9970TIP3    H129867   8.127   0.288   0.560
 9970TIP3    H229868   8.101   0.161   0.481
 9971TIP3   OH229869   4.990   3.587   6.140
 9971TIP3    H129870   5.059   3.653   6.135
 9971TIP3    H229871   4.976   3.560   6.049
 9972TIP3   OH229872   3.967   1.647   0.042
 9972TIP3    H129873   3.973   1.739   0.065
 9972TIP3    H229874   4.049   1.628  -0.003
 9973TIP3   OH229875   0.105   0.290   6.397
 9973TIP3    H129876   0.104   0.361   6.462
 9973TIP3    H229877   0.035   0.231   6.425
 9974TIP3   OH229878   8.197   5.153   6.450
 9974TIP3    H129879   8.267   5.218   6.451
 9974TIP3    H229880   8.121   5.200   6.484
 9975TIP3   OH229881   4.979   1.958   1.737
 9975TIP3    H129882   4.966   2.034   1.680
 9975TIP3    H229883   4.967   1.993   1.826
 9976TIP3   OH229884   5.988   0.422   1.547
 9976TIP3    H129885   6.039   0.491   1.590
 9976TIP3    H229886   5.971   0.457   1.459
 9977TIP3   OH229887   3.497   6.237   4.592
 9977TIP3    H129888   3.434   6.188   4.540
 9977TIP3    H229889   3.443   6.289   4.652
 9978TIP3   OH229890   0.152   5.415   6.162
 9978TIP3    H129891   0.170   5.500   6.123
 9978TIP3    H229892   0.133   5.358   6.087
 9979TIP3   OH229893   1.151   3.116   4.418
 9979TIP3    H129894   1.178   3.205   4.439
 9979TIP3    H229895   1.162   3.068   4.500
 9980TIP3   OH229896   2.484   5.227   5.977
 9980TIP3    H129897   2.451   5.139   5.996
 9980TIP3    H229898   2.559   5.239   6.035
 9981TIP3   OH229899   5.241   3.028   6.241
 9981TIP3    H129900   5.201   3.113   6.260
 9981TIP3    H229901   5.238   3.021   6.146
 9982TIP3   OH229902   6.895   7.201   2.022
 9982TIP3    H129903   6.966   7.165   1.969
 9982TIP3    H229904   6.931   7.208   2.110
 9983TIP3   OH229905   1.043   7.047   3.082
 9983TIP3    H129906   1.063   6.955   3.064
 9983TIP3    H229907   1.128   7.091   3.085
 9984TIP3   OH229908   6.780   3.285   4.089
 9984TIP3    H129909   6.730   3.329   4.020
 9984TIP3    H229910   6.715   3.264   4.155
 9985TIP3   OH229911   3.931   0.182   1.424
 9985TIP3    H129912   4.013   0.188   1.473
 9985TIP3    H229913   3.901   0.273   1.416
 9986TIP3   OH229914   0.978   6.935   4.160
 9986TIP3    H129915   1.006   6.858   4.110
 9986TIP3    H229916   1.038   7.005   4.132
 9987TIP3   OH229917   0.963   4.783   5.243
 9987TIP3    H129918   0.911   4.708   5.273
 9987TIP3    H229919   1.004   4.752   5.162
 9988TIP3   OH229920   6.448   1.648   5.426
 9988TIP3    H129921   6.407   1.650   5.513
 9988TIP3    H229922   6.538   1.678   5.442
 9989TIP3   OH229923   6.618   7.251   4.879
 9989TIP3    H129924   6.529   7.221   4.859
 9989TIP3    H229925   6.638   7.313   4.809
 9990TIP3   OH229926   1.583   4.429   0.654
 9990TIP3    H129927   1.571   4.407   0.747
 9990TIP3    H229928   1.626   4.514   0.655
 9991TIP3   OH229929   0.663   6.333   4.362
 9991TIP3    H129930   0.607   6.374   4.296
 9991TIP3    H229931   0.603   6.282   4.415
 9992TIP3   OH229932   4.267   5.336   4.223
 9992TIP3    H129933   4.172   5.325   4.223
 9992TIP3    H229934   4.298   5.286   4.299
 9993TIP3   OH229935   7.583   5.358   6.423
 9993TIP3    H129936   7.604   5.312   6.504
 9993TIP3    H229937   7.491   5.338   6.407
 9994TIP3   OH229938   1.192   1.830   0.881
 9994TIP3    H129939   1.096   1.835   0.880
 9994TIP3    H229940   1.210   1.736   0.890
 9995TIP3   OH229941   5.103   3.544   2.371
 9995TIP3    H129942   5.118   3.498   2.289
 9995TIP3    H229943   5.160   3.501   2.434
 9996TIP3   OH229944   6.908   2.169   4.561
 9996TIP3    H129945   6.965   2.109   4.610
 9996TIP3    H229946   6.848   2.204   4.627
 9997TIP3   OH229947   4.553   7.535   2.826
 9997TIP3    H129948   4.618   7.546   2.757
 9997TIP3    H229949   4.586   7.586   2.899
 9998TIP3   OH229950   2.342   6.057   3.430
 9998TIP3    H129951   2.297   5.981   3.393
 9998TIP3    H229952   2.278   6.128   3.425
 9999TIP3   OH229953   6.778   2.968   4.257
 9999TIP3    H129954   6.696   2.976   4.306
 9999TIP3    H229955   6.838   3.030   4.301
10000TIP3   OH229956   0.629   4.394   1.610
10000TIP3    H129957   0.719   4.419   1.629
10000TIP3    H229958   0.630   4.298   1.614
10001TIP3   OH229959   5.645   0.130   1.581
10001TIP3    H129960   5.723   0.160   1.627
10001TIP3    H229961   5.643   0.182   1.501
10002TIP3   OH229962   5.277   5.647   0.714
10002TIP3    H129963   5.318   5.561   0.722
10002TIP3    H229964   5.218   5.652   0.789
10003TIP3   OH229965   7.859   5.207   1.245
10003TIP3    H129966   7.869   5.189   1.152
10003TIP3    H229967   7.853   5.303   1.251
10004TIP3   OH229968   5.236   7.361   3.510
10004TIP3    H129969   5.327   7.379   3.534
10004TIP3    H229970   5.242   7.317   3.425
10005TIP3   OH229971   5.976   4.430   5.518
10005TIP3    H129972   6.041   4.459   5.582
10005TIP3    H229973   5.950   4.510   5.472
10006TIP3   OH229974   3.860   7.245   1.486
10006TIP3    H129975   3.879   7.291   1.404
10006TIP3    H229976   3.938   7.193   1.503
10007TIP3   OH229977   2.031   0.395   6.254
10007TIP3    H129978   1.990   0.381   6.168
10007TIP3    H229979   2.017   0.488   6.272
10008TIP3   OH229980   8.068   7.460   1.669
10008TIP3    H129981   8.159   7.482   1.688
10008TIP3    H229982   8.019   7.489   1.746
10009TIP3   OH229983   5.218   2.359   3.284
10009TIP3    H129984   5.221   2.279   3.336
10009TIP3    H229985   5.303   2.400   3.297
10010TIP3   OH229986   5.848   6.254   2.512
10010TIP3    H129987   5.832   6.211   2.597
10010TIP3    H229988   5.884   6.185   2.456
10011TIP3   OH229989   7.092   2.786   2.954
10011TIP3    H129990   7.074   2.839   2.876
10011TIP3    H229991   7.187   2.784   2.960
10012TIP3   OH229992   6.089   4.497   3.763
10012TIP3    H129993   6.062   4.484   3.854
10012TIP3    H229994   6.051   4.423   3.715
10013TIP3   OH229995   3.711   6.798   0.626
10013TIP3    H129996   3.756   6.749   0.695
10013TIP3    H229997   3.742   6.759   0.545
10014TIP3   OH229998   5.860   4.967   4.470
10014TIP3    H129999   5.853   4.958   4.376
10014TIP3    H230000   5.916   5.044   4.483
10015TIP3   OH230001   7.024   0.577   6.668
10015TIP3    H130002   7.015   0.650   6.730
10015TIP3    H230003   7.001   0.615   6.583
10016TIP3   OH230004   5.846   0.624   5.872
10016TIP3    H130005   5.848   0.720   5.871
10016TIP3    H230006   5.936   0.597   5.855
10017TIP3   OH230007   1.474   6.383   5.065
10017TIP3    H130008   1.489   6.292   5.041
10017TIP3    H230009   1.400   6.410   5.010
10018TIP3   OH230010   0.571   0.917   5.039
10018TIP3    H130011   0.645   0.860   5.015
10018TIP3    H230012   0.509   0.858   5.082
10019TIP3   OH230013   4.040   4.049   6.379
10019TIP3    H130014   4.032   4.116   6.312
10019TIP3    H230015   3.968   3.988   6.360
10020TIP3   OH230016   5.071   7.727   0.754
10020TIP3    H130017   5.027   7.757   0.675
10020TIP3    H230018   5.009   7.745   0.825
10021TIP3   OH230019   0.937   6.799   6.665
10021TIP3    H130020   0.953   6.705   6.668
10021TIP3    H230021   0.876   6.811   6.593
10022TIP3   OH230022   6.813   1.575   2.447
10022TIP3    H130023   6.876   1.517   2.491
10022TIP3    H230024   6.737   1.576   2.505
10023TIP3   OH230025   3.682   2.047   2.518
10023TIP3    H130026   3.702   2.069   2.609
10023TIP3    H230027   3.603   2.097   2.499
10024TIP3   OH230028   6.364   6.829   2.829
10024TIP3    H130029   6.339   6.751   2.879
10024TIP3    H230030   6.459   6.821   2.817
10025TIP3   OH230031   2.217   1.240   3.427
10025TIP3    H130032   2.269   1.235   3.347
10025TIP3    H230033   2.207   1.149   3.455
10026TIP3   OH230034   0.197   2.826   5.505
10026TIP3    H130035   0.185   2.859   5.594
10026TIP3    H230036   0.262   2.886   5.467
10027TIP3   OH230037   7.613   3.526   4.294
10027TIP3    H130038   7.686   3.494   4.240
10027TIP3    H230039   7.630   3.620   4.304
10028TIP3   OH230040   7.942   0.833   3.157
10028TIP3    H130041   7.947   0.833   3.253
10028TIP3    H230042   7.899   0.751   3.135
10029TIP3   OH230043   7.501   7.553   2.120
10029TIP3    H130044   7.478   7.461   2.135
10029TIP3    H230045   7.424   7.591   2.079
10030TIP3   OH230046   5.990   1.019   1.021
10030TIP3    H130047   5.977   1.041   1.114
10030TIP3    H230048   6.016   1.102   0.980
10031TIP3   OH230049   2.123   2.589   2.245
10031TIP3    H130050   2.201   2.545   2.211
10031TIP3    H230051   2.080   2.625   2.168
10032TIP3   OH230052   4.546   1.637   5.351
10032TIP3    H130053   4.601   1.622   5.428
10032TIP3    H230054   4.529   1.550   5.316
10033TIP3   OH230055   1.502   1.139   3.967
10033TIP3    H130056   1.567   1.128   4.036
10033TIP3    H230057   1.442   1.065   3.978
10034TIP3   OH230058   4.835   1.137   4.412
10034TIP3    H130059   4.740   1.130   4.418
10034TIP3    H230060   4.861   1.063   4.357
10035TIP3   OH230061   8.179   6.894   3.782
10035TIP3    H130062   8.138   6.808   3.798
10035TIP3    H230063   8.121   6.956   3.825
10036TIP3   OH230064   3.720   6.650   5.739
10036TIP3    H130065   3.812   6.673   5.748
10036TIP3    H230066   3.698   6.675   5.650
10037TIP3   OH230067   5.038   7.275   4.858
10037TIP3    H130068   5.127   7.260   4.890
10037TIP3    H230069   5.023   7.205   4.795
10038TIP3   OH230070   5.462   4.953   3.550
10038TIP3    H130071   5.518   4.950   3.472
10038TIP3    H230072   5.415   4.870   3.548
10039TIP3   OH230073   6.485   1.559   2.895
10039TIP3    H130074   6.513   1.647   2.918
10039TIP3    H230075   6.509   1.549   2.803
10040TIP3   OH230076   4.699   3.974   0.101
10040TIP3    H130077   4.653   3.891   0.106
10040TIP3    H230078   4.776   3.962   0.157
10041TIP3   OH230079   6.432   2.738   6.523
10041TIP3    H130080   6.370   2.810   6.537
10041TIP3    H230081   6.518   2.779   6.531
10042TIP3   OH230082   6.600   2.625   3.705
10042TIP3    H130083   6.569   2.538   3.728
10042TIP3    H230084   6.633   2.616   3.616
10043TIP3   OH230085   1.993   1.177   1.695
10043TIP3    H130086   1.970   1.088   1.670
10043TIP3    H230087   1.994   1.226   1.613
10044TIP3   OH230088   5.502   2.062   4.349
10044TIP3    H130089   5.579   2.107   4.313
10044TIP3    H230090   5.532   2.028   4.433
10045TIP3   OH230091   3.313   4.255   4.118
10045TIP3    H130092   3.243   4.261   4.053
10045TIP3    H230093   3.284   4.186   4.178
10046TIP3   OH230094   7.078   1.452   0.599
10046TIP3    H130095   7.037   1.526   0.554
10046TIP3    H230096   7.150   1.491   0.649
10047TIP3   OH230097   0.255   3.881   5.151
10047TIP3    H130098   0.231   3.922   5.068
10047TIP3    H230099   0.346   3.909   5.166
10048TIP3   OH230100   4.793   1.348   3.377
10048TIP3    H130101   4.838   1.308   3.453
10048TIP3    H230102   4.784   1.440   3.401
10049TIP3   OH230103   7.612   6.689   4.992
10049TIP3    H130104   7.563   6.759   4.950
10049TIP3    H230105   7.562   6.610   4.972
10050TIP3   OH230106   5.476   5.551   2.636
10050TIP3    H130107   5.515   5.468   2.607
10050TIP3    H230108   5.386   5.528   2.659
10051TIP3   OH230109   4.981   3.826   5.907
10051TIP3    H130110   5.056   3.877   5.875
10051TIP3    H230111   4.931   3.887   5.961
10052TIP3   OH230112   2.614   1.090   0.540
10052TIP3    H130113   2.643   1.072   0.451
10052TIP3    H230114   2.602   1.004   0.580
10053TIP3   OH230115   3.097   2.410   1.118
10053TIP3    H130116   3.107   2.488   1.062
10053TIP3    H230117   3.152   2.429   1.194
10054TIP3   OH230118   7.431   4.736   3.245
10054TIP3    H130119   7.343   4.772   3.259
10054TIP3    H230120   7.416   4.642   3.232
10055TIP3   OH230121   7.401   1.130   1.953
10055TIP3    H130122   7.340   1.201   1.973
10055TIP3    H230123   7.482   1.155   1.998
10056TIP3   OH230124   7.834   7.259   2.539
10056TIP3    H130125   7.807   7.348   2.562
10056TIP3    H230126   7.753   7.215   2.511
10057TIP3   OH230127   7.977   7.079   2.681
10057TIP3    H130128   7.954   7.156   2.629
10057TIP3    H230129   8.011   7.114   2.763
10058TIP3   OH230130   7.305   1.723   5.147
10058TIP3    H130131   7.269   1.699   5.061
10058TIP3    H230132   7.388   1.765   5.126
10059TIP3   OH230133   3.886   6.312   1.964
10059TIP3    H130134   3.852   6.390   2.007
10059TIP3    H230135   3.975   6.336   1.938
10060TIP3   OH230136   7.609   6.359   6.141
10060TIP3    H130137   7.671   6.408   6.087
10060TIP3    H230138   7.665   6.310   6.202
10061TIP3   OH230139   7.686   5.216   5.574
10061TIP3    H130140   7.753   5.266   5.621
10061TIP3    H230141   7.613   5.210   5.635
10062TIP3   OH230142   7.014   4.554   1.928
10062TIP3    H130143   6.960   4.580   2.002
10062TIP3    H230144   7.095   4.604   1.937
10063TIP3   OH230145   7.644   5.880   4.644
10063TIP3    H130146   7.629   5.968   4.680
10063TIP3    H230147   7.694   5.895   4.563
10064TIP3   OH230148   5.830   4.266   6.293
10064TIP3    H130149   5.871   4.336   6.345
10064TIP3    H230150   5.886   4.259   6.215
10065TIP3   OH230151   0.195   3.511   3.435
10065TIP3    H130152   0.134   3.463   3.378
10065TIP3    H230153   0.275   3.519   3.384
10066TIP3   OH230154   3.934   4.041   2.494
10066TIP3    H130155   3.924   4.133   2.468
10066TIP3    H230156   4.027   4.022   2.481
10067TIP3   OH230157   1.822   1.334   5.656
10067TIP3    H130158   1.776   1.265   5.609
10067TIP3    H230159   1.840   1.401   5.590
10068TIP3   OH230160   2.970   1.403   5.681
10068TIP3    H130161   3.033   1.451   5.626
10068TIP3    H230162   2.885   1.423   5.641
10069TIP3   OH230163   6.702   7.063   6.590
10069TIP3    H130164   6.654   7.089   6.511
10069TIP3    H230165   6.729   7.146   6.630
10070TIP3   OH230166   5.859   0.650   2.156
10070TIP3    H130167   5.933   0.665   2.214
10070TIP3    H230168   5.787   0.626   2.215
10071TIP3   OH230169   1.504   6.863   1.816
10071TIP3    H130170   1.584   6.852   1.765
10071TIP3    H230171   1.497   6.782   1.867
10072TIP3   OH230172   3.055   6.442   2.325
10072TIP3    H130173   2.974   6.444   2.274
10072TIP3    H230174   3.026   6.421   2.414
10073TIP3   OH230175   5.774   0.357   5.826
10073TIP3    H130176   5.803   0.447   5.844
10073TIP3    H230177   5.716   0.336   5.899
10074TIP3   OH230178   3.487   1.940   2.905
10074TIP3    H130179   3.446   1.964   2.987
10074TIP3    H230180   3.417   1.902   2.852
10075TIP3   OH230181   6.289   1.519   6.454
10075TIP3    H130182   6.200   1.502   6.422
10075TIP3    H230183   6.343   1.455   6.408
10076TIP3   OH230184   0.099   3.640   1.645
10076TIP3    H130185   0.183   3.671   1.610
10076TIP3    H230186   0.093   3.679   1.732
10077TIP3   OH230187   3.003   6.594   5.263
10077TIP3    H130188   2.948   6.667   5.293
10077TIP3    H230189   3.089   6.611   5.302
10078TIP3   OH230190   0.257   5.257   1.444
10078TIP3    H130191   0.202   5.324   1.485
10078TIP3    H230192   0.325   5.306   1.398
10079TIP3   OH230193   1.130   4.404   1.231
10079TIP3    H130194   1.112   4.412   1.324
10079TIP3    H230195   1.125   4.494   1.198
10080TIP3   OH230196   2.004   5.474   5.521
10080TIP3    H130197   1.910   5.478   5.501
10080TIP3    H230198   2.008   5.454   5.614
10081TIP3   OH230199   2.179   6.371   2.307
10081TIP3    H130200   2.257   6.352   2.359
10081TIP3    H230201   2.112   6.313   2.342
10082TIP3   OH230202   5.688   4.171   0.027
10082TIP3    H130203   5.763   4.112   0.031
10082TIP3    H230204   5.704   4.236   0.096
10083TIP3   OH230205   6.217   2.450   3.890
10083TIP3    H130206   6.151   2.478   3.827
10083TIP3    H230207   6.253   2.532   3.926
10084TIP3   OH230208   0.991   1.816   6.773
10084TIP3    H130209   0.900   1.845   6.769
10084TIP3    H230210   1.036   1.885   6.823
10085TIP3   OH230211   7.666   5.946   0.613
10085TIP3    H130212   7.697   5.936   0.523
10085TIP3    H230213   7.686   6.037   0.635
10086TIP3   OH230214   7.601   4.166   0.980
10086TIP3    H130215   7.571   4.098   1.040
10086TIP3    H230216   7.572   4.136   0.893
10087TIP3   OH230217   0.507   0.594   3.668
10087TIP3    H130218   0.573   0.652   3.630
10087TIP3    H230219   0.532   0.587   3.760
10088TIP3   OH230220   1.307   1.165   2.378
10088TIP3    H130221   1.270   1.215   2.451
10088TIP3    H230222   1.230   1.136   2.328
10089TIP3   OH230223   1.304   6.972   2.297
10089TIP3    H130224   1.334   6.892   2.254
10089TIP3    H230225   1.322   7.041   2.233
10090TIP3   OH230226   7.534   0.837   5.607
10090TIP3    H130227   7.497   0.908   5.554
10090TIP3    H230228   7.577   0.780   5.543
10091TIP3   OH230229   3.234   3.466   4.043
10091TIP3    H130230   3.252   3.542   4.099
10091TIP3    H230231   3.201   3.400   4.104
10092TIP3   OH230232   8.131   4.439   2.093
10092TIP3    H130233   8.217   4.432   2.052
10092TIP3    H230234   8.098   4.524   2.063
10093TIP3   OH230235   2.892   1.509   4.816
10093TIP3    H130236   2.889   1.578   4.882
10093TIP3    H230237   2.933   1.550   4.740
10094TIP3   OH230238   0.704   1.425   2.103
10094TIP3    H130239   0.689   1.457   2.192
10094TIP3    H230240   0.719   1.504   2.052
10095TIP3   OH230241   2.601   1.970   0.660
10095TIP3    H130242   2.688   1.984   0.621
10095TIP3    H230243   2.619   1.938   0.748
10096TIP3   OH230244   3.944   5.759   0.618
10096TIP3    H130245   3.867   5.754   0.561
10096TIP3    H230246   3.909   5.783   0.704
10097TIP3   OH230247   4.342   2.168   1.918
10097TIP3    H130248   4.425   2.211   1.895
10097TIP3    H230249   4.359   2.075   1.905
10098TIP3   OH230250   3.512   1.046   3.712
10098TIP3    H130251   3.542   1.053   3.621
10098TIP3    H230252   3.474   1.132   3.731
10099TIP3   OH230253   0.760   1.836   2.598
10099TIP3    H130254   0.746   1.757   2.651
10099TIP3    H230255   0.689   1.835   2.534
10100TIP3   OH230256   0.669   5.530   1.591
10100TIP3    H130257   0.603   5.548   1.658
10100TIP3    H230258   0.741   5.489   1.637
10101TIP3   OH230259  -0.038   6.837   3.526
10101TIP3    H130260   0.007   6.921   3.531
10101TIP3    H230261  -0.083   6.828   3.610
10102TIP3   OH230262   7.764   0.281   6.094
10102TIP3    H130263   7.761   0.347   6.163
10102TIP3    H230264   7.760   0.198   6.141
10103TIP3   OH230265   2.755   4.626   6.158
10103TIP3    H130266   2.832   4.649   6.107
10103TIP3    H230267   2.787   4.567   6.226
10104TIP3   OH230268   5.084   0.059   2.224
10104TIP3    H130269   5.005   0.050   2.170
10104TIP3    H230270   5.117  -0.031   2.234
10105TIP3   OH230271   0.834   2.319   0.419
10105TIP3    H130272   0.892   2.279   0.353
10105TIP3    H230273   0.747   2.313   0.380
10106TIP3   OH230274   4.081   7.539   0.524
10106TIP3    H130275   4.129   7.621   0.539
10106TIP3    H230276   4.148   7.478   0.492
10107TIP3   OH230277   4.577   0.037   0.471
10107TIP3    H130278   4.592   0.110   0.532
10107TIP3    H230279   4.647  -0.026   0.491
10108TIP3   OH230280   6.246   2.967   1.769
10108TIP3    H130281   6.330   2.921   1.769
10108TIP3    H230282   6.268   3.057   1.746
10109TIP3   OH230283   0.391   0.680   4.432
10109TIP3    H130284   0.445   0.735   4.375
10109TIP3    H230285   0.430   0.691   4.519
10110TIP3   OH230286   2.804   0.574   1.761
10110TIP3    H130287   2.858   0.608   1.833
10110TIP3    H230288   2.867   0.541   1.697
10111TIP3   OH230289   3.609   3.317   2.622
10111TIP3    H130290   3.627   3.223   2.617
10111TIP3    H230291   3.549   3.334   2.549
10112TIP3   OH230292   6.439   4.860   0.206
10112TIP3    H130293   6.357   4.890   0.168
10112TIP3    H230294   6.422   4.769   0.230
10113TIP3   OH230295   5.465   7.824   1.932
10113TIP3    H130296   5.483   7.890   1.865
10113TIP3    H230297   5.548   7.815   1.979
10114TIP3   OH230298   5.434   2.416   1.026
10114TIP3    H130299   5.464   2.458   1.107
10114TIP3    H230300   5.417   2.326   1.051
10115TIP3   OH230301   7.922   5.808   2.189
10115TIP3    H130302   7.910   5.813   2.094
10115TIP3    H230303   8.013   5.834   2.203
10116TIP3   OH230304   1.184   6.669   5.808
10116TIP3    H130305   1.227   6.601   5.757
10116TIP3    H230306   1.183   6.636   5.898
10117TIP3   OH230307   4.414   3.159   5.603
10117TIP3    H130308   4.458   3.239   5.572
10117TIP3    H230309   4.336   3.191   5.649
10118TIP3   OH230310   3.602   5.690   5.088
10118TIP3    H130311   3.674   5.717   5.145
10118TIP3    H230312   3.564   5.772   5.057
10119TIP3   OH230313   5.950   6.713   2.709
10119TIP3    H130314   5.855   6.706   2.723
10119TIP3    H230315   5.979   6.779   2.773
10120TIP3   OH230316   5.638   4.352   3.150
10120TIP3    H130317   5.548   4.380   3.136
10120TIP3    H230318   5.633   4.258   3.165
10121TIP3   OH230319   7.180   1.324   6.359
10121TIP3    H130320   7.196   1.401   6.304
10121TIP3    H230321   7.169   1.252   6.297
10122TIP3   OH230322   1.862   1.125   2.542
10122TIP3    H130323   1.946   1.170   2.544
10122TIP3    H230324   1.867   1.069   2.465
10123TIP3   OH230325   5.428   0.588   4.206
10123TIP3    H130326   5.452   0.621   4.293
10123TIP3    H230327   5.486   0.513   4.192
10124TIP3   OH230328   5.305   0.939   0.208
10124TIP3    H130329   5.287   1.010   0.146
10124TIP3    H230330   5.284   0.859   0.160
10125TIP3   OH230331   4.934   4.025   1.441
10125TIP3    H130332   5.029   4.014   1.440
10125TIP3    H230333   4.920   4.108   1.486
10126TIP3   OH230334   5.470   1.476   5.163
10126TIP3    H130335   5.468   1.383   5.188
10126TIP3    H230336   5.550   1.486   5.112
10127TIP3   OH230337   4.296   4.579   2.989
10127TIP3    H130338   4.237   4.521   2.941
10127TIP3    H230339   4.377   4.579   2.938
10128TIP3   OH230340   1.373   4.616   2.487
10128TIP3    H130341   1.304   4.602   2.552
10128TIP3    H230342   1.450   4.641   2.538
10129TIP3   OH230343   6.228   6.084   1.938
10129TIP3    H130344   6.322   6.080   1.918
10129TIP3    H230345   6.186   6.031   1.870
10130TIP3   OH230346   1.972   3.433   2.921
10130TIP3    H130347   1.958   3.511   2.974
10130TIP3    H230348   2.034   3.461   2.853
10131TIP3   OH230349   0.670   5.340   6.398
10131TIP3    H130350   0.620   5.410   6.357
10131TIP3    H230351   0.608   5.267   6.404
10132TIP3   OH230352   5.716   1.056   1.091
10132TIP3    H130353   5.735   0.966   1.066
10132TIP3    H230354   5.717   1.056   1.187
10133TIP3   OH230355   2.773   6.177   6.649
10133TIP3    H130356   2.833   6.245   6.679
10133TIP3    H230357   2.696   6.186   6.706
10134TIP3   OH230358   2.914   5.740   6.806
10134TIP3    H130359   2.904   5.794   6.727
10134TIP3    H230360   3.003   5.757   6.836
10135TIP3   OH230361   5.879   2.821   4.179
10135TIP3    H130362   5.963   2.858   4.154
10135TIP3    H230363   5.881   2.731   4.146
10136TIP3   OH230364   6.769   0.537   0.679
10136TIP3    H130365   6.806   0.507   0.762
10136TIP3    H230366   6.679   0.504   0.679
10137TIP3   OH230367   5.905   0.947   4.743
10137TIP3    H130368   5.984   0.906   4.707
10137TIP3    H230369   5.920   1.041   4.732
10138TIP3   OH230370   5.877   2.001   1.162
10138TIP3    H130371   5.891   1.907   1.153
10138TIP3    H230372   5.925   2.025   1.241
10139TIP3   OH230373   0.468   3.618   1.657
10139TIP3    H130374   0.417   3.540   1.637
10139TIP3    H230375   0.494   3.653   1.572
10140TIP3   OH230376   0.997   2.999   5.090
10140TIP3    H130377   1.047   2.918   5.098
10140TIP3    H230378   1.060   3.068   5.106
10141TIP3   OH230379   4.651   0.361   3.084
10141TIP3    H130380   4.629   0.442   3.130
10141TIP3    H230381   4.576   0.303   3.102
10142TIP3   OH230382   6.438   7.756   4.964
10142TIP3    H130383   6.418   7.683   5.023
10142TIP3    H230384   6.493   7.815   5.016
10143TIP3   OH230385   2.081   3.361   5.262
10143TIP3    H130386   2.013   3.414   5.221
10143TIP3    H230387   2.114   3.416   5.333
10144TIP3   OH230388   4.462   7.031   5.262
10144TIP3    H130389   4.503   7.115   5.285
10144TIP3    H230390   4.441   6.991   5.347
10145TIP3   OH230391   2.906   0.701   3.565
10145TIP3    H130392   2.820   0.693   3.523
10145TIP3    H230393   2.905   0.788   3.605
10146TIP3   OH230394   2.496   1.427   0.528
10146TIP3    H130395   2.529   1.504   0.482
10146TIP3    H230396   2.418   1.401   0.478
10147TIP3   OH230397   1.742   5.615   2.893
10147TIP3    H130398   1.808   5.633   2.960
10147TIP3    H230399   1.734   5.519   2.892
10148TIP3   OH230400   1.038  -0.017   5.692
10148TIP3    H130401   1.034   0.079   5.701
10148TIP3    H230402   1.128  -0.035   5.667
10149TIP3   OH230403   0.777   6.135   2.600
10149TIP3    H130404   0.739   6.048   2.591
10149TIP3    H230405   0.868   6.120   2.626
10150TIP3   OH230406   1.680   7.394   0.028
10150TIP3    H130407   1.652   7.309   0.061
10150TIP3    H230408   1.736   7.429   0.097
10151TIP3   OH230409   1.887   3.011   3.180
10151TIP3    H130410   1.793   2.996   3.188
10151TIP3    H230411   1.927   2.931   3.214
10152TIP3   OH230412   1.329   5.974   1.504
10152TIP3    H130413   1.294   6.041   1.563
10152TIP3    H230414   1.311   6.008   1.416
10153TIP3   OH230415   0.337   5.355   5.821
10153TIP3    H130416   0.355   5.351   5.914
10153TIP3    H230417   0.248   5.391   5.815
10154TIP3   OH230418   5.646   6.180   1.326
10154TIP3    H130419   5.704   6.187   1.250
10154TIP3    H230420   5.626   6.087   1.333
10155TIP3   OH230421   2.712   1.022   0.293
10155TIP3    H130422   2.757   0.937   0.286
10155TIP3    H230423   2.657   1.026   0.215
10156TIP3   OH230424   3.933   6.501   3.707
10156TIP3    H130425   4.016   6.462   3.736
10156TIP3    H230426   3.940   6.503   3.612
10157TIP3   OH230427   7.537   2.601   0.293
10157TIP3    H130428   7.507   2.682   0.334
10157TIP3    H230429   7.459   2.547   0.285
10158TIP3   OH230430   2.885   4.903   1.047
10158TIP3    H130431   2.889   4.859   0.962
10158TIP3    H230432   2.861   4.835   1.109
10159TIP3   OH230433   0.947   0.410   4.029
10159TIP3    H130434   0.866   0.367   4.002
10159TIP3    H230435   0.987   0.349   4.091
10160TIP3   OH230436   4.980   5.305   2.078
10160TIP3    H130437   4.891   5.272   2.063
10160TIP3    H230438   4.988   5.380   2.020
10161TIP3   OH230439   4.980   5.897   4.868
10161TIP3    H130440   5.014   5.986   4.859
10161TIP3    H230441   4.903   5.895   4.811
10162TIP3   OH230442   8.202   0.774   5.264
10162TIP3    H130443   8.261   0.709   5.302
10162TIP3    H230444   8.259   0.828   5.209
10163TIP3   OH230445   5.600   7.195   6.342
10163TIP3    H130446   5.559   7.260   6.399
10163TIP3    H230447   5.553   7.202   6.259
10164TIP3   OH230448   1.205   0.447   0.607
10164TIP3    H130449   1.243   0.455   0.694
10164TIP3    H230450   1.268   0.394   0.558
10165TIP3   OH230451   2.116   4.149   1.527
10165TIP3    H130452   2.046   4.162   1.591
10165TIP3    H230453   2.174   4.224   1.539
10166TIP3   OH230454   0.186   2.162   1.590
10166TIP3    H130455   0.270   2.164   1.545
10166TIP3    H230456   0.125   2.126   1.525
10167TIP3   OH230457   7.255   4.196   0.958
10167TIP3    H130458   7.220   4.280   0.986
10167TIP3    H230459   7.274   4.148   1.039
10168TIP3   OH230460   5.426   0.693   5.533
10168TIP3    H130461   5.521   0.681   5.537
10168TIP3    H230462   5.403   0.673   5.443
10169TIP3   OH230463   6.690   3.702   2.300
10169TIP3    H130464   6.706   3.768   2.367
10169TIP3    H230465   6.639   3.634   2.345
10170TIP3   OH230466   6.263   1.910   4.806
10170TIP3    H130467   6.196   1.923   4.739
10170TIP3    H230468   6.257   1.817   4.828
10171TIP3   OH230469   1.855   4.237   2.477
10171TIP3    H130470   1.891   4.154   2.446
10171TIP3    H230471   1.800   4.268   2.405
10172TIP3   OH230472   6.210   2.549   1.590
10172TIP3    H130473   6.186   2.496   1.515
10172TIP3    H230474   6.178   2.637   1.569
10173TIP3   OH230475   3.911   6.337   5.457
10173TIP3    H130476   3.832   6.382   5.488
10173TIP3    H230477   3.880   6.251   5.427
10174TIP3   OH230478   5.347   4.065   0.757
10174TIP3    H130479   5.402   4.033   0.828
10174TIP3    H230480   5.300   4.139   0.796
10175TIP3   OH230481   5.400   0.137   0.689
10175TIP3    H130482   5.469   0.141   0.623
10175TIP3    H230483   5.439   0.089   0.763
10176TIP3   OH230484   4.418   5.350   1.447
10176TIP3    H130485   4.356   5.423   1.440
10176TIP3    H230486   4.371   5.276   1.408
10177TIP3   OH230487   5.416   2.237   6.678
10177TIP3    H130488   5.387   2.160   6.629
10177TIP3    H230489   5.397   2.310   6.620
10178TIP3   OH230490   7.336   0.760   3.256
10178TIP3    H130491   7.244   0.781   3.247
10178TIP3    H230492   7.338   0.679   3.307
10179TIP3   OH230493   3.823   1.027   1.005
10179TIP3    H130494   3.841   1.037   1.098
10179TIP3    H230495   3.906   0.996   0.968
10180TIP3   OH230496   5.154   5.124   2.201
10180TIP3    H130497   5.109   5.205   2.179
10180TIP3    H230498   5.122   5.060   2.137
10181TIP3   OH230499   2.054   4.105   4.762
10181TIP3    H130500   2.056   4.200   4.773
10181TIP3    H230501   1.982   4.075   4.818
10182TIP3   OH230502   4.184   6.139   3.934
10182TIP3    H130503   4.104   6.144   3.987
10182TIP3    H230504   4.255   6.156   3.997
10183TIP3   OH230505   3.724   2.950   5.268
10183TIP3    H130506   3.677   2.993   5.339
10183TIP3    H230507   3.703   3.001   5.190
10184TIP3   OH230508   1.112   4.689   0.351
10184TIP3    H130509   1.044   4.757   0.351
10184TIP3    H230510   1.183   4.726   0.403
10185TIP3   OH230511   4.741   2.376   4.235
10185TIP3    H130512   4.795   2.387   4.313
10185TIP3    H230513   4.673   2.313   4.261
10186TIP3   OH230514   1.276   7.220   6.687
10186TIP3    H130515   1.290   7.247   6.596
10186TIP3    H230516   1.200   7.163   6.683
10187TIP3   OH230517   0.296   5.622   0.265
10187TIP3    H130518   0.205   5.625   0.295
10187TIP3    H230519   0.315   5.528   0.255
10188TIP3   OH230520   7.136   1.075   2.239
10188TIP3    H130521   7.110   1.166   2.253
10188TIP3    H230522   7.082   1.045   2.166
10189TIP3   OH230523   0.087   4.170   6.704
10189TIP3    H130524   0.104   4.263   6.693
10189TIP3    H230525   0.160   4.127   6.659
10190TIP3   OH230526   2.036   3.973   3.095
10190TIP3    H130527   2.104   3.986   3.028
10190TIP3    H230528   2.073   3.907   3.153
10191TIP3   OH230529   2.403   0.761   6.436
10191TIP3    H130530   2.317   0.792   6.466
10191TIP3    H230531   2.392   0.750   6.341
10192TIP3   OH230532   0.051   1.622   4.187
10192TIP3    H130533   0.022   1.560   4.254
10192TIP3    H230534  -0.007   1.605   4.113
10193TIP3   OH230535   6.339   6.678   6.691
10193TIP3    H130536   6.366   6.619   6.761
10193TIP3    H230537   6.251   6.646   6.667
10194TIP3   OH230538   0.216   6.342   5.137
10194TIP3    H130539   0.219   6.326   5.043
10194TIP3    H230540   0.302   6.316   5.168
10195TIP3   OH230541   2.397   4.892   6.656
10195TIP3    H130542   2.379   4.983   6.634
10195TIP3    H230543   2.411   4.849   6.571
10196TIP3   OH230544   7.327   3.152   5.214
10196TIP3    H130545   7.410   3.105   5.225
10196TIP3    H230546   7.272   3.093   5.163
10197TIP3   OH230547   1.295   2.763   2.492
10197TIP3    H130548   1.234   2.818   2.444
10197TIP3    H230549   1.240   2.715   2.554
10198TIP3   OH230550   7.948   6.653   0.128
10198TIP3    H130551   7.950   6.711   0.052
10198TIP3    H230552   8.009   6.582   0.106
10199TIP3   OH230553   8.359   4.765   1.652
10199TIP3    H130554   8.288   4.758   1.715
10199TIP3    H230555   8.325   4.825   1.585
10200TIP3   OH230556   3.096   7.507   0.215
10200TIP3    H130557   3.074   7.440   0.149
10200TIP3    H230558   3.153   7.462   0.276
10201TIP3   OH230559   5.131   5.567   2.055
10201TIP3    H130560   5.055   5.596   2.004
10201TIP3    H230561   5.178   5.648   2.075
10202TIP3   OH230562   5.025   5.244   1.273
10202TIP3    H130563   4.941   5.201   1.288
10202TIP3    H230564   5.009   5.337   1.292
10203TIP3   OH230565   2.826   0.242   6.256
10203TIP3    H130566   2.835   0.170   6.318
10203TIP3    H230567   2.803   0.200   6.173
10204TIP3   OH230568   4.753   1.658   2.990
10204TIP3    H130569   4.837   1.616   3.011
10204TIP3    H230570   4.762   1.747   3.023
10205TIP3   OH230571   2.845   2.264   2.994
10205TIP3    H130572   2.858   2.314   2.913
10205TIP3    H230573   2.813   2.179   2.964
10206TIP3   OH230574   6.178   1.012   4.390
10206TIP3    H130575   6.272   1.012   4.372
10206TIP3    H230576   6.137   1.013   4.303
10207TIP3   OH230577   4.647   1.479   4.149
10207TIP3    H130578   4.689   1.410   4.200
10207TIP3    H230579   4.711   1.551   4.149
10208TIP3   OH230580   5.486   1.778   0.684
10208TIP3    H130581   5.450   1.803   0.599
10208TIP3    H230582   5.428   1.819   0.748
10209TIP3   OH230583   1.911   1.297   2.158
10209TIP3    H130584   1.998   1.289   2.196
10209TIP3    H230585   1.905   1.225   2.096
10210TIP3   OH230586   0.171   2.790   3.804
10210TIP3    H130587   0.245   2.796   3.864
10210TIP3    H230588   0.208   2.801   3.717
10211TIP3   OH230589   5.852   4.457   0.588
10211TIP3    H130590   5.793   4.381   0.587
10211TIP3    H230591   5.921   4.434   0.526
10212TIP3   OH230592   1.535   2.945   5.298
10212TIP3    H130593   1.468   2.901   5.351
10212TIP3    H230594   1.596   2.875   5.274
10213TIP3   OH230595   0.364   5.801   6.072
10213TIP3    H130596   0.289   5.743   6.057
10213TIP3    H230597   0.335   5.860   6.141
10214TIP3   OH230598   4.770   6.913   0.228
10214TIP3    H130599   4.834   6.961   0.174
10214TIP3    H230600   4.814   6.831   0.249
10215TIP3   OH230601   5.969   6.299   2.774
10215TIP3    H130602   6.025   6.233   2.732
10215TIP3    H230603   6.007   6.383   2.750
10216TIP3   OH230604   2.685   6.721   2.002
10216TIP3    H130605   2.636   6.800   2.027
10216TIP3    H230606   2.768   6.754   1.969
10217TIP3   OH230607   1.674   6.896   1.469
10217TIP3    H130608   1.658   6.960   1.539
10217TIP3    H230609   1.686   6.813   1.515
10218TIP3   OH230610   7.743   3.630   6.403
10218TIP3    H130611   7.758   3.583   6.485
10218TIP3    H230612   7.830   3.642   6.365
10219TIP3   OH230613   0.391   3.549   4.946
10219TIP3    H130614   0.303   3.576   4.973
10219TIP3    H230615   0.377   3.471   4.893
10220TIP3   OH230616   7.304   3.726   1.591
10220TIP3    H130617   7.282   3.750   1.681
10220TIP3    H230618   7.289   3.806   1.541
10221TIP3   OH230619   6.171   5.540   2.983
10221TIP3    H130620   6.079   5.568   2.981
10221TIP3    H230621   6.221   5.622   2.984
10222TIP3   OH230622   2.091   1.246   3.681
10222TIP3    H130623   2.085   1.151   3.671
10222TIP3    H230624   2.041   1.265   3.760
10223TIP3   OH230625   1.288   0.622   1.574
10223TIP3    H130626   1.320   0.595   1.488
10223TIP3    H230627   1.270   0.715   1.565
10224TIP3   OH230628   1.995   1.801   6.604
10224TIP3    H130629   2.013   1.712   6.635
10224TIP3    H230630   1.926   1.791   6.538
10225TIP3   OH230631   1.569   6.250   6.722
10225TIP3    H130632   1.654   6.267   6.680
10225TIP3    H230633   1.591   6.239   6.814
10226TIP3   OH230634   3.563   1.286   5.202
10226TIP3    H130635   3.486   1.286   5.146
10226TIP3    H230636   3.530   1.309   5.289
10227TIP3   OH230637   5.331   0.332   2.991
10227TIP3    H130638   5.425   0.336   3.008
10227TIP3    H230639   5.321   0.371   2.904
10228TIP3   OH230640   3.961   2.145   6.110
10228TIP3    H130641   3.904   2.221   6.119
10228TIP3    H230642   4.022   2.168   6.040
10229TIP3   OH230643   7.081   1.121   5.579
10229TIP3    H130644   7.056   1.198   5.629
10229TIP3    H230645   7.046   1.137   5.491
10230TIP3   OH230646   1.507   3.317   4.984
10230TIP3    H130647   1.528   3.310   5.077
10230TIP3    H230648   1.555   3.395   4.955
10231TIP3   OH230649   0.106   6.686   0.505
10231TIP3    H130650   0.047   6.632   0.453
10231TIP3    H230651   0.054   6.761   0.532
10232TIP3   OH230652   5.904   7.163   5.369
10232TIP3    H130653   5.881   7.096   5.434
10232TIP3    H230654   5.997   7.180   5.385
10233TIP3   OH230655   1.578   5.934   2.182
10233TIP3    H130656   1.513   5.980   2.129
10233TIP3    H230657   1.605   5.860   2.127
10234TIP3   OH230658   1.208   5.403   2.468
10234TIP3    H130659   1.127   5.352   2.464
10234TIP3    H230660   1.274   5.340   2.498
10235TIP3   OH230661   5.434   1.732   6.440
10235TIP3    H130662   5.362   1.796   6.445
10235TIP3    H230663   5.472   1.732   6.528
10236TIP3   OH230664   0.127   7.239   1.201
10236TIP3    H130665   0.110   7.303   1.132
10236TIP3    H230666   0.149   7.159   1.153
10237TIP3   OH230667   7.327   4.386   6.224
10237TIP3    H130668   7.293   4.307   6.182
10237TIP3    H230669   7.422   4.378   6.219
10238TIP3   OH230670   1.770   2.305   3.920
10238TIP3    H130671   1.757   2.218   3.957
10238TIP3    H230672   1.740   2.365   3.988
10239TIP3   OH230673   2.280   3.979   5.650
10239TIP3    H130674   2.318   4.017   5.571
10239TIP3    H230675   2.207   4.037   5.672
10240TIP3   OH230676   2.950   2.345   0.796
10240TIP3    H130677   2.939   2.319   0.705
10240TIP3    H230678   3.001   2.274   0.835
10241TIP3   OH230679   3.737   7.076   1.031
10241TIP3    H130680   3.683   7.154   1.016
10241TIP3    H230681   3.682   7.019   1.085
10242TIP3   OH230682   5.736   5.245   1.314
10242TIP3    H130683   5.696   5.324   1.279
10242TIP3    H230684   5.765   5.196   1.236
10243TIP3   OH230685   2.325   0.297   0.514
10243TIP3    H130686   2.360   0.379   0.478
10243TIP3    H230687   2.251   0.324   0.568
10244TIP3   OH230688   5.745   6.670   0.320
10244TIP3    H130689   5.701   6.617   0.253
10244TIP3    H230690   5.675   6.700   0.377
10245TIP3   OH230691   7.890   2.617   6.487
10245TIP3    H130692   7.970   2.617   6.435
10245TIP3    H230693   7.826   2.663   6.432
10246TIP3   OH230694   2.327   4.675   2.783
10246TIP3    H130695   2.289   4.752   2.742
10246TIP3    H230696   2.293   4.675   2.872
10247TIP3   OH230697   8.063   0.843   0.688
10247TIP3    H130698   7.993   0.849   0.622
10247TIP3    H230699   8.102   0.930   0.689
10248TIP3   OH230700   5.762   6.992   2.847
10248TIP3    H130701   5.697   6.999   2.776
10248TIP3    H230702   5.825   7.061   2.828
10249TIP3   OH230703   5.700   2.669   1.794
10249TIP3    H130704   5.754   2.717   1.731
10249TIP3    H230705   5.623   2.641   1.745
10250TIP3   OH230706   1.734   7.687   1.972
10250TIP3    H130707   1.699   7.642   2.049
10250TIP3    H230708   1.794   7.753   2.008
10251TIP3   OH230709   7.012   5.034   1.674
10251TIP3    H130710   7.059   5.072   1.600
10251TIP3    H230711   7.043   4.943   1.679
10252TIP3   OH230712   6.830   1.704   0.582
10252TIP3    H130713   6.886   1.781   0.590
10252TIP3    H230714   6.753   1.725   0.636
10253TIP3   OH230715   7.476   3.675   0.083
10253TIP3    H130716   7.478   3.626   0.165
10253TIP3    H230717   7.453   3.609   0.017
10254TIP3   OH230718   1.791   5.227   4.759
10254TIP3    H130719   1.751   5.233   4.846
10254TIP3    H230720   1.837   5.310   4.749
10255TIP3   OH230721   3.080   6.957   3.754
10255TIP3    H130722   3.007   6.987   3.700
10255TIP3    H230723   3.046   6.959   3.844
10256TIP3   OH230724   2.671   2.820   0.111
10256TIP3    H130725   2.706   2.844   0.025
10256TIP3    H230726   2.743   2.835   0.172
10257TIP3   OH230727   6.675   3.769   5.951
10257TIP3    H130728   6.701   3.678   5.966
10257TIP3    H230729   6.580   3.765   5.937
10258TIP3   OH230730   7.437   5.320   4.396
10258TIP3    H130731   7.395   5.284   4.318
10258TIP3    H230732   7.371   5.314   4.464
10259TIP3   OH230733   6.722   7.748   3.066
10259TIP3    H130734   6.627   7.743   3.058
10259TIP3    H230735   6.743   7.691   3.140
10260TIP3   OH230736   5.779   2.648   1.279
10260TIP3    H130737   5.758   2.650   1.186
10260TIP3    H230738   5.711   2.701   1.321
10261TIP3   OH230739   3.473   6.951   4.852
10261TIP3    H130740   3.562   6.925   4.831
10261TIP3    H230741   3.459   6.921   4.942
10262TIP3   OH230742   1.601   6.957   0.940
10262TIP3    H130743   1.638   6.945   1.028
10262TIP3    H230744   1.646   7.034   0.905
10263TIP3   OH230745   1.064   5.059   4.131
10263TIP3    H130746   1.120   5.017   4.196
10263TIP3    H230747   1.122   5.077   4.057
10264TIP3   OH230748   0.403   3.006   3.063
10264TIP3    H130749   0.481   3.008   3.118
10264TIP3    H230750   0.383   3.099   3.047
10265TIP3   OH230751   6.049   0.739   3.589
10265TIP3    H130752   6.105   0.813   3.566
10265TIP3    H230753   6.095   0.694   3.660
10266TIP3   OH230754   5.601   6.428   3.376
10266TIP3    H130755   5.508   6.405   3.372
10266TIP3    H230756   5.637   6.397   3.293
10267TIP3   OH230757   1.453   1.038   2.972
10267TIP3    H130758   1.542   1.026   3.005
10267TIP3    H230759   1.404   0.964   3.007
10268TIP3   OH230760   4.422   0.756   1.303
10268TIP3    H130761   4.510   0.777   1.334
10268TIP3    H230762   4.401   0.674   1.347
10269TIP3   OH230763   6.573   4.379   2.305
10269TIP3    H130764   6.607   4.299   2.346
10269TIP3    H230765   6.627   4.391   2.227
10270TIP3   OH230766   5.988   7.355   2.033
10270TIP3    H130767   6.045   7.288   2.071
10270TIP3    H230768   6.019   7.437   2.072
10271TIP3   OH230769   6.055   4.935   4.818
10271TIP3    H130770   5.994   4.877   4.863
10271TIP3    H230771   6.037   5.022   4.853
10272TIP3   OH230772   6.052   4.376   0.154
10272TIP3    H130773   6.141   4.341   0.153
10272TIP3    H230774   6.062   4.464   0.191
10273TIP3   OH230775   1.993   7.329   2.543
10273TIP3    H130776   1.926   7.397   2.540
10273TIP3    H230777   2.022   7.328   2.634
10274TIP3   OH230778   6.368   3.549   5.415
10274TIP3    H130779   6.274   3.550   5.432
10274TIP3    H230780   6.397   3.637   5.437
10275TIP3   OH230781   4.105   0.442   4.110
10275TIP3    H130782   4.176   0.470   4.167
10275TIP3    H230783   4.146   0.382   4.048
10276TIP3   OH230784   7.451   2.128   5.464
10276TIP3    H130785   7.396   2.079   5.403
10276TIP3    H230786   7.392   2.150   5.536
10277TIP3   OH230787   1.212   2.228   0.338
10277TIP3    H130788   1.207   2.264   0.426
10277TIP3    H230789   1.127   2.249   0.298
10278TIP3   OH230790   3.994   2.455   1.772
10278TIP3    H130791   3.911   2.422   1.738
10278TIP3    H230792   4.059   2.389   1.744
10279TIP3   OH230793   4.655   7.216   6.197
10279TIP3    H130794   4.613   7.280   6.140
10279TIP3    H230795   4.646   7.252   6.285
10280TIP3   OH230796   0.612   5.867   4.414
10280TIP3    H130797   0.549   5.892   4.346
10280TIP3    H230798   0.684   5.825   4.366
10281TIP3   OH230799   4.825   3.534   2.183
10281TIP3    H130800   4.833   3.628   2.199
10281TIP3    H230801   4.906   3.511   2.138
10282TIP3   OH230802   1.177   2.173   3.518
10282TIP3    H130803   1.141   2.159   3.606
10282TIP3    H230804   1.115   2.129   3.460
10283TIP3   OH230805   6.348   6.118   1.296
10283TIP3    H130806   6.417   6.184   1.298
10283TIP3    H230807   6.267   6.165   1.315
10284TIP3   OH230808   1.104   1.782   6.473
10284TIP3    H130809   1.036   1.836   6.433
10284TIP3    H230810   1.095   1.798   6.567
10285TIP3   OH230811   0.794   4.416   0.915
10285TIP3    H130812   0.699   4.429   0.915
10285TIP3    H230813   0.820   4.430   0.825
10286TIP3   OH230814   5.756   3.784   4.657
10286TIP3    H130815   5.847   3.811   4.642
10286TIP3    H230816   5.755   3.690   4.640
10287TIP3   OH230817   4.813   6.781   3.430
10287TIP3    H130818   4.835   6.821   3.346
10287TIP3    H230819   4.813   6.853   3.492
10288TIP3   OH230820   5.441   5.232   5.507
10288TIP3    H130821   5.385   5.297   5.550
10288TIP3    H230822   5.528   5.247   5.543
10289TIP3   OH230823   7.607   4.727   6.329
10289TIP3    H130824   7.542   4.760   6.266
10289TIP3    H230825   7.635   4.643   6.293
10290TIP3   OH230826   3.430   5.422   1.994
10290TIP3    H130827   3.415   5.382   2.080
10290TIP3    H230828   3.523   5.410   1.978
10291TIP3   OH230829   5.200   3.710   3.488
10291TIP3    H130830   5.216   3.628   3.535
10291TIP3    H230831   5.150   3.684   3.411
10292TIP3   OH230832   2.641   4.052   4.727
10292TIP3    H130833   2.734   4.033   4.716
10292TIP3    H230834   2.614   4.000   4.803
10293TIP3   OH230835   7.675   4.876   2.657
10293TIP3    H130836   7.630   4.840   2.733
10293TIP3    H230837   7.605   4.898   2.595
10294TIP3   OH230838   0.084   6.518   6.457
10294TIP3    H130839   0.011   6.458   6.475
10294TIP3    H230840   0.050   6.604   6.479
10295TIP3   OH230841   0.710   2.185   5.003
10295TIP3    H130842   0.640   2.203   5.066
10295TIP3    H230843   0.779   2.247   5.026
10296TIP3   OH230844   8.010   5.094   0.446
10296TIP3    H130845   8.074   5.024   0.435
10296TIP3    H230846   8.017   5.119   0.538
10297TIP3   OH230847   5.446   0.281   1.754
10297TIP3    H130848   5.485   0.208   1.705
10297TIP3    H230849   5.466   0.358   1.701
10298TIP3   OH230850   0.261   3.793   3.918
10298TIP3    H130851   0.260   3.744   3.836
10298TIP3    H230852   0.306   3.736   3.980
10299TIP3   OH230853   3.383   4.889   2.918
10299TIP3    H130854   3.346   4.928   2.997
10299TIP3    H230855   3.470   4.860   2.945
10300TIP3   OH230856   5.946   7.503   5.306
10300TIP3    H130857   5.876   7.528   5.367
10300TIP3    H230858   5.976   7.418   5.337
10301TIP3   OH230859   0.796   3.033   3.406
10301TIP3    H130860   0.871   2.997   3.359
10301TIP3    H230861   0.819   3.023   3.499
10302TIP3   OH230862   2.534   5.261   2.964
10302TIP3    H130863   2.527   5.169   2.937
10302TIP3    H230864   2.561   5.257   3.056
10303TIP3   OH230865   4.943   2.238   1.070
10303TIP3    H130866   4.996   2.318   1.072
10303TIP3    H230867   4.855   2.268   1.049
10304TIP3   OH230868   2.774   7.524   3.442
10304TIP3    H130869   2.800   7.590   3.507
10304TIP3    H230870   2.704   7.475   3.484
10305TIP3   OH230871   2.537   1.357   3.367
10305TIP3    H130872   2.570   1.279   3.322
10305TIP3    H230873   2.497   1.410   3.297
10306TIP3   OH230874   1.404   6.707   3.551
10306TIP3    H130875   1.327   6.720   3.496
10306TIP3    H230876   1.435   6.618   3.529
10307TIP3   OH230877   1.132   0.728   3.439
10307TIP3    H130878   1.153   0.819   3.418
10307TIP3    H230879   1.078   0.733   3.517
10308TIP3   OH230880   5.656   4.104   4.129
10308TIP3    H130881   5.601   4.137   4.200
10308TIP3    H230882   5.713   4.178   4.107
10309TIP3   OH230883   3.810   7.105   6.138
10309TIP3    H130884   3.762   7.124   6.057
10309TIP3    H230885   3.870   7.034   6.114
10310TIP3   OH230886   2.458   3.140   6.735
10310TIP3    H130887   2.379   3.119   6.784
10310TIP3    H230888   2.434   3.127   6.643
10311TIP3   OH230889   2.657   7.224   5.353
10311TIP3    H130890   2.609   7.235   5.270
10311TIP3    H230891   2.746   7.252   5.333
10312TIP3   OH230892   8.070   1.778   2.207
10312TIP3    H130893   8.165   1.789   2.195
10312TIP3    H230894   8.063   1.705   2.268
10313TIP3   OH230895   0.060   5.986   5.856
10313TIP3    H130896   0.092   5.901   5.827
10313TIP3    H230897   0.119   6.049   5.815
10314TIP3   OH230898   0.187   5.616   5.972
10314TIP3    H130899   0.215   5.684   5.910
10314TIP3    H230900   0.121   5.566   5.924
10315TIP3   OH230901   4.650   2.446   4.844
10315TIP3    H130902   4.592   2.382   4.886
10315TIP3    H230903   4.709   2.475   4.914
10316TIP3   OH230904   2.967   4.925   5.347
10316TIP3    H130905   2.957   4.926   5.252
10316TIP3    H230906   3.055   4.959   5.362
10317TIP3   OH230907   7.428   6.246   0.962
10317TIP3    H130908   7.514   6.204   0.959
10317TIP3    H230909   7.435   6.309   1.033
10318TIP3   OH230910   1.352   1.108   4.822
10318TIP3    H130911   1.382   1.025   4.785
10318TIP3    H230912   1.391   1.175   4.766
10319TIP3   OH230913   4.291   6.529   5.168
10319TIP3    H130914   4.216   6.520   5.110
10319TIP3    H230915   4.308   6.440   5.199
10320TIP3   OH230916   3.857   4.162   2.929
10320TIP3    H130917   3.941   4.166   2.884
10320TIP3    H230918   3.792   4.169   2.859
10321TIP3   OH230919   7.406   5.472   2.210
10321TIP3    H130920   7.432   5.482   2.118
10321TIP3    H230921   7.488   5.476   2.258
10322TIP3   OH230922   8.091   1.922   4.180
10322TIP3    H130923   8.003   1.896   4.154
10322TIP3    H230924   8.096   2.015   4.158
10323TIP3   OH230925   4.356   6.591   3.346
10323TIP3    H130926   4.342   6.660   3.282
10323TIP3    H230927   4.451   6.591   3.361
10324TIP3   OH230928   6.148   1.925   2.501
10324TIP3    H130929   6.132   1.996   2.563
10324TIP3    H230930   6.224   1.953   2.450
10325TIP3   OH230931   2.590   7.205   4.749
10325TIP3    H130932   2.640   7.129   4.777
10325TIP3    H230933   2.506   7.197   4.794
10326TIP3   OH230934   4.009   5.777   6.641
10326TIP3    H130935   4.096   5.804   6.671
10326TIP3    H230936   4.008   5.682   6.655
10327TIP3   OH230937   7.061   0.068   2.942
10327TIP3    H130938   7.104  -0.018   2.937
10327TIP3    H230939   7.115   0.125   2.888
10328TIP3   OH230940   3.337   7.329   5.485
10328TIP3    H130941   3.433   7.335   5.486
10328TIP3    H230942   3.307   7.417   5.506
10329TIP3   OH230943   0.184   6.784   6.320
10329TIP3    H130944   0.134   6.800   6.400
10329TIP3    H230945   0.178   6.690   6.306
10330TIP3   OH230946   7.510   6.755   3.957
10330TIP3    H130947   7.518   6.713   4.043
10330TIP3    H230948   7.440   6.707   3.913
10331TIP3   OH230949   5.101   1.749   0.148
10331TIP3    H130950   5.086   1.772   0.239
10331TIP3    H230951   5.131   1.830   0.108
10332TIP3   OH230952   4.782   2.109   4.598
10332TIP3    H130953   4.746   2.168   4.664
10332TIP3    H230954   4.713   2.045   4.581
10333TIP3   OH230955   1.891   6.524   2.423
10333TIP3    H130956   1.839   6.444   2.437
10333TIP3    H230957   1.830   6.586   2.384
10334TIP3   OH230958   4.176   5.965   2.795
10334TIP3    H130959   4.204   6.055   2.811
10334TIP3    H230960   4.221   5.913   2.862
10335TIP3   OH230961   0.735   3.637   3.867
10335TIP3    H130962   0.682   3.717   3.870
10335TIP3    H230963   0.777   3.640   3.781
10336TIP3   OH230964   7.694   7.067   3.661
10336TIP3    H130965   7.744   7.148   3.667
10336TIP3    H230966   7.688   7.036   3.752
10337TIP3   OH230967   1.213   6.576   6.066
10337TIP3    H130968   1.161   6.569   6.146
10337TIP3    H230969   1.293   6.526   6.084
10338TIP3   OH230970   1.760   1.582   6.212
10338TIP3    H130971   1.834   1.527   6.186
10338TIP3    H230972   1.683   1.527   6.195
10339TIP3   OH230973   8.076   1.729   1.560
10339TIP3    H130974   8.060   1.636   1.543
10339TIP3    H230975   8.050   1.743   1.651
10340TIP3   OH230976   5.012   7.340   2.867
10340TIP3    H130977   4.996   7.299   2.952
10340TIP3    H230978   4.937   7.314   2.814
10341TIP3   OH230979   1.730   2.524   2.569
10341TIP3    H130980   1.667   2.560   2.506
10341TIP3    H230981   1.814   2.530   2.526
10342TIP3   OH230982   4.496   4.850   4.948
10342TIP3    H130983   4.424   4.787   4.957
10342TIP3    H230984   4.499   4.895   5.032
10343TIP3   OH230985   2.567   5.671   2.339
10343TIP3    H130986   2.608   5.595   2.298
10343TIP3    H230987   2.636   5.738   2.339
10344TIP3   OH230988   3.879   3.594   5.367
10344TIP3    H130989   3.792   3.625   5.342
10344TIP3    H230990   3.893   3.515   5.315
10345TIP3   OH230991   5.887   4.186   5.242
10345TIP3    H130992   5.822   4.170   5.311
10345TIP3    H230993   5.922   4.099   5.222
10346TIP3   OH230994   7.475   1.713   6.271
10346TIP3    H130995   7.439   1.785   6.220
10346TIP3    H230996   7.553   1.749   6.313
10347TIP3   OH230997   6.742   5.058   3.915
10347TIP3    H130998   6.722   4.965   3.925
10347TIP3    H230999   6.715   5.098   3.998
10348TIP3   OH231000   3.712   5.844   6.010
10348TIP3    H131001   3.755   5.761   6.029
10348TIP3    H231002   3.776   5.893   5.958
10349TIP3   OH231003   5.005   7.646   0.009
10349TIP3    H131004   4.980   7.556   0.030
10349TIP3    H231005   5.080   7.665   0.066
10350TIP3   OH231006   5.059   4.890   0.986
10350TIP3    H131007   5.080   4.912   1.077
10350TIP3    H231008   5.001   4.815   0.992
10351TIP3   OH231009   7.754   6.148   6.670
10351TIP3    H131010   7.786   6.232   6.703
10351TIP3    H231011   7.824   6.117   6.612
10352TIP3   OH231012   5.177   7.637   1.776
10352TIP3    H131013   5.106   7.655   1.837
10352TIP3    H231014   5.191   7.720   1.730
10353TIP3   OH231015   7.056   3.032   5.316
10353TIP3    H131016   6.968   2.995   5.321
10353TIP3    H231017   7.045   3.125   5.337
10354TIP3   OH231018   2.392   0.732   1.696
10354TIP3    H131019   2.392   0.639   1.720
10354TIP3    H231020   2.481   0.762   1.715
10355TIP3   OH231021   7.362   0.742   3.715
10355TIP3    H131022   7.435   0.743   3.777
10355TIP3    H231023   7.336   0.651   3.709
10356TIP3   OH231024   6.717   7.839   2.352
10356TIP3    H131025   6.756   7.900   2.290
10356TIP3    H231026   6.791   7.793   2.391
10357TIP3   OH231027   7.658   2.095   5.208
10357TIP3    H131028   7.695   2.174   5.168
10357TIP3    H231029   7.567   2.118   5.227
10358TIP3   OH231030   2.770   2.491   3.607
10358TIP3    H131031   2.773   2.570   3.659
10358TIP3    H231032   2.748   2.421   3.669
10359TIP3   OH231033   6.358   4.613   5.928
10359TIP3    H131034   6.433   4.601   5.986
10359TIP3    H231035   6.359   4.537   5.871
10360TIP3   OH231036   7.889   7.349   0.826
10360TIP3    H131037   7.950   7.375   0.756
10360TIP3    H231038   7.866   7.259   0.805
10361TIP3   OH231039   6.348   5.878   0.266
10361TIP3    H131040   6.353   5.812   0.335
10361TIP3    H231041   6.292   5.838   0.199
10362TIP3   OH231042   0.509   7.627   1.966
10362TIP3    H131043   0.580   7.642   1.904
10362TIP3    H231044   0.455   7.560   1.924
10363TIP3   OH231045   2.083   4.887   1.332
10363TIP3    H131046   2.068   4.910   1.240
10363TIP3    H231047   2.013   4.932   1.380
10364TIP3   OH231048   6.048   1.478   1.094
10364TIP3    H131049   6.113   1.543   1.065
10364TIP3    H231050   6.063   1.402   1.038
10365TIP3   OH231051   3.133   6.597   5.009
10365TIP3    H131052   3.128   6.692   5.019
10365TIP3    H231053   3.075   6.563   5.077
10366TIP3   OH231054   2.245   6.895   4.378
10366TIP3    H131055   2.202   6.957   4.437
10366TIP3    H231056   2.322   6.941   4.346
10367TIP3   OH231057   3.390   4.351   5.849
10367TIP3    H131058   3.344   4.275   5.886
10367TIP3    H231059   3.441   4.316   5.777
10368TIP3   OH231060   3.378   3.549   3.118
10368TIP3    H131061   3.415   3.534   3.031
10368TIP3    H231062   3.427   3.624   3.152
10369TIP3   OH231063   3.401   3.144   4.113
10369TIP3    H131064   3.484   3.171   4.072
10369TIP3    H231065   3.383   3.213   4.176
10370TIP3   OH231066   3.723   7.002   2.777
10370TIP3    H131067   3.791   7.000   2.844
10370TIP3    H231068   3.681   6.917   2.783
10371TIP3   OH231069   2.952   2.244   1.274
10371TIP3    H131070   2.910   2.181   1.216
10371TIP3    H231071   2.999   2.303   1.215
10372TIP3   OH231072   7.682   7.541   6.262
10372TIP3    H131073   7.598   7.538   6.308
10372TIP3    H231074   7.687   7.630   6.227
10373TIP3   OH231075   1.473   1.959   5.179
10373TIP3    H131076   1.437   1.941   5.093
10373TIP3    H231077   1.559   1.998   5.162
10374TIP3   OH231078   2.840   0.835   2.138
10374TIP3    H131079   2.777   0.776   2.180
10374TIP3    H231080   2.876   0.785   2.065
10375TIP3   OH231081   5.713   1.942   6.376
10375TIP3    H131082   5.800   1.966   6.345
10375TIP3    H231083   5.676   1.888   6.307
10376TIP3   OH231084   5.504   2.930   6.051
10376TIP3    H131085   5.497   2.886   5.966
10376TIP3    H231086   5.443   2.882   6.107
10377TIP3   OH231087   4.497   2.672   4.891
10377TIP3    H131088   4.512   2.590   4.844
10377TIP3    H231089   4.512   2.650   4.983
10378TIP3   OH231090   1.526   1.980   4.408
10378TIP3    H131091   1.493   2.001   4.496
10378TIP3    H231092   1.459   1.921   4.372
10379TIP3   OH231093   6.442   1.742   1.606
10379TIP3    H131094   6.500   1.770   1.677
10379TIP3    H231095   6.477   1.657   1.580
10380TIP3   OH231096   8.005   2.112   4.570
10380TIP3    H131097   7.936   2.108   4.504
10380TIP3    H231098   7.963   2.080   4.650
10381TIP3   OH231099   2.162   1.708   4.160
10381TIP3    H131100   2.082   1.759   4.151
10381TIP3    H231101   2.140   1.621   4.127
10382TIP3   OH231102   0.625   5.682   4.692
10382TIP3    H131103   0.538   5.646   4.711
10382TIP3    H231104   0.685   5.627   4.742
10383TIP3   OH231105   8.110   7.493   2.886
10383TIP3    H131106   8.143   7.425   2.827
10383TIP3    H231107   8.131   7.575   2.842
10384TIP3   OH231108   7.269   0.803   0.938
10384TIP3    H131109   7.245   0.814   0.846
10384TIP3    H231110   7.197   0.843   0.987
10385TIP3   OH231111   7.947   6.480   0.623
10385TIP3    H131112   7.986   6.519   0.701
10385TIP3    H231113   7.893   6.549   0.585
10386TIP3   OH231114   6.545   3.615   6.244
10386TIP3    H131115   6.502   3.645   6.165
10386TIP3    H231116   6.585   3.531   6.219
10387TIP3   OH231117   3.950   6.880   0.966
10387TIP3    H131118   4.044   6.863   0.960
10387TIP3    H231119   3.910   6.809   0.915
10388TIP3   OH231120   4.034   4.832   6.221
10388TIP3    H131121   4.047   4.910   6.167
10388TIP3    H231122   4.054   4.759   6.162
10389TIP3   OH231123   0.689   1.664   3.632
10389TIP3    H131124   0.645   1.599   3.686
10389TIP3    H231125   0.626   1.686   3.564
10390TIP3   OH231126   4.482   2.110   0.177
10390TIP3    H131127   4.553   2.062   0.135
10390TIP3    H231128   4.432   2.043   0.224
10391TIP3   OH231129   4.336   1.512   4.767
10391TIP3    H131130   4.353   1.558   4.684
10391TIP3    H231131   4.263   1.453   4.746
10392TIP3   OH231132   0.926   7.374   2.951
10392TIP3    H131133   0.866   7.440   2.985
10392TIP3    H231134   0.872   7.295   2.942
10393TIP3   OH231135   0.144   2.460   0.012
10393TIP3    H131136   0.092   2.538   0.033
10393TIP3    H231137   0.229   2.495  -0.017
10394TIP3   OH231138   8.206   1.842   2.542
10394TIP3    H131139   8.298   1.816   2.552
10394TIP3    H231140   8.203   1.888   2.459
10395TIP3   OH231141   7.796   6.703   2.980
10395TIP3    H131142   7.861   6.749   3.033
10395TIP3    H231143   7.839   6.693   2.895
10396TIP3   OH231144   6.211   7.398   5.621
10396TIP3    H131145   6.255   7.376   5.704
10396TIP3    H231146   6.197   7.492   5.626
10397TIP3   OH231147   7.813   0.786   0.033
10397TIP3    H131148   7.851   0.803   0.119
10397TIP3    H231149   7.851   0.852  -0.024
10398TIP3   OH231150   3.676   4.125   1.596
10398TIP3    H131151   3.735   4.108   1.670
10398TIP3    H231152   3.683   4.047   1.542
10399TIP3   OH231153   8.257   4.071   6.058
10399TIP3    H131154   8.335   4.059   6.004
10399TIP3    H231155   8.290   4.083   6.146
10400TIP3   OH231156   6.293   7.145   0.700
10400TIP3    H131157   6.229   7.142   0.629
10400TIP3    H231158   6.375   7.169   0.656
10401TIP3   OH231159   3.380   2.417   1.328
10401TIP3    H131160   3.339   2.331   1.334
10401TIP3    H231161   3.427   2.417   1.245
10402TIP3   OH231162   6.858   1.450   0.961
10402TIP3    H131163   6.928   1.412   1.014
10402TIP3    H231164   6.841   1.536   0.999
10403TIP3   OH231165   6.660   6.227   3.580
10403TIP3    H131166   6.614   6.311   3.577
10403TIP3    H231167   6.638   6.190   3.665
10404TIP3   OH231168   4.888   2.796   4.999
10404TIP3    H131169   4.840   2.785   4.917
10404TIP3    H231170   4.975   2.826   4.972
10405TIP3   OH231171   5.728   6.017   1.947
10405TIP3    H131172   5.758   6.072   2.019
10405TIP3    H231173   5.765   5.931   1.965
10406TIP3   OH231174   8.214   6.807   0.681
10406TIP3    H131175   8.154   6.739   0.713
10406TIP3    H231176   8.161   6.859   0.621
10407TIP3   OH231177   5.706   6.731   5.889
10407TIP3    H131178   5.789   6.764   5.921
10407TIP3    H231179   5.727   6.691   5.804
10408TIP3   OH231180   7.419   2.692   5.268
10408TIP3    H131181   7.511   2.703   5.293
10408TIP3    H231182   7.421   2.628   5.197
10409TIP3   OH231183   7.818   2.179   4.311
10409TIP3    H131184   7.801   2.212   4.223
10409TIP3    H231185   7.848   2.255   4.360
10410TIP3   OH231186   7.331   7.210   1.436
10410TIP3    H131187   7.293   7.241   1.354
10410TIP3    H231188   7.263   7.226   1.501
10411TIP3   OH231189   3.153   3.933   4.881
10411TIP3    H131190   3.239   3.936   4.922
10411TIP3    H231191   3.107   3.864   4.929
10412TIP3   OH231192   7.039   1.295   4.672
10412TIP3    H131193   7.083   1.375   4.703
10412TIP3    H231194   6.983   1.269   4.745
10413TIP3   OH231195   4.068   0.019   3.309
10413TIP3    H131196   3.992   0.073   3.285
10413TIP3    H231197   4.123   0.020   3.231
10414TIP3   OH231198   2.977   3.157   4.319
10414TIP3    H131199   2.903   3.207   4.284
10414TIP3    H231200   3.043   3.224   4.337
10415TIP3   OH231201   1.022   2.822   2.417
10415TIP3    H131202   1.015   2.845   2.324
10415TIP3    H231203   0.944   2.770   2.435
10416TIP3   OH231204   5.847   5.302   4.562
10416TIP3    H131205   5.764   5.272   4.523
10416TIP3    H231206   5.877   5.371   4.503
10417TIP3   OH231207   1.694   6.945   0.342
10417TIP3    H131208   1.600   6.945   0.357
10417TIP3    H231209   1.711   6.865   0.293
10418TIP3   OH231210   2.026   4.531   4.723
10418TIP3    H131211   2.111   4.532   4.767
10418TIP3    H231212   1.984   4.613   4.750
10419TIP3   OH231213   2.867   4.789   0.808
10419TIP3    H131214   2.886   4.701   0.778
10419TIP3    H231215   2.849   4.839   0.728
10420TIP3   OH231216   0.497   3.524   6.781
10420TIP3    H131217   0.479   3.610   6.817
10420TIP3    H231218   0.469   3.530   6.689
10421TIP3   OH231219   4.516   4.089   2.655
10421TIP3    H131220   4.539   4.036   2.578
10421TIP3    H231221   4.429   4.125   2.634
10422TIP3   OH231222   6.267   6.731   4.572
10422TIP3    H131223   6.262   6.649   4.622
10422TIP3    H231224   6.353   6.728   4.531
10423TIP3   OH231225   6.865   4.897   0.866
10423TIP3    H131226   6.892   4.867   0.779
10423TIP3    H231227   6.770   4.908   0.859
10424TIP3   OH231228   5.242   5.837   4.559
10424TIP3    H131229   5.254   5.929   4.536
10424TIP3    H231230   5.150   5.819   4.539
10425TIP3   OH231231   0.706   4.500   2.067
10425TIP3    H131232   0.759   4.520   1.990
10425TIP3    H231233   0.618   4.482   2.032
10426TIP3   OH231234   7.304   7.609   1.533
10426TIP3    H131235   7.239   7.679   1.528
10426TIP3    H231236   7.385   7.653   1.560
10427TIP3   OH231237   2.202   6.581   0.995
10427TIP3    H131238   2.134   6.514   0.991
10427TIP3    H231239   2.186   6.635   0.918
10428TIP3   OH231240   5.397   2.498   6.561
10428TIP3    H131241   5.302   2.504   6.554
10428TIP3    H231242   5.429   2.575   6.515
10429TIP3   OH231243   2.357   5.384   3.588
10429TIP3    H131244   2.362   5.289   3.582
10429TIP3    H231245   2.446   5.412   3.609
10430TIP3   OH231246   0.411   0.613   2.525
10430TIP3    H131247   0.460   0.538   2.560
10430TIP3    H231248   0.421   0.605   2.430
10431TIP3   OH231249   1.465   2.551   0.089
10431TIP3    H131250   1.393   2.614   0.092
10431TIP3    H231251   1.540   2.599   0.126
10432TIP3   OH231252   3.746   4.340   2.039
10432TIP3    H131253   3.674   4.387   2.081
10432TIP3    H231254   3.727   4.346   1.946
10433TIP3   OH231255   5.703   0.270   4.377
10433TIP3    H131256   5.614   0.259   4.343
10433TIP3    H231257   5.691   0.316   4.460
10434TIP3   OH231258   0.668   3.357   5.256
10434TIP3    H131259   0.650   3.281   5.312
10434TIP3    H231260   0.675   3.321   5.168
10435TIP3   OH231261   6.441   3.675   3.527
10435TIP3    H131262   6.524   3.655   3.484
10435TIP3    H231263   6.439   3.771   3.533
10436TIP3   OH231264   2.741   1.918   6.723
10436TIP3    H131265   2.726   1.827   6.747
10436TIP3    H231266   2.814   1.914   6.661
10437TIP3   OH231267   4.463   5.412   6.668
10437TIP3    H131268   4.399   5.461   6.617
10437TIP3    H231269   4.426   5.409   6.756
10438TIP3   OH231270   7.093   5.618   2.903
10438TIP3    H131271   7.141   5.617   2.820
10438TIP3    H231272   7.143   5.678   2.958
10439TIP3   OH231273   0.096   3.748   4.322
10439TIP3    H131274   0.053   3.671   4.285
10439TIP3    H231275   0.188   3.737   4.298
10440TIP3   OH231276   7.466   4.430   3.590
10440TIP3    H131277   7.502   4.506   3.544
10440TIP3    H231278   7.373   4.449   3.598
10441TIP3   OH231279   7.781   2.392   5.318
10441TIP3    H131280   7.776   2.399   5.413
10441TIP3    H231281   7.872   2.369   5.301
10442TIP3   OH231282   2.592   0.035   3.309
10442TIP3    H131283   2.505   0.004   3.331
10442TIP3    H231284   2.613  -0.006   3.225
10443TIP3   OH231285   7.842   2.459   4.391
10443TIP3    H131286   7.909   2.528   4.381
10443TIP3    H231287   7.761   2.500   4.360
10444TIP3   OH231288   3.880   1.865   4.757
10444TIP3    H131289   3.823   1.790   4.773
10444TIP3    H231290   3.906   1.857   4.666
10445TIP3   OH231291   4.244   0.630   4.854
10445TIP3    H131292   4.176   0.588   4.907
10445TIP3    H231293   4.236   0.723   4.875
10446TIP3   OH231294   5.240   0.368   4.025
10446TIP3    H131295   5.324   0.334   3.996
10446TIP3    H231296   5.206   0.418   3.951
10447TIP3   OH231297   6.423   1.100   4.585
10447TIP3    H131298   6.450   1.112   4.494
10447TIP3    H231299   6.493   1.047   4.623
10448TIP3   OH231300   6.928   2.796   1.784
10448TIP3    H131301   6.936   2.779   1.690
10448TIP3    H231302   6.880   2.878   1.789
10449TIP3   OH231303   6.543   1.099   2.980
10449TIP3    H131304   6.637   1.090   2.994
10449TIP3    H231305   6.503   1.045   3.048
10450TIP3   OH231306   3.252   3.144   4.536
10450TIP3    H131307   3.202   3.144   4.618
10450TIP3    H231308   3.341   3.119   4.562
10451TIP3   OH231309   3.934   7.033   3.174
10451TIP3    H131310   3.946   7.118   3.132
10451TIP3    H231311   3.949   7.050   3.267
10452TIP3   OH231312   3.911   4.721   1.515
10452TIP3    H131313   3.905   4.678   1.429
10452TIP3    H231314   3.922   4.648   1.576
10453TIP3   OH231315   0.912   0.384   2.636
10453TIP3    H131316   0.995   0.398   2.591
10453TIP3    H231317   0.864   0.466   2.624
10454TIP3   OH231318   8.239   0.186   0.279
10454TIP3    H131319   8.254   0.094   0.257
10454TIP3    H231320   8.326   0.219   0.302
10455TIP3   OH231321   1.377   3.381   5.772
10455TIP3    H131322   1.350   3.327   5.698
10455TIP3    H231323   1.355   3.470   5.745
10456TIP3   OH231324   0.471   5.528   6.326
10456TIP3    H131325   0.503   5.611   6.362
10456TIP3    H231326   0.376   5.535   6.330
10457TIP3   OH231327   6.221   7.758   0.219
10457TIP3    H131328   6.225   7.720   0.132
10457TIP3    H231329   6.172   7.840   0.207
10458TIP3   OH231330   3.335   2.258   3.691
10458TIP3    H131331   3.290   2.183   3.652
10458TIP3    H231332   3.405   2.219   3.744
10459TIP3   OH231333   2.173   3.187   6.414
10459TIP3    H131334   2.235   3.128   6.457
10459TIP3    H231335   2.220   3.271   6.409
10460TIP3   OH231336   8.107   1.548   4.044
10460TIP3    H131337   8.131   1.456   4.054
10460TIP3    H231338   8.068   1.554   3.956
10461TIP3   OH231339   1.456   4.244   5.305
10461TIP3    H131340   1.389   4.176   5.319
10461TIP3    H231341   1.407   4.326   5.307
10462TIP3   OH231342   2.254   5.556   2.090
10462TIP3    H131343   2.162   5.536   2.073
10462TIP3    H231344   2.261   5.650   2.074
10463TIP3   OH231345   7.781   0.377   6.351
10463TIP3    H131346   7.689   0.395   6.371
10463TIP3    H231347   7.798   0.292   6.393
10464TIP3   OH231348   0.272   7.729   5.479
10464TIP3    H131349   0.222   7.806   5.504
10464TIP3    H231350   0.292   7.685   5.562
10465TIP3   OH231351   4.047   1.376   5.124
10465TIP3    H131352   4.022   1.377   5.217
10465TIP3    H231353   3.992   1.308   5.086
10466TIP3   OH231354   4.873   1.086   6.054
10466TIP3    H131355   4.945   1.144   6.029
10466TIP3    H231356   4.914   1.001   6.068
10467TIP3   OH231357   4.300   3.272   2.368
10467TIP3    H131358   4.371   3.215   2.338
10467TIP3    H231359   4.329   3.360   2.348
10468TIP3   OH231360   4.166   1.453   5.821
10468TIP3    H131361   4.107   1.503   5.765
10468TIP3    H231362   4.253   1.475   5.790
10469TIP3   OH231363   1.697   1.264   4.444
10469TIP3    H131364   1.724   1.279   4.535
10469TIP3    H231365   1.749   1.326   4.393
10470TIP3   OH231366   7.884   2.516   1.422
10470TIP3    H131367   7.827   2.441   1.403
10470TIP3    H231368   7.827   2.578   1.468
10471TIP3   OH231369   0.957   4.858   4.825
10471TIP3    H131370   1.024   4.926   4.810
10471TIP3    H231371   0.983   4.786   4.768
10472TIP3   OH231372   4.542   1.441   2.108
10472TIP3    H131373   4.524   1.386   2.031
10472TIP3    H231374   4.474   1.419   2.171
10473TIP3   OH231375   0.587   0.314   6.781
10473TIP3    H131376   0.627   0.400   6.770
10473TIP3    H231377   0.656   0.252   6.756
10474TIP3   OH231378   3.941   2.866   5.153
10474TIP3    H131379   3.984   2.951   5.138
10474TIP3    H231380   3.867   2.886   5.209
10475TIP3   OH231381   2.307   6.341   6.437
10475TIP3    H131382   2.311   6.252   6.403
10475TIP3    H231383   2.308   6.331   6.532
10476TIP3   OH231384   3.415   6.324   3.411
10476TIP3    H131385   3.508   6.341   3.393
10476TIP3    H231386   3.417   6.262   3.484
10477TIP3   OH231387   1.279   6.247   3.841
10477TIP3    H131388   1.371   6.224   3.828
10477TIP3    H231389   1.278   6.301   3.919
10478TIP3   OH231390   8.008   0.724   5.006
10478TIP3    H131391   7.915   0.700   5.005
10478TIP3    H231392   8.028   0.743   5.097
10479TIP3   OH231393   6.833   0.628   2.775
10479TIP3    H131394   6.789   0.697   2.825
10479TIP3    H231395   6.788   0.547   2.801
10480TIP3   OH231396   4.366   2.105   0.478
10480TIP3    H131397   4.327   2.059   0.552
10480TIP3    H231398   4.431   2.162   0.518
10481TIP3   OH231399   7.979   4.537   5.504
10481TIP3    H131400   7.955   4.475   5.435
10481TIP3    H231401   8.046   4.492   5.555
10482TIP3   OH231402   0.971   2.213   0.166
10482TIP3    H131403   0.877   2.203   0.156
10482TIP3    H231404   1.009   2.161   0.094
10483TIP3   OH231405   4.348   0.515   1.994
10483TIP3    H131406   4.384   0.447   1.937
10483TIP3    H231407   4.318   0.467   2.071
10484TIP3   OH231408   5.772   6.641   1.423
10484TIP3    H131409   5.785   6.682   1.509
10484TIP3    H231410   5.703   6.576   1.438
10485TIP3   OH231411   5.674   1.906   3.355
10485TIP3    H131412   5.683   1.966   3.429
10485TIP3    H231413   5.583   1.919   3.326
10486TIP3   OH231414   7.425   5.101   6.097
10486TIP3    H131415   7.516   5.117   6.122
10486TIP3    H231416   7.379   5.180   6.125
10487TIP3   OH231417   6.986   6.937   2.864
10487TIP3    H131418   7.033   7.000   2.918
10487TIP3    H231419   6.945   6.990   2.795
10488TIP3   OH231420   7.710   7.025   5.136
10488TIP3    H131421   7.714   6.977   5.219
10488TIP3    H231422   7.631   6.992   5.093
10489TIP3   OH231423   7.147   2.590   5.916
10489TIP3    H131424   7.134   2.604   5.822
10489TIP3    H231425   7.058   2.575   5.950
10490TIP3   OH231426   1.516   6.757   2.771
10490TIP3    H131427   1.432   6.767   2.726
10490TIP3    H231428   1.493   6.723   2.857
10491TIP3   OH231429   2.963   1.894   1.572
10491TIP3    H131430   2.919   1.893   1.657
10491TIP3    H231431   2.917   1.962   1.522
10492TIP3   OH231432   1.920   0.742   2.572
10492TIP3    H131433   1.998   0.686   2.576
10492TIP3    H231434   1.948   0.818   2.521
10493TIP3   OH231435   2.418   7.430   5.259
10493TIP3    H131436   2.458   7.396   5.179
10493TIP3    H231437   2.492   7.456   5.314
10494TIP3   OH231438   1.634   0.746   6.323
10494TIP3    H131439   1.720   0.746   6.282
10494TIP3    H231440   1.585   0.680   6.275
10495TIP3   OH231441   3.163   2.200   6.102
10495TIP3    H131442   3.105   2.126   6.118
10495TIP3    H231443   3.105   2.276   6.100
10496TIP3   OH231444   7.616   5.919   1.799
10496TIP3    H131445   7.595   6.000   1.846
10496TIP3    H231446   7.536   5.868   1.802
10497TIP3   OH231447   1.528   4.687   3.073
10497TIP3    H131448   1.612   4.694   3.027
10497TIP3    H231449   1.464   4.726   3.013
10498TIP3   OH231450   7.539   5.581   1.978
10498TIP3    H131451   7.579   5.652   2.029
10498TIP3    H231452   7.531   5.616   1.890
10499TIP3   OH231453   4.969   4.894   1.427
10499TIP3    H131454   4.896   4.957   1.426
10499TIP3    H231455   4.930   4.812   1.398
10500TIP3   OH231456   5.520   0.651   4.471
10500TIP3    H131457   5.496   0.570   4.516
10500TIP3    H231458   5.593   0.686   4.522
10501TIP3   OH231459   7.007   4.659   5.421
10501TIP3    H131460   6.912   4.644   5.429
10501TIP3    H231461   7.035   4.596   5.354
10502TIP3   OH231462   3.346   7.229   4.355
10502TIP3    H131463   3.333   7.239   4.449
10502TIP3    H231464   3.391   7.146   4.345
10503TIP3   OH231465   6.508   6.338   4.032
10503TIP3    H131466   6.456   6.418   4.022
10503TIP3    H231467   6.515   6.325   4.127
10504TIP3   OH231468   1.539   2.599   5.977
10504TIP3    H131469   1.591   2.599   6.057
10504TIP3    H231470   1.536   2.507   5.950
10505TIP3   OH231471   2.282   4.924   3.881
10505TIP3    H131472   2.211   4.870   3.846
10505TIP3    H231473   2.311   4.879   3.960
10506TIP3   OH231474   5.431   0.456   2.750
10506TIP3    H131475   5.477   0.503   2.680
10506TIP3    H231476   5.366   0.403   2.705
10507TIP3   OH231477   1.081   2.677   2.933
10507TIP3    H131478   1.106   2.590   2.902
10507TIP3    H231479   0.985   2.673   2.936
10508TIP3   OH231480   6.440   1.286   0.368
10508TIP3    H131481   6.422   1.290   0.274
10508TIP3    H231482   6.503   1.214   0.377
10509TIP3   OH231483   1.067   3.666   4.372
10509TIP3    H131484   1.120   3.680   4.451
10509TIP3    H231485   1.030   3.578   4.383
10510TIP3   OH231486   5.010   4.222   4.306
10510TIP3    H131487   5.079   4.201   4.369
10510TIP3    H231488   4.939   4.258   4.360
10511TIP3   OH231489   5.884   3.523   2.848
10511TIP3    H131490   5.899   3.615   2.869
10511TIP3    H231491   5.893   3.477   2.931
10512TIP3   OH231492   6.317   2.396   1.259
10512TIP3    H131493   6.366   2.352   1.328
10512TIP3    H231494   6.359   2.481   1.249
10513TIP3   OH231495   3.814   2.321   3.069
10513TIP3    H131496   3.850   2.283   2.989
10513TIP3    H231497   3.779   2.245   3.117
10514TIP3   OH231498   1.866   3.951   4.480
10514TIP3    H131499   1.905   4.014   4.541
10514TIP3    H231500   1.937   3.930   4.419
10515TIP3   OH231501   5.748   4.409   0.140
10515TIP3    H131502   5.727   4.486   0.088
10515TIP3    H231503   5.833   4.429   0.180
10516TIP3   OH231504   3.402   1.900   6.028
10516TIP3    H131505   3.320   1.857   6.005
10516TIP3    H231506   3.386   1.993   6.013
10517TIP3   OH231507   7.334   0.478   6.678
10517TIP3    H131508   7.341   0.444   6.768
10517TIP3    H231509   7.244   0.459   6.652
10518TIP3   OH231510   7.284   6.920   6.388
10518TIP3    H131511   7.287   6.829   6.357
10518TIP3    H231512   7.207   6.924   6.444
10519TIP3   OH231513   5.370   6.286   3.433
10519TIP3    H131514   5.281   6.252   3.441
10519TIP3    H231515   5.425   6.209   3.423
10520TIP3   OH231516   7.206   7.752   0.844
10520TIP3    H131517   7.163   7.819   0.792
10520TIP3    H231518   7.245   7.799   0.918
10521TIP3   OH231519   3.835   5.692   2.929
10521TIP3    H131520   3.788   5.609   2.938
10521TIP3    H231521   3.889   5.698   3.008
10522TIP3   OH231522   2.375   6.509   5.393
10522TIP3    H131523   2.451   6.553   5.355
10522TIP3    H231524   2.390   6.512   5.488
10523TIP3   OH231525   7.759   1.729   6.425
10523TIP3    H131526   7.794   1.818   6.434
10523TIP3    H231527   7.835   1.674   6.409
10524TIP3   OH231528   6.213   2.385   3.511
10524TIP3    H131529   6.221   2.474   3.476
10524TIP3    H231530   6.136   2.389   3.568
10525TIP3   OH231531   6.538   0.623   5.948
10525TIP3    H131532   6.601   0.619   6.021
10525TIP3    H231533   6.514   0.715   5.943
10526TIP3   OH231534   3.705   4.237   2.725
10526TIP3    H131535   3.629   4.186   2.697
10526TIP3    H231536   3.729   4.289   2.648
10527TIP3   OH231537   6.559   7.480   3.615
10527TIP3    H131538   6.509   7.415   3.565
10527TIP3    H231539   6.522   7.476   3.703
10528TIP3   OH231540   5.304   7.783   3.503
10528TIP3    H131541   5.247   7.812   3.432
10528TIP3    H231542   5.352   7.863   3.529
10529TIP3   OH231543   5.603   4.355   4.880
10529TIP3    H131544   5.552   4.420   4.929
10529TIP3    H231545   5.538   4.300   4.837
10530TIP3   OH231546   3.014   7.243   0.977
10530TIP3    H131547   3.070   7.310   0.937
10530TIP3    H231548   3.074   7.192   1.032
10531TIP3   OH231549   6.533   5.190   6.773
10531TIP3    H131550   6.469   5.130   6.737
10531TIP3    H231551   6.548   5.255   6.705
10532TIP3   OH231552   1.929   2.292   3.391
10532TIP3    H131553   1.835   2.291   3.375
10532TIP3    H231554   1.946   2.377   3.430
10533TIP3   OH231555   1.865   0.071   2.872
10533TIP3    H131556   1.893   0.161   2.890
10533TIP3    H231557   1.944   0.027   2.841
10534TIP3   OH231558   2.945   1.366   5.105
10534TIP3    H131559   2.971   1.378   5.196
10534TIP3    H231560   2.995   1.433   5.057
10535TIP3   OH231561   1.822   1.871   5.001
10535TIP3    H131562   1.846   1.811   5.071
10535TIP3    H231563   1.867   1.837   4.924
10536TIP3   OH231564   6.309   5.779   1.362
10536TIP3    H131565   6.271   5.773   1.450
10536TIP3    H231566   6.233   5.783   1.303
10537TIP3   OH231567   1.451   2.005   4.679
10537TIP3    H131568   1.475   1.914   4.695
10537TIP3    H231569   1.525   2.056   4.712
10538TIP3   OH231570   3.816   6.237   1.167
10538TIP3    H131571   3.908   6.211   1.165
10538TIP3    H231572   3.784   6.208   1.253
10539TIP3   OH231573   1.782   3.631   5.662
10539TIP3    H131574   1.730   3.653   5.739
10539TIP3    H231575   1.724   3.578   5.607
10540TIP3   OH231576   6.067   7.583   6.626
10540TIP3    H131577   6.034   7.519   6.690
10540TIP3    H231578   6.004   7.579   6.554
10541TIP3   OH231579   1.582   4.009   1.721
10541TIP3    H131580   1.621   4.079   1.668
10541TIP3    H231581   1.565   4.050   1.806
10542TIP3   OH231582   7.915   7.358   5.834
10542TIP3    H131583   7.955   7.391   5.754
10542TIP3    H231584   7.850   7.424   5.859
10543TIP3   OH231585   6.465   5.578   6.375
10543TIP3    H131586   6.460   5.605   6.283
10543TIP3    H231587   6.438   5.486   6.374
10544TIP3   OH231588   7.050   7.521   0.821
10544TIP3    H131589   6.961   7.532   0.854
10544TIP3    H231590   7.098   7.596   0.856
10545TIP3   OH231591   7.870   4.149   5.562
10545TIP3    H131592   7.785   4.106   5.555
10545TIP3    H231593   7.930   4.081   5.592
10546TIP3   OH231594   7.222   6.524   6.698
10546TIP3    H131595   7.183   6.481   6.621
10546TIP3    H231596   7.294   6.467   6.723
10547TIP3   OH231597   4.850   7.310   4.014
10547TIP3    H131598   4.930   7.260   3.998
10547TIP3    H231599   4.813   7.274   4.094
10548TIP3   OH231600   1.515   6.492   3.002
10548TIP3    H131601   1.595   6.455   3.039
10548TIP3    H231602   1.455   6.418   2.993
10549TIP3   OH231603   2.893   7.548   2.661
10549TIP3    H131604   2.937   7.629   2.688
10549TIP3    H231605   2.820   7.540   2.722
10550TIP3   OH231606   1.167   0.524   5.432
10550TIP3    H131607   1.172   0.591   5.501
10550TIP3    H231608   1.100   0.463   5.463
10551TIP3   OH231609   1.278   3.279   0.540
10551TIP3    H131610   1.321   3.250   0.621
10551TIP3    H231611   1.246   3.198   0.500
10552TIP3   OH231612   5.207   5.495   3.450
10552TIP3    H131613   5.181   5.499   3.542
10552TIP3    H231614   5.127   5.516   3.402
10553TIP3   OH231615   6.644   5.438   4.211
10553TIP3    H131616   6.720   5.404   4.258
10553TIP3    H231617   6.635   5.528   4.241
10554TIP3   OH231618   0.171   7.070   0.612
10554TIP3    H131619   0.207   6.982   0.623
10554TIP3    H231620   0.121   7.085   0.692
10555TIP3   OH231621   0.757   2.466   3.892
10555TIP3    H131622   0.719   2.458   3.980
10555TIP3    H231623   0.814   2.390   3.884
10556TIP3   OH231624   3.726   0.400   6.745
10556TIP3    H131625   3.694   0.353   6.822
10556TIP3    H231626   3.807   0.441   6.774
10557TIP3   OH231627   0.763   1.438   1.207
10557TIP3    H131628   0.805   1.510   1.254
10557TIP3    H231629   0.834   1.393   1.162
10558TIP3   OH231630   6.013   3.403   1.233
10558TIP3    H131631   6.001   3.344   1.307
10558TIP3    H231632   6.043   3.347   1.162
10559TIP3   OH231633   4.917   6.611   1.986
10559TIP3    H131634   4.948   6.536   1.936
10559TIP3    H231635   4.833   6.633   1.947
10560TIP3   OH231636   2.454   2.345   4.693
10560TIP3    H131637   2.387   2.349   4.624
10560TIP3    H231638   2.503   2.427   4.681
10561TIP3   OH231639   4.348   6.345   5.490
10561TIP3    H131640   4.408   6.400   5.541
10561TIP3    H231641   4.301   6.293   5.555
10562TIP3   OH231642   2.658   2.800   5.173
10562TIP3    H131643   2.657   2.751   5.254
10562TIP3    H231644   2.628   2.739   5.106
10563TIP3   OH231645   5.363   2.594   5.076
10563TIP3    H131646   5.414   2.669   5.046
10563TIP3    H231647   5.429   2.532   5.109
10564TIP3   OH231648   5.314   1.549   2.327
10564TIP3    H131649   5.370   1.485   2.370
10564TIP3    H231650   5.253   1.497   2.275
10565TIP3   OH231651   2.253   5.933   5.186
10565TIP3    H131652   2.248   5.996   5.113
10565TIP3    H231653   2.224   5.850   5.148
10566TIP3   OH231654   4.777   5.173   1.410
10566TIP3    H131655   4.723   5.172   1.489
10566TIP3    H231656   4.718   5.144   1.340
10567TIP3   OH231657   1.460   3.124   3.695
10567TIP3    H131658   1.471   3.199   3.754
10567TIP3    H231659   1.524   3.139   3.626
10568TIP3   OH231660   5.082   0.491   3.012
10568TIP3    H131661   5.047   0.503   3.100
10568TIP3    H231662   5.143   0.564   3.000
10569TIP3   OH231663   1.424   1.838   1.613
10569TIP3    H131664   1.378   1.754   1.618
10569TIP3    H231665   1.466   1.838   1.527
10570TIP3   OH231666   2.739   4.248   1.620
10570TIP3    H131667   2.748   4.208   1.534
10570TIP3    H231668   2.651   4.224   1.648
10571TIP3   OH231669   1.512   5.679   1.691
10571TIP3    H131670   1.506   5.729   1.610
10571TIP3    H231671   1.546   5.741   1.755
10572TIP3   OH231672   2.312   0.291   3.555
10572TIP3    H131673   2.371   0.232   3.602
10572TIP3    H231674   2.366   0.329   3.486
10573TIP3   OH231675   6.414   3.812   5.503
10573TIP3    H131676   6.374   3.854   5.579
10573TIP3    H231677   6.508   3.825   5.516
10574TIP3   OH231678   4.987   1.435   0.757
10574TIP3    H131679   4.901   1.398   0.739
10574TIP3    H231680   5.048   1.365   0.736
10575TIP3   OH231681   3.319   7.620   4.617
10575TIP3    H131682   3.239   7.630   4.566
10575TIP3    H231683   3.379   7.572   4.559
10576TIP3   OH231684   3.578   5.293   5.168
10576TIP3    H131685   3.563   5.357   5.098
10576TIP3    H231686   3.603   5.213   5.121
10577TIP3   OH231687   1.731   7.829   0.791
10577TIP3    H131688   1.824   7.809   0.795
10577TIP3    H231689   1.691   7.750   0.754
10578TIP3   OH231690   8.202   4.992   4.561
10578TIP3    H131691   8.212   5.029   4.649
10578TIP3    H231692   8.249   4.909   4.564
10579TIP3   OH231693   7.319   6.563   3.312
10579TIP3    H131694   7.351   6.549   3.402
10579TIP3    H231695   7.230   6.528   3.313
10580TIP3   OH231696   5.213   5.298   4.906
10580TIP3    H131697   5.200   5.234   4.976
10580TIP3    H231698   5.302   5.330   4.918
10581TIP3   OH231699   6.666   3.233   6.678
10581TIP3    H131700   6.729   3.233   6.750
10581TIP3    H231701   6.591   3.282   6.713
10582TIP3   OH231702   5.776   0.646   0.104
10582TIP3    H131703   5.706   0.639   0.170
10582TIP3    H231704   5.742   0.600   0.028
10583TIP3   OH231705   7.308   0.110   1.932
10583TIP3    H131706   7.272   0.080   1.848
10583TIP3    H231707   7.234   0.150   1.977
10584TIP3   OH231708   0.688   3.826   4.497
10584TIP3    H131709   0.703   3.735   4.472
10584TIP3    H231710   0.774   3.867   4.493
10585TIP3   OH231711   5.720   3.294   5.330
10585TIP3    H131712   5.732   3.334   5.416
10585TIP3    H231713   5.806   3.303   5.288
10586TIP3   OH231714   1.613   1.640   3.553
10586TIP3    H131715   1.530   1.594   3.539
10586TIP3    H231716   1.589   1.732   3.559
10587TIP3   OH231717   5.590   3.305   2.000
10587TIP3    H131718   5.672   3.286   1.955
10587TIP3    H231719   5.539   3.225   1.993
10588TIP3   OH231720   0.477   2.544   5.187
10588TIP3    H131721   0.460   2.611   5.121
10588TIP3    H231722   0.561   2.569   5.226
10589TIP3   OH231723   5.259   3.385   4.143
10589TIP3    H131724   5.195   3.376   4.213
10589TIP3    H231725   5.208   3.413   4.066
10590TIP3   OH231726   3.688   0.500   6.225
10590TIP3    H131727   3.779   0.518   6.249
10590TIP3    H231728   3.669   0.415   6.265
10591TIP3   OH231729   0.978   2.216   2.934
10591TIP3    H131730   0.902   2.191   2.880
10591TIP3    H231731   1.007   2.134   2.974
10592TIP3   OH231732   4.659  -0.039   4.485
10592TIP3    H131733   4.710  -0.117   4.509
10592TIP3    H231734   4.591  -0.072   4.426
10593TIP3   OH231735   0.709   5.469   5.333
10593TIP3    H131736   0.766   5.540   5.364
10593TIP3    H231737   0.742   5.448   5.246
10594TIP3   OH231738   6.511   0.885   3.149
10594TIP3    H131739   6.543   0.795   3.151
10594TIP3    H231740   6.423   0.880   3.185
10595TIP3   OH231741   3.778   5.930   1.895
10595TIP3    H131742   3.863   5.970   1.915
10595TIP3    H231743   3.722   5.954   1.969
10596TIP3   OH231744   1.409   0.753   3.011
10596TIP3    H131745   1.401   0.743   3.106
10596TIP3    H231746   1.483   0.697   2.987
10597TIP3   OH231747   7.976   7.105   3.828
10597TIP3    H131748   7.949   7.160   3.754
10597TIP3    H231749   8.038   7.160   3.877
10598TIP3   OH231750   6.209   7.735   1.122
10598TIP3    H131751   6.198   7.642   1.104
10598TIP3    H231752   6.126   7.775   1.095
10599TIP3   OH231753   0.684   1.369   1.493
10599TIP3    H131754   0.716   1.343   1.406
10599TIP3    H231755   0.592   1.391   1.480
10600TIP3   OH231756   1.391   4.411   4.721
10600TIP3    H131757   1.474   4.406   4.672
10600TIP3    H231758   1.418   4.426   4.811
10601TIP3   OH231759   2.504   2.501   2.786
10601TIP3    H131760   2.521   2.446   2.863
10601TIP3    H231761   2.590   2.531   2.759
10602TIP3   OH231762   7.948   3.407   0.684
10602TIP3    H131763   7.918   3.464   0.613
10602TIP3    H231764   7.871   3.353   0.705
10603TIP3   OH231765   1.773   5.184   1.513
10603TIP3    H131766   1.823   5.259   1.483
10603TIP3    H231767   1.706   5.171   1.446
10604TIP3   OH231768   7.535   6.451   0.680
10604TIP3    H131769   7.451   6.407   0.665
10604TIP3    H231770   7.514   6.545   0.674
10605TIP3   OH231771   1.066   4.460   4.219
10605TIP3    H131772   1.159   4.442   4.232
10605TIP3    H231773   1.023   4.418   4.293
10606TIP3   OH231774   1.431   4.594   3.893
10606TIP3    H131775   1.364   4.618   3.957
10606TIP3    H231776   1.382   4.569   3.815
10607TIP3   OH231777   4.161   2.750   5.409
10607TIP3    H131778   4.222   2.698   5.460
10607TIP3    H231779   4.207   2.832   5.392
10608TIP3   OH231780   2.541   7.075   2.539
10608TIP3    H131781   2.544   7.170   2.532
10608TIP3    H231782   2.586   7.044   2.460
10609TIP3   OH231783   6.106   3.722   2.421
10609TIP3    H131784   6.112   3.816   2.439
10609TIP3    H231785   6.100   3.717   2.325
10610TIP3   OH231786   4.591   4.436   3.793
10610TIP3    H131787   4.649   4.512   3.792
10610TIP3    H231788   4.517   4.462   3.847
10611TIP3   OH231789   7.703   7.161   6.704
10611TIP3    H131790   7.700   7.198   6.792
10611TIP3    H231791   7.687   7.236   6.647
10612TIP3   OH231792   5.291   1.045   4.003
10612TIP3    H131793   5.350   1.016   3.933
10612TIP3    H231794   5.254   0.964   4.038
10613TIP3   OH231795   4.251   5.119   0.863
10613TIP3    H131796   4.293   5.145   0.781
10613TIP3    H231797   4.272   5.191   0.923
10614TIP3   OH231798   5.422   5.922   0.288
10614TIP3    H131799   5.399   5.994   0.229
10614TIP3    H231800   5.516   5.932   0.302
10615TIP3   OH231801   4.370   0.574   2.671
10615TIP3    H131802   4.361   0.654   2.723
10615TIP3    H231803   4.432   0.520   2.721
10616TIP3   OH231804   7.761   3.538   3.268
10616TIP3    H131805   7.844   3.581   3.247
10616TIP3    H231806   7.752   3.469   3.201
10617TIP3   OH231807   4.392   4.558   3.949
10617TIP3    H131808   4.373   4.498   4.021
10617TIP3    H231809   4.332   4.631   3.961
10618TIP3   OH231810   3.787   2.532   2.763
10618TIP3    H131811   3.835   2.532   2.846
10618TIP3    H231812   3.844   2.578   2.702
10619TIP3   OH231813   0.322   0.210   6.806
10619TIP3    H131814   0.335   0.118   6.782
10619TIP3    H231815   0.403   0.253   6.781
10620TIP3   OH231816   5.768   6.079   0.154
10620TIP3    H131817   5.710   6.039   0.219
10620TIP3    H231818   5.856   6.053   0.182
10621TIP3   OH231819   6.693   5.872   5.001
10621TIP3    H131820   6.651   5.959   5.008
10621TIP3    H231821   6.622   5.815   4.971
10622TIP3   OH231822   0.461   6.626   2.393
10622TIP3    H131823   0.408   6.553   2.362
10622TIP3    H231824   0.398   6.698   2.404
10623TIP3   OH231825   3.006   2.180   2.031
10623TIP3    H131826   3.065   2.255   2.033
10623TIP3    H231827   3.063   2.105   2.011
10624TIP3   OH231828   3.460   2.168   5.465
10624TIP3    H131829   3.449   2.248   5.414
10624TIP3    H231830   3.381   2.164   5.519
10625TIP3   OH231831   1.572   3.162   5.477
10625TIP3    H131832   1.557   3.098   5.408
10625TIP3    H231833   1.629   3.228   5.438
10626TIP3   OH231834   6.870   1.927   1.807
10626TIP3    H131835   6.777   1.920   1.786
10626TIP3    H231836   6.878   1.894   1.896
10627TIP3   OH231837   2.559   6.051   5.792
10627TIP3    H131838   2.651   6.068   5.771
10627TIP3    H231839   2.536   5.974   5.739
10628TIP3   OH231840   1.986   4.710   1.027
10628TIP3    H131841   2.005   4.771   0.956
10628TIP3    H231842   1.909   4.746   1.071
10629TIP3   OH231843   1.615   4.342   6.088
10629TIP3    H131844   1.584   4.318   6.175
10629TIP3    H231845   1.543   4.319   6.029
10630TIP3   OH231846   7.965   6.980   5.016
10630TIP3    H131847   8.017   6.925   5.074
10630TIP3    H231848   7.892   7.010   5.071
10631TIP3   OH231849   6.052   3.001   4.038
10631TIP3    H131850   6.146   3.017   4.032
10631TIP3    H231851   6.020   3.066   4.101
10632TIP3   OH231852   3.519   5.259   2.698
10632TIP3    H131853   3.455   5.277   2.767
10632TIP3    H231854   3.585   5.203   2.740
10633TIP3   OH231855   0.504   6.420   4.125
10633TIP3    H131856   0.420   6.464   4.131
10633TIP3    H231857   0.567   6.490   4.108
10634TIP3   OH231858   2.206   3.361   3.768
10634TIP3    H131859   2.169   3.445   3.742
10634TIP3    H231860   2.199   3.307   3.689
10635TIP3   OH231861   1.126   6.010   4.126
10635TIP3    H131862   1.042   6.018   4.081
10635TIP3    H231863   1.144   5.916   4.127
10636TIP3   OH231864   7.628   7.162   4.300
10636TIP3    H131865   7.635   7.074   4.338
10636TIP3    H231866   7.635   7.147   4.206
10637TIP3   OH231867   7.537   1.519   3.989
10637TIP3    H131868   7.571   1.462   3.921
10637TIP3    H231869   7.589   1.599   3.983
10638TIP3   OH231870   6.897   2.975   6.377
10638TIP3    H131871   6.911   2.896   6.324
10638TIP3    H231872   6.982   3.018   6.379
10639TIP3   OH231873   7.101   7.114   1.896
10639TIP3    H131874   7.191   7.143   1.884
10639TIP3    H231875   7.086   7.051   1.825
10640TIP3   OH231876   7.043   2.847   0.859
10640TIP3    H131877   7.009   2.881   0.942
10640TIP3    H231878   7.018   2.912   0.794
10641TIP3   OH231879   3.110   7.503   5.351
10641TIP3    H131880   3.105   7.536   5.261
10641TIP3    H231881   3.194   7.535   5.383
10642TIP3   OH231882   0.143   1.065   0.263
10642TIP3    H131883   0.150   1.110   0.179
10642TIP3    H231884   0.232   1.034   0.282
10643TIP3   OH231885   0.098   3.335   0.161
10643TIP3    H131886   0.030   3.288   0.113
10643TIP3    H231887   0.124   3.274   0.231
10644TIP3   OH231888   2.870   0.608   4.695
10644TIP3    H131889   2.846   0.519   4.722
10644TIP3    H231890   2.947   0.596   4.640
10645TIP3   OH231891   5.886   2.531   6.234
10645TIP3    H131892   5.804   2.538   6.186
10645TIP3    H231893   5.884   2.604   6.296
10646TIP3   OH231894   0.595   2.484   3.051
10646TIP3    H131895   0.509   2.523   3.066
10646TIP3    H231896   0.603   2.417   3.119
10647TIP3   OH231897   0.032   0.086   3.442
10647TIP3    H131898   0.038   0.038   3.525
10647TIP3    H231899   0.120   0.120   3.428
10648TIP3   OH231900   7.736   3.341   2.193
10648TIP3    H131901   7.805   3.309   2.135
10648TIP3    H231902   7.734   3.435   2.179
10649TIP3   OH231903   5.235   6.729   6.574
10649TIP3    H131904   5.211   6.750   6.664
10649TIP3    H231905   5.210   6.637   6.564
10650TIP3   OH231906   1.658   5.037   0.342
10650TIP3    H131907   1.668   5.125   0.308
10650TIP3    H231908   1.729   4.987   0.302
10651TIP3   OH231909   5.696   4.023   5.434
10651TIP3    H131910   5.735   3.973   5.506
10651TIP3    H231911   5.603   4.005   5.440
10652TIP3   OH231912   8.133   5.620   3.604
10652TIP3    H131913   8.119   5.562   3.529
10652TIP3    H231914   8.195   5.572   3.660
10653TIP3   OH231915   7.340   3.909   0.896
10653TIP3    H131916   7.265   3.961   0.868
10653TIP3    H231917   7.301   3.834   0.943
10654TIP3   OH231918   5.501   3.206   6.291
10654TIP3    H131919   5.420   3.254   6.307
10654TIP3    H231920   5.478   3.142   6.223
10655TIP3   OH231921   1.943   6.925   5.278
10655TIP3    H131922   1.894   6.845   5.295
10655TIP3    H231923   1.900   6.964   5.201
10656TIP3   OH231924   5.080   3.802   4.554
10656TIP3    H131925   5.170   3.776   4.532
10656TIP3    H231926   5.047   3.730   4.608
10657TIP3   OH231927   7.026   3.578   1.612
10657TIP3    H131928   7.086   3.644   1.646
10657TIP3    H231929   6.941   3.602   1.649
10658TIP3   OH231930   1.783   6.718   5.149
10658TIP3    H131931   1.709   6.687   5.202
10658TIP3    H231932   1.835   6.640   5.131
10659TIP3   OH231933   5.935   0.358   3.418
10659TIP3    H131934   6.015   0.411   3.417
10659TIP3    H231935   5.906   0.359   3.509
10660TIP3   OH231936   3.813   4.675   3.190
10660TIP3    H131937   3.747   4.606   3.184
10660TIP3    H231938   3.893   4.631   3.216
10661TIP3   OH231939   7.080   4.166   1.378
10661TIP3    H131940   7.035   4.088   1.345
10661TIP3    H231941   7.010   4.230   1.390
10662TIP3   OH231942   4.535   5.487   0.883
10662TIP3    H131943   4.600   5.417   0.874
10662TIP3    H231944   4.521   5.519   0.793
10663TIP3   OH231945   5.189   1.331   5.281
10663TIP3    H131946   5.197   1.273   5.205
10663TIP3    H231947   5.146   1.278   5.347
10664TIP3   OH231948   1.938   0.948   1.532
10664TIP3    H131949   1.951   0.872   1.475
10664TIP3    H231950   1.856   0.928   1.578
10665TIP3   OH231951   4.960   3.277   4.339
10665TIP3    H131952   4.876   3.292   4.384
10665TIP3    H231953   5.023   3.330   4.388
10666TIP3   OH231954   5.044   5.158   0.321
10666TIP3    H131955   4.985   5.223   0.357
10666TIP3    H231956   5.132   5.191   0.340
10667TIP3   OH231957   2.449   1.619   5.564
10667TIP3    H131958   2.485   1.628   5.652
10667TIP3    H231959   2.397   1.538   5.568
10668TIP3   OH231960   2.370   1.731   3.624
10668TIP3    H131961   2.441   1.695   3.676
10668TIP3    H231962   2.387   1.826   3.623
10669TIP3   OH231963   4.382   3.388   3.736
10669TIP3    H131964   4.288   3.399   3.717
10669TIP3    H231965   4.413   3.328   3.670
10670TIP3   OH231966   1.646   0.801   0.360
10670TIP3    H131967   1.624   0.793   0.453
10670TIP3    H231968   1.575   0.757   0.314
10671TIP3   OH231969   8.171   1.416   5.233
10671TIP3    H131970   8.198   1.428   5.142
10671TIP3    H231971   8.093   1.469   5.243
10672TIP3   OH231972   6.622   3.346   1.438
10672TIP3    H131973   6.712   3.323   1.461
10672TIP3    H231974   6.568   3.293   1.497
10673TIP3   OH231975   5.067   5.544   4.616
10673TIP3    H131976   5.061   5.601   4.540
10673TIP3    H231977   4.999   5.576   4.676
10674TIP3   OH231978   6.528   7.573   2.514
10674TIP3    H131979   6.552   7.650   2.566
10674TIP3    H231980   6.517   7.503   2.579
10675TIP3   OH231981   2.681   0.842   1.163
10675TIP3    H131982   2.652   0.849   1.072
10675TIP3    H231983   2.715   0.753   1.171
10676TIP3   OH231984   0.441   5.357   1.145
10676TIP3    H131985   0.514   5.399   1.099
10676TIP3    H231986   0.475   5.339   1.233
10677TIP3   OH231987   2.751   0.058   1.316
10677TIP3    H131988   2.791   0.012   1.242
10677TIP3    H231989   2.658   0.038   1.308
10678TIP3   OH231990   6.590   1.310   4.969
10678TIP3    H131991   6.507   1.358   4.962
10678TIP3    H231992   6.628   1.315   4.881
10679TIP3   OH231993   5.197   6.631   0.093
10679TIP3    H131994   5.223   6.704   0.149
10679TIP3    H231995   5.227   6.553   0.139
10680TIP3   OH231996   3.708   2.340   5.599
10680TIP3    H131997   3.740   2.347   5.509
10680TIP3    H231998   3.738   2.254   5.628
10681TIP3   OH231999   2.838   2.938   0.322
10681TIP3    H132000   2.803   2.901   0.403
10681TIP3    H232001   2.925   2.899   0.314
10682TIP3   OH232002   1.088   3.943   0.943
10682TIP3    H132003   1.089   3.903   0.856
10682TIP3    H232004   1.064   4.034   0.927
10683TIP3   OH232005   0.359   1.289   2.556
10683TIP3    H132006   0.311   1.207   2.545
10683TIP3    H232007   0.316   1.332   2.630
10684TIP3   OH232008   1.616   6.189   0.572
10684TIP3    H132009   1.639   6.102   0.538
10684TIP3    H232010   1.691   6.215   0.625
10685TIP3   OH232011   0.255   7.060   4.224
10685TIP3    H132012   0.199   6.983   4.214
10685TIP3    H232013   0.328   7.030   4.279
10686TIP3   OH232014   0.610   1.017   3.461
10686TIP3    H132015   0.539   1.067   3.421
10686TIP3    H232016   0.690   1.058   3.427
10687TIP3   OH232017   5.223   4.212   5.559
10687TIP3    H132018   5.135   4.230   5.526
10687TIP3    H232019   5.268   4.170   5.486
10688TIP3   OH232020   7.296   4.359   6.716
10688TIP3    H132021   7.218   4.380   6.769
10688TIP3    H232022   7.369   4.369   6.777
10689TIP3   OH232023   2.678   7.536   2.819
10689TIP3    H132024   2.664   7.486   2.899
10689TIP3    H232025   2.604   7.596   2.815
10690TIP3   OH232026   4.391   4.952   4.183
10690TIP3    H132027   4.363   4.966   4.274
10690TIP3    H232028   4.476   4.995   4.178
10691TIP3   OH232029   6.226   5.633   6.197
10691TIP3    H132030   6.143   5.618   6.242
10691TIP3    H232031   6.229   5.727   6.182
10692TIP3   OH232032   5.442   2.525   0.194
10692TIP3    H132033   5.376   2.460   0.216
10692TIP3    H232034   5.468   2.563   0.278
10693TIP3   OH232035   0.863   4.841   5.719
10693TIP3    H132036   0.880   4.857   5.626
10693TIP3    H232037   0.778   4.882   5.735
10694TIP3   OH232038   0.734   6.529   5.840
10694TIP3    H132039   0.813   6.536   5.786
10694TIP3    H232040   0.670   6.586   5.797
10695TIP3   OH232041   6.902   0.050   4.209
10695TIP3    H132042   6.931   0.118   4.269
10695TIP3    H232043   6.900   0.093   4.123
10696TIP3   OH232044   2.639   0.743   5.604
10696TIP3    H132045   2.553   0.785   5.599
10696TIP3    H232046   2.701   0.814   5.584
10697TIP3   OH232047   5.170   7.073   5.374
10697TIP3    H132048   5.197   7.083   5.465
10697TIP3    H232049   5.251   7.066   5.325
10698TIP3   OH232050   4.896   6.292   0.517
10698TIP3    H132051   4.842   6.344   0.457
10698TIP3    H232052   4.930   6.355   0.579
10699TIP3   OH232053   8.086   5.414   4.418
10699TIP3    H132054   8.175   5.379   4.407
10699TIP3    H232055   8.065   5.399   4.510
10700TIP3   OH232056   6.950   3.853   0.212
10700TIP3    H132057   7.037   3.815   0.203
10700TIP3    H232058   6.894   3.781   0.242
10701TIP3   OH232059   3.227   4.643   3.564
10701TIP3    H132060   3.212   4.717   3.505
10701TIP3    H232061   3.142   4.629   3.607
10702TIP3   OH232062   0.201   3.524   4.530
10702TIP3    H132063   0.222   3.511   4.438
10702TIP3    H232064   0.108   3.548   4.530
10703TIP3   OH232065   1.739   0.759   2.304
10703TIP3    H132066   1.663   0.742   2.248
10703TIP3    H232067   1.780   0.674   2.317
10704TIP3   OH232068   2.262   0.715   0.537
10704TIP3    H132069   2.346   0.743   0.501
10704TIP3    H232070   2.242   0.781   0.604
10705TIP3   OH232071   0.279   2.343   0.562
10705TIP3    H132072   0.234   2.321   0.644
10705TIP3    H232073   0.218   2.319   0.493
10706TIP3   OH232074   0.476   2.385   1.172
10706TIP3    H132075   0.457   2.399   1.079
10706TIP3    H232076   0.455   2.293   1.187
10707TIP3   OH232077   0.708   3.368   5.666
10707TIP3    H132078   0.801   3.378   5.688
10707TIP3    H232079   0.708   3.328   5.579
10708TIP3   OH232080   4.923   3.669   2.631
10708TIP3    H132081   4.876   3.644   2.710
10708TIP3    H232082   5.008   3.700   2.662
10709TIP3   OH232083   0.819   0.410   6.164
10709TIP3    H132084   0.764   0.343   6.125
10709TIP3    H232085   0.834   0.380   6.254
10710TIP3   OH232086   1.367   7.671   5.534
10710TIP3    H132087   1.409   7.669   5.448
10710TIP3    H232088   1.403   7.748   5.577
10711TIP3   OH232089   4.019   4.765   4.602
10711TIP3    H132090   3.947   4.825   4.581
10711TIP3    H232091   3.989   4.680   4.569
10712TIP3   OH232092   6.627   0.282   2.465
10712TIP3    H132093   6.641   0.373   2.438
10712TIP3    H232094   6.713   0.241   2.456
10713TIP3   OH232095   6.583   4.257   4.659
10713TIP3    H132096   6.665   4.260   4.708
10713TIP3    H232097   6.603   4.202   4.583
10714TIP3   OH232098   1.161   6.665   6.424
10714TIP3    H132099   1.117   6.750   6.417
10714TIP3    H232100   1.123   6.613   6.354
10715TIP3   OH232101   7.213   4.059   3.703
10715TIP3    H132102   7.209   4.112   3.623
10715TIP3    H232103   7.307   4.045   3.717
10716TIP3   OH232104   4.871   0.888   1.040
10716TIP3    H132105   4.955   0.847   1.059
10716TIP3    H232106   4.817   0.871   1.117
10717TIP3   OH232107   3.139   2.559   6.544
10717TIP3    H132108   3.228   2.552   6.578
10717TIP3    H232109   3.087   2.500   6.599
10718TIP3   OH232110   0.596   5.278   2.992
10718TIP3    H132111   0.666   5.290   3.055
10718TIP3    H232112   0.625   5.206   2.937
10719TIP3   OH232113   1.144   3.125   3.694
10719TIP3    H132114   1.117   3.138   3.603
10719TIP3    H232115   1.076   3.168   3.746
10720TIP3   OH232116   7.542   4.778   1.843
10720TIP3    H132117   7.464   4.770   1.789
10720TIP3    H232118   7.565   4.871   1.836
10721TIP3   OH232119   4.733   5.817   3.225
10721TIP3    H132120   4.794   5.870   3.277
10721TIP3    H232121   4.718   5.739   3.278
10722TIP3   OH232122   8.082   5.404   5.937
10722TIP3    H132123   8.170   5.403   5.899
10722TIP3    H232124   8.085   5.340   6.007
10723TIP3   OH232125   0.152   4.070   1.883
10723TIP3    H132126   0.201   4.104   1.809
10723TIP3    H232127   0.104   4.146   1.917
10724TIP3   OH232128   1.900   0.601   3.737
10724TIP3    H132129   1.978   0.565   3.697
10724TIP3    H232130   1.930   0.680   3.783
10725TIP3   OH232131   1.625   2.758   0.131
10725TIP3    H132132   1.577   2.815   0.191
10725TIP3    H232133   1.638   2.811   0.052
10726TIP3   OH232134   2.500   4.175   5.045
10726TIP3    H132135   2.444   4.118   5.096
10726TIP3    H232136   2.589   4.143   5.062
10727TIP3   OH232137   8.116   0.115   4.868
10727TIP3    H132138   8.029   0.098   4.903
10727TIP3    H232139   8.152   0.028   4.851
10728TIP3   OH232140   1.686   3.125   0.364
10728TIP3    H132141   1.776   3.128   0.331
10728TIP3    H232142   1.660   3.217   0.372
10729TIP3   OH232143   2.608   3.188   0.747
10729TIP3    H132144   2.571   3.184   0.659
10729TIP3    H232145   2.621   3.096   0.771
10730TIP3   OH232146   1.178   1.369   2.983
10730TIP3    H132147   1.264   1.355   2.944
10730TIP3    H232148   1.127   1.292   2.958
10731TIP3   OH232149   6.370   4.828   6.260
10731TIP3    H132150   6.398   4.842   6.169
10731TIP3    H232151   6.379   4.734   6.273
10732TIP3   OH232152   1.511   1.071   1.863
10732TIP3    H132153   1.542   1.026   1.941
10732TIP3    H232154   1.549   1.159   1.870
10733TIP3   OH232155   2.465   0.136   3.048
10733TIP3    H132156   2.424   0.073   3.107
10733TIP3    H232157   2.553   0.148   3.084
10734TIP3   OH232158   2.982   1.236   1.917
10734TIP3    H132159   3.030   1.309   1.878
10734TIP3    H232160   3.009   1.159   1.866
10735TIP3   OH232161   7.806   6.984   4.773
10735TIP3    H132162   7.846   6.984   4.860
10735TIP3    H232163   7.845   7.059   4.728
10736TIP3   OH232164   4.511   0.739   5.166
10736TIP3    H132165   4.536   0.785   5.086
10736TIP3    H232166   4.486   0.652   5.136
10737TIP3   OH232167   5.251   6.136   3.718
10737TIP3    H132168   5.239   6.042   3.703
10737TIP3    H232169   5.339   6.144   3.754
10738TIP3   OH232170   6.319   3.226   6.026
10738TIP3    H132171   6.308   3.144   6.075
10738TIP3    H232172   6.248   3.282   6.056
10739TIP3   OH232173   0.449   3.569   6.508
10739TIP3    H132174   0.430   3.507   6.438
10739TIP3    H232175   0.545   3.568   6.515
10740TIP3   OH232176   5.770   6.724   6.700
10740TIP3    H132177   5.690   6.750   6.657
10740TIP3    H232178   5.759   6.630   6.718
10741TIP3   OH232179   2.995   7.338   3.400
10741TIP3    H132180   3.047   7.356   3.321
10741TIP3    H232181   2.905   7.354   3.373
10742TIP3   OH232182   0.021   3.995   0.269
10742TIP3    H132183   0.062   3.909   0.277
10742TIP3    H232184   0.094   4.057   0.265
10743TIP3   OH232185   0.807   3.244   0.265
10743TIP3    H132186   0.820   3.286   0.180
10743TIP3    H232187   0.759   3.309   0.316
10744TIP3   OH232188   4.155   6.064   0.405
10744TIP3    H132189   4.233   6.027   0.363
10744TIP3    H232190   4.139   6.146   0.358
10745TIP3   OH232191   1.595   0.063   5.752
10745TIP3    H132192   1.670   0.074   5.811
10745TIP3    H232193   1.623   0.105   5.670
10746TIP3   OH232194   8.083   2.025   5.411
10746TIP3    H132195   8.107   2.114   5.438
10746TIP3    H232196   7.990   2.018   5.435
10747TIP3   OH232197   7.692   3.893   2.265
10747TIP3    H132198   7.732   3.932   2.188
10747TIP3    H232199   7.599   3.883   2.241
10748TIP3   OH232200   3.778   5.975   1.474
10748TIP3    H132201   3.799   5.907   1.410
10748TIP3    H232202   3.717   6.033   1.429
10749TIP3   OH232203   6.963   2.769   4.857
10749TIP3    H132204   7.054   2.744   4.874
10749TIP3    H232205   6.968   2.862   4.834
10750TIP3   OH232206   2.955   4.723   2.753
10750TIP3    H132207   2.890   4.653   2.748
10750TIP3    H232208   3.008   4.712   2.675
10751TIP3   OH232209   2.704   2.520   2.134
10751TIP3    H132210   2.747   2.447   2.180
10751TIP3    H232211   2.734   2.513   2.044
10752TIP3   OH232212   5.237   7.534   0.487
10752TIP3    H132213   5.280   7.449   0.502
10752TIP3    H232214   5.288   7.596   0.539
10753TIP3   OH232215   0.273   7.140   3.017
10753TIP3    H132216   0.305   7.050   3.017
10753TIP3    H232217   0.339   7.189   3.066
10754TIP3   OH232218   0.892   6.067   2.048
10754TIP3    H132219   0.817   6.126   2.033
10754TIP3    H232220   0.956   6.121   2.093
10755TIP3   OH232221   3.425   3.706   6.781
10755TIP3    H132222   3.475   3.625   6.788
10755TIP3    H232223   3.373   3.695   6.701
10756TIP3   OH232224   6.467   1.886   4.007
10756TIP3    H132225   6.446   1.802   3.966
10756TIP3    H232226   6.560   1.880   4.028
10757TIP3   OH232227   0.003   7.734   2.103
10757TIP3    H132228   0.085   7.687   2.091
10757TIP3    H232229  -0.046   7.681   2.166
10758TIP3   OH232230   5.228   6.736   0.555
10758TIP3    H132231   5.310   6.709   0.596
10758TIP3    H232232   5.214   6.673   0.484
10759TIP3   OH232233   6.670   4.171   6.175
10759TIP3    H132234   6.755   4.214   6.175
10759TIP3    H232235   6.654   4.151   6.268
10760TIP3   OH232236   6.376   5.147   5.879
10760TIP3    H132237   6.417   5.072   5.835
10760TIP3    H232238   6.368   5.119   5.971
10761TIP3   OH232239   1.281   6.115   5.735
10761TIP3    H132240   1.325   6.121   5.650
10761TIP3    H232241   1.284   6.022   5.757
10762TIP3   OH232242   1.955   4.914   3.145
10762TIP3    H132243   1.987   5.005   3.137
10762TIP3    H232244   1.954   4.881   3.055
10763TIP3   OH232245   5.289   6.297   5.230
10763TIP3    H132246   5.361   6.259   5.179
10763TIP3    H232247   5.211   6.251   5.198
10764TIP3   OH232248   0.741   3.095   3.728
10764TIP3    H132249   0.788   3.037   3.788
10764TIP3    H232250   0.782   3.180   3.739
10765TIP3   OH232251   5.479   4.088   2.965
10765TIP3    H132252   5.549   4.061   2.906
10765TIP3    H232253   5.520   4.087   3.052
10766TIP3   OH232254   0.727   2.570   0.910
10766TIP3    H132255   0.660   2.626   0.870
10766TIP3    H232256   0.731   2.494   0.853
10767TIP3   OH232257   4.614   7.092   0.770
10767TIP3    H132258   4.699   7.059   0.739
10767TIP3    H232259   4.633   7.127   0.857
10768TIP3   OH232260   3.341   4.214   1.653
10768TIP3    H132261   3.288   4.259   1.588
10768TIP3    H232262   3.396   4.155   1.602
10769TIP3   OH232263   1.982   1.162   1.229
10769TIP3    H132264   2.003   1.178   1.137
10769TIP3    H232265   2.056   1.110   1.262
10770TIP3   OH232266   0.790   7.262   4.355
10770TIP3    H132267   0.878   7.292   4.332
10770TIP3    H232268   0.759   7.219   4.276
10771TIP3   OH232269   2.834   0.180   5.441
10771TIP3    H132270   2.740   0.168   5.427
10771TIP3    H232271   2.842   0.194   5.535
10772TIP3   OH232272   6.693   5.003   2.866
10772TIP3    H132273   6.602   5.012   2.894
10772TIP3    H232274   6.706   5.074   2.804
10773TIP3   OH232275   7.342   2.024   0.168
10773TIP3    H132276   7.271   2.008   0.106
10773TIP3    H232277   7.390   2.099   0.131
10774TIP3   OH232278   5.501   3.584   3.355
10774TIP3    H132279   5.522   3.674   3.334
10774TIP3    H232280   5.478   3.586   3.448
10775TIP3   OH232281   1.628   7.048   4.137
10775TIP3    H132282   1.708   7.088   4.173
10775TIP3    H232283   1.657   7.007   4.055
10776TIP3   OH232284   2.291   0.168   2.506
10776TIP3    H132285   2.323   0.245   2.553
10776TIP3    H232286   2.371   0.123   2.477
10777TIP3   OH232287   7.155   2.635   1.553
10777TIP3    H132288   7.195   2.675   1.476
10777TIP3    H232289   7.147   2.542   1.530
10778TIP3   OH232290   3.223   7.632   6.341
10778TIP3    H132291   3.190   7.649   6.429
10778TIP3    H232292   3.249   7.718   6.308
10779TIP3   OH232293   6.604   2.061   1.128
10779TIP3    H132294   6.519   2.060   1.085
10779TIP3    H232295   6.610   1.976   1.171
10780TIP3   OH232296   5.272   0.069   5.018
10780TIP3    H132297   5.312  -0.001   5.070
10780TIP3    H232298   5.232   0.127   5.084
10781TIP3   OH232299   0.959   7.440   2.012
10781TIP3    H132300   0.924   7.400   1.932
10781TIP3    H232301   0.948   7.372   2.079
10782TIP3   OH232302   7.120   4.901   4.298
10782TIP3    H132303   7.029   4.874   4.285
10782TIP3    H232304   7.115   4.996   4.307
10783TIP3   OH232305   0.265   0.269   5.032
10783TIP3    H132306   0.306   0.299   4.951
10783TIP3    H232307   0.338   0.239   5.086
10784TIP3   OH232308   5.329   6.519   5.362
10784TIP3    H132309   5.277   6.515   5.442
10784TIP3    H232310   5.307   6.439   5.315
10785TIP3   OH232311   7.893   1.287   0.575
10785TIP3    H132312   7.905   1.360   0.513
10785TIP3    H232313   7.978   1.278   0.618
10786TIP3   OH232314   5.196   7.669   0.234
10786TIP3    H132315   5.284   7.689   0.202
10786TIP3    H232316   5.209   7.619   0.314
10787TIP3   OH232317   0.420   7.425   2.614
10787TIP3    H132318   0.410   7.350   2.672
10787TIP3    H232319   0.421   7.388   2.526
10788TIP3   OH232320   4.082   5.708   3.420
10788TIP3    H132321   4.177   5.720   3.419
10788TIP3    H232322   4.069   5.617   3.446
10789TIP3   OH232323   5.300   4.815   0.199
10789TIP3    H132324   5.386   4.803   0.239
10789TIP3    H232325   5.271   4.726   0.177
10790TIP3   OH232326   4.849   5.519   3.596
10790TIP3    H132327   4.928   5.502   3.647
10790TIP3    H232328   4.777   5.509   3.659
10791TIP3   OH232329   0.877   1.386   3.850
10791TIP3    H132330   0.971   1.383   3.830
10791TIP3    H232331   0.867   1.466   3.903
10792TIP3   OH232332   7.188   6.587   4.923
10792TIP3    H132333   7.094   6.579   4.909
10792TIP3    H232334   7.201   6.567   5.016
10793TIP3   OH232335   2.259   0.431   4.948
10793TIP3    H132336   2.269   0.446   4.854
10793TIP3    H232337   2.324   0.364   4.969
10794TIP3   OH232338   6.913   0.850   4.129
10794TIP3    H132339   6.897   0.829   4.038
10794TIP3    H232340   6.952   0.771   4.166
10795TIP3   OH232341   3.229   7.750   2.185
10795TIP3    H132342   3.228   7.836   2.142
10795TIP3    H232343   3.138   7.720   2.180
10796TIP3   OH232344   7.457   6.479   5.161
10796TIP3    H132345   7.470   6.423   5.085
10796TIP3    H232346   7.362   6.485   5.171
10797TIP3   OH232347   2.560   0.813   2.294
10797TIP3    H132348   2.582   0.753   2.222
10797TIP3    H232349   2.488   0.866   2.259
10798TIP3   OH232350   7.027   1.843   2.568
10798TIP3    H132351   7.077   1.852   2.487
10798TIP3    H232352   6.950   1.898   2.555
10799TIP3   OH232353   4.676   2.853   4.738
10799TIP3    H132354   4.670   2.817   4.650
10799TIP3    H232355   4.617   2.800   4.791
10800TIP3   OH232356   2.589   2.105  -0.006
10800TIP3    H132357   2.560   2.049   0.066
10800TIP3    H232358   2.517   2.101  -0.069
10801TIP3   OH232359   6.921   0.187   5.072
10801TIP3    H132360   6.966   0.270   5.090
10801TIP3    H232361   6.932   0.136   5.152
10802TIP3   OH232362   0.973   6.809   5.689
10802TIP3    H132363   1.055   6.779   5.728
10802TIP3    H232364   0.937   6.871   5.752
10803TIP3   OH232365   2.917   4.967   3.428
10803TIP3    H132366   2.832   4.965   3.471
10803TIP3    H232367   2.958   5.049   3.457
10804TIP3   OH232368   3.653   2.143   2.794
10804TIP3    H132369   3.605   2.062   2.813
10804TIP3    H232370   3.593   2.213   2.822
10805TIP3   OH232371   2.776   3.717   2.667
10805TIP3    H132372   2.761   3.780   2.738
10805TIP3    H232373   2.856   3.748   2.624
10806TIP3   OH232374   7.058   6.953   1.678
10806TIP3    H132375   7.044   6.864   1.644
10806TIP3    H232376   6.977   6.999   1.659
10807TIP3   OH232377   4.915   2.966   3.392
10807TIP3    H132378   4.989   2.916   3.426
10807TIP3    H232379   4.897   2.927   3.307
10808TIP3   OH232380   4.091   2.989   0.759
10808TIP3    H132381   4.094   2.920   0.825
10808TIP3    H232382   4.017   2.965   0.703
10809TIP3   OH232383   0.843   2.906   3.891
10809TIP3    H132384   0.752   2.886   3.915
10809TIP3    H232385   0.873   2.828   3.844
10810TIP3   OH232386   0.605   6.911   1.504
10810TIP3    H132387   0.512   6.899   1.520
10810TIP3    H232388   0.615   7.004   1.484
10811TIP3   OH232389   6.808   2.300   6.358
10811TIP3    H132390   6.748   2.374   6.356
10811TIP3    H232391   6.799   2.259   6.272
10812TIP3   OH232392   7.969   7.716   3.908
10812TIP3    H132393   7.962   7.700   3.814
10812TIP3    H232394   7.958   7.629   3.947
10813TIP3   OH232395   7.508   2.765   0.652
10813TIP3    H132396   7.514   2.786   0.559
10813TIP3    H232397   7.581   2.704   0.667
10814TIP3   OH232398   1.467   4.194   1.913
10814TIP3    H132399   1.480   4.218   2.004
10814TIP3    H232400   1.373   4.173   1.906
10815TIP3   OH232401   2.157   7.627   2.450
10815TIP3    H132402   2.162   7.626   2.545
10815TIP3    H232403   2.084   7.569   2.429
10816TIP3   OH232404   4.936   0.832   2.670
10816TIP3    H132405   4.897   0.769   2.730
10816TIP3    H232406   5.004   0.782   2.624
10817TIP3   OH232407   2.273   5.363   1.816
10817TIP3    H132408   2.246   5.329   1.901
10817TIP3    H232409   2.367   5.380   1.826
10818TIP3   OH232410   7.035   0.302   0.936
10818TIP3    H132411   7.062   0.217   0.971
10818TIP3    H232412   7.091   0.316   0.860
10819TIP3   OH232413   4.171   7.665   4.981
10819TIP3    H132414   4.112   7.593   5.003
10819TIP3    H232415   4.136   7.700   4.899
10820TIP3   OH232416   7.103   2.865   3.816
10820TIP3    H132417   7.021   2.815   3.822
10820TIP3    H232418   7.078   2.946   3.770
10821TIP3   OH232419   4.874   1.158   3.619
10821TIP3    H132420   4.964   1.159   3.651
10821TIP3    H232421   4.834   1.082   3.662
10822TIP3   OH232422   1.369   4.261   1.180
10822TIP3    H132423   1.287   4.309   1.170
10822TIP3    H232424   1.342   4.171   1.199
10823TIP3   OH232425   1.302   0.341   1.967
10823TIP3    H132426   1.316   0.389   2.049
10823TIP3    H232427   1.316   0.406   1.898
10824TIP3   OH232428   4.136   4.946   3.020
10824TIP3    H132429   4.140   5.003   2.943
10824TIP3    H232430   4.092   4.866   2.989
10825TIP3   OH232431   7.258   2.547   0.673
10825TIP3    H132432   7.311   2.551   0.752
10825TIP3    H232433   7.170   2.571   0.703
10826TIP3   OH232434   1.760   5.827   3.633
10826TIP3    H132435   1.851   5.838   3.605
10826TIP3    H232436   1.716   5.907   3.605
10827TIP3   OH232437   5.520   2.448   5.279
10827TIP3    H132438   5.558   2.370   5.238
10827TIP3    H232439   5.584   2.474   5.345
10828TIP3   OH232440   0.820   7.031   0.703
10828TIP3    H132441   0.885   7.088   0.661
10828TIP3    H232442   0.739   7.048   0.655
10829TIP3   OH232443   0.682   0.788   1.292
10829TIP3    H132444   0.601   0.780   1.242
10829TIP3    H232445   0.751   0.765   1.229
10830TIP3   OH232446   3.674   1.690   5.198
10830TIP3    H132447   3.639   1.622   5.141
10830TIP3    H232448   3.597   1.741   5.224
10831TIP3   OH232449   4.529   7.535   2.044
10831TIP3    H132450   4.557   7.468   1.981
10831TIP3    H232451   4.441   7.509   2.069
10832TIP3   OH232452   6.182   1.804   1.745
10832TIP3    H132453   6.208   1.819   1.835
10832TIP3    H232454   6.261   1.821   1.694
10833TIP3   OH232455   0.518   7.755   2.298
10833TIP3    H132456   0.551   7.719   2.381
10833TIP3    H232457   0.431   7.715   2.288
10834TIP3   OH232458   0.055   0.845   2.387
10834TIP3    H132459   0.065   0.769   2.331
10834TIP3    H232460  -0.032   0.835   2.426
10835TIP3   OH232461   5.415   5.072   6.723
10835TIP3    H132462   5.406   5.078   6.628
10835TIP3    H232463   5.332   5.033   6.752
10836TIP3   OH232464   2.668   5.574   1.865
10836TIP3    H132465   2.622   5.631   1.804
10836TIP3    H232466   2.626   5.489   1.855
10837TIP3   OH232467   3.979   3.139   4.120
10837TIP3    H132468   4.062   3.185   4.136
10837TIP3    H232469   3.919   3.207   4.089
10838TIP3   OH232470   7.991   1.711   3.041
10838TIP3    H132471   7.943   1.777   3.091
10838TIP3    H232472   8.000   1.749   2.954
10839TIP3   OH232473   0.409   1.012   0.297
10839TIP3    H132474   0.447   1.100   0.304
10839TIP3    H232475   0.483   0.956   0.274
10840TIP3   OH232476   1.842   5.079   0.984
10840TIP3    H132477   1.874   5.070   0.894
10840TIP3    H232478   1.910   5.129   1.029
10841TIP3   OH232479   4.767   2.804   5.903
10841TIP3    H132480   4.713   2.834   5.976
10841TIP3    H232481   4.801   2.884   5.863
10842TIP3   OH232482   3.926   3.249   5.554
10842TIP3    H132483   3.914   3.155   5.550
10842TIP3    H232484   3.851   3.281   5.604
10843TIP3   OH232485   7.483   1.706   4.463
10843TIP3    H132486   7.414   1.767   4.490
10843TIP3    H232487   7.467   1.692   4.370
10844TIP3   OH232488   2.807   5.350   4.862
10844TIP3    H132489   2.770   5.262   4.869
10844TIP3    H232490   2.777   5.396   4.941
10845TIP3   OH232491   5.997   3.263   2.813
10845TIP3    H132492   5.945   3.344   2.810
10845TIP3    H232493   5.952   3.209   2.877
10846TIP3   OH232494   6.785   4.215   2.509
10846TIP3    H132495   6.874   4.187   2.531
10846TIP3    H232496   6.752   4.146   2.451
10847TIP3   OH232497   6.348   6.350   2.381
10847TIP3    H132498   6.263   6.392   2.393
10847TIP3    H232499   6.411   6.411   2.420
10848TIP3   OH232500   4.334   6.738   2.443
10848TIP3    H132501   4.402   6.720   2.507
10848TIP3    H232502   4.317   6.654   2.401
10849TIP3   OH232503   1.223   4.977   4.825
10849TIP3    H132504   1.282   5.047   4.797
10849TIP3    H232505   1.279   4.901   4.835
10850TIP3   OH232506   1.717   5.184   4.487
10850TIP3    H132507   1.734   5.209   4.578
10850TIP3    H232508   1.713   5.267   4.440
10851TIP3   OH232509   1.772   4.394   2.101
10851TIP3    H132510   1.738   4.471   2.146
10851TIP3    H232511   1.727   4.320   2.143
10852TIP3   OH232512   2.719   0.217   1.988
10852TIP3    H132513   2.701   0.282   1.920
10852TIP3    H232514   2.746   0.269   2.064
10853TIP3   OH232515   8.112   6.708   5.909
10853TIP3    H132516   8.054   6.776   5.942
10853TIP3    H232517   8.200   6.739   5.930
10854TIP3   OH232518   1.067   1.096   4.519
10854TIP3    H132519   1.092   1.188   4.513
10854TIP3    H232520   1.144   1.048   4.488
10855TIP3   OH232521   6.186   4.894   1.758
10855TIP3    H132522   6.223   4.826   1.813
10855TIP3    H232523   6.224   4.975   1.791
10856TIP3   OH232524   5.175   4.077   4.649
10856TIP3    H132525   5.150   3.988   4.626
10856TIP3    H232526   5.098   4.130   4.629
10857TIP3   OH232527   7.606   6.251   3.380
10857TIP3    H132528   7.603   6.321   3.315
10857TIP3    H232529   7.699   6.232   3.391
10858TIP3   OH232530   7.007   1.605   0.390
10858TIP3    H132531   6.925   1.641   0.423
10858TIP3    H232532   7.050   1.679   0.347
10859TIP3   OH232533   1.448   3.897   4.469
10859TIP3    H132534   1.509   3.830   4.440
10859TIP3    H232535   1.363   3.852   4.471
10860TIP3   OH232536   1.874   2.939   6.333
10860TIP3    H132537   1.871   2.899   6.420
10860TIP3    H232538   1.791   2.988   6.326
10861TIP3   OH232539   1.250   4.725   1.757
10861TIP3    H132540   1.229   4.791   1.692
10861TIP3    H232541   1.209   4.756   1.838
10862TIP3   OH232542   0.765   1.198   0.140
10862TIP3    H132543   0.793   1.288   0.124
10862TIP3    H232544   0.773   1.187   0.235
10863TIP3   OH232545   4.197   3.314   2.683
10863TIP3    H132546   4.213   3.222   2.663
10863TIP3    H232547   4.101   3.321   2.686
10864TIP3   OH232548   4.175   1.481   6.485
10864TIP3    H132549   4.252   1.481   6.428
10864TIP3    H232550   4.211   1.466   6.573
10865TIP3   OH232551   1.657   7.202   4.830
10865TIP3    H132552   1.671   7.113   4.796
10865TIP3    H232553   1.574   7.230   4.792
10866TIP3   OH232554   1.236   0.375   4.716
10866TIP3    H132555   1.258   0.413   4.801
10866TIP3    H232556   1.161   0.426   4.685
10867TIP3   OH232557   6.643   4.936   6.636
10867TIP3    H132558   6.622   4.945   6.729
10867TIP3    H232559   6.559   4.927   6.593
10868TIP3   OH232560   4.565   4.735   2.863
10868TIP3    H132561   4.493   4.704   2.809
10868TIP3    H232562   4.524   4.790   2.930
10869TIP3   OH232563   6.122   7.624   2.412
10869TIP3    H132564   6.141   7.658   2.499
10869TIP3    H232565   6.026   7.615   2.410
10870TIP3   OH232566   8.201   0.696   6.610
10870TIP3    H132567   8.284   0.713   6.655
10870TIP3    H232568   8.139   0.678   6.681
10871TIP3   OH232569   3.223   2.775   3.514
10871TIP3    H132570   3.214   2.680   3.528
10871TIP3    H232571   3.317   2.789   3.506
10872TIP3   OH232572   4.452   7.347   4.143
10872TIP3    H132573   4.515   7.307   4.202
10872TIP3    H232574   4.377   7.370   4.198
10873TIP3   OH232575   4.070   4.923   0.804
10873TIP3    H132576   4.124   4.997   0.831
10873TIP3    H232577   4.112   4.892   0.723
10874TIP3   OH232578   2.648   3.415   1.383
10874TIP3    H132579   2.724   3.421   1.326
10874TIP3    H232580   2.575   3.447   1.330
10875TIP3   OH232581   2.036   0.914   4.079
10875TIP3    H132582   2.100   0.938   4.146
10875TIP3    H232583   1.988   0.840   4.117
10876TIP3   OH232584   2.806   4.688   2.488
10876TIP3    H132585   2.779   4.628   2.418
10876TIP3    H232586   2.902   4.688   2.483
10877TIP3   OH232587   4.043   4.443   4.149
10877TIP3    H132588   4.056   4.523   4.098
10877TIP3    H232589   4.103   4.379   4.110
10878TIP3   OH232590   5.651   4.496   5.310
10878TIP3    H132591   5.633   4.408   5.344
10878TIP3    H232592   5.722   4.529   5.365
10879TIP3   OH232593   7.597   5.059   1.806
10879TIP3    H132594   7.562   5.146   1.823
10879TIP3    H232595   7.675   5.053   1.861
10880TIP3   OH232596   7.255   6.656   2.930
10880TIP3    H132597   7.185   6.718   2.950
10880TIP3    H232598   7.335   6.699   2.961
10881TIP3   OH232599   6.266   0.944   6.348
10881TIP3    H132600   6.338   0.918   6.290
10881TIP3    H232601   6.279   0.891   6.427
10882TIP3   OH232602   8.028   5.154   1.443
10882TIP3    H132603   7.979   5.170   1.363
10882TIP3    H232604   7.994   5.219   1.505
10883TIP3   OH232605   5.772   3.390   3.883
10883TIP3    H132606   5.696   3.342   3.915
10883TIP3    H232607   5.738   3.476   3.859
10884TIP3   OH232608   6.833   1.289   0.588
10884TIP3    H132609   6.791   1.323   0.509
10884TIP3    H232610   6.912   1.342   0.597
10885TIP3   OH232611   1.318   3.633   1.775
10885TIP3    H132612   1.320   3.697   1.846
10885TIP3    H232613   1.225   3.623   1.754
10886TIP3   OH232614   6.423   3.946   3.570
10886TIP3    H132615   6.329   3.938   3.553
10886TIP3    H232616   6.429   3.971   3.662
10887TIP3   OH232617   0.939   3.783   1.154
10887TIP3    H132618   0.979   3.847   1.095
10887TIP3    H232619   0.864   3.830   1.192
10888TIP3   OH232620   7.276   4.023   4.537
10888TIP3    H132621   7.271   3.957   4.606
10888TIP3    H232622   7.188   4.027   4.501
10889TIP3   OH232623   7.476   0.871   0.578
10889TIP3    H132624   7.393   0.882   0.623
10889TIP3    H232625   7.458   0.897   0.488
10890TIP3   OH232626   4.036   2.467   0.668
10890TIP3    H132627   4.106   2.481   0.732
10890TIP3    H232628   4.053   2.380   0.633
10891TIP3   OH232629   4.728   0.925   3.442
10891TIP3    H132630   4.763   0.929   3.530
10891TIP3    H232631   4.636   0.902   3.453
10892TIP3   OH232632   0.644   1.032   2.590
10892TIP3    H132633   0.568   0.975   2.578
10892TIP3    H232634   0.684   1.038   2.503
10893TIP3   OH232635   7.145   1.569   3.816
10893TIP3    H132636   7.225   1.543   3.771
10893TIP3    H232637   7.142   1.513   3.893
10894TIP3   OH232638   0.597   7.616   0.610
10894TIP3    H132639   0.672   7.646   0.660
10894TIP3    H232640   0.596   7.672   0.532
10895TIP3   OH232641   5.514   3.578   1.863
10895TIP3    H132642   5.604   3.609   1.857
10895TIP3    H232643   5.521   3.489   1.898
10896TIP3   OH232644   7.518   6.027   2.567
10896TIP3    H132645   7.590   6.086   2.590
10896TIP3    H232646   7.449   6.084   2.534
10897TIP3   OH232647   5.708   3.539   4.581
10897TIP3    H132648   5.614   3.555   4.572
10897TIP3    H232649   5.737   3.515   4.493
10898TIP3   OH232650   2.345   7.153   4.866
10898TIP3    H132651   2.278   7.137   4.799
10898TIP3    H232652   2.309   7.116   4.946
10899TIP3   OH232653   1.922   5.351   2.401
10899TIP3    H132654   1.975   5.333   2.323
10899TIP3    H232655   1.878   5.268   2.419
10900TIP3   OH232656   5.101   0.739   4.382
10900TIP3    H132657   5.073   0.669   4.323
10900TIP3    H232658   5.018   0.777   4.414
10901TIP3   OH232659   7.870   0.159   3.487
10901TIP3    H132660   7.838   0.187   3.402
10901TIP3    H232661   7.936   0.223   3.511
10902TIP3   OH232662   0.936   5.011   5.953
10902TIP3    H132663   1.029   5.014   5.976
10902TIP3    H232664   0.927   4.933   5.898
10903TIP3   OH232665   7.459   0.576   5.302
10903TIP3    H132666   7.503   0.660   5.288
10903TIP3    H232667   7.493   0.545   5.387
10904TIP3   OH232668   3.655   0.737   2.045
10904TIP3    H132669   3.744   0.735   2.081
10904TIP3    H232670   3.628   0.828   2.056
10905TIP3   OH232671   0.624   2.052   2.732
10905TIP3    H132672   0.658   1.974   2.688
10905TIP3    H232673   0.542   2.023   2.771
10906TIP3   OH232674   6.357   4.768   5.391
10906TIP3    H132675   6.342   4.751   5.298
10906TIP3    H232676   6.277   4.739   5.434
10907TIP3   OH232677   4.210   1.614   5.471
10907TIP3    H132678   4.215   1.695   5.420
10907TIP3    H232679   4.123   1.617   5.511
10908TIP3   OH232680   1.375   0.205   3.770
10908TIP3    H132681   1.437   0.196   3.843
10908TIP3    H232682   1.362   0.299   3.762
10909TIP3   OH232683   3.224   1.497   1.196
10909TIP3    H132684   3.131   1.490   1.219
10909TIP3    H232685   3.267   1.432   1.253
10910TIP3   OH232686   7.633   1.126   1.102
10910TIP3    H132687   7.572   1.053   1.105
10910TIP3    H232688   7.620   1.165   1.015
10911TIP3   OH232689   2.592   0.608   0.207
10911TIP3    H132690   2.663   0.551   0.237
10911TIP3    H232691   2.550   0.559   0.137
10912TIP3   OH232692   4.814   7.639   1.700
10912TIP3    H132693   4.870   7.643   1.778
10912TIP3    H232694   4.743   7.580   1.724
10913TIP3   OH232695   7.877   3.441   5.626
10913TIP3    H132696   7.806   3.497   5.593
10913TIP3    H232697   7.841   3.400   5.704
10914TIP3   OH232698   1.103   3.009   5.866
10914TIP3    H132699   1.040   2.952   5.910
10914TIP3    H232700   1.090   3.095   5.906
10915TIP3   OH232701   6.556   5.337   5.627
10915TIP3    H132702   6.467   5.367   5.609
10915TIP3    H232703   6.559   5.326   5.722
10916TIP3   OH232704   4.652   4.062   1.448
10916TIP3    H132705   4.662   4.110   1.530
10916TIP3    H232706   4.572   4.098   1.409
10917TIP3   OH232707   6.004   2.862   0.044
10917TIP3    H132708   6.087   2.826   0.077
10917TIP3    H232709   5.975   2.921   0.113
10918TIP3   OH232710   0.281   1.121   3.611
10918TIP3    H132711   0.353   1.165   3.567
10918TIP3    H232712   0.323   1.063   3.674
10919TIP3   OH232713   0.973   2.958   3.217
10919TIP3    H132714   1.053   2.907   3.212
10919TIP3    H232715   0.936   2.954   3.128
10920TIP3   OH232716   1.096   1.367   3.249
10920TIP3    H132717   1.009   1.332   3.233
10920TIP3    H232718   1.135   1.375   3.162
10921TIP3   OH232719   3.236   4.336   1.015
10921TIP3    H132720   3.148   4.297   1.019
10921TIP3    H232721   3.288   4.284   1.076
10922TIP3   OH232722   5.822   7.021   0.717
10922TIP3    H132723   5.826   6.988   0.807
10922TIP3    H232724   5.729   7.032   0.700
10923TIP3   OH232725   1.868   6.207   0.295
10923TIP3    H132726   1.860   6.152   0.218
10923TIP3    H232727   1.924   6.158   0.354
10924TIP3   OH232728   6.461   6.219   2.101
10924TIP3    H132729   6.402   6.274   2.049
10924TIP3    H232730   6.527   6.189   2.038
10925TIP3   OH232731   7.608   5.879   6.075
10925TIP3    H132732   7.692   5.833   6.086
10925TIP3    H232733   7.629   5.956   6.022
10926TIP3   OH232734   4.991   2.731   2.165
10926TIP3    H132735   4.943   2.652   2.191
10926TIP3    H232736   4.931   2.775   2.105
10927TIP3   OH232737   5.244   1.860   5.526
10927TIP3    H132738   5.280   1.815   5.602
10927TIP3    H232739   5.321   1.897   5.482
10928TIP3   OH232740   1.766   1.240   5.924
10928TIP3    H132741   1.803   1.271   5.841
10928TIP3    H232742   1.784   1.311   5.986
10929TIP3   OH232743   7.777   0.694   2.306
10929TIP3    H132744   7.806   0.613   2.263
10929TIP3    H232745   7.760   0.755   2.233
10930TIP3   OH232746   4.239   0.014   4.376
10930TIP3    H132747   4.170   0.002   4.442
10930TIP3    H232748   4.279   0.098   4.398
10931TIP3   OH232749   7.830   7.760   3.507
10931TIP3    H132750   7.782   7.729   3.584
10931TIP3    H232751   7.762   7.775   3.441
10932TIP3   OH232752   4.633   5.769   3.846
10932TIP3    H132753   4.548   5.737   3.815
10932TIP3    H232754   4.615   5.855   3.882
10933TIP3   OH232755   2.442   4.040   3.785
10933TIP3    H132756   2.478   4.125   3.809
10933TIP3    H232757   2.517   3.991   3.750
10934TIP3   OH232758   5.946   2.642   2.501
10934TIP3    H132759   5.976   2.679   2.418
10934TIP3    H232760   5.948   2.716   2.562
10935TIP3   OH232761   2.795   0.511   2.995
10935TIP3    H132762   2.887   0.526   2.971
10935TIP3    H232763   2.799   0.442   3.062
10936TIP3   OH232764   7.091   4.986   2.423
10936TIP3    H132765   7.152   4.969   2.351
10936TIP3    H232766   7.103   4.911   2.482
10937TIP3   OH232767   6.392   0.035   5.460
10937TIP3    H132768   6.479   0.059   5.429
10937TIP3    H232769   6.404   0.013   5.552
10938TIP3   OH232770   2.017   1.181   0.966
10938TIP3    H132771   2.102   1.199   0.926
10938TIP3    H232772   1.953   1.205   0.900
10939TIP3   OH232773   0.851   2.400   1.634
10939TIP3    H132774   0.909   2.431   1.704
10939TIP3    H232775   0.851   2.305   1.644
10940TIP3   OH232776   2.387   6.249   1.676
10940TIP3    H132777   2.374   6.190   1.602
10940TIP3    H232778   2.332   6.325   1.657
10941TIP3   OH232779   0.121   5.361   2.250
10941TIP3    H132780   0.138   5.322   2.165
10941TIP3    H232781   0.207   5.361   2.293
10942TIP3   OH232782   7.447   6.324   3.812
10942TIP3    H132783   7.415   6.234   3.817
10942TIP3    H232784   7.538   6.318   3.841
10943TIP3   OH232785   0.374   3.051   0.315
10943TIP3    H132786   0.434   3.113   0.273
10943TIP3    H232787   0.290   3.097   0.318
10944TIP3   OH232788   1.214   7.534   6.386
10944TIP3    H132789   1.140   7.486   6.351
10944TIP3    H232790   1.233   7.492   6.470
10945TIP3   OH232791   4.553   4.608   1.721
10945TIP3    H132792   4.618   4.628   1.788
10945TIP3    H232793   4.571   4.670   1.651
10946TIP3   OH232794   5.537   2.944   4.401
10946TIP3    H132795   5.611   2.893   4.369
10946TIP3    H232796   5.464   2.918   4.345
10947TIP3   OH232797   1.168   7.627   1.895
10947TIP3    H132798   1.210   7.606   1.978
10947TIP3    H232799   1.116   7.549   1.873
10948TIP3   OH232800   7.672   5.281   2.537
10948TIP3    H132801   7.693   5.194   2.502
10948TIP3    H232802   7.693   5.276   2.630
10949TIP3   OH232803   4.301   5.671   0.001
10949TIP3    H132804   4.273   5.757  -0.030
10949TIP3    H232805   4.374   5.690   0.061
10950TIP3   OH232806   4.392   7.788   6.040
10950TIP3    H132807   4.437   7.729   5.979
10950TIP3    H232808   4.368   7.732   6.114
10951TIP3   OH232809   4.804   7.773   4.965
10951TIP3    H132810   4.758   7.771   5.049
10951TIP3    H232811   4.815   7.681   4.941
10952TIP3   OH232812   0.251   6.769   1.102
10952TIP3    H132813   0.203   6.839   1.147
10952TIP3    H232814   0.193   6.742   1.031
10953TIP3   OH232815   5.719   2.780   0.644
10953TIP3    H132816   5.774   2.828   0.706
10953TIP3    H232817   5.633   2.821   0.650
10954TIP3   OH232818   6.594   6.400   3.163
10954TIP3    H132819   6.652   6.335   3.201
10954TIP3    H232820   6.516   6.399   3.220
10955TIP3   OH232821   2.998   5.354   3.935
10955TIP3    H132822   3.012   5.443   3.901
10955TIP3    H232823   2.918   5.361   3.987
10956TIP3   OH232824   1.013   3.350   5.751
10956TIP3    H132825   1.039   3.440   5.735
10956TIP3    H232826   1.064   3.299   5.688
10957TIP3   OH232827   5.754   1.358   0.401
10957TIP3    H132828   5.846   1.370   0.377
10957TIP3    H232829   5.755   1.289   0.468
10958TIP3   OH232830   3.106   6.238   2.033
10958TIP3    H132831   3.016   6.237   2.067
10958TIP3    H232832   3.161   6.242   2.111
10959TIP3   OH232833   3.267   4.447   2.821
10959TIP3    H132834   3.273   4.520   2.882
10959TIP3    H232835   3.242   4.372   2.876
10960TIP3   OH232836   4.327   7.624   4.280
10960TIP3    H132837   4.415   7.632   4.243
10960TIP3    H232838   4.269   7.628   4.204
10961TIP3   OH232839   4.454   6.961   4.203
10961TIP3    H132840   4.544   6.969   4.174
10961TIP3    H232841   4.446   7.023   4.275
10962TIP3   OH232842   8.155   0.125   3.222
10962TIP3    H132843   8.209   0.123   3.302
10962TIP3    H232844   8.190   0.055   3.168
10963TIP3   OH232845   2.625   1.550   0.816
10963TIP3    H132846   2.557   1.483   0.826
10963TIP3    H232847   2.584   1.630   0.848
10964TIP3   OH232848   3.926   6.770   5.464
10964TIP3    H132849   3.969   6.704   5.518
10964TIP3    H232850   3.974   6.769   5.381
10965TIP3   OH232851   5.076   5.507   5.260
10965TIP3    H132852   5.088   5.590   5.307
10965TIP3    H232853   5.155   5.499   5.206
10966TIP3   OH232854   0.267   5.782   3.668
10966TIP3    H132855   0.342   5.724   3.680
10966TIP3    H232856   0.305   5.869   3.657
10967TIP3   OH232857   8.224   3.388   1.829
10967TIP3    H132858   8.177   3.305   1.840
10967TIP3    H232859   8.164   3.444   1.780
10968TIP3   OH232860   1.284   3.973   6.103
10968TIP3    H132861   1.226   4.016   6.166
10968TIP3    H232862   1.287   4.033   6.029
10969TIP3   OH232863   7.221   3.541   0.046
10969TIP3    H132864   7.127   3.528   0.055
10969TIP3    H232865   7.229   3.607  -0.023
10970TIP3   OH232866   4.736   7.464   6.053
10970TIP3    H132867   4.744   7.552   6.016
10970TIP3    H232868   4.762   7.405   5.982
10971TIP3   OH232869   2.588   7.343   1.368
10971TIP3    H132870   2.606   7.419   1.312
10971TIP3    H232871   2.510   7.303   1.330
10972TIP3   OH232872   2.851   7.582   5.093
10972TIP3    H132873   2.869   7.675   5.107
10972TIP3    H232874   2.914   7.556   5.026
10973TIP3   OH232875   5.466   3.401   4.365
10973TIP3    H132876   5.419   3.484   4.376
10973TIP3    H232877   5.432   3.365   4.283
10974TIP3   OH232878   3.359   7.020   6.729
10974TIP3    H132879   3.432   6.971   6.766
10974TIP3    H232880   3.337   7.085   6.796
10975TIP3   OH232881   6.530   6.409   6.105
10975TIP3    H132882   6.598   6.468   6.136
10975TIP3    H232883   6.461   6.416   6.171
10976TIP3   OH232884   2.240   5.329   2.948
10976TIP3    H132885   2.302   5.260   2.922
10976TIP3    H232886   2.257   5.401   2.886
10977TIP3   OH232887   0.455   4.725   3.375
10977TIP3    H132888   0.418   4.813   3.366
10977TIP3    H232889   0.548   4.737   3.355
10978TIP3   OH232890   2.451   2.508   6.079
10978TIP3    H132891   2.463   2.478   6.169
10978TIP3    H232892   2.400   2.589   6.088
10979TIP3   OH232893   4.867   6.819   2.617
10979TIP3    H132894   4.899   6.898   2.660
10979TIP3    H232895   4.818   6.851   2.541
10980TIP3   OH232896   4.437   1.140   2.029
10980TIP3    H132897   4.358   1.193   2.017
10980TIP3    H232898   4.432   1.110   2.120
10981TIP3   OH232899   2.643   1.017   2.052
10981TIP3    H132900   2.669   1.020   1.960
10981TIP3    H232901   2.721   0.984   2.098
10982TIP3   OH232902   7.165   5.423   0.434
10982TIP3    H132903   7.173   5.434   0.340
10982TIP3    H232904   7.247   5.380   0.460
10983TIP3   OH232905   6.696   0.628   5.612
10983TIP3    H132906   6.730   0.594   5.695
10983TIP3    H232907   6.729   0.567   5.546
10984TIP3   OH232908   4.600   3.306   5.949
10984TIP3    H132909   4.647   3.361   6.012
10984TIP3    H232910   4.533   3.262   6.001
10985TIP3   OH232911   4.730   3.822   5.659
10985TIP3    H132912   4.803   3.884   5.656
10985TIP3    H232913   4.702   3.822   5.751
10986TIP3   OH232914   3.990   5.679   5.807
10986TIP3    H132915   3.963   5.630   5.730
10986TIP3    H232916   3.940   5.642   5.880
10987TIP3   OH232917   6.093   7.117   6.751
10987TIP3    H132918   6.135   7.202   6.736
10987TIP3    H232919   6.094   7.075   6.665
10988TIP3   OH232920   1.615   3.187   6.407
10988TIP3    H132921   1.586   3.278   6.397
10988TIP3    H232922   1.593   3.146   6.323
10989TIP3   OH232923   6.597   6.972   4.894
10989TIP3    H132924   6.672   7.026   4.920
10989TIP3    H232925   6.632   6.883   4.892
10990TIP3   OH232926   1.796   4.928   1.966
10990TIP3    H132927   1.841   4.948   1.884
10990TIP3    H232928   1.769   4.837   1.958
10991TIP3   OH232929   6.189   4.955   5.166
10991TIP3    H132930   6.166   5.030   5.221
10991TIP3    H232931   6.273   4.978   5.127
10992TIP3   OH232932   4.388   2.426   3.589
10992TIP3    H132933   4.360   2.343   3.628
10992TIP3    H232934   4.483   2.422   3.588
10993TIP3   OH232935   2.157   6.631   0.243
10993TIP3    H132936   2.102   6.559   0.274
10993TIP3    H232937   2.118   6.710   0.282
10994TIP3   OH232938   6.306   3.433   5.748
10994TIP3    H132939   6.367   3.390   5.688
10994TIP3    H232940   6.311   3.381   5.829
10995TIP3   OH232941   7.695   1.042   4.008
10995TIP3    H132942   7.620   1.052   4.067
10995TIP3    H232943   7.701   0.948   3.993
10996TIP3   OH232944   7.497   0.830   4.141
10996TIP3    H132945   7.408   0.795   4.145
10996TIP3    H232946   7.536   0.806   4.225
10997TIP3   OH232947   5.016   4.503   4.923
10997TIP3    H132948   5.067   4.583   4.925
10997TIP3    H232949   4.925   4.532   4.913
10998TIP3   OH232950   6.364   4.127   3.235
10998TIP3    H132951   6.367   4.211   3.189
10998TIP3    H232952   6.397   4.064   3.171
10999TIP3   OH232953   2.104   3.362   0.141
10999TIP3    H132954   2.116   3.368   0.047
10999TIP3    H232955   2.169   3.422   0.178
11000TIP3   OH232956   4.832   2.208   0.143
11000TIP3    H132957   4.847   2.204   0.048
11000TIP3    H232958   4.909   2.167   0.182
11001TIP3   OH232959   0.314   3.856   4.537
11001TIP3    H132960   0.351   3.880   4.452
11001TIP3    H232961   0.268   3.774   4.520
11002TIP3   OH232962   3.784   7.271   2.301
11002TIP3    H132963   3.777   7.221   2.382
11002TIP3    H232964   3.733   7.350   2.316
11003TIP3   OH232965   0.681   5.925   5.260
11003TIP3    H132966   0.643   6.006   5.295
11003TIP3    H232967   0.745   5.898   5.325
11004TIP3   OH232968   6.468   4.399   1.684
11004TIP3    H132969   6.384   4.438   1.662
11004TIP3    H232970   6.527   4.430   1.615
11005TIP3   OH232971   0.568   6.931   6.130
11005TIP3    H132972   0.480   6.967   6.143
11005TIP3    H232973   0.553   6.845   6.091
11006TIP3   OH232974   0.864   0.973   4.330
11006TIP3    H132975   0.891   1.014   4.412
11006TIP3    H232976   0.854   0.880   4.353
11007TIP3   OH232977   2.472   0.735   4.797
11007TIP3    H132978   2.499   0.661   4.853
11007TIP3    H232979   2.543   0.798   4.805
11008TIP3   OH232980   0.229   7.769   6.169
11008TIP3    H132981   0.205   7.798   6.257
11008TIP3    H232982   0.255   7.677   6.181
11009TIP3   OH232983   1.821   1.784   6.399
11009TIP3    H132984   1.803   1.712   6.339
11009TIP3    H232985   1.819   1.862   6.344
11010TIP3   OH232986   2.102   0.692   5.972
11010TIP3    H132987   2.033   0.736   5.922
11010TIP3    H232988   2.094   0.728   6.060
11011TIP3   OH232989   6.509   2.374   3.806
11011TIP3    H132990   6.501   2.315   3.731
11011TIP3    H232991   6.419   2.391   3.833
11012TIP3   OH232992   4.600   5.415   5.977
11012TIP3    H132993   4.679   5.445   6.023
11012TIP3    H232994   4.632   5.346   5.918
11013TIP3   OH232995   4.750   1.306   2.814
11013TIP3    H132996   4.787   1.322   2.727
11013TIP3    H232997   4.740   1.394   2.852
11014TIP3   OH232998   1.636   5.287   2.454
11014TIP3    H132999   1.551   5.262   2.491
11014TIP3    H233000   1.627   5.381   2.435
11015TIP3   OH233001   2.358   3.596   2.796
11015TIP3    H133002   2.379   3.653   2.870
11015TIP3    H233003   2.341   3.511   2.836
11016TIP3   OH233004   0.306   6.764   0.731
11016TIP3    H133005   0.337   6.799   0.647
11016TIP3    H233006   0.236   6.703   0.708
11017TIP3   OH233007   4.620   3.874   3.621
11017TIP3    H133008   4.639   3.934   3.549
11017TIP3    H233009   4.700   3.822   3.630
11018TIP3   OH233010   3.626   0.257   4.580
11018TIP3    H133011   3.675   0.241   4.661
11018TIP3    H233012   3.679   0.323   4.533
11019TIP3   OH233013   0.933   1.558   5.504
11019TIP3    H133014   0.993   1.543   5.577
11019TIP3    H233015   0.978   1.620   5.447
11020TIP3   OH233016   1.358   3.854   1.595
11020TIP3    H133017   1.441   3.899   1.610
11020TIP3    H233018   1.372   3.765   1.628
11021TIP3   OH233019   6.835   7.235   4.559
11021TIP3    H133020   6.801   7.308   4.611
11021TIP3    H233021   6.773   7.164   4.573
11022TIP3   OH233022   5.246   0.914   2.401
11022TIP3    H133023   5.186   0.846   2.433
11022TIP3    H233024   5.284   0.951   2.480
11023TIP3   OH233025   8.017   4.635   6.769
11023TIP3    H133026   7.925   4.652   6.752
11023TIP3    H233027   8.026   4.540   6.761
11024TIP3   OH233028   6.301   4.369   4.522
11024TIP3    H133029   6.287   4.311   4.447
11024TIP3    H233030   6.385   4.343   4.558
11025TIP3   OH233031   1.171   3.623   1.190
11025TIP3    H133032   1.252   3.663   1.158
11025TIP3    H233033   1.103   3.688   1.171
11026TIP3   OH233034   3.921   7.501   2.041
11026TIP3    H133035   3.945   7.530   2.129
11026TIP3    H233036   3.892   7.411   2.053
11027TIP3   OH233037   7.990   5.974   6.098
11027TIP3    H133038   8.025   5.885   6.099
11027TIP3    H233039   8.025   6.013   6.019
11028TIP3   OH233040   0.834   6.628   0.848
11028TIP3    H133041   0.879   6.639   0.765
11028TIP3    H233042   0.827   6.716   0.884
11029TIP3   OH233043   2.506   5.644   3.019
11029TIP3    H133044   2.490   5.628   2.926
11029TIP3    H233045   2.593   5.608   3.035
11030TIP3   OH233046   4.948   0.809   1.802
11030TIP3    H133047   4.874   0.851   1.846
11030TIP3    H233048   5.009   0.881   1.784
11031TIP3   OH233049   7.070   5.115   6.443
11031TIP3    H133050   6.992   5.120   6.498
11031TIP3    H233051   7.118   5.039   6.476
11032TIP3   OH233052   6.180   5.647   3.778
11032TIP3    H133053   6.274   5.660   3.785
11032TIP3    H233054   6.144   5.688   3.856
11033TIP3   OH233055   2.662   0.841   3.849
11033TIP3    H133056   2.572   0.863   3.875
11033TIP3    H233057   2.675   0.886   3.766
11034TIP3   OH233058   7.580   2.652   2.610
11034TIP3    H133059   7.582   2.742   2.576
11034TIP3    H233060   7.641   2.653   2.683
11035TIP3   OH233061   4.354   3.272   1.969
11035TIP3    H133062   4.269   3.305   1.997
11035TIP3    H233063   4.417   3.323   2.021
11036TIP3   OH233064   4.009   7.166   3.848
11036TIP3    H133065   4.012   7.078   3.810
11036TIP3    H233066   4.066   7.161   3.925
11037TIP3   OH233067   4.523   7.310   2.593
11037TIP3    H133068   4.534   7.215   2.607
11037TIP3    H233069   4.432   7.327   2.617
11038TIP3   OH233070   6.595   0.881   5.266
11038TIP3    H133071   6.615   0.910   5.177
11038TIP3    H233072   6.681   0.875   5.309
11039TIP3   OH233073   1.210   1.371   5.402
11039TIP3    H133074   1.206   1.461   5.434
11039TIP3    H233075   1.193   1.378   5.308
11040TIP3   OH233076   3.023   5.170   2.390
11040TIP3    H133077   2.945   5.148   2.441
11040TIP3    H233078   3.048   5.088   2.348
11041TIP3   OH233079   4.940   1.662   1.130
11041TIP3    H133080   4.980   1.697   1.210
11041TIP3    H233081   4.848   1.649   1.153
11042TIP3   OH233082   8.008   0.056   5.758
11042TIP3    H133083   8.013   0.152   5.760
11042TIP3    H233084   8.076   0.030   5.696
11043TIP3   OH233085   7.413   6.826   0.269
11043TIP3    H133086   7.442   6.877   0.194
11043TIP3    H233087   7.428   6.883   0.344
11044TIP3   OH233088   5.640   5.193   5.807
11044TIP3    H133089   5.644   5.284   5.837
11044TIP3    H233090   5.727   5.158   5.826
11045TIP3   OH233091   6.925   0.839   5.161
11045TIP3    H133092   7.016   0.839   5.192
11045TIP3    H233093   6.921   0.910   5.097
11046TIP3   OH233094   6.991   1.495   5.293
11046TIP3    H133095   6.959   1.547   5.220
11046TIP3    H233096   7.083   1.519   5.302
11047TIP3   OH233097   4.164   5.570   5.339
11047TIP3    H133098   4.103   5.516   5.288
11047TIP3    H233099   4.125   5.658   5.336
11048TIP3   OH233100   0.495   7.346   4.000
11048TIP3    H133101   0.488   7.337   4.095
11048TIP3    H233102   0.409   7.319   3.966
11049TIP3   OH233103   6.023   5.199   4.927
11049TIP3    H133104   6.003   5.204   5.021
11049TIP3    H233105   6.114   5.228   4.921
11050TIP3   OH233106   7.280   5.808   5.405
11050TIP3    H133107   7.247   5.770   5.324
11050TIP3    H233108   7.277   5.736   5.469
11051TIP3   OH233109   6.212   3.309   2.656
11051TIP3    H133110   6.135   3.294   2.711
11051TIP3    H233111   6.286   3.301   2.716
11052TIP3   OH233112   2.384   4.555   3.209
11052TIP3    H133113   2.322   4.577   3.140
11052TIP3    H233114   2.356   4.469   3.241
11053TIP3   OH233115   5.264   1.839   3.442
11053TIP3    H133116   5.347   1.793   3.423
11053TIP3    H233117   5.216   1.778   3.498
11054TIP3   OH233118   7.950   7.223   4.452
11054TIP3    H133119   7.930   7.130   4.442
11054TIP3    H233120   7.968   7.234   4.545
11055TIP3   OH233121   4.799   3.333   1.912
11055TIP3    H133122   4.887   3.308   1.938
11055TIP3    H233123   4.810   3.380   1.830
11056TIP3   OH233124   1.752   0.121   0.604
11056TIP3    H133125   1.818   0.190   0.610
11056TIP3    H233126   1.685   0.146   0.667
11057TIP3   OH233127   7.835   4.939   5.955
11057TIP3    H133128   7.885   4.970   5.879
11057TIP3    H233129   7.835   4.844   5.946
11058TIP3   OH233130   1.280   6.968   5.614
11058TIP3    H133131   1.193   6.982   5.576
11058TIP3    H233132   1.336   7.033   5.572
11059TIP3   OH233133   7.951   2.964   6.157
11059TIP3    H133134   7.909   3.036   6.110
11059TIP3    H233135   7.916   2.968   6.246
11060TIP3   OH233136   2.106   6.068   0.403
11060TIP3    H133137   2.146   6.024   0.328
11060TIP3    H233138   2.133   6.159   0.393
11061TIP3   OH233139   7.925   7.234   1.581
11061TIP3    H133140   7.880   7.275   1.507
11061TIP3    H233141   7.991   7.298   1.608
11062TIP3   OH233142   3.541   0.579   0.098
11062TIP3    H133143   3.636   0.585   0.110
11062TIP3    H233144   3.526   0.612   0.009
11063TIP3   OH233145   5.800   1.450   0.004
11063TIP3    H133146   5.876   1.493  -0.035
11063TIP3    H233147   5.780   1.503   0.082
11064TIP3   OH233148   3.514   6.095   3.901
11064TIP3    H133149   3.507   6.098   3.806
11064TIP3    H233150   3.568   6.171   3.924
11065TIP3   OH233151   4.529   4.827   2.128
11065TIP3    H133152   4.625   4.834   2.131
11065TIP3    H233153   4.499   4.888   2.195
11066TIP3   OH233154   4.209   7.539   6.616
11066TIP3    H133155   4.287   7.530   6.670
11066TIP3    H233156   4.215   7.628   6.580
11067TIP3   OH233157   3.733   2.553   5.771
11067TIP3    H133158   3.690   2.489   5.713
11067TIP3    H233159   3.816   2.512   5.794
11068TIP3   OH233160   7.935   4.908   2.208
11068TIP3    H133161   7.898   4.915   2.296
11068TIP3    H233162   7.888   4.975   2.158
11069TIP3   OH233163   6.991   7.183   0.864
11069TIP3    H133164   6.964   7.224   0.946
11069TIP3    H233165   7.021   7.256   0.810
11070TIP3   OH233166   1.210   5.422   6.414
11070TIP3    H133167   1.135   5.452   6.465
11070TIP3    H233168   1.187   5.444   6.324
11071TIP3   OH233169   8.128   2.325   3.818
11071TIP3    H133170   8.154   2.242   3.778
11071TIP3    H233171   8.208   2.377   3.818
11072TIP3   OH233172   7.667   1.165   3.616
11072TIP3    H133173   7.601   1.095   3.619
11072TIP3    H233174   7.690   1.172   3.523
11073TIP3   OH233175   2.620   1.335   4.235
11073TIP3    H133176   2.532   1.354   4.201
11073TIP3    H233177   2.629   1.393   4.310
11074TIP3   OH233178   5.897   1.448   5.510
11074TIP3    H133179   5.875   1.424   5.419
11074TIP3    H233180   5.827   1.507   5.537
11075TIP3   OH233181   3.182   0.781   1.841
11075TIP3    H133182   3.210   0.757   1.753
11075TIP3    H233183   3.253   0.751   1.898
11076TIP3   OH233184   1.432   6.540   4.666
11076TIP3    H133185   1.493   6.574   4.731
11076TIP3    H233186   1.345   6.568   4.697
11077TIP3   OH233187   5.877   6.285   0.624
11077TIP3    H133188   5.948   6.320   0.678
11077TIP3    H233189   5.866   6.194   0.654
11078TIP3   OH233190   3.285   0.176   5.410
11078TIP3    H133191   3.280   0.269   5.433
11078TIP3    H233192   3.199   0.156   5.373
11079TIP3   OH233193   6.055   6.541   3.575
11079TIP3    H133194   5.964   6.554   3.549
11079TIP3    H233195   6.106   6.567   3.498
11080TIP3   OH233196   6.725   3.869   3.825
11080TIP3    H133197   6.724   3.954   3.781
11080TIP3    H233198   6.783   3.815   3.771
11081TIP3   OH233199   0.242   5.246   2.036
11081TIP3    H133200   0.246   5.151   2.036
11081TIP3    H233201   0.238   5.270   1.943
11082TIP3   OH233202   5.445   2.564   2.033
11082TIP3    H133203   5.359   2.604   2.038
11082TIP3    H233204   5.429   2.471   2.048
11083TIP3   OH233205   2.508   6.062   5.204
11083TIP3    H133206   2.441   6.130   5.205
11083TIP3    H233207   2.461   5.982   5.228
11084TIP3   OH233208   8.176   2.679   1.500
11084TIP3    H133209   8.134   2.760   1.528
11084TIP3    H233210   8.233   2.655   1.573
11085TIP3   OH233211   6.369   6.319   1.743
11085TIP3    H133212   6.323   6.403   1.747
11085TIP3    H233213   6.314   6.263   1.689
11086TIP3   OH233214   5.982   2.373   1.815
11086TIP3    H133215   5.891   2.350   1.796
11086TIP3    H233216   6.028   2.363   1.732
11087TIP3   OH233217   5.343   6.095   4.937
11087TIP3    H133218   5.335   6.028   4.869
11087TIP3    H233219   5.261   6.145   4.931
11088TIP3   OH233220   1.916   7.143   4.185
11088TIP3    H133221   1.978   7.087   4.138
11088TIP3    H233222   1.935   7.129   4.277
11089TIP3   OH233223   6.408   3.074   1.358
11089TIP3    H133224   6.473   3.005   1.370
11089TIP3    H233225   6.414   3.126   1.438
11090TIP3   OH233226   3.333   1.025   0.492
11090TIP3    H133227   3.410   1.029   0.549
11090TIP3    H233228   3.311   1.117   0.475
11091TIP3   OH233229   6.466   4.364   2.875
11091TIP3    H133230   6.383   4.406   2.854
11091TIP3    H233231   6.470   4.288   2.817
11092TIP3   OH233232   2.204   1.843   4.855
11092TIP3    H133233   2.137   1.801   4.802
11092TIP3    H233234   2.246   1.772   4.903
11093TIP3   OH233235   1.126   4.359   6.388
11093TIP3    H133236   1.147   4.346   6.480
11093TIP3    H233237   1.056   4.424   6.388
11094TIP3   OH233238   4.019   3.756   5.554
11094TIP3    H133239   4.015   3.848   5.528
11094TIP3    H233240   3.969   3.709   5.487
11095TIP3   OH233241   3.762   2.308   4.245
11095TIP3    H133242   3.812   2.351   4.175
11095TIP3    H233243   3.813   2.325   4.324
11096TIP3   OH233244   6.075   4.895   3.548
11096TIP3    H133245   6.029   4.844   3.481
11096TIP3    H233246   6.167   4.892   3.521
11097TIP3   OH233247   0.739  -0.027   1.426
11097TIP3    H133248   0.652  -0.035   1.465
11097TIP3    H233249   0.726   0.029   1.350
11098TIP3   OH233250   7.013   6.815   6.081
11098TIP3    H133251   7.079   6.864   6.032
11098TIP3    H233252   6.985   6.875   6.150
11099TIP3   OH233253   6.842   2.422   2.046
11099TIP3    H133254   6.918   2.455   1.998
11099TIP3    H233255   6.775   2.410   1.978
11100TIP3   OH233256   3.871   1.754   0.616
11100TIP3    H133257   3.838   1.806   0.690
11100TIP3    H233258   3.865   1.663   0.646
11101TIP3   OH233259   8.076   2.160   2.667
11101TIP3    H133260   8.054   2.251   2.688
11101TIP3    H233261   8.107   2.123   2.749
11102TIP3   OH233262   1.146   1.688   4.298
11102TIP3    H133263   1.114   1.632   4.227
11102TIP3    H233264   1.234   1.656   4.316
11103TIP3   OH233265   6.181   1.041   2.404
11103TIP3    H133266   6.193   1.135   2.420
11103TIP3    H233267   6.086   1.029   2.404
11104TIP3   OH233268   3.008   5.140   6.358
11104TIP3    H133269   2.981   5.230   6.378
11104TIP3    H233270   3.068   5.149   6.284
11105TIP3   OH233271   0.200   0.559   3.743
11105TIP3    H133272   0.201   0.469   3.710
11105TIP3    H233273   0.292   0.580   3.757
11106TIP3   OH233274   6.329   5.514   5.951
11106TIP3    H133275   6.418   5.544   5.966
11106TIP3    H233276   6.276   5.565   6.012
11107TIP3   OH233277   5.939   2.723   5.815
11107TIP3    H133278   5.942   2.627   5.819
11107TIP3    H233279   5.881   2.748   5.887
11108TIP3   OH233280   6.838   1.294   5.958
11108TIP3    H133281   6.907   1.233   5.932
11108TIP3    H233282   6.826   1.350   5.881
11109TIP3   OH233283   7.509   7.228   4.561
11109TIP3    H133284   7.581   7.222   4.623
11109TIP3    H233285   7.552   7.250   4.477
11110TIP3   OH233286   4.193   7.653   2.600
11110TIP3    H133287   4.152   7.727   2.645
11110TIP3    H233288   4.271   7.691   2.558
11111TIP3   OH233289   7.036   1.309   3.641
11111TIP3    H133290   7.016   1.222   3.676
11111TIP3    H233291   7.009   1.369   3.710
11112TIP3   OH233292   1.921   2.619   2.951
11112TIP3    H133293   1.867   2.546   2.982
11112TIP3    H233294   1.989   2.578   2.897
11113TIP3   OH233295   3.969   2.450   5.875
11113TIP3    H133296   4.008   2.529   5.838
11113TIP3    H233297   4.038   2.383   5.865
11114TIP3   OH233298   0.955   5.961   6.520
11114TIP3    H133299   0.934   5.929   6.433
11114TIP3    H233300   1.047   5.938   6.532
11115TIP3   OH233301   0.080   0.364   0.071
11115TIP3    H133302   0.141   0.398   0.006
11115TIP3    H233303   0.003   0.337   0.020
11116TIP3   OH233304   6.485   1.313   3.432
11116TIP3    H133305   6.571   1.306   3.389
11116TIP3    H233306   6.424   1.329   3.360
11117TIP3   OH233307   4.362   3.179   1.472
11117TIP3    H133308   4.316   3.218   1.547
11117TIP3    H233309   4.355   3.085   1.487
11118TIP3   OH233310   0.109   2.860   6.428
11118TIP3    H133311   0.096   2.765   6.435
11118TIP3    H233312   0.203   2.870   6.415
11119TIP3   OH233313   7.283   1.786   1.471
11119TIP3    H133314   7.325   1.792   1.556
11119TIP3    H233315   7.355   1.769   1.410
11120TIP3   OH233316   3.853   3.378   2.133
11120TIP3    H133317   3.872   3.445   2.199
11120TIP3    H233318   3.758   3.384   2.120
11121TIP3   OH233319   6.182   0.543   5.574
11121TIP3    H133320   6.130   0.528   5.495
11121TIP3    H233321   6.263   0.583   5.541
11122TIP3   OH233322   6.411   4.862   5.980
11122TIP3    H133323   6.391   4.769   5.969
11122TIP3    H233324   6.399   4.899   5.892
11123TIP3   OH233325   7.006   2.496   2.953
11123TIP3    H133326   7.087   2.465   2.911
11123TIP3    H233327   7.028   2.583   2.987
11124TIP3   OH233328   7.101   0.383   5.940
11124TIP3    H133329   7.053   0.373   5.858
11124TIP3    H233330   7.178   0.435   5.918
11125TIP3   OH233331   5.061   7.857   6.154
11125TIP3    H133332   5.069   7.765   6.129
11125TIP3    H233333   5.152   7.888   6.162
11126TIP3   OH233334   7.856   4.545   2.333
11126TIP3    H133335   7.902   4.609   2.387
11126TIP3    H233336   7.900   4.462   2.350
11127TIP3   OH233337   1.232   6.385   1.413
11127TIP3    H133338   1.258   6.323   1.344
11127TIP3    H233339   1.263   6.344   1.494
11128TIP3   OH233340   8.074   3.939   5.699
11128TIP3    H133341   8.097   3.878   5.630
11128TIP3    H233342   8.131   3.915   5.772
11129TIP3   OH233343   7.018   0.244   2.086
11129TIP3    H133344   6.987   0.204   2.004
11129TIP3    H233345   6.942   0.241   2.144
11130TIP3   OH233346   2.727   1.244   0.956
11130TIP3    H133347   2.655   1.257   0.895
11130TIP3    H233348   2.797   1.205   0.903
11131TIP3   OH233349   5.231   1.167   2.312
11131TIP3    H133350   5.144   1.193   2.340
11131TIP3    H233351   5.238   1.075   2.339
11132TIP3   OH233352   1.383   7.680   6.715
11132TIP3    H133353   1.304   7.629   6.695
11132TIP3    H233354   1.376   7.700   6.808
11133TIP3   OH233355   3.129   3.851   0.759
11133TIP3    H133356   3.123   3.756   0.769
11133TIP3    H233357   3.130   3.885   0.848
11134TIP3   OH233358   1.277   3.763   3.885
11134TIP3    H133359   1.305   3.754   3.976
11134TIP3    H233360   1.350   3.728   3.834
11135TIP3   OH233361   4.617   4.398   5.770
11135TIP3    H133362   4.655   4.446   5.696
11135TIP3    H233363   4.577   4.466   5.824
11136TIP3   OH233364   4.002   4.409   1.376
11136TIP3    H133365   3.929   4.373   1.325
11136TIP3    H233366   3.990   4.376   1.464
11137TIP3   OH233367   8.167   2.114   2.933
11137TIP3    H133368   8.209   2.191   2.971
11137TIP3    H233369   8.184   2.044   2.995
11138TIP3   OH233370   3.371   1.306   3.262
11138TIP3    H133371   3.368   1.392   3.220
11138TIP3    H233372   3.460   1.276   3.249
11139TIP3   OH233373   8.274   3.224   4.853
11139TIP3    H133374   8.355   3.175   4.838
11139TIP3    H233375   8.261   3.219   4.948
11140TIP3   OH233376   1.945   5.762   4.747
11140TIP3    H133377   1.898   5.772   4.830
11140TIP3    H233378   2.038   5.765   4.773
11141TIP3   OH233379   3.769   7.377   0.307
11141TIP3    H133380   3.799   7.401   0.395
11141TIP3    H233381   3.698   7.315   0.323
11142TIP3   OH233382   5.604   0.249   3.138
11142TIP3    H133383   5.548   0.174   3.153
11142TIP3    H233384   5.631   0.241   3.046
11143TIP3   OH233385   6.763   4.258   5.542
11143TIP3    H133386   6.770   4.235   5.449
11143TIP3    H233387   6.754   4.173   5.587
11144TIP3   OH233388   0.136   5.149   2.778
11144TIP3    H133389   0.094   5.212   2.719
11144TIP3    H233390   0.126   5.189   2.865
11145TIP3   OH233391   6.760   2.018   1.482
11145TIP3    H133392   6.850   2.021   1.514
11145TIP3    H233393   6.731   2.110   1.482
11146TIP3   OH233394   5.205   1.295   1.690
11146TIP3    H133395   5.286   1.343   1.708
11146TIP3    H233396   5.161   1.346   1.622
11147TIP3   OH233397   4.234   6.443   6.105
11147TIP3    H133398   4.220   6.386   6.180
11147TIP3    H233399   4.303   6.502   6.132
11148TIP3   OH233400   7.326   0.440   4.299
11148TIP3    H133401   7.379   0.450   4.220
11148TIP3    H233402   7.326   0.526   4.340
11149TIP3   OH233403   5.113   1.591   0.939
11149TIP3    H133404   5.044   1.601   1.004
11149TIP3    H233405   5.075   1.535   0.871
11150TIP3   OH233406   2.601   6.697   5.456
11150TIP3    H133407   2.678   6.695   5.399
11150TIP3    H233408   2.606   6.781   5.501
11151TIP3   OH233409   4.395   4.086   5.171
11151TIP3    H133410   4.455   4.025   5.214
11151TIP3    H233411   4.450   4.160   5.145
11152TIP3   OH233412   7.431   0.631   0.483
11152TIP3    H133413   7.457   0.693   0.551
11152TIP3    H233414   7.500   0.638   0.416
11153TIP3   OH233415   3.013   5.218   3.434
11153TIP3    H133416   3.003   5.208   3.529
11153TIP3    H233417   3.100   5.257   3.423
11154TIP3   OH233418   6.677   6.857   0.612
11154TIP3    H133419   6.602   6.797   0.623
11154TIP3    H233420   6.657   6.906   0.533
11155TIP3   OH233421   1.288   0.081   5.665
11155TIP3    H133422   1.294   0.177   5.671
11155TIP3    H233423   1.376   0.053   5.639
11156TIP3   OH233424   5.148   6.983   2.923
11156TIP3    H133425   5.071   6.979   2.866
11156TIP3    H233426   5.223   6.974   2.863
11157TIP3   OH233427   1.788   4.886   1.160
11157TIP3    H133428   1.797   4.967   1.110
11157TIP3    H233429   1.693   4.873   1.168
11158TIP3   OH233430   5.068   3.412   3.931
11158TIP3    H133431   4.985   3.459   3.927
11158TIP3    H233432   5.044   3.320   3.924
11159TIP3   OH233433   2.911   4.738   0.368
11159TIP3    H133434   2.854   4.791   0.311
11159TIP3    H233435   2.866   4.738   0.452
11160TIP3   OH233436   5.792   2.176   5.757
11160TIP3    H133437   5.820   2.185   5.666
11160TIP3    H233438   5.697   2.190   5.755
11161TIP3   OH233439   6.496   6.631   0.379
11161TIP3    H133440   6.555   6.559   0.403
11161TIP3    H233441   6.408   6.592   0.381
11162TIP3   OH233442   1.711   1.755   5.919
11162TIP3    H133443   1.692   1.675   5.968
11162TIP3    H233444   1.768   1.726   5.847
11163TIP3   OH233445   2.400   1.551   2.537
11163TIP3    H133446   2.322   1.539   2.591
11163TIP3    H233447   2.406   1.646   2.526
11164TIP3   OH233448   4.898   6.568   2.288
11164TIP3    H133449   4.973   6.543   2.342
11164TIP3    H233450   4.931   6.562   2.198
11165TIP3   OH233451   7.080   6.201   1.731
11165TIP3    H133452   6.984   6.197   1.734
11165TIP3    H233453   7.100   6.295   1.738
11166TIP3   OH233454   6.503   2.122   0.280
11166TIP3    H133455   6.439   2.188   0.306
11166TIP3    H233456   6.554   2.105   0.360
11167TIP3   OH233457   6.403   2.803   2.732
11167TIP3    H133458   6.414   2.727   2.676
11167TIP3    H233459   6.488   2.847   2.730
11168TIP3   OH233460   1.923   3.206   0.282
11168TIP3    H133461   1.895   3.286   0.326
11168TIP3    H233462   2.008   3.228   0.246
11169TIP3   OH233463   4.500   6.135   1.697
11169TIP3    H133464   4.431   6.107   1.757
11169TIP3    H233465   4.576   6.082   1.722
11170TIP3   OH233466   4.050   5.235   5.627
11170TIP3    H133467   4.109   5.224   5.702
11170TIP3    H233468   4.087   5.309   5.578
11171TIP3   OH233469   2.887   6.600   1.300
11171TIP3    H133470   2.973   6.604   1.258
11171TIP3    H233471   2.894   6.526   1.361
11172TIP3   OH233472   8.075   6.170   4.940
11172TIP3    H133473   8.029   6.132   5.015
11172TIP3    H233474   8.023   6.145   4.864
11173TIP3   OH233475   6.847   0.044   3.931
11173TIP3    H133476   6.870  -0.025   3.869
11173TIP3    H233477   6.864   0.125   3.884
11174TIP3   OH233478   1.955   6.770   2.706
11174TIP3    H133479   1.908   6.711   2.764
11174TIP3    H233480   1.920   6.751   2.619
11175TIP3   OH233481   0.661   0.098   2.340
11175TIP3    H133482   0.648   0.110   2.246
11175TIP3    H233483   0.701   0.011   2.348
11176TIP3   OH233484   1.232   3.495   3.802
11176TIP3    H133485   1.232   3.447   3.719
11176TIP3    H233486   1.189   3.578   3.781
11177TIP3   OH233487   1.869   0.058   5.866
11177TIP3    H133488   1.812   0.043   5.941
11177TIP3    H233489   1.896  -0.030   5.839
11178TIP3   OH233490   4.205   4.180   2.476
11178TIP3    H133491   4.230   4.103   2.425
11178TIP3    H233492   4.177   4.244   2.410
11179TIP3   OH233493   5.445   5.958   5.925
11179TIP3    H133494   5.397   6.024   5.876
11179TIP3    H233495   5.429   5.980   6.017
11180TIP3   OH233496   5.237   0.567   2.148
11180TIP3    H133497   5.153   0.609   2.130
11180TIP3    H233498   5.298   0.640   2.163
11181TIP3   OH233499   4.417   2.445   1.791
11181TIP3    H133500   4.425   2.455   1.886
11181TIP3    H233501   4.385   2.530   1.760
11182TIP3   OH233502   0.837   5.400   5.089
11182TIP3    H133503   0.836   5.314   5.130
11182TIP3    H233504   0.918   5.400   5.036
11183TIP3   OH233505   3.703   3.067   5.883
11183TIP3    H133506   3.640   2.997   5.896
11183TIP3    H233507   3.776   3.026   5.835
11184TIP3   OH233508   0.482   0.920   0.957
11184TIP3    H133509   0.442   0.897   0.874
11184TIP3    H233510   0.449   0.855   1.019
11185TIP3   OH233511   4.451   5.015   2.313
11185TIP3    H133512   4.418   5.098   2.281
11185TIP3    H233513   4.536   5.036   2.352
11186TIP3   OH233514   5.361   0.843   4.345
11186TIP3    H133515   5.281   0.825   4.296
11186TIP3    H233516   5.380   0.761   4.392
11187TIP3   OH233517   2.585   7.632   5.143
11187TIP3    H133518   2.529   7.597   5.075
11187TIP3    H233519   2.669   7.587   5.130
11188TIP3   OH233520   6.584   0.647   5.047
11188TIP3    H133521   6.673   0.615   5.060
11188TIP3    H233522   6.534   0.612   5.120
11189TIP3   OH233523   0.147   7.177   5.973
11189TIP3    H133524   0.217   7.149   6.033
11189TIP3    H233525   0.180   7.258   5.935
11190TIP3   OH233526   3.567   0.702   3.141
11190TIP3    H133527   3.550   0.673   3.231
11190TIP3    H233528   3.499   0.658   3.089
11191TIP3   OH233529   7.583   3.251   2.862
11191TIP3    H133530   7.639   3.287   2.794
11191TIP3    H233531   7.522   3.194   2.815
11192TIP3   OH233532   3.600   4.161   4.796
11192TIP3    H133533   3.686   4.144   4.833
11192TIP3    H233534   3.601   4.253   4.772
11193TIP3   OH233535   4.493   4.769   6.550
11193TIP3    H133536   4.547   4.710   6.603
11193TIP3    H233537   4.414   4.783   6.602
11194TIP3   OH233538   4.453   2.876   0.334
11194TIP3    H133539   4.452   2.816   0.259
11194TIP3    H233540   4.408   2.828   0.403
11195TIP3   OH233541   2.558   5.749   6.035
11195TIP3    H133542   2.579   5.659   6.060
11195TIP3    H233543   2.609   5.764   5.955
11196TIP3   OH233544   2.523   1.463   6.450
11196TIP3    H133545   2.484   1.395   6.395
11196TIP3    H233546   2.449   1.504   6.494
11197TIP3   OH233547   5.185   1.809   2.291
11197TIP3    H133548   5.122   1.754   2.246
11197TIP3    H233549   5.239   1.749   2.342
11198TIP3   OH233550   2.206   4.634   3.019
11198TIP3    H133551   2.218   4.724   3.047
11198TIP3    H233552   2.130   4.603   3.069
11199TIP3   OH233553   4.954   7.067   4.732
11199TIP3    H133554   4.943   7.034   4.821
11199TIP3    H233555   4.978   6.990   4.681
11200TIP3   OH233556   5.758   4.706   1.934
11200TIP3    H133557   5.682   4.748   1.895
11200TIP3    H233558   5.826   4.773   1.932
11201TIP3   OH233559   0.267   5.616   4.962
11201TIP3    H133560   0.196   5.663   5.007
11201TIP3    H233561   0.347   5.656   4.995
11202TIP3   OH233562   0.250   5.655   6.340
11202TIP3    H133563   0.161   5.647   6.375
11202TIP3    H233564   0.262   5.749   6.326
11203TIP3   OH233565   5.906   1.574   6.153
11203TIP3    H133566   5.941   1.661   6.172
11203TIP3    H233567   5.983   1.520   6.135
11204TIP3   OH233568   4.397   6.492   3.621
11204TIP3    H133569   4.443   6.576   3.623
11204TIP3    H233570   4.361   6.486   3.532
11205TIP3   OH233571   1.285   0.670   0.765
11205TIP3    H133572   1.302   0.733   0.836
11205TIP3    H233573   1.338   0.702   0.692
11206TIP3   OH233574   0.609   3.072   2.455
11206TIP3    H133575   0.535   3.013   2.441
11206TIP3    H233576   0.651   3.079   2.370
11207TIP3   OH233577   1.146   1.639   5.333
11207TIP3    H133578   1.118   1.713   5.279
11207TIP3    H233579   1.235   1.662   5.360
11208TIP3   OH233580   1.569   0.319   5.557
11208TIP3    H133581   1.629   0.340   5.486
11208TIP3    H233582   1.521   0.242   5.526
11209TIP3   OH233583   6.446   2.974   5.722
11209TIP3    H133584   6.374   2.980   5.785
11209TIP3    H233585   6.414   2.915   5.654
11210TIP3   OH233586   5.562   1.717   3.095
11210TIP3    H133587   5.569   1.623   3.110
11210TIP3    H233588   5.637   1.738   3.040
11211TIP3   OH233589   7.375   7.438   5.955
11211TIP3    H133590   7.318   7.464   6.027
11211TIP3    H233591   7.442   7.384   5.996
11212TIP3   OH233592   0.503   1.861   2.508
11212TIP3    H133593   0.462   1.775   2.502
11212TIP3    H233594   0.453   1.907   2.575
11213TIP3   OH233595   3.601   2.906   1.414
11213TIP3    H133596   3.650   2.923   1.495
11213TIP3    H233597   3.547   2.830   1.435
11214TIP3   OH233598   2.947   3.948   0.986
11214TIP3    H133599   2.946   3.853   1.002
11214TIP3    H233600   2.919   3.957   0.895
11215TIP3   OH233601   6.902   7.128   5.410
11215TIP3    H133602   6.853   7.058   5.366
11215TIP3    H233603   6.989   7.090   5.425
11216TIP3   OH233604   1.818   3.270   6.055
11216TIP3    H133605   1.829   3.317   5.972
11216TIP3    H233606   1.907   3.245   6.080
11217TIP3   OH233607   2.769   2.922   4.462
11217TIP3    H133608   2.764   3.001   4.409
11217TIP3    H233609   2.857   2.925   4.501
11218TIP3   OH233610   5.545   4.926   1.177
11218TIP3    H133611   5.629   4.901   1.138
11218TIP3    H233612   5.561   4.924   1.271
11219TIP3   OH233613   5.323   6.783   3.787
11219TIP3    H133614   5.317   6.708   3.847
11219TIP3    H233615   5.397   6.833   3.822
11220TIP3   OH233616   2.051   7.184   0.768
11220TIP3    H133617   2.113   7.218   0.832
11220TIP3    H233618   2.009   7.262   0.730
11221TIP3   OH233619   3.210   3.441   6.646
11221TIP3    H133620   3.163   3.397   6.575
11221TIP3    H233621   3.238   3.370   6.704
11222TIP3   OH233622   6.656   2.959   1.469
11222TIP3    H133623   6.713   2.885   1.449
11222TIP3    H233624   6.685   2.988   1.555
11223TIP3   OH233625   5.610   4.313   2.791
11223TIP3    H133626   5.623   4.335   2.883
11223TIP3    H233627   5.598   4.398   2.748
11224TIP3   OH233628   6.949   7.272   1.120
11224TIP3    H133629   6.885   7.342   1.133
11224TIP3    H233630   7.025   7.299   1.172
11225TIP3   OH233631   1.849   1.011   2.236
11225TIP3    H133632   1.821   1.040   2.149
11225TIP3    H233633   1.817   0.921   2.243
11226TIP3   OH233634   7.389   4.402   5.851
11226TIP3    H133635   7.374   4.339   5.781
11226TIP3    H233636   7.302   4.440   5.868
11227TIP3   OH233637   2.140   3.569   1.059
11227TIP3    H133638   2.068   3.619   1.020
11227TIP3    H233639   2.190   3.634   1.109
11228TIP3   OH233640   7.756   3.895   1.476
11228TIP3    H133641   7.691   3.964   1.466
11228TIP3    H233642   7.839   3.937   1.452
11229TIP3   OH233643   1.317   0.457   3.667
11229TIP3    H133644   1.281   0.396   3.603
11229TIP3    H233645   1.279   0.542   3.644
11230TIP3   OH233646   0.508   5.397   1.414
11230TIP3    H133647   0.578   5.438   1.466
11230TIP3    H233648   0.436   5.461   1.416
11231TIP3   OH233649   3.450   5.134   4.658
11231TIP3    H133650   3.380   5.185   4.619
11231TIP3    H233651   3.474   5.070   4.590
11232TIP3   OH233652   6.265   5.117   2.176
11232TIP3    H133653   6.301   5.125   2.088
11232TIP3    H233654   6.171   5.106   2.163
11233TIP3   OH233655   5.369   5.647   1.359
11233TIP3    H133656   5.358   5.656   1.265
11233TIP3    H233657   5.291   5.689   1.397
11234TIP3   OH233658   6.205   4.355   2.761
11234TIP3    H133659   6.111   4.344   2.749
11234TIP3    H233660   6.228   4.426   2.701
11235TIP3   OH233661   1.566   2.329   2.328
11235TIP3    H133662   1.661   2.345   2.332
11235TIP3    H233663   1.541   2.358   2.240
11236TIP3   OH233664   1.935   0.078   5.510
11236TIP3    H133665   1.920   0.128   5.429
11236TIP3    H233666   1.967   0.143   5.572
11237TIP3   OH233667   0.306   7.428   5.244
11237TIP3    H133668   0.375   7.362   5.252
11237TIP3    H233669   0.306   7.473   5.329
11238TIP3   OH233670   2.871   5.699   2.630
11238TIP3    H133671   2.888   5.761   2.701
11238TIP3    H233672   2.907   5.617   2.662
11239TIP3   OH233673   7.247   2.629   0.149
11239TIP3    H133674   7.251   2.601   0.240
11239TIP3    H233675   7.173   2.580   0.112
11240TIP3   OH233676   2.153   0.908   0.686
11240TIP3    H133677   2.107   0.957   0.618
11240TIP3    H233678   2.083   0.879   0.745
11241TIP3   OH233679   0.581   6.539   3.727
11241TIP3    H133680   0.496   6.496   3.714
11241TIP3    H233681   0.570   6.626   3.688
11242TIP3   OH233682   6.696   2.978   5.818
11242TIP3    H133683   6.611   3.006   5.784
11242TIP3    H233684   6.719   3.044   5.883
11243TIP3   OH233685   4.074   1.102   2.806
11243TIP3    H133686   4.090   1.088   2.899
11243TIP3    H233687   3.994   1.053   2.788
11244TIP3   OH233688   7.710   0.293   6.748
11244TIP3    H133689   7.755   0.364   6.702
11244TIP3    H233690   7.720   0.313   6.841
11245TIP3   OH233691   3.751   1.278   2.946
11245TIP3    H133692   3.664   1.239   2.949
11245TIP3    H233693   3.773   1.295   3.037
11246TIP3   OH233694   7.798   5.922   0.378
11246TIP3    H133695   7.879   5.956   0.340
11246TIP3    H233696   7.754   5.878   0.306
11247TIP3   OH233697   1.422   7.248   0.759
11247TIP3    H133698   1.405   7.304   0.683
11247TIP3    H233699   1.375   7.166   0.739
11248TIP3   OH233700   4.870   3.101   1.163
11248TIP3    H133701   4.814   3.113   1.086
11248TIP3    H233702   4.814   3.124   1.237
11249TIP3   OH233703   4.531   4.461   4.346
11249TIP3    H133704   4.477   4.471   4.425
11249TIP3    H233705   4.475   4.413   4.284
11250TIP3   OH233706   2.010   2.366   0.325
11250TIP3    H133707   2.069   2.300   0.360
11250TIP3    H233708   1.995   2.426   0.399
11251TIP3   OH233709   2.496   5.184   3.984
11251TIP3    H133710   2.430   5.165   4.050
11251TIP3    H233711   2.468   5.267   3.945
11252TIP3   OH233712   3.991   6.153   4.123
11252TIP3    H133713   4.002   6.240   4.162
11252TIP3    H233714   3.896   6.143   4.115
11253TIP3   OH233715   5.475   4.083   1.041
11253TIP3    H133716   5.510   3.998   1.066
11253TIP3    H233717   5.524   4.146   1.093
11254TIP3   OH233718   5.447   1.751   0.378
11254TIP3    H133719   5.408   1.733   0.293
11254TIP3    H233720   5.489   1.669   0.404
11255TIP3   OH233721   0.878   5.155   0.962
11255TIP3    H133722   0.946   5.167   1.028
11255TIP3    H233723   0.882   5.235   0.909
11256TIP3   OH233724   4.607   2.811   4.093
11256TIP3    H133725   4.577   2.722   4.072
11256TIP3    H233726   4.629   2.849   4.008
11257TIP3   OH233727   2.430   4.277   3.250
11257TIP3    H133728   2.510   4.245   3.208
11257TIP3    H233729   2.362   4.218   3.220
11258TIP3   OH233730   4.445   2.974   3.791
11258TIP3    H133731   4.431   2.944   3.701
11258TIP3    H233732   4.357   2.996   3.823
11259TIP3   OH233733   8.282   0.565   3.031
11259TIP3    H133734   8.225   0.565   2.953
11259TIP3    H233735   8.248   0.494   3.085
11260TIP3   OH233736   1.003   5.549   2.697
11260TIP3    H133737   1.092   5.514   2.699
11260TIP3    H233738   0.971   5.541   2.787
11261TIP3   OH233739   0.747   2.257   6.502
11261TIP3    H133740   0.762   2.186   6.565
11261TIP3    H233741   0.709   2.327   6.555
11262TIP3   OH233742   2.743   6.282   6.056
11262TIP3    H133743   2.730   6.191   6.081
11262TIP3    H233744   2.666   6.305   6.004
11263TIP3   OH233745   1.349   2.544   5.500
11263TIP3    H133746   1.358   2.616   5.562
11263TIP3    H233747   1.394   2.471   5.542
11264TIP3   OH233748   6.485   7.492   1.129
11264TIP3    H133749   6.490   7.547   1.207
11264TIP3    H233750   6.526   7.409   1.155
11265TIP3   OH233751   6.616   0.549   2.404
11265TIP3    H133752   6.600   0.563   2.311
11265TIP3    H233753   6.600   0.634   2.445
11266TIP3   OH233754   5.100   0.876   0.387
11266TIP3    H133755   5.183   0.907   0.351
11266TIP3    H233756   5.059   0.954   0.425
11267TIP3   OH233757   7.963   0.286   0.771
11267TIP3    H133758   7.986   0.257   0.683
11267TIP3    H233759   8.040   0.267   0.824
11268TIP3   OH233760   2.160   2.282   4.583
11268TIP3    H133761   2.132   2.271   4.674
11268TIP3    H233762   2.185   2.194   4.555
11269TIP3   OH233763   6.917   2.227   0.603
11269TIP3    H133764   6.935   2.197   0.514
11269TIP3    H233765   6.981   2.182   0.658
11270TIP3   OH233766   3.244   4.284   5.020
11270TIP3    H133767   3.288   4.347   5.079
11270TIP3    H233768   3.214   4.337   4.947
11271TIP3   OH233769   4.339   1.938   4.339
11271TIP3    H133770   4.418   1.898   4.374
11271TIP3    H233771   4.341   1.916   4.246
11272TIP3   OH233772   5.613   4.921   2.944
11272TIP3    H133773   5.652   4.928   2.858
11272TIP3    H233774   5.621   4.828   2.967
11273TIP3   OH233775   6.416   1.592   4.349
11273TIP3    H133776   6.331   1.622   4.316
11273TIP3    H233777   6.426   1.635   4.434
11274TIP3   OH233778   6.488   5.769   2.905
11274TIP3    H133779   6.403   5.813   2.901
11274TIP3    H233780   6.515   5.763   2.813
11275TIP3   OH233781   6.540   4.801   3.101
11275TIP3    H133782   6.620   4.787   3.051
11275TIP3    H233783   6.567   4.797   3.193
11276TIP3   OH233784   4.237   3.851   3.287
11276TIP3    H133785   4.248   3.941   3.315
11276TIP3    H233786   4.272   3.798   3.359
11277TIP3   OH233787   2.211   1.030   1.277
11277TIP3    H133788   2.192   0.965   1.345
11277TIP3    H233789   2.205   0.980   1.195
11278TIP3   OH233790   7.934   4.588   1.863
11278TIP3    H133791   7.867   4.529   1.899
11278TIP3    H233792   7.886   4.669   1.844
11279TIP3   OH233793   1.889   7.547   5.359
11279TIP3    H133794   1.871   7.485   5.430
11279TIP3    H233795   1.954   7.607   5.394
11280TIP3   OH233796   0.084   5.148   5.631
11280TIP3    H133797   0.081   5.240   5.656
11280TIP3    H233798  -0.008   5.125   5.613
11281TIP3   OH233799   8.211   5.039   1.033
11281TIP3    H133800   8.148   4.995   1.090
11281TIP3    H233801   8.287   5.055   1.089
11282TIP3   OH233802   2.195   5.561   4.124
11282TIP3    H133803   2.257   5.493   4.152
11282TIP3    H233804   2.220   5.581   4.034
11283TIP3   OH233805   5.047   5.541   4.239
11283TIP3    H133806   5.136   5.558   4.269
11283TIP3    H233807   5.017   5.625   4.205
11284TIP3   OH233808   5.539   3.301   4.641
11284TIP3    H133809   5.484   3.222   4.631
11284TIP3    H233810   5.545   3.337   4.553
11285TIP3   OH233811   5.112   2.043   2.119
11285TIP3    H133812   5.191   2.081   2.156
11285TIP3    H233813   5.106   1.956   2.159
11286TIP3   OH233814   1.444   6.962   0.433
11286TIP3    H133815   1.434   6.910   0.513
11286TIP3    H233816   1.400   7.045   0.453
11287TIP3   OH233817   4.565   1.905   4.582
11287TIP3    H133818   4.511   1.962   4.637
11287TIP3    H233819   4.548   1.817   4.615
11288TIP3   OH233820   5.836   4.646   5.417
11288TIP3    H133821   5.776   4.695   5.473
11288TIP3    H233822   5.860   4.708   5.348
11289TIP3   OH233823   1.012   2.505   1.828
11289TIP3    H133824   1.081   2.454   1.871
11289TIP3    H233825   1.047   2.594   1.824
11290TIP3   OH233826   0.987   1.345   2.411
11290TIP3    H133827   0.992   1.419   2.471
11290TIP3    H233828   1.052   1.365   2.344
11291TIP3   OH233829   3.364   6.215   2.753
11291TIP3    H133830   3.392   6.293   2.704
11291TIP3    H233831   3.358   6.244   2.844
11292TIP3   OH233832   3.566   2.742   5.220
11292TIP3    H133833   3.625   2.814   5.242
11292TIP3    H233834   3.613   2.663   5.248
11293TIP3   OH233835   4.637   7.852   5.165
11293TIP3    H133836   4.585   7.899   5.100
11293TIP3    H233837   4.580   7.783   5.197
11294TIP3   OH233838   6.522   1.028   2.698
11294TIP3    H133839   6.476   0.950   2.729
11294TIP3    H233840   6.528   1.084   2.776
11295TIP3   OH233841   4.207   1.558   6.098
11295TIP3    H133842   4.124   1.518   6.125
11295TIP3    H233843   4.268   1.485   6.092
11296TIP3   OH233844   6.966   1.084   0.717
11296TIP3    H133845   6.921   1.158   0.676
11296TIP3    H233846   7.053   1.119   0.738
11297TIP3   OH233847   8.168   2.783   6.115
11297TIP3    H133848   8.090   2.825   6.150
11297TIP3    H233849   8.241   2.837   6.145
11298TIP3   OH233850   3.942   3.675   1.059
11298TIP3    H133851   3.966   3.707   1.146
11298TIP3    H233852   3.851   3.648   1.068
11299TIP3   OH233853   3.690   7.822   3.225
11299TIP3    H133854   3.772   7.779   3.250
11299TIP3    H233855   3.700   7.912   3.257
11300TIP3   OH233856   6.278   7.360   0.042
11300TIP3    H133857   6.225   7.343  -0.036
11300TIP3    H233858   6.263   7.284   0.098
11301TIP3   OH233859   4.274   7.018   4.826
11301TIP3    H133860   4.195   6.963   4.818
11301TIP3    H233861   4.340   6.972   4.774
11302TIP3   OH233862   6.543   0.388   0.709
11302TIP3    H133863   6.505   0.384   0.797
11302TIP3    H233864   6.476   0.429   0.655
11303TIP3   OH233865   3.204   3.326   0.579
11303TIP3    H133866   3.269   3.391   0.552
11303TIP3    H233867   3.177   3.284   0.498
11304TIP3   OH233868   1.389   6.387   2.164
11304TIP3    H133869   1.326   6.322   2.134
11304TIP3    H233870   1.451   6.395   2.092
11305TIP3   OH233871   7.344   3.532   1.034
11305TIP3    H133872   7.391   3.603   0.990
11305TIP3    H233873   7.410   3.463   1.044
11306TIP3   OH233874   8.236   0.774   4.690
11306TIP3    H133875   8.305   0.831   4.655
11306TIP3    H233876   8.264   0.686   4.667
11307TIP3   OH233877   2.644   1.120   5.491
11307TIP3    H133878   2.677   1.135   5.403
11307TIP3    H233879   2.549   1.126   5.482
11308TIP3   OH233880   3.174   6.124   4.834
11308TIP3    H133881   3.164   6.034   4.805
11308TIP3    H233882   3.096   6.140   4.888
11309TIP3   OH233883   3.984   6.661   5.841
11309TIP3    H133884   4.068   6.616   5.839
11309TIP3    H233885   3.937   6.621   5.915
11310TIP3   OH233886   2.531   5.208   5.220
11310TIP3    H133887   2.539   5.121   5.182
11310TIP3    H233888   2.622   5.239   5.226
11311TIP3   OH233889   6.965   5.231   6.802
11311TIP3    H133890   6.904   5.204   6.733
11311TIP3    H233891   6.909   5.247   6.878
11312TIP3   OH233892   2.958   3.959   5.459
11312TIP3    H133893   2.940   4.052   5.471
11312TIP3    H233894   3.038   3.956   5.407
11313TIP3   OH233895   2.162   1.872   5.407
11313TIP3    H133896   2.150   1.958   5.365
11313TIP3    H233897   2.088   1.820   5.376
11314TIP3   OH233898   1.913   5.029   6.187
11314TIP3    H133899   1.867   4.969   6.128
11314TIP3    H233900   1.844   5.083   6.225
11315TIP3   OH233901   0.811   2.480   5.827
11315TIP3    H133902   0.818   2.413   5.894
11315TIP3    H233903   0.727   2.461   5.784
11316TIP3   OH233904   7.038   7.630   1.785
11316TIP3    H133905   7.071   7.719   1.777
11316TIP3    H233906   6.956   7.629   1.736
11317TIP3   OH233907   6.955   3.441   5.556
11317TIP3    H133908   6.896   3.475   5.624
11317TIP3    H233909   7.034   3.495   5.564
11318TIP3   OH233910   7.236   1.203   5.217
11318TIP3    H133911   7.152   1.201   5.263
11318TIP3    H233912   7.278   1.283   5.247
11319TIP3   OH233913   4.907   2.445   0.243
11319TIP3    H133914   4.876   2.379   0.182
11319TIP3    H233915   4.907   2.402   0.328
11320TIP3   OH233916   3.047   6.971   0.198
11320TIP3    H133917   2.957   7.002   0.213
11320TIP3    H233918   3.050   6.885   0.240
11321TIP3   OH233919   3.270   2.810   0.571
11321TIP3    H133920   3.303   2.889   0.529
11321TIP3    H233921   3.276   2.828   0.665
11322TIP3   OH233922   7.952   5.457   0.965
11322TIP3    H133923   8.025   5.396   0.976
11322TIP3    H233924   7.879   5.402   0.936
11323TIP3   OH233925   2.292   0.429   4.675
11323TIP3    H133926   2.231   0.380   4.619
11323TIP3    H233927   2.367   0.371   4.683
11324TIP3   OH233928   3.124   2.089   3.882
11324TIP3    H133929   3.053   2.073   3.944
11324TIP3    H233930   3.155   2.002   3.858
11325TIP3   OH233931   8.229   4.141   3.077
11325TIP3    H133932   8.240   4.123   3.170
11325TIP3    H233933   8.162   4.078   3.049
11326TIP3   OH233934   0.774   0.606   2.408
11326TIP3    H133935   0.785   0.667   2.335
11326TIP3    H233936   0.815   0.649   2.483
11327TIP3   OH233937   5.630   4.895   6.743
11327TIP3    H133938   5.542   4.934   6.739
11327TIP3    H233939   5.686   4.958   6.698
11328TIP3   OH233940   5.116   2.818   0.196
11328TIP3    H133941   5.193   2.845   0.146
11328TIP3    H233942   5.045   2.872   0.162
11329TIP3   OH233943   6.670   6.516   2.524
11329TIP3    H133944   6.687   6.592   2.579
11329TIP3    H233945   6.627   6.453   2.582
11330TIP3   OH233946   7.168   3.259   1.842
11330TIP3    H133947   7.192   3.167   1.854
11330TIP3    H233948   7.194   3.279   1.752
11331TIP3   OH233949   6.142   2.340   3.032
11331TIP3    H133950   6.152   2.435   3.025
11331TIP3    H233951   6.121   2.324   3.124
11332TIP3   OH233952   0.458   1.602   6.581
11332TIP3    H133953   0.545   1.576   6.552
11332TIP3    H233954   0.399   1.540   6.538
11333TIP3   OH233955   6.776   6.834   2.560
11333TIP3    H133956   6.860   6.847   2.603
11333TIP3    H233957   6.767   6.909   2.500
11334TIP3   OH233958   3.172   0.375   4.024
11334TIP3    H133959   3.196   0.422   4.104
11334TIP3    H233960   3.091   0.416   3.995
11335TIP3   OH233961   7.468   5.095   0.495
11335TIP3    H133962   7.423   5.170   0.457
11335TIP3    H233963   7.477   5.033   0.422
11336TIP3   OH233964   2.392   2.782   2.042
11336TIP3    H133965   2.333   2.759   1.970
11336TIP3    H233966   2.480   2.771   2.005
11337TIP3   OH233967   3.150   1.522   5.519
11337TIP3    H133968   3.227   1.467   5.529
11337TIP3    H233969   3.183   1.605   5.485
11338TIP3   OH233970   4.738   6.667   5.709
11338TIP3    H133971   4.789   6.639   5.633
11338TIP3    H233972   4.781   6.626   5.784
11339TIP3   OH233973   0.622   5.387   2.011
11339TIP3    H133974   0.698   5.334   2.034
11339TIP3    H233975   0.609   5.445   2.086
11340TIP3   OH233976   8.197   1.694   1.093
11340TIP3    H133977   8.111   1.656   1.113
11340TIP3    H233978   8.247   1.683   1.174
11341TIP3   OH233979   5.465   2.971   5.318
11341TIP3    H133980   5.450   2.879   5.339
11341TIP3    H233981   5.559   2.983   5.325
11342TIP3   OH233982   0.912   4.826   3.467
11342TIP3    H133983   0.885   4.865   3.550
11342TIP3    H233984   0.976   4.759   3.491
11343TIP3   OH233985   2.686   0.755   3.122
11343TIP3    H133986   2.613   0.794   3.074
11343TIP3    H233987   2.715   0.682   3.067
11344TIP3   OH233988   5.091   2.596   5.104
11344TIP3    H133989   5.075   2.687   5.130
11344TIP3    H233990   5.185   2.590   5.091
11345TIP3   OH233991   0.761   0.705   4.098
11345TIP3    H133992   0.836   0.654   4.130
11345TIP3    H233993   0.687   0.672   4.150
11346TIP3   OH233994   7.966   4.683   5.176
11346TIP3    H133995   8.006   4.602   5.146
11346TIP3    H233996   7.924   4.660   5.259
11347TIP3   OH233997   3.754   4.585   0.277
11347TIP3    H133998   3.842   4.551   0.291
11347TIP3    H233999   3.696   4.510   0.292
11348TIP3   OH234000   6.297   5.295   0.459
11348TIP3    H134001   6.255   5.381   0.467
11348TIP3    H234002   6.292   5.275   0.366
11349TIP3   OH234003   6.449   2.881   3.761
11349TIP3    H134004   6.498   2.958   3.732
11349TIP3    H234005   6.510   2.808   3.747
11350TIP3   OH234006   6.591   1.853   1.333
11350TIP3    H134007   6.622   1.778   1.384
11350TIP3    H234008   6.641   1.927   1.366
11351TIP3   OH234009   5.099   0.366   3.395
11351TIP3    H134010   5.075   0.386   3.486
11351TIP3    H234011   5.066   0.441   3.345
11352TIP3   OH234012   7.961   1.396   3.775
11352TIP3    H134013   7.947   1.339   3.850
11352TIP3    H234014   7.873   1.427   3.752
11353TIP3   OH234015   5.787   1.692   4.347
11353TIP3    H134016   5.859   1.753   4.331
11353TIP3    H234017   5.825   1.623   4.401
11354TIP3   OH234018   1.533   6.340   3.826
11354TIP3    H134019   1.476   6.368   3.754
11354TIP3    H234020   1.596   6.411   3.836
11355TIP3   OH234021   7.400   0.985   2.235
11355TIP3    H134022   7.342   1.056   2.206
11355TIP3    H234023   7.353   0.905   2.212
11356TIP3   OH234024   6.678   2.902   2.586
11356TIP3    H134025   6.758   2.859   2.616
11356TIP3    H234026   6.664   2.868   2.498
11357TIP3   OH234027   6.601   5.469   2.400
11357TIP3    H134028   6.551   5.436   2.475
11357TIP3    H234029   6.622   5.391   2.348
11358TIP3   OH234030   1.068   3.997   5.022
11358TIP3    H134031   1.110   4.083   5.015
11358TIP3    H234032   1.062   3.966   4.932
11359TIP3   OH234033   0.147   0.700   6.759
11359TIP3    H134034   0.194   0.743   6.831
11359TIP3    H234035   0.212   0.691   6.690
11360TIP3   OH234036   0.695   6.281   1.480
11360TIP3    H134037   0.663   6.371   1.483
11360TIP3    H234038   0.790   6.289   1.489
11361TIP3   OH234039   6.169   1.572   1.506
11361TIP3    H134040   6.115   1.633   1.455
11361TIP3    H234041   6.223   1.629   1.562
11362TIP3   OH234042   7.857   3.553   6.050
11362TIP3    H134043   7.906   3.505   5.983
11362TIP3    H234044   7.781   3.499   6.068
11363TIP3   OH234045   3.450   4.254   6.102
11363TIP3    H134046   3.369   4.203   6.102
11363TIP3    H234047   3.501   4.218   6.029
11364TIP3   OH234048   5.808   2.458   0.243
11364TIP3    H134049   5.864   2.518   0.194
11364TIP3    H234050   5.721   2.469   0.204
11365TIP3   OH234051   2.366   0.145   3.938
11365TIP3    H134052   2.444   0.200   3.942
11365TIP3    H234053   2.399   0.058   3.918
11366TIP3   OH234054   7.687   2.019   3.847
11366TIP3    H134055   7.615   1.968   3.810
11366TIP3    H234056   7.666   2.026   3.940
11367TIP3   OH234057   1.199   6.219   2.055
11367TIP3    H134058   1.168   6.155   1.991
11367TIP3    H234059   1.155   6.194   2.137
11368TIP3   OH234060   3.764   1.722   4.263
11368TIP3    H134061   3.716   1.753   4.339
11368TIP3    H234062   3.830   1.662   4.299
11369TIP3   OH234063   5.019   3.963   0.949
11369TIP3    H134064   4.974   3.893   0.995
11369TIP3    H234065   5.021   3.935   0.858
11370TIP3   OH234066   0.946   4.476   3.351
11370TIP3    H134067   0.896   4.536   3.295
11370TIP3    H234068   0.984   4.532   3.418
11371TIP3   OH234069   4.010   5.312   2.450
11371TIP3    H134070   3.971   5.261   2.520
11371TIP3    H234071   3.988   5.265   2.370
11372TIP3   OH234072   5.325   4.409   3.522
11372TIP3    H134073   5.271   4.371   3.592
11372TIP3    H234074   5.333   4.338   3.458
11373TIP3   OH234075   7.743   3.940   4.439
11373TIP3    H134076   7.694   3.918   4.518
11373TIP3    H234077   7.731   4.035   4.429
11374TIP3   OH234078   0.527   3.439   1.413
11374TIP3    H134079   0.599   3.453   1.475
11374TIP3    H234080   0.526   3.344   1.399
11375TIP3   OH234081   1.103   7.602   5.496
11375TIP3    H134082   1.064   7.688   5.512
11375TIP3    H234083   1.194   7.612   5.527
11376TIP3   OH234084   1.421   1.213   4.530
11376TIP3    H134085   1.510   1.240   4.511
11376TIP3    H234086   1.417   1.121   4.504
11377TIP3   OH234087   2.007   5.829   3.518
11377TIP3    H134088   2.087   5.801   3.473
11377TIP3    H234089   1.998   5.922   3.497
11378TIP3   OH234090   0.460   6.035   2.361
11378TIP3    H134091   0.472   6.092   2.436
11378TIP3    H234092   0.372   6.054   2.330
11379TIP3   OH234093   4.440   6.536   0.538
11379TIP3    H134094   4.514   6.495   0.582
11379TIP3    H234095   4.472   6.560   0.451
11380TIP3   OH234096   6.699   7.228   1.426
11380TIP3    H134097   6.743   7.309   1.451
11380TIP3    H234098   6.645   7.206   1.502
11381TIP3   OH234099   7.805   3.594   2.125
11381TIP3    H134100   7.827   3.549   2.044
11381TIP3    H234101   7.732   3.652   2.102
11382TIP3   OH234102   3.201   3.180   3.331
11382TIP3    H134103   3.197   3.126   3.410
11382TIP3    H234104   3.256   3.255   3.356
11383TIP3   OH234105   1.025   5.819   3.511
11383TIP3    H134106   1.101   5.817   3.568
11383TIP3    H234107   0.973   5.893   3.542
11384TIP3   OH234108   1.626   5.874   5.192
11384TIP3    H134109   1.578   5.791   5.191
11384TIP3    H234110   1.709   5.853   5.236
11385TIP3   OH234111   4.917   0.620   2.829
11385TIP3    H134112   4.959   0.590   2.909
11385TIP3    H234113   4.958   0.569   2.759
11386TIP3   OH234114   0.364   0.521   0.639
11386TIP3    H134115   0.272   0.529   0.662
11386TIP3    H234116   0.388   0.432   0.667
11387TIP3   OH234117   0.982   0.872   4.681
11387TIP3    H134118   0.964   0.938   4.748
11387TIP3    H234119   1.041   0.915   4.619
11388TIP3   OH234120   7.837   6.878   0.726
11388TIP3    H134121   7.884   6.840   0.652
11388TIP3    H234122   7.753   6.832   0.728
11389TIP3   OH234123   7.801   1.597   1.723
11389TIP3    H134124   7.870   1.664   1.717
11389TIP3    H234125   7.826   1.544   1.799
11390TIP3   OH234126   4.243   2.489   6.438
11390TIP3    H134127   4.212   2.487   6.347
11390TIP3    H234128   4.167   2.516   6.489
11391TIP3   OH234129   2.076   1.280   4.331
11391TIP3    H134130   2.028   1.236   4.260
11391TIP3    H234131   2.104   1.209   4.389
11392TIP3   OH234132   7.859   1.212   1.780
11392TIP3    H134133   7.953   1.228   1.770
11392TIP3    H234134   7.827   1.286   1.832
11393TIP3   OH234135   0.937   4.902   5.473
11393TIP3    H134136   0.941   4.841   5.399
11393TIP3    H234137   0.868   4.964   5.449
11394TIP3   OH234138   8.168   2.680   3.698
11394TIP3    H134139   8.248   2.630   3.687
11394TIP3    H234140   8.196   2.764   3.734
11395TIP3   OH234141   7.752   4.484   5.140
11395TIP3    H134142   7.823   4.427   5.170
11395TIP3    H234143   7.775   4.505   5.049
11396TIP3   OH234144   6.006   3.708   0.471
11396TIP3    H134145   5.927   3.759   0.453
11396TIP3    H234146   6.012   3.706   0.566
11397TIP3   OH234147   2.376   3.533   1.334
11397TIP3    H134148   2.305   3.597   1.344
11397TIP3    H234149   2.336   3.461   1.286
11398TIP3   OH234150   1.719   5.673   0.747
11398TIP3    H134151   1.644   5.727   0.774
11398TIP3    H234152   1.713   5.595   0.802
11399TIP3   OH234153   4.274   5.837   6.691
11399TIP3    H134154   4.344   5.800   6.744
11399TIP3    H234155   4.275   5.931   6.710
11400TIP3   OH234156   0.835   7.701   5.085
11400TIP3    H134157   0.785   7.778   5.055
11400TIP3    H234158   0.877   7.730   5.165
11401TIP3   OH234159   5.104   7.738   2.540
11401TIP3    H134160   5.069   7.650   2.557
11401TIP3    H234161   5.047   7.796   2.592
11402TIP3   OH234162   5.807   2.853   5.061
11402TIP3    H134163   5.885   2.881   5.110
11402TIP3    H234164   5.774   2.933   5.021
11403TIP3   OH234165   5.531   6.282   0.721
11403TIP3    H134166   5.616   6.316   0.748
11403TIP3    H234167   5.468   6.329   0.776
11404TIP3   OH234168   7.967   1.748   6.775
11404TIP3    H134169   8.055   1.711   6.765
11404TIP3    H234170   7.980   1.826   6.828
11405TIP3   OH234171   2.377   1.755   1.006
11405TIP3    H134172   2.383   1.753   0.911
11405TIP3    H234173   2.382   1.664   1.033
11406TIP3   OH234174   6.321   7.408   1.514
11406TIP3    H134175   6.349   7.339   1.575
11406TIP3    H234176   6.226   7.412   1.524
11407TIP3   OH234177   5.826   1.584   3.942
11407TIP3    H134178   5.779   1.559   4.021
11407TIP3    H234179   5.757   1.598   3.876
11408TIP3   OH234180   6.213   2.691   2.966
11408TIP3    H134181   6.149   2.756   2.937
11408TIP3    H234182   6.274   2.683   2.892
11409TIP3   OH234183   3.760   4.421   4.903
11409TIP3    H134184   3.793   4.507   4.930
11409TIP3    H234185   3.676   4.412   4.948
11410TIP3   OH234186   2.494   0.062   3.619
11410TIP3    H134187   2.571   0.012   3.645
11410TIP3    H234188   2.446   0.003   3.561
11411TIP3   OH234189   5.740   5.046   0.376
11411TIP3    H134190   5.679   5.098   0.324
11411TIP3    H234191   5.704   5.048   0.464
11412TIP3   OH234192   6.619   4.573   5.968
11412TIP3    H134193   6.659   4.626   5.900
11412TIP3    H234194   6.691   4.551   6.027
11413TIP3   OH234195   4.191   1.679   0.634
11413TIP3    H134196   4.152   1.631   0.562
11413TIP3    H234197   4.282   1.694   0.607
11414TIP3   OH234198   0.572   7.668   6.647
11414TIP3    H134199   0.654   7.707   6.678
11414TIP3    H234200   0.511   7.678   6.720
11415TIP3   OH234201   2.324   1.289   5.319
11415TIP3    H134202   2.285   1.257   5.238
11415TIP3    H234203   2.285   1.375   5.332
11416TIP3   OH234204   7.971   1.938   3.842
11416TIP3    H134205   7.893   1.993   3.849
11416TIP3    H234206   8.044   1.998   3.856
11417TIP3   OH234207   2.346   6.470   3.439
11417TIP3    H134208   2.295   6.535   3.487
11417TIP3    H234209   2.436   6.503   3.442
11418TIP3   OH234210   5.697   2.185   1.057
11418TIP3    H134211   5.717   2.147   0.972
11418TIP3    H234212   5.744   2.129   1.120
11419TIP3   OH234213   1.985   0.223   3.602
11419TIP3    H134214   2.077   0.239   3.578
11419TIP3    H234215   1.949   0.175   3.528
11420TIP3   OH234216   1.565   6.812   1.219
11420TIP3    H134217   1.582   6.718   1.231
11420TIP3    H234218   1.616   6.854   1.288
11421TIP3   OH234219   1.967   7.792   4.053
11421TIP3    H134220   1.882   7.750   4.037
11421TIP3    H234221   1.952   7.884   4.034
11422TIP3   OH234222   4.979  -0.025   6.258
11422TIP3    H134223   5.041   0.000   6.327
11422TIP3    H234224   4.897  -0.040   6.304
11423TIP3   OH234225   4.622   2.938   0.945
11423TIP3    H134226   4.573   2.891   0.877
11423TIP3    H234227   4.582   2.910   1.027
11424TIP3   OH234228   2.982   6.680   0.245
11424TIP3    H134229   2.970   6.733   0.324
11424TIP3    H234230   2.987   6.590   0.277
11425TIP3   OH234231   8.091   2.161   5.037
11425TIP3    H134232   8.154   2.126   4.974
11425TIP3    H234233   8.111   2.255   5.041
11426TIP3   OH234234   6.837   6.971   3.194
11426TIP3    H134235   6.849   7.061   3.165
11426TIP3    H234236   6.904   6.958   3.262
11427TIP3   OH234237   8.168   3.893   0.648
11427TIP3    H134238   8.210   3.923   0.729
11427TIP3    H234239   8.232   3.913   0.579
11428TIP3   OH234240   4.828   2.867   3.142
11428TIP3    H134241   4.843   2.789   3.089
11428TIP3    H234242   4.843   2.941   3.082
11429TIP3   OH234243   2.833   0.404   4.851
11429TIP3    H134244   2.816   0.473   4.914
11429TIP3    H234245   2.900   0.349   4.893
11430TIP3   OH234246   6.456   4.967   5.096
11430TIP3    H134247   6.476   4.921   5.014
11430TIP3    H234248   6.541   4.998   5.127
11431TIP3   OH234249   0.233   7.092   0.976
11431TIP3    H134250   0.310   7.148   0.979
11431TIP3    H234251   0.266   7.006   0.952
11432TIP3   OH234252   2.958   5.436   0.778
11432TIP3    H134253   2.932   5.357   0.825
11432TIP3    H234254   3.047   5.454   0.808
11433TIP3   OH234255   7.422   6.046   0.622
11433TIP3    H134256   7.422   6.141   0.621
11433TIP3    H234257   7.514   6.022   0.631
11434TIP3   OH234258   6.772   2.055   6.511
11434TIP3    H134259   6.680   2.036   6.492
11434TIP3    H234260   6.791   2.135   6.462
11435TIP3   OH234261   2.106   3.810   0.455
11435TIP3    H134262   2.193   3.774   0.469
11435TIP3    H234263   2.119   3.883   0.396
11436TIP3   OH234264   4.855   4.704   1.037
11436TIP3    H134265   4.770   4.736   1.008
11436TIP3    H234266   4.863   4.617   0.998
11437TIP3   OH234267   1.858   6.202   4.827
11437TIP3    H134268   1.838   6.163   4.912
11437TIP3    H234269   1.944   6.165   4.804
11438TIP3   OH234270   7.343   5.442   2.884
11438TIP3    H134271   7.371   5.356   2.853
11438TIP3    H234272   7.312   5.487   2.806
11439TIP3   OH234273   1.006   2.094   3.303
11439TIP3    H134274   1.042   2.021   3.253
11439TIP3    H234275   0.958   2.053   3.375
11440TIP3   OH234276   6.819   1.061   2.995
11440TIP3    H134277   6.828   1.122   2.921
11440TIP3    H234278   6.908   1.051   3.029
11441TIP3   OH234279   2.200   7.320   6.649
11441TIP3    H134280   2.242   7.237   6.627
11441TIP3    H234281   2.115   7.317   6.605
11442TIP3   OH234282   1.125   1.034   6.653
11442TIP3    H134283   1.164   0.957   6.693
11442TIP3    H234284   1.059   1.063   6.716
11443TIP3   OH234285   2.888   6.411   3.320
11443TIP3    H134286   2.801   6.371   3.317
11443TIP3    H234287   2.893   6.463   3.240
11444TIP3   OH234288   4.241   1.898   5.899
11444TIP3    H134289   4.243   1.853   5.984
11444TIP3    H234290   4.249   1.991   5.921
11445TIP3   OH234291   6.795   5.176   1.144
11445TIP3    H134292   6.709   5.195   1.106
11445TIP3    H234293   6.794   5.219   1.229
11446TIP3   OH234294   5.676   4.050   6.349
11446TIP3    H134295   5.716   4.136   6.364
11446TIP3    H234296   5.746   3.999   6.307
11447TIP3   OH234297   6.313   3.525   3.329
11447TIP3    H134298   6.249   3.473   3.377
11447TIP3    H234299   6.361   3.573   3.396
11448TIP3   OH234300   7.828   4.672   0.741
11448TIP3    H134301   7.895   4.609   0.714
11448TIP3    H234302   7.868   4.758   0.726
11449TIP3   OH234303   0.378   1.340   6.760
11449TIP3    H134304   0.435   1.271   6.726
11449TIP3    H234305   0.289   1.306   6.746
11450TIP3   OH234306   6.175   6.781   2.211
11450TIP3    H134307   6.245   6.724   2.243
11450TIP3    H234308   6.119   6.795   2.288
11451TIP3   OH234309   0.950   1.062   5.856
11451TIP3    H134310   0.956   1.121   5.781
11451TIP3    H234311   0.888   0.995   5.829
11452TIP3   OH234312   5.145   2.667   3.695
11452TIP3    H134313   5.072   2.685   3.755
11452TIP3    H234314   5.206   2.739   3.710
11453TIP3   OH234315   3.300   1.744   0.632
11453TIP3    H134316   3.255   1.805   0.573
11453TIP3    H234317   3.250   1.663   0.624
11454TIP3   OH234318   0.804   6.842   6.315
11454TIP3    H134319   0.722   6.881   6.284
11454TIP3    H234320   0.818   6.767   6.259
11455TIP3   OH234321   7.895   0.775   3.824
11455TIP3    H134322   7.824   0.788   3.760
11455TIP3    H234323   7.953   0.849   3.811
11456TIP3   OH234324   6.167   6.996   3.806
11456TIP3    H134325   6.160   6.901   3.801
11456TIP3    H234326   6.078   7.028   3.786
11457TIP3   OH234327   6.696   3.100   5.331
11457TIP3    H134328   6.723   3.128   5.418
11457TIP3    H234329   6.603   3.123   5.326
11458TIP3   OH234330   2.640   4.415   4.572
11458TIP3    H134331   2.572   4.431   4.507
11458TIP3    H234332   2.652   4.499   4.615
11459TIP3   OH234333   7.603   5.850   5.785
11459TIP3    H134334   7.551   5.770   5.776
11459TIP3    H234335   7.594   5.874   5.878
11460TIP3   OH234336   2.100   3.646   2.651
11460TIP3    H134337   2.180   3.615   2.694
11460TIP3    H234338   2.121   3.736   2.623
11461TIP3   OH234339   1.511   0.037   0.406
11461TIP3    H134340   1.605   0.018   0.410
11461TIP3    H234341   1.474  -0.014   0.478
11462TIP3   OH234342   7.976   2.054   2.436
11462TIP3    H134343   8.026   2.043   2.355
11462TIP3    H234344   8.036   2.099   2.495
11463TIP3   OH234345   7.165   4.256   6.417
11463TIP3    H134346   7.227   4.188   6.393
11463TIP3    H234347   7.199   4.336   6.377
11464TIP3   OH234348   6.921   5.988   0.387
11464TIP3    H134349   6.967   6.071   0.400
11464TIP3    H234350   6.865   5.980   0.464
11465TIP3   OH234351   0.606   6.717   0.647
11465TIP3    H134352   0.662   6.684   0.578
11465TIP3    H234353   0.520   6.728   0.605
11466TIP3   OH234354   5.432   4.017   4.362
11466TIP3    H134355   5.434   3.946   4.298
11466TIP3    H234356   5.444   3.973   4.447
11467TIP3   OH234357   6.788   6.294   1.709
11467TIP3    H134358   6.756   6.236   1.639
11467TIP3    H234359   6.798   6.379   1.666
11468TIP3   OH234360   0.148   3.656   5.032
11468TIP3    H134361   0.069   3.674   4.980
11468TIP3    H234362   0.163   3.736   5.082
11469TIP3   OH234363   5.487   5.766   6.487
11469TIP3    H134364   5.441   5.772   6.570
11469TIP3    H234365   5.534   5.849   6.479
11470TIP3   OH234366   3.180   3.172   2.189
11470TIP3    H134367   3.273   3.164   2.167
11470TIP3    H234368   3.173   3.137   2.278
11471TIP3   OH234369   7.387   1.200   4.067
11471TIP3    H134370   7.427   1.163   4.147
11471TIP3    H234371   7.351   1.124   4.022
11472TIP3   OH234372   4.301   4.097   6.325
11472TIP3    H134373   4.212   4.072   6.351
11472TIP3    H234374   4.295   4.114   6.231
11473TIP3   OH234375   6.989   2.344   0.939
11473TIP3    H134376   6.896   2.322   0.937
11473TIP3    H234377   6.998   2.416   0.877
11474TIP3   OH234378   3.289   1.924   4.786
11474TIP3    H134379   3.367   1.928   4.840
11474TIP3    H234380   3.317   1.954   4.700
11475TIP3   OH234381   7.898   1.747   0.149
11475TIP3    H134382   7.844   1.670   0.165
11475TIP3    H234383   7.988   1.716   0.161
11476TIP3   OH234384   7.300   0.586   2.133
11476TIP3    H134385   7.360   0.561   2.063
11476TIP3    H234386   7.296   0.682   2.129
11477TIP3   OH234387   2.689   6.438   1.135
11477TIP3    H134388   2.702   6.532   1.146
11477TIP3    H234389   2.669   6.406   1.223
11478TIP3   OH234390   7.824   0.589   2.802
11478TIP3    H134391   7.807   0.675   2.841
11478TIP3    H234392   7.783   0.592   2.716
11479TIP3   OH234393   3.822   6.227   6.445
11479TIP3    H134394   3.881   6.176   6.500
11479TIP3    H234395   3.823   6.315   6.483
11480TIP3   OH234396   8.238   0.819   1.056
11480TIP3    H134397   8.220   0.742   1.110
11480TIP3    H234398   8.152   0.853   1.031
11481TIP3   OH234399   2.284   4.686   1.311
11481TIP3    H134400   2.264   4.618   1.248
11481TIP3    H234401   2.208   4.744   1.310
11482TIP3   OH234402   4.059   5.005   5.192
11482TIP3    H134403   4.001   5.048   5.254
11482TIP3    H234404   4.095   5.076   5.140
11483TIP3   OH234405   5.665   6.092   5.694
11483TIP3    H134406   5.572   6.076   5.714
11483TIP3    H234407   5.667   6.181   5.659
11484TIP3   OH234408   4.924   6.145   2.375
11484TIP3    H134409   4.927   6.054   2.406
11484TIP3    H234410   4.832   6.162   2.358
11485TIP3   OH234411   4.572   1.485   2.467
11485TIP3    H134412   4.531   1.546   2.528
11485TIP3    H234413   4.502   1.462   2.406
11486TIP3   OH234414   5.645   6.519   1.737
11486TIP3    H134415   5.638   6.493   1.646
11486TIP3    H234416   5.555   6.538   1.764
11487TIP3   OH234417   6.616   5.886   2.223
11487TIP3    H134418   6.577   5.816   2.276
11487TIP3    H234419   6.564   5.964   2.244
11488TIP3   OH234420   7.120   4.007   4.262
11488TIP3    H134421   7.178   3.933   4.280
11488TIP3    H234422   7.176   4.072   4.220
11489TIP3   OH234423   0.344   7.066   3.514
11489TIP3    H134424   0.251   7.069   3.490
11489TIP3    H234425   0.358   7.142   3.570
11490TIP3   OH234426   7.338   2.440   3.706
11490TIP3    H134427   7.394   2.449   3.783
11490TIP3    H234428   7.345   2.523   3.661
11491TIP3   OH234429   4.186   5.603   0.866
11491TIP3    H134430   4.124   5.541   0.828
11491TIP3    H234431   4.189   5.580   0.959
11492TIP3   OH234432   4.151   2.100   3.984
11492TIP3    H134433   4.070   2.051   3.996
11492TIP3    H234434   4.170   2.136   4.070
11493TIP3   OH234435   5.962   3.422   5.881
11493TIP3    H134436   6.012   3.461   5.808
11493TIP3    H234437   6.026   3.417   5.952
11494TIP3   OH234438   1.753   1.852   2.678
11494TIP3    H134439   1.728   1.904   2.754
11494TIP3    H234440   1.697   1.884   2.607
11495TIP3   OH234441   2.219   0.967   1.716
11495TIP3    H134442   2.177   0.968   1.630
11495TIP3    H234443   2.305   0.927   1.701
11496TIP3   OH234444   3.370   5.259   3.902
11496TIP3    H134445   3.369   5.237   3.995
11496TIP3    H234446   3.340   5.180   3.857
11497TIP3   OH234447   7.220   1.570   4.355
11497TIP3    H134448   7.292   1.509   4.367
11497TIP3    H234449   7.239   1.614   4.272
11498TIP3   OH234450   0.885   0.750   2.144
11498TIP3    H134451   0.971   0.782   2.172
11498TIP3    H234452   0.841   0.828   2.110
11499TIP3   OH234453   5.348   5.754   5.575
11499TIP3    H134454   5.439   5.740   5.548
11499TIP3    H234455   5.313   5.815   5.511
11500TIP3   OH234456   4.588   6.293   3.759
11500TIP3    H134457   4.566   6.202   3.739
11500TIP3    H234458   4.508   6.342   3.740
11501TIP3   OH234459   7.558   4.996   6.631
11501TIP3    H134460   7.567   4.926   6.696
11501TIP3    H234461   7.472   4.982   6.593
11502TIP3   OH234462   3.650   5.326   4.164
11502TIP3    H134463   3.608   5.382   4.229
11502TIP3    H234464   3.581   5.265   4.137
11503TIP3   OH234465   6.574   3.898   1.553
11503TIP3    H134466   6.488   3.938   1.570
11503TIP3    H234467   6.553   3.812   1.518
11504TIP3   OH234468   2.747   3.665   4.475
11504TIP3    H134469   2.659   3.660   4.512
11504TIP3    H234470   2.738   3.723   4.399
11505TIP3   OH234471   3.355   1.480   1.970
11505TIP3    H134472   3.304   1.410   2.011
11505TIP3    H234473   3.291   1.531   1.921
11506TIP3   OH234474   0.063   6.573   1.973
11506TIP3    H134475   0.009   6.652   1.976
11506TIP3    H234476   0.092   6.568   1.881
11507TIP3   OH234477   3.079   3.571   2.072
11507TIP3    H134478   2.992   3.530   2.072
11507TIP3    H234479   3.131   3.517   2.013
11508TIP3   OH234480   0.484   2.410   2.072
11508TIP3    H134481   0.408   2.398   2.014
11508TIP3    H234482   0.534   2.330   2.063
11509TIP3   OH234483   4.844   1.831   0.461
11509TIP3    H134484   4.783   1.883   0.515
11509TIP3    H234485   4.847   1.746   0.504
11510TIP3   OH234486   0.835   0.340   1.005
11510TIP3    H134487   0.921   0.369   1.037
11510TIP3    H234488   0.776   0.411   1.029
11511TIP3   OH234489   4.690   5.686   5.835
11511TIP3    H134490   4.709   5.774   5.866
11511TIP3    H234491   4.727   5.628   5.902
11512TIP3   OH234492   6.091   6.774   4.163
11512TIP3    H134493   6.074   6.835   4.092
11512TIP3    H234494   6.068   6.688   4.127
11513TIP3   OH234495   3.248   0.611   5.488
11513TIP3    H134496   3.338   0.606   5.456
11513TIP3    H234497   3.256   0.601   5.583
11514TIP3   OH234498   6.495   3.759   5.059
11514TIP3    H134499   6.411   3.767   5.104
11514TIP3    H234500   6.535   3.846   5.067
11515TIP3   OH234501   3.864   0.863   2.333
11515TIP3    H134502   3.887   0.829   2.419
11515TIP3    H234503   3.879   0.789   2.274
11516TIP3   OH234504   4.903   3.940   0.271
11516TIP3    H134505   4.910   3.888   0.351
11516TIP3    H234506   4.993   3.960   0.246
11517TIP3   OH234507   3.665   3.625   0.008
11517TIP3    H134508   3.585   3.671  -0.015
11517TIP3    H234509   3.641   3.575   0.087
11518TIP3   OH234510   6.796   4.081   3.554
11518TIP3    H134511   6.746   4.083   3.473
11518TIP3    H234512   6.876   4.033   3.532
11519TIP3   OH234513   6.250   1.186   4.803
11519TIP3    H134514   6.289   1.128   4.868
11519TIP3    H234515   6.302   1.171   4.724
11520TIP3   OH234516   3.077   1.645  -0.039
11520TIP3    H134517   3.030   1.728  -0.039
11520TIP3    H234518   3.012   1.580  -0.065
11521TIP3   OH234519   1.624   5.479   4.494
11521TIP3    H134520   1.591   5.518   4.414
11521TIP3    H234521   1.546   5.460   4.546
11522TIP3   OH234522   1.180   5.943   0.509
11522TIP3    H134523   1.116   5.992   0.457
11522TIP3    H234524   1.153   5.852   0.501
11523TIP3   OH234525   7.462   6.925   1.342
11523TIP3    H134526   7.457   6.976   1.262
11523TIP3    H234527   7.494   6.987   1.408
11524TIP3   OH234528   7.813   5.468   5.417
11524TIP3    H134529   7.854   5.551   5.439
11524TIP3    H234530   7.881   5.420   5.369
11525TIP3   OH234531   5.526   4.765   5.133
11525TIP3    H134532   5.564   4.852   5.146
11525TIP3    H234533   5.447   4.765   5.186
11526TIP3   OH234534   4.442   2.591   4.173
11526TIP3    H134535   4.434   2.606   4.079
11526TIP3    H234536   4.386   2.514   4.190
11527TIP3   OH234537   1.007   7.740   1.034
11527TIP3    H134538   1.088   7.763   1.081
11527TIP3    H234539   0.978   7.822   0.995
11528TIP3   OH234540   2.749   1.608   2.169
11528TIP3    H134541   2.811   1.603   2.241
11528TIP3    H234542   2.751   1.522   2.128
11529TIP3   OH234543   6.156   0.655   0.681
11529TIP3    H134544   6.175   0.593   0.610
11529TIP3    H234545   6.200   0.617   0.758
11530TIP3   OH234546   8.011   1.603   4.997
11530TIP3    H134547   8.062   1.665   5.049
11530TIP3    H234548   8.063   1.589   4.918
11531TIP3   OH234549   8.286   6.776   6.523
11531TIP3    H134550   8.340   6.772   6.601
11531TIP3    H234551   8.230   6.852   6.536
11532TIP3   OH234552   2.907   6.412   2.570
11532TIP3    H134553   2.825   6.375   2.537
11532TIP3    H234554   2.887   6.503   2.591
11533TIP3   OH234555   5.229   6.753   6.053
11533TIP3    H134556   5.138   6.756   6.024
11533TIP3    H234557   5.226   6.782   6.145
11534TIP3   OH234558   5.268   4.032   6.130
11534TIP3    H134559   5.220   4.059   6.052
11534TIP3    H234560   5.207   3.976   6.178
11535TIP3   OH234561   0.866   0.594   6.578
11535TIP3    H134562   0.836   0.574   6.667
11535TIP3    H234563   0.951   0.552   6.571
11536TIP3   OH234564   7.722   5.338   4.761
11536TIP3    H134565   7.688   5.422   4.730
11536TIP3    H234566   7.713   5.279   4.686
11537TIP3   OH234567   0.518   0.459   1.216
11537TIP3    H134568   0.604   0.500   1.223
11537TIP3    H234569   0.537   0.367   1.197
11538TIP3   OH234570   3.128   7.785   1.530
11538TIP3    H134571   3.082   7.788   1.614
11538TIP3    H234572   3.186   7.861   1.532
11539TIP3   OH234573   3.289   4.526   2.531
11539TIP3    H134574   3.272   4.503   2.623
11539TIP3    H234575   3.336   4.450   2.497
11540TIP3   OH234576   8.260   2.884   6.791
11540TIP3    H134577   8.286   2.944   6.721
11540TIP3    H234578   8.184   2.837   6.755
11541TIP3   OH234579   5.243   0.263   6.419
11541TIP3    H134580   5.191   0.295   6.346
11541TIP3    H234581   5.244   0.168   6.408
11542TIP3   OH234582   2.165   4.808   1.584
11542TIP3    H134583   2.261   4.803   1.585
11542TIP3    H234584   2.143   4.838   1.496
11543TIP3   OH234585   1.843   5.344   0.596
11543TIP3    H134586   1.768   5.316   0.544
11543TIP3    H234587   1.892   5.403   0.539
11544TIP3   OH234588   6.660   0.656   1.091
11544TIP3    H134589   6.723   0.594   1.054
11544TIP3    H234590   6.711   0.735   1.108
11545TIP3   OH234591   7.746   1.763   2.887
11545TIP3    H134592   7.779   1.831   2.828
11545TIP3    H234593   7.675   1.721   2.837
11546TIP3   OH234594   3.833   0.820   6.751
11546TIP3    H134595   3.825   0.805   6.657
11546TIP3    H234596   3.751   0.862   6.775
11547TIP3   OH234597   0.097   6.351   1.304
11547TIP3    H134598   0.109   6.303   1.222
11547TIP3    H234599   0.129   6.439   1.286
11548TIP3   OH234600   7.667   0.443   5.753
11548TIP3    H134601   7.603   0.372   5.746
11548TIP3    H234602   7.636   0.496   5.827
11549TIP3   OH234603   1.677   5.301   2.887
11549TIP3    H134604   1.640   5.213   2.889
11549TIP3    H234605   1.771   5.287   2.877
11550TIP3   OH234606   1.638   1.307   4.169
11550TIP3    H134607   1.560   1.326   4.118
11550TIP3    H234608   1.606   1.289   4.258
11551TIP3   OH234609   2.963   5.655   5.561
11551TIP3    H134610   2.875   5.691   5.567
11551TIP3    H234611   2.957   5.568   5.599
11552TIP3   OH234612   7.892   4.339   1.175
11552TIP3    H134613   7.854   4.357   1.088
11552TIP3    H234614   7.959   4.406   1.186
11553TIP3   OH234615   3.014   1.414   0.375
11553TIP3    H134616   3.032   1.389   0.284
11553TIP3    H234617   2.937   1.364   0.399
11554TIP3   OH234618   4.487   2.898   1.605
11554TIP3    H134619   4.490   2.925   1.513
11554TIP3    H234620   4.539   2.965   1.650
11555TIP3   OH234621   3.462   1.297   2.900
11555TIP3    H134622   3.381   1.285   2.951
11555TIP3    H234623   3.468   1.218   2.846
11556TIP3   OH234624   5.733   4.940   2.238
11556TIP3    H134625   5.703   4.880   2.306
11556TIP3    H234626   5.665   4.935   2.170
11557TIP3   OH234627   7.070   5.419   6.466
11557TIP3    H134628   7.132   5.454   6.403
11557TIP3    H234629   7.110   5.339   6.498
11558TIP3   OH234630   7.090   3.877   2.625
11558TIP3    H134631   7.176   3.869   2.583
11558TIP3    H234632   7.067   3.969   2.615
11559TIP3   OH234633   7.026   0.967   0.966
11559TIP3    H134634   7.016   1.019   0.886
11559TIP3    H234635   6.996   1.025   1.036
11560TIP3   OH234636   5.369   2.319   4.626
11560TIP3    H134637   5.389   2.398   4.576
11560TIP3    H234638   5.454   2.284   4.651
11561TIP3   OH234639   5.678   4.248   2.412
11561TIP3    H134640   5.698   4.334   2.448
11561TIP3    H234641   5.742   4.190   2.453
11562TIP3   OH234642   0.023   7.479   1.606
11562TIP3    H134643   0.085   7.516   1.543
11562TIP3    H234644  -0.033   7.422   1.553
11563TIP3   OH234645   0.111   2.003   1.343
11563TIP3    H134646   0.075   1.962   1.264
11563TIP3    H234647   0.179   1.943   1.373
11564TIP3   OH234648   1.545   6.509   4.387
11564TIP3    H134649   1.528   6.547   4.474
11564TIP3    H234650   1.640   6.503   4.383
11565TIP3   OH234651   3.696   0.829   5.881
11565TIP3    H134652   3.671   0.862   5.968
11565TIP3    H234653   3.771   0.772   5.898
11566TIP3   OH234654   3.819   4.051   0.146
11566TIP3    H134655   3.837   4.046   0.240
11566TIP3    H234656   3.844   3.966   0.112
11567TIP3   OH234657   4.798   3.708   6.691
11567TIP3    H134658   4.859   3.781   6.698
11567TIP3    H234659   4.835   3.641   6.748
11568TIP3   OH234660   0.312   3.835   3.249
11568TIP3    H134661   0.321   3.779   3.172
11568TIP3    H234662   0.296   3.923   3.213
11569TIP3   OH234663   6.223   6.298   4.283
11569TIP3    H134664   6.273   6.351   4.346
11569TIP3    H234665   6.163   6.247   4.337
11570TIP3   OH234666   2.988   4.129   2.764
11570TIP3    H134667   3.018   4.123   2.855
11570TIP3    H234668   2.893   4.113   2.769
11571TIP3   OH234669   0.277   0.469   6.063
11571TIP3    H134670   0.299   0.478   5.970
11571TIP3    H234671   0.199   0.412   6.063
11572TIP3   OH234672   6.846   5.049   4.335
11572TIP3    H134673   6.847   5.076   4.427
11572TIP3    H234674   6.908   5.107   4.292
11573TIP3   OH234675   7.906   4.221   2.968
11573TIP3    H134676   7.950   4.256   2.890
11573TIP3    H234677   7.935   4.130   2.972
11574TIP3   OH234678   3.833   0.655   5.009
11574TIP3    H134679   3.927   0.669   5.013
11574TIP3    H234680   3.823   0.567   4.970
11575TIP3   OH234681   6.504   5.656   4.962
11575TIP3    H134682   6.419   5.624   4.993
11575TIP3    H234683   6.566   5.588   4.988
11576TIP3   OH234684   5.807   6.954   0.974
11576TIP3    H134685   5.868   7.001   1.031
11576TIP3    H234686   5.777   6.880   1.027
11577TIP3   OH234687   1.872   4.721   4.375
11577TIP3    H134688   1.845   4.665   4.447
11577TIP3    H234689   1.817   4.695   4.302
11578TIP3   OH234690   0.399   5.966   1.877
11578TIP3    H134691   0.439   5.995   1.958
11578TIP3    H234692   0.467   5.913   1.835
11579TIP3   OH234693   4.910   5.401   1.514
11579TIP3    H134694   4.825   5.432   1.483
11579TIP3    H234695   4.921   5.316   1.472
11580TIP3   OH234696   0.069   2.288   0.393
11580TIP3    H134697   0.039   2.219   0.452
11580TIP3    H234698   0.108   2.242   0.319
11581TIP3   OH234699   2.634   4.212   0.516
11581TIP3    H134700   2.612   4.294   0.560
11581TIP3    H234701   2.554   4.159   0.522
11582TIP3   OH234702   5.339   2.888   6.500
11582TIP3    H134703   5.287   2.926   6.571
11582TIP3    H234704   5.290   2.910   6.421
11583TIP3   OH234705   6.087   4.966   2.868
11583TIP3    H134706   6.009   5.020   2.883
11583TIP3    H234707   6.115   4.988   2.779
11584TIP3   OH234708   3.507   2.105   3.820
11584TIP3    H134709   3.568   2.135   3.753
11584TIP3    H234710   3.550   2.127   3.903
11585TIP3   OH234711   2.639   3.366   0.949
11585TIP3    H134712   2.647   3.298   0.882
11585TIP3    H234713   2.547   3.365   0.974
11586TIP3   OH234714   8.160   6.332   3.338
11586TIP3    H134715   8.228   6.265   3.342
11586TIP3    H234716   8.142   6.342   3.244
11587TIP3   OH234717   5.999   5.027   6.145
11587TIP3    H134718   6.065   5.058   6.206
11587TIP3    H234719   6.040   4.952   6.102
11588TIP3   OH234720   7.095   3.269   3.586
11588TIP3    H134721   7.059   3.266   3.497
11588TIP3    H234722   7.180   3.313   3.576
11589TIP3   OH234723   6.551   7.100   2.969
11589TIP3    H134724   6.609   7.026   2.987
11589TIP3    H234725   6.512   7.121   3.054
11590TIP3   OH234726   2.163   5.317   6.743
11590TIP3    H134727   2.178   5.365   6.824
11590TIP3    H234728   2.209   5.368   6.676
11591TIP3   OH234729   2.591   3.397   4.523
11591TIP3    H134730   2.544   3.470   4.483
11591TIP3    H234731   2.565   3.321   4.471
11592TIP3   OH234732   1.051   3.391   0.384
11592TIP3    H134733   1.021   3.343   0.461
11592TIP3    H234734   1.134   3.431   0.411
11593TIP3   OH234735   8.223   0.956   3.756
11593TIP3    H134736   8.269   0.919   3.681
11593TIP3    H234737   8.132   0.961   3.729
11594TIP3   OH234738   4.100   0.109   3.915
11594TIP3    H134739   4.064   0.150   3.836
11594TIP3    H234740   4.028   0.113   3.979
11595TIP3   OH234741   1.886   6.393   2.056
11595TIP3    H134742   1.861   6.309   2.094
11595TIP3    H234743   1.959   6.373   1.998
11596TIP3   OH234744   7.414   1.697   4.179
11596TIP3    H134745   7.349   1.678   4.112
11596TIP3    H234746   7.493   1.651   4.151
11597TIP3   OH234747   0.663   3.268   3.162
11597TIP3    H134748   0.674   3.196   3.099
11597TIP3    H234749   0.578   3.306   3.140
11598TIP3   OH234750   2.196   3.523   5.481
11598TIP3    H134751   2.121   3.537   5.538
11598TIP3    H234752   2.259   3.591   5.506
11599TIP3   OH234753   6.028   6.071   6.293
11599TIP3    H134754   6.107   6.062   6.345
11599TIP3    H234755   5.969   6.003   6.325
11600TIP3   OH234756   5.713   0.218   0.859
11600TIP3    H134757   5.691   0.262   0.941
11600TIP3    H234758   5.649   0.148   0.852
11601TIP3   OH234759   1.467   5.691   6.794
11601TIP3    H134760   1.439   5.634   6.722
11601TIP3    H234761   1.549   5.651   6.825
11602TIP3   OH234762   0.441   6.350   5.802
11602TIP3    H134763   0.523   6.399   5.797
11602TIP3    H234764   0.457   6.270   5.751
11603TIP3   OH234765   4.907   6.363   5.653
11603TIP3    H134766   4.875   6.369   5.563
11603TIP3    H234767   4.851   6.297   5.694
11604TIP3   OH234768   6.370   5.294   6.465
11604TIP3    H134769   6.450   5.314   6.514
11604TIP3    H234770   6.302   5.347   6.507
11605TIP3   OH234771   0.849   1.283   5.376
11605TIP3    H134772   0.857   1.378   5.383
11605TIP3    H234773   0.879   1.262   5.287
11606TIP3   OH234774   6.408   4.497   3.720
11606TIP3    H134775   6.438   4.432   3.783
11606TIP3    H234776   6.408   4.451   3.636
11607TIP3   OH234777   6.860   4.834   6.499
11607TIP3    H134778   6.779   4.855   6.546
11607TIP3    H234779   6.930   4.846   6.564
11608TIP3   OH234780   4.358   4.605   1.249
11608TIP3    H134781   4.282   4.630   1.196
11608TIP3    H234782   4.433   4.625   1.193
11609TIP3   OH234783   3.833   1.363   4.403
11609TIP3    H134784   3.753   1.412   4.420
11609TIP3    H234785   3.803   1.280   4.367
11610TIP3   OH234786   1.512   4.760   5.964
11610TIP3    H134787   1.447   4.807   5.913
11610TIP3    H234788   1.534   4.684   5.909
11611TIP3   OH234789   3.778   1.411   1.509
11611TIP3    H134790   3.700   1.412   1.564
11611TIP3    H234791   3.850   1.425   1.570
11612TIP3   OH234792   0.525   6.833   2.609
11612TIP3    H134793   0.552   6.744   2.631
11612TIP3    H234794   0.431   6.826   2.592
11613TIP3   OH234795   3.179   0.588   2.628
11613TIP3    H134796   3.183   0.496   2.604
11613TIP3    H234797   3.135   0.590   2.713
11614TIP3   OH234798   1.275   6.204   1.635
11614TIP3    H134799   1.330   6.267   1.681
11614TIP3    H234800   1.228   6.157   1.704
11615TIP3   OH234801   5.788   6.000   0.880
11615TIP3    H134802   5.699   6.035   0.886
11615TIP3    H234803   5.779   5.920   0.828
11616TIP3   OH234804   3.752   2.178   2.083
11616TIP3    H134805   3.795   2.199   2.166
11616TIP3    H234806   3.808   2.111   2.043
11617TIP3   OH234807   4.801   5.719   4.751
11617TIP3    H134808   4.755   5.708   4.667
11617TIP3    H234809   4.741   5.770   4.805
11618TIP3   OH234810   6.720   3.762   2.022
11618TIP3    H134811   6.701   3.854   2.004
11618TIP3    H234812   6.728   3.757   2.117
11619TIP3   OH234813   3.155   6.462   3.489
11619TIP3    H134814   3.109   6.502   3.414
11619TIP3    H234815   3.227   6.413   3.450
11620TIP3   OH234816   7.604   2.003   6.548
11620TIP3    H134817   7.685   2.029   6.503
11620TIP3    H234818   7.541   1.989   6.478
11621TIP3   OH234819   5.670   2.490   3.463
11621TIP3    H134820   5.669   2.554   3.392
11621TIP3    H234821   5.705   2.537   3.538
11622TIP3   OH234822   4.189   6.791   3.194
11622TIP3    H134823   4.115   6.732   3.207
11622TIP3    H234824   4.159   6.852   3.126
11623TIP3   OH234825   1.317   6.694   5.512
11623TIP3    H134826   1.241   6.709   5.456
11623TIP3    H234827   1.302   6.750   5.588
11624TIP3   OH234828   5.724   3.278   1.165
11624TIP3    H134829   5.709   3.185   1.182
11624TIP3    H234830   5.786   3.280   1.092
11625TIP3   OH234831   1.150   4.493   2.887
11625TIP3    H134832   1.078   4.515   2.946
11625TIP3    H234833   1.203   4.430   2.936
11626TIP3   OH234834   0.245   1.157   0.858
11626TIP3    H134835   0.176   1.175   0.795
11626TIP3    H234836   0.231   1.065   0.883
11627TIP3   OH234837   3.179   1.525   4.996
11627TIP3    H134838   3.167   1.545   4.903
11627TIP3    H234839   3.199   1.609   5.037
11628TIP3   OH234840   1.681   1.890   3.724
11628TIP3    H134841   1.714   1.942   3.651
11628TIP3    H234842   1.592   1.922   3.739
11629TIP3   OH234843   4.229   0.700   2.353
11629TIP3    H134844   4.323   0.693   2.367
11629TIP3    H234845   4.220   0.763   2.282
11630TIP3   OH234846   2.976   6.630   6.476
11630TIP3    H134847   2.895   6.664   6.439
11630TIP3    H234848   3.044   6.651   6.411
11631TIP3   OH234849   4.020   4.847   4.174
11631TIP3    H134850   4.091   4.867   4.236
11631TIP3    H234851   3.955   4.801   4.227
11632TIP3   OH234852   7.175   4.966   0.801
11632TIP3    H134853   7.246   4.944   0.861
11632TIP3    H234854   7.143   4.881   0.770
11633TIP3   OH234855   6.695   7.371   0.838
11633TIP3    H134856   6.668   7.326   0.919
11633TIP3    H234857   6.728   7.301   0.782
11634TIP3   OH234858   0.241   2.894   0.108
11634TIP3    H134859   0.147   2.908   0.124
11634TIP3    H234860   0.283   2.970   0.147
11635TIP3   OH234861   7.775   5.690   5.215
11635TIP3    H134862   7.734   5.659   5.295
11635TIP3    H234863   7.850   5.632   5.202
11636TIP3   OH234864   2.800   0.169   1.648
11636TIP3    H134865   2.742   0.131   1.581
11636TIP3    H234866   2.743   0.230   1.696
11637TIP3   OH234867   5.713   5.798   6.784
11637TIP3    H134868   5.722   5.887   6.819
11637TIP3    H234869   5.623   5.794   6.752
11638TIP3   OH234870   2.895   1.727   3.793
11638TIP3    H134871   2.922   1.663   3.728
11638TIP3    H234872   2.968   1.789   3.799
11639TIP3   OH234873   7.189   4.713   5.649
11639TIP3    H134874   7.279   4.705   5.619
11639TIP3    H234875   7.136   4.692   5.571
11640TIP3   OH234876   1.943   5.664   0.287
11640TIP3    H134877   1.853   5.681   0.314
11640TIP3    H234878   1.938   5.654   0.192
11641TIP3   OH234879   4.842   0.561   1.177
11641TIP3    H134880   4.869   0.542   1.087
11641TIP3    H234881   4.914   0.528   1.230
11642TIP3   OH234882   7.891   7.442   3.339
11642TIP3    H134883   7.896   7.476   3.249
11642TIP3    H234884   7.816   7.383   3.338
11643TIP3   OH234885   5.352   1.034   3.339
11643TIP3    H134886   5.357   1.088   3.261
11643TIP3    H234887   5.431   1.057   3.389
11644TIP3   OH234888   1.583   7.140   0.092
11644TIP3    H134889   1.651   7.115   0.155
11644TIP3    H234890   1.535   7.060   0.074
11645TIP3   OH234891   2.458   3.843   5.996
11645TIP3    H134892   2.363   3.839   5.981
11645TIP3    H234893   2.476   3.936   6.010
11646TIP3   OH234894   0.942   6.532   6.665
11646TIP3    H134895   0.928   6.480   6.586
11646TIP3    H234896   0.965   6.467   6.732
11647TIP3   OH234897   5.365   6.136   5.440
11647TIP3    H134898   5.444   6.108   5.395
11647TIP3    H234899   5.325   6.201   5.382
11648TIP3   OH234900   7.093   1.613   2.703
11648TIP3    H134901   7.054   1.677   2.644
11648TIP3    H234902   7.129   1.665   2.774
11649TIP3   OH234903   0.369   2.861   6.381
11649TIP3    H134904   0.405   2.787   6.429
11649TIP3    H234905   0.426   2.869   6.304
11650TIP3   OH234906   0.381   4.240   5.722
11650TIP3    H134907   0.428   4.236   5.805
11650TIP3    H234908   0.440   4.196   5.660
11651TIP3   OH234909   3.113   1.647   3.996
11651TIP3    H134910   3.146   1.704   3.927
11651TIP3    H234911   3.104   1.561   3.955
11652TIP3   OH234912   0.321   3.384   6.331
11652TIP3    H134913   0.330   3.292   6.356
11652TIP3    H234914   0.228   3.403   6.343
11653TIP3   OH234915   6.128   6.279   1.376
11653TIP3    H134916   6.058   6.299   1.314
11653TIP3    H234917   6.191   6.350   1.365
11654TIP3   OH234918   8.046   7.477   5.601
11654TIP3    H134919   8.097   7.558   5.606
11654TIP3    H234920   8.110   7.408   5.622
11655TIP3   OH234921   5.704   3.349   5.875
11655TIP3    H134922   5.666   3.436   5.887
11655TIP3    H234923   5.797   3.366   5.859
11656TIP3   OH234924   2.340   7.823   5.725
11656TIP3    H134925   2.323   7.739   5.682
11656TIP3    H234926   2.340   7.804   5.818
11657TIP3   OH234927   5.952   3.794   4.390
11657TIP3    H134928   5.873   3.847   4.383
11657TIP3    H234929   5.985   3.811   4.478
11658TIP3   OH234930   0.424   0.279   4.341
11658TIP3    H134931   0.350   0.225   4.314
11658TIP3    H234932   0.500   0.234   4.305
11659TIP3   OH234933   0.807   4.893   0.883
11659TIP3    H134934   0.832   4.981   0.911
11659TIP3    H234935   0.880   4.864   0.829
11660TIP3   OH234936   3.915   6.668   0.796
11660TIP3    H134937   3.870   6.604   0.741
11660TIP3    H234938   4.008   6.657   0.774
11661TIP3   OH234939   5.736   3.687   1.763
11661TIP3    H134940   5.818   3.655   1.726
11661TIP3    H234941   5.747   3.782   1.764
11662TIP3   OH234942   6.191   7.358   4.862
11662TIP3    H134943   6.211   7.446   4.894
11662TIP3    H234944   6.139   7.319   4.932
11663TIP3   OH234945   5.683   6.955   6.379
11663TIP3    H134946   5.633   7.036   6.367
11663TIP3    H234947   5.727   6.967   6.463
11664TIP3   OH234948   1.729   6.942   4.748
11664TIP3    H134949   1.730   6.935   4.652
11664TIP3    H234950   1.669   6.873   4.776
11665TIP3   OH234951   1.043   7.052   1.951
11665TIP3    H134952   0.968   7.095   1.994
11665TIP3    H234953   1.012   7.036   1.862
11666TIP3   OH234954   3.912   2.601   0.249
11666TIP3    H134955   3.961   2.521   0.230
11666TIP3    H234956   3.979   2.666   0.270
11667TIP3   OH234957   2.588   2.380   3.088
11667TIP3    H134958   2.604   2.453   3.147
11667TIP3    H234959   2.675   2.343   3.072
11668TIP3   OH234960   1.844   7.108   2.453
11668TIP3    H134961   1.751   7.106   2.472
11668TIP3    H234962   1.882   7.167   2.518
11669TIP3   OH234963   7.991   2.772   1.899
11669TIP3    H134964   7.989   2.811   1.986
11669TIP3    H234965   8.072   2.721   1.898
11670TIP3   OH234966   4.366   6.874   5.048
11670TIP3    H134967   4.370   6.899   5.140
11670TIP3    H234968   4.333   6.953   5.003
11671TIP3   OH234969   6.728   5.626   0.012
11671TIP3    H134970   6.691   5.712  -0.003
11671TIP3    H234971   6.803   5.641   0.069
11672TIP3   OH234972   4.573   2.099   4.131
11672TIP3    H134973   4.510   2.028   4.118
11672TIP3    H234974   4.567   2.121   4.224
11673TIP3   OH234975   5.624   5.761   5.836
11673TIP3    H134976   5.597   5.673   5.862
11673TIP3    H234977   5.552   5.817   5.865
11674TIP3   OH234978   3.994   2.691   6.423
11674TIP3    H134979   3.993   2.621   6.488
11674TIP3    H234980   3.975   2.770   6.473
11675TIP3   OH234981   1.264   5.780   2.725
11675TIP3    H134982   1.225   5.779   2.638
11675TIP3    H234983   1.358   5.789   2.709
11676TIP3   OH234984   2.388   2.991   6.481
11676TIP3    H134985   2.421   2.903   6.500
11676TIP3    H234986   2.303   2.995   6.526
11677TIP3   OH234987   2.350   0.306   0.841
11677TIP3    H134988   2.409   0.325   0.914
11677TIP3    H234989   2.263   0.316   0.879
11678TIP3   OH234990   2.921   2.930   3.252
11678TIP3    H134991   2.983   2.859   3.240
11678TIP3    H234992   2.849   2.910   3.191
11679TIP3   OH234993   1.129   4.530   5.387
11679TIP3    H134994   1.142   4.607   5.443
11679TIP3    H234995   1.038   4.536   5.359
11680TIP3   OH234996   0.771   5.145   3.577
11680TIP3    H134997   0.720   5.101   3.508
11680TIP3    H234998   0.815   5.073   3.622
11681TIP3   OH234999   1.929   4.752   5.619
11681TIP3    H135000   1.915   4.834   5.572
11681TIP3    H235001   1.841   4.714   5.628
11682TIP3   OH235002   0.007   3.585   0.826
11682TIP3    H135003   0.063   3.661   0.810
11682TIP3    H235004  -0.001   3.543   0.741
11683TIP3   OH235005   6.693   0.152   1.009
11683TIP3    H135006   6.624   0.215   0.989
11683TIP3    H235007   6.751   0.198   1.070
11684TIP3   OH235008   5.185   6.114   2.015
11684TIP3    H135009   5.146   6.082   1.934
11684TIP3    H235010   5.188   6.209   2.005
11685TIP3   OH235011   1.267   3.365   1.757
11685TIP3    H135012   1.218   3.353   1.838
11685TIP3    H235013   1.313   3.448   1.769
11686TIP3   OH235014   7.828   4.404   2.680
11686TIP3    H135015   7.735   4.396   2.659
11686TIP3    H235016   7.834   4.481   2.736
11687TIP3   OH235017   3.339   3.537   5.744
11687TIP3    H135018   3.269   3.475   5.723
11687TIP3    H235019   3.409   3.482   5.780
11688TIP3   OH235020   8.066   2.786   2.433
11688TIP3    H135021   8.048   2.796   2.527
11688TIP3    H235022   8.116   2.864   2.409
11689TIP3   OH235023   7.825   4.781   6.493
11689TIP3    H135024   7.890   4.818   6.433
11689TIP3    H235025   7.742   4.788   6.446
11690TIP3   OH235026   2.569   7.830   3.722
11690TIP3    H135027   2.571   7.839   3.627
11690TIP3    H235028   2.657   7.802   3.746
11691TIP3   OH235029   6.169   6.032   3.728
11691TIP3    H135030   6.191   6.121   3.704
11691TIP3    H235031   6.099   6.041   3.792
11692TIP3   OH235032   6.805   5.639   4.559
11692TIP3    H135033   6.892   5.677   4.554
11692TIP3    H235034   6.793   5.616   4.651
11693TIP3   OH235035   0.448   1.778   0.063
11693TIP3    H135036   0.452   1.692   0.021
11693TIP3    H235037   0.519   1.776   0.127
11694TIP3   OH235038   2.283   4.968   5.180
11694TIP3    H135039   2.325   4.892   5.221
11694TIP3    H235040   2.273   5.031   5.252
11695TIP3   OH235041   6.112   3.490   5.451
11695TIP3    H135042   6.051   3.561   5.472
11695TIP3    H235043   6.065   3.410   5.475
11696TIP3   OH235044   0.231   4.188   0.242
11696TIP3    H135045   0.221   4.280   0.268
11696TIP3    H235046   0.162   4.174   0.176
11697TIP3   OH235047   2.582   1.436   5.312
11697TIP3    H135048   2.494   1.461   5.341
11697TIP3    H235049   2.613   1.511   5.261
11698TIP3   OH235050   3.188   2.832   3.166
11698TIP3    H135051   3.272   2.873   3.187
11698TIP3    H235052   3.194   2.744   3.203
11699TIP3   OH235053   1.377   0.672   4.237
11699TIP3    H135054   1.336   0.725   4.169
11699TIP3    H235055   1.320   0.595   4.245
11700TIP3   OH235056   5.595   0.672   3.554
11700TIP3    H135057   5.585   0.765   3.573
11700TIP3    H235058   5.676   0.666   3.503
11701TIP3   OH235059   4.296   7.387   5.853
11701TIP3    H135060   4.211   7.427   5.873
11701TIP3    H235061   4.358   7.440   5.903
11702TIP3   OH235062   6.712   3.620   2.763
11702TIP3    H135063   6.735   3.567   2.839
11702TIP3    H235064   6.631   3.580   2.730
11703TIP3   OH235065   3.378   0.457   2.205
11703TIP3    H135066   3.468   0.464   2.174
11703TIP3    H235067   3.356   0.364   2.195
11704TIP3   OH235068   4.322   2.705   1.746
11704TIP3    H135069   4.347   2.768   1.678
11704TIP3    H235070   4.230   2.722   1.762
11705TIP3   OH235071   2.996   3.551   5.521
11705TIP3    H135072   2.969   3.562   5.613
11705TIP3    H235073   2.930   3.492   5.484
11706TIP3   OH235074   1.632   4.237   4.606
11706TIP3    H135075   1.718   4.223   4.567
11706TIP3    H235076   1.572   4.242   4.532
11707TIP3   OH235077   6.772   6.313   1.977
11707TIP3    H135078   6.752   6.232   2.024
11707TIP3    H235079   6.777   6.286   1.885
11708TIP3   OH235080   6.697   3.697   0.297
11708TIP3    H135081   6.611   3.672   0.264
11708TIP3    H235082   6.701   3.657   0.385
11709TIP3   OH235083   4.042   7.528   5.959
11709TIP3    H135084   4.005   7.471   6.027
11709TIP3    H235085   4.077   7.603   6.007
11710TIP3   OH235086   6.428   7.449   6.291
11710TIP3    H135087   6.333   7.447   6.274
11710TIP3    H235088   6.435   7.453   6.386
11711TIP3   OH235089   3.293   7.177   0.093
11711TIP3    H135090   3.288   7.267   0.059
11711TIP3    H235091   3.256   7.183   0.181
11712TIP3   OH235092   1.089   7.330   4.680
11712TIP3    H135093   1.128   7.243   4.689
11712TIP3    H235094   1.118   7.378   4.758
11713TIP3   OH235095   2.294   6.366   5.742
11713TIP3    H135096   2.330   6.454   5.731
11713TIP3    H235097   2.332   6.316   5.670
11714TIP3   OH235098   6.805   2.789   3.804
11714TIP3    H135099   6.730   2.732   3.790
11714TIP3    H235100   6.770   2.864   3.852
11715TIP3   OH235101   3.923   1.191   3.299
11715TIP3    H135102   3.882   1.205   3.384
11715TIP3    H235103   3.907   1.273   3.251
11716TIP3   OH235104   2.035   0.874   1.892
11716TIP3    H135105   2.096   0.824   1.946
11716TIP3    H235106   2.084   0.896   1.813
11717TIP3   OH235107   5.252   2.992   1.157
11717TIP3    H135108   5.199   2.969   1.081
11717TIP3    H235109   5.316   3.055   1.124
11718TIP3   OH235110   1.988   7.107   2.173
11718TIP3    H135111   1.964   7.099   2.081
11718TIP3    H235112   1.905   7.104   2.221
11719TIP3   OH235113   5.804   6.889   4.409
11719TIP3    H135114   5.779   6.977   4.436
11719TIP3    H235115   5.890   6.875   4.448
11720TIP3   OH235116   2.890   1.645   4.569
11720TIP3    H135117   2.953   1.716   4.555
11720TIP3    H235118   2.815   1.688   4.610
11721TIP3   OH235119   6.287   6.806   1.452
11721TIP3    H135120   6.308   6.764   1.535
11721TIP3    H235121   6.214   6.754   1.417
11722TIP3   OH235122   3.828   3.478   0.265
11722TIP3    H135123   3.822   3.385   0.288
11722TIP3    H235124   3.904   3.484   0.207
11723TIP3   OH235125   2.144   0.903   4.769
11723TIP3    H135126   2.096   0.970   4.819
11723TIP3    H235127   2.176   0.843   4.836
11724TIP3   OH235128   7.687   4.307   0.378
11724TIP3    H135129   7.682   4.267   0.291
11724TIP3    H235130   7.780   4.321   0.392
11725TIP3   OH235131   7.594   2.135   1.173
11725TIP3    H135132   7.635   2.078   1.107
11725TIP3    H235133   7.555   2.075   1.236
11726TIP3   OH235134   2.133   3.928   6.205
11726TIP3    H135135   2.044   3.927   6.169
11726TIP3    H235136   2.189   3.951   6.130
11727TIP3   OH235137   3.863   5.333   2.139
11727TIP3    H135138   3.799   5.376   2.195
11727TIP3    H235139   3.909   5.272   2.197
11728TIP3   OH235140   0.663   2.845   4.499
11728TIP3    H135141   0.638   2.782   4.566
11728TIP3    H235142   0.580   2.888   4.475
11729TIP3   OH235143   5.536   2.540   2.761
11729TIP3    H135144   5.535   2.634   2.782
11729TIP3    H235145   5.544   2.537   2.666
11730TIP3   OH235146   4.483   1.050   6.606
11730TIP3    H135147   4.396   1.057   6.644
11730TIP3    H235148   4.505   0.957   6.614
11731TIP3   OH235149   6.628   7.191   6.348
11731TIP3    H135150   6.701   7.157   6.297
11731TIP3    H235151   6.654   7.280   6.371
11732TIP3   OH235152   4.686   3.940   4.879
11732TIP3    H135153   4.652   3.956   4.791
11732TIP3    H235154   4.611   3.904   4.927
11733TIP3   OH235155   6.857   3.930   1.570
11733TIP3    H135156   6.890   3.906   1.657
11733TIP3    H235157   6.763   3.941   1.582
11734TIP3   OH235158   5.710   6.997   4.983
11734TIP3    H135159   5.650   7.009   4.909
11734TIP3    H235160   5.732   6.904   4.981
11735TIP3   OH235161   0.686   4.825   6.788
11735TIP3    H135162   0.667   4.826   6.694
11735TIP3    H235163   0.716   4.914   6.807
11736TIP3   OH235164   0.276   4.958   3.210
11736TIP3    H135165   0.243   5.020   3.276
11736TIP3    H235166   0.222   4.880   3.221
11737TIP3   OH235167   2.146   5.081   0.508
11737TIP3    H135168   2.201   5.160   0.507
11737TIP3    H235169   2.073   5.103   0.451
11738TIP3   OH235170   7.355   6.891   1.709
11738TIP3    H135171   7.374   6.985   1.702
11738TIP3    H235172   7.266   6.883   1.674
11739TIP3   OH235173   7.513   1.805   1.268
11739TIP3    H135174   7.585   1.830   1.210
11739TIP3    H235175   7.440   1.861   1.243
11740TIP3   OH235176   0.177   0.616   1.940
11740TIP3    H135177   0.238   0.637   1.869
11740TIP3    H235178   0.124   0.543   1.906
11741TIP3   OH235179   3.713   2.923   1.924
11741TIP3    H135180   3.794   2.939   1.973
11741TIP3    H235181   3.718   2.831   1.898
11742TIP3   OH235182   0.422   1.253   0.441
11742TIP3    H135183   0.487   1.195   0.480
11742TIP3    H235184   0.449   1.341   0.467
11743TIP3   OH235185   5.361   4.370   2.076
11743TIP3    H135186   5.397   4.337   2.159
11743TIP3    H235187   5.438   4.401   2.028
11744TIP3   OH235188   7.355   6.791   0.623
11744TIP3    H135189   7.287   6.727   0.645
11744TIP3    H235190   7.310   6.875   0.624
11745TIP3   OH235191   3.497   5.143   3.089
11745TIP3    H135192   3.571   5.083   3.095
11745TIP3    H235193   3.472   5.160   3.180
11746TIP3   OH235194   0.888   7.039   1.716
11746TIP3    H135195   0.964   7.012   1.665
11746TIP3    H235196   0.835   6.960   1.723
11747TIP3   OH235197   7.040   6.955   5.726
11747TIP3    H135198   7.078   7.004   5.653
11747TIP3    H235199   6.976   6.897   5.685
11748TIP3   OH235200   1.641   4.386   0.336
11748TIP3    H135201   1.708   4.363   0.271
11748TIP3    H235202   1.564   4.410   0.284
11749TIP3   OH235203   3.789   3.817   5.987
11749TIP3    H135204   3.797   3.840   6.080
11749TIP3    H235205   3.713   3.760   5.983
11750TIP3   OH235206   1.941   3.844   0.677
11750TIP3    H135207   2.013   3.835   0.615
11750TIP3    H235208   1.961   3.924   0.726
11751TIP3   OH235209   6.448   4.703   1.100
11751TIP3    H135210   6.386   4.635   1.129
11751TIP3    H235211   6.521   4.696   1.162
11752TIP3   OH235212   0.542   5.678   5.746
11752TIP3    H135213   0.568   5.681   5.838
11752TIP3    H235214   0.473   5.612   5.743
11753TIP3   OH235215   3.043   0.025   3.696
11753TIP3    H135216   3.032   0.001   3.788
11753TIP3    H235217   3.037   0.121   3.696
11754TIP3   OH235218   1.569   4.128   0.499
11754TIP3    H135219   1.487   4.097   0.461
11754TIP3    H235220   1.583   4.073   0.575
11755TIP3   OH235221   4.623   6.544   4.764
11755TIP3    H135222   4.710   6.581   4.781
11755TIP3    H235223   4.630   6.506   4.676
11756TIP3   OH235224   3.394   2.953   3.269
11756TIP3    H135225   3.474   2.995   3.301
11756TIP3    H235226   3.331   3.025   3.260
11757TIP3   OH235227   1.522   2.798   4.792
11757TIP3    H135228   1.527   2.870   4.855
11757TIP3    H235229   1.608   2.756   4.797
11758TIP3   OH235230   7.975   1.228   3.498
11758TIP3    H135231   8.014   1.305   3.539
11758TIP3    H235232   7.913   1.263   3.434
11759TIP3   OH235233   2.778   5.385   0.566
11759TIP3    H135234   2.811   5.342   0.488
11759TIP3    H235235   2.856   5.420   0.609
11760TIP3   OH235236   6.796   3.770   3.387
11760TIP3    H135237   6.882   3.760   3.346
11760TIP3    H235238   6.763   3.853   3.355
11761TIP3   OH235239   4.574   1.053   1.302
11761TIP3    H135240   4.518   1.044   1.225
11761TIP3    H235241   4.641   0.985   1.291
11762TIP3   OH235242   4.107   7.177   5.501
11762TIP3    H135243   4.117   7.137   5.415
11762TIP3    H235244   4.024   7.141   5.535
11763TIP3   OH235245   1.741   1.861   1.509
11763TIP3    H135246   1.687   1.825   1.579
11763TIP3    H235247   1.684   1.921   1.463
11764TIP3   OH235248   6.936   2.744   2.117
11764TIP3    H135249   6.993   2.768   2.043
11764TIP3    H235250   6.901   2.659   2.093
11765TIP3   OH235251   3.198   1.777   1.139
11765TIP3    H135252   3.220   1.689   1.168
11765TIP3    H235253   3.112   1.768   1.097
11766TIP3   OH235254   3.911   3.011   2.543
11766TIP3    H135255   3.990   2.997   2.596
11766TIP3    H235256   3.935   2.977   2.456
11767TIP3   OH235257   2.995   5.422   2.280
11767TIP3    H135258   2.907   5.432   2.316
11767TIP3    H235259   3.026   5.339   2.314
11768TIP3   OH235260   6.339   4.998   2.640
11768TIP3    H135261   6.429   5.004   2.609
11768TIP3    H235262   6.294   5.070   2.596
11769TIP3   OH235263   7.922   7.534   3.687
11769TIP3    H135264   8.014   7.511   3.671
11769TIP3    H235265   7.889   7.560   3.601
11770TIP3   OH235266   4.930   2.489   4.915
11770TIP3    H135267   4.898   2.544   4.844
11770TIP3    H235268   4.955   2.550   4.984
11771TIP3   OH235269   5.019   4.021   5.412
11771TIP3    H135270   4.971   3.941   5.390
11771TIP3    H235271   4.964   4.092   5.379
11772TIP3   OH235272   3.968   1.336   0.189
11772TIP3    H135273   3.929   1.384   0.263
11772TIP3    H235274   3.903   1.344   0.119
11773TIP3   OH235275   6.265   4.816   4.706
11773TIP3    H135276   6.210   4.745   4.675
11773TIP3    H235277   6.207   4.870   4.760
11774TIP3   OH235278   7.947   1.570   2.345
11774TIP3    H135279   7.874   1.519   2.308
11774TIP3    H235280   7.906   1.649   2.379
11775TIP3   OH235281   7.367   0.258   3.117
11775TIP3    H135282   7.332   0.288   3.033
11775TIP3    H235283   7.314   0.183   3.140
11776TIP3   OH235284   7.445   2.855   0.407
11776TIP3    H135285   7.490   2.939   0.394
11776TIP3    H235286   7.353   2.874   0.386
11777TIP3   OH235287   2.816   6.968   0.814
11777TIP3    H135288   2.744   6.925   0.769
11777TIP3    H235289   2.867   7.010   0.745
11778TIP3   OH235290   3.046   7.812   1.810
11778TIP3    H135291   3.022   7.772   1.893
11778TIP3    H235292   3.036   7.906   1.825
11779TIP3   OH235293   1.578   4.374   3.386
11779TIP3    H135294   1.500   4.349   3.435
11779TIP3    H235295   1.544   4.413   3.306
11780TIP3   OH235296   8.184   0.906   1.538
11780TIP3    H135297   8.215   0.994   1.559
11780TIP3    H235298   8.129   0.918   1.460
11781TIP3   OH235299   3.740   0.493   1.183
11781TIP3    H135300   3.645   0.501   1.194
11781TIP3    H235301   3.755   0.400   1.169
11782TIP3   OH235302   0.981   3.101   0.702
11782TIP3    H135303   0.955   3.109   0.610
11782TIP3    H235304   1.040   3.026   0.703
11783TIP3   OH235305   1.347   7.822   1.775
11783TIP3    H135306   1.284   7.751   1.766
11783TIP3    H235307   1.367   7.825   1.868
11784TIP3   OH235308   2.745   7.204   0.995
11784TIP3    H135309   2.695   7.149   0.934
11784TIP3    H235310   2.834   7.202   0.962
11785TIP3   OH235311   2.713   0.090   0.157
11785TIP3    H135312   2.660   0.158   0.198
11785TIP3    H235313   2.668   0.071   0.075
11786TIP3   OH235314   2.128   0.320   2.332
11786TIP3    H135315   2.192   0.336   2.262
11786TIP3    H235316   2.176   0.268   2.397
11787TIP3   OH235317   4.351   7.116   3.740
11787TIP3    H135318   4.368   7.159   3.656
11787TIP3    H235319   4.333   7.188   3.801
11788TIP3   OH235320   4.323   1.578   0.135
11788TIP3    H135321   4.307   1.518   0.062
11788TIP3    H235322   4.362   1.655   0.095
11789TIP3   OH235323   4.586   3.519   4.463
11789TIP3    H135324   4.651   3.553   4.401
11789TIP3    H235325   4.530   3.594   4.482
11790TIP3   OH235326   4.920   5.846   2.174
11790TIP3    H135327   5.011   5.818   2.160
11790TIP3    H235328   4.910   5.845   2.270
11791TIP3   OH235329   4.800   0.169   5.987
11791TIP3    H135330   4.761   0.162   6.074
11791TIP3    H235331   4.801   0.262   5.968
11792TIP3   OH235332   2.988   2.561   1.678
11792TIP3    H135333   3.064   2.514   1.643
11792TIP3    H235334   2.914   2.530   1.626
11793TIP3   OH235335   6.908   3.786   4.319
11793TIP3    H135336   6.924   3.881   4.314
11793TIP3    H235337   6.846   3.768   4.248
11794TIP3   OH235338   3.249   0.747   1.573
11794TIP3    H135339   3.248   0.659   1.535
11794TIP3    H235340   3.341   0.772   1.575
11795TIP3   OH235341   0.445   5.894   6.691
11795TIP3    H135342   0.465   5.949   6.767
11795TIP3    H235343   0.376   5.835   6.722
11796TIP3   OH235344   7.051   5.586   0.647
11796TIP3    H135345   7.109   5.567   0.721
11796TIP3    H235346   7.101   5.560   0.570
11797TIP3   OH235347   3.441   2.213   2.454
11797TIP3    H135348   3.357   2.187   2.416
11797TIP3    H235349   3.425   2.301   2.490
11798TIP3   OH235350   2.706   4.876   0.528
11798TIP3    H135351   2.715   4.951   0.469
11798TIP3    H235352   2.613   4.851   0.521
11799TIP3   OH235353   7.880   0.056   4.247
11799TIP3    H135354   7.911   0.103   4.170
11799TIP3    H235355   7.787   0.077   4.252
11800TIP3   OH235356   7.218   7.687   4.408
11800TIP3    H135357   7.222   7.614   4.345
11800TIP3    H235358   7.296   7.739   4.389
11801TIP3   OH235359   0.242   2.611   1.257
11801TIP3    H135360   0.263   2.519   1.241
11801TIP3    H235361   0.217   2.646   1.172
11802TIP3   OH235362   3.787   0.485   3.114
11802TIP3    H135363   3.813   0.564   3.066
11802TIP3    H235364   3.692   0.486   3.113
11803TIP3   OH235365   2.228   7.780   5.976
11803TIP3    H135366   2.229   7.783   6.072
11803TIP3    H235367   2.170   7.852   5.950
11804TIP3   OH235368   1.774   7.363   1.456
11804TIP3    H135369   1.760   7.388   1.547
11804TIP3    H235370   1.725   7.281   1.446
11805TIP3   OH235371   3.006   0.826   5.576
11805TIP3    H135372   3.100   0.834   5.591
11805TIP3    H235373   2.981   0.748   5.624
11806TIP3   OH235374   7.362   1.817   2.542
11806TIP3    H135375   7.416   1.879   2.493
11806TIP3    H235376   7.391   1.827   2.633
11807TIP3   OH235377   8.034   1.934   1.094
11807TIP3    H135378   8.125   1.902   1.086
11807TIP3    H235379   8.009   1.912   1.184
11808TIP3   OH235380   1.604   1.161   5.499
11808TIP3    H135381   1.562   1.078   5.477
11808TIP3    H235382   1.540   1.206   5.555
11809TIP3   OH235383   2.030   2.242   0.711
11809TIP3    H135384   2.059   2.176   0.774
11809TIP3    H235385   1.945   2.211   0.680
11810TIP3   OH235386   6.676   4.042   2.315
11810TIP3    H135387   6.663   3.985   2.390
11810TIP3    H235388   6.602   4.023   2.257
11811TIP3   OH235389   5.197   4.340   6.539
11811TIP3    H135390   5.192   4.416   6.481
11811TIP3    H235391   5.107   4.311   6.549
11812TIP3   OH235392   0.958   1.944   5.492
11812TIP3    H135393   0.931   1.893   5.415
11812TIP3    H235394   0.884   1.937   5.552
11813TIP3   OH235395   4.540   6.899   3.343
11813TIP3    H135396   4.599   6.853   3.402
11813TIP3    H235397   4.570   6.990   3.344
11814TIP3   OH235398   7.272   1.148   3.765
11814TIP3    H135399   7.233   1.106   3.689
11814TIP3    H235400   7.366   1.130   3.758
11815TIP3   OH235401   6.627   2.793   2.365
11815TIP3    H135402   6.578   2.711   2.371
11815TIP3    H235403   6.647   2.803   2.272
11816TIP3   OH235404   4.747   0.833   0.056
11816TIP3    H135405   4.744   0.779  -0.023
11816TIP3    H235406   4.702   0.781   0.122
11817TIP3   OH235407   6.127   2.904   4.815
11817TIP3    H135408   6.075   2.851   4.755
11817TIP3    H235409   6.205   2.928   4.765
11818TIP3   OH235410   7.075   7.646   4.961
11818TIP3    H135411   7.011   7.706   4.924
11818TIP3    H235412   7.119   7.609   4.884
11819TIP3   OH235413   5.088   7.594   4.915
11819TIP3    H135414   5.014   7.547   4.951
11819TIP3    H235415   5.162   7.533   4.922
11820TIP3   OH235416   1.587   0.251   1.937
11820TIP3    H135417   1.587   0.300   2.019
11820TIP3    H235418   1.576   0.318   1.869
11821TIP3   OH235419   4.516   6.706   0.307
11821TIP3    H135420   4.555   6.793   0.313
11821TIP3    H235421   4.541   6.675   0.220
11822TIP3   OH235422   5.078   7.562   3.219
11822TIP3    H135423   5.163   7.531   3.188
11822TIP3    H235424   5.070   7.527   3.308
11823TIP3   OH235425   2.721   7.507   0.082
11823TIP3    H135426   2.692   7.558   0.006
11823TIP3    H235427   2.714   7.416   0.054
11824TIP3   OH235428   2.237   4.084   4.571
11824TIP3    H135429   2.244   4.167   4.523
11824TIP3    H235430   2.161   4.096   4.627
11825TIP3   OH235431   6.334   6.463   3.814
11825TIP3    H135432   6.290   6.384   3.843
11825TIP3    H235433   6.339   6.517   3.893
11826TIP3   OH235434   6.916   3.881   0.534
11826TIP3    H135435   6.843   3.914   0.482
11826TIP3    H235436   6.886   3.797   0.568
11827TIP3   OH235437   3.472   3.914   5.847
11827TIP3    H135438   3.397   3.901   5.788
11827TIP3    H235439   3.507   4.000   5.822
11828TIP3   OH235440   5.860   5.467   6.077
11828TIP3    H135441   5.875   5.554   6.042
11828TIP3    H235442   5.928   5.457   6.145
11829TIP3   OH235443   7.275   1.172   2.448
11829TIP3    H135444   7.241   1.118   2.377
11829TIP3    H235445   7.364   1.194   2.421
11830TIP3   OH235446   6.527   6.633   5.213
11830TIP3    H135447   6.462   6.568   5.239
11830TIP3    H235448   6.483   6.717   5.225
11831TIP3   OH235449   4.763   4.421   1.031
11831TIP3    H135450   4.712   4.394   1.107
11831TIP3    H235451   4.703   4.411   0.957
11832TIP3   OH235452   4.805   2.933   5.231
11832TIP3    H135453   4.711   2.929   5.247
11832TIP3    H235454   4.816   2.897   5.143
11833TIP3   OH235455   7.897   4.226   3.757
11833TIP3    H135456   7.802   4.240   3.765
11833TIP3    H235457   7.936   4.303   3.797
11834TIP3   OH235458   5.920   7.008   6.532
11834TIP3    H135459   5.977   7.068   6.485
11834TIP3    H235460   5.954   6.921   6.512
11835TIP3   OH235461   5.864   7.239   1.458
11835TIP3    H135462   5.837   7.286   1.537
11835TIP3    H235463   5.801   7.266   1.391
11836TIP3   OH235464   5.785   0.995   0.047
11836TIP3    H135465   5.842   0.924   0.017
11836TIP3    H235466   5.761   1.041  -0.034
11837TIP3   OH235467   5.441   3.249   3.348
11837TIP3    H135468   5.386   3.252   3.426
11837TIP3    H235469   5.460   3.341   3.328
11838TIP3   OH235470   6.921   5.778   1.116
11838TIP3    H135471   7.015   5.795   1.114
11838TIP3    H235472   6.884   5.850   1.168
11839TIP3   OH235473   7.950   0.817   3.445
11839TIP3    H135474   7.928   0.838   3.535
11839TIP3    H235475   7.865   0.800   3.403
11840TIP3   OH235476   4.835   3.974   6.085
11840TIP3    H135477   4.796   4.049   6.041
11840TIP3    H235478   4.762   3.914   6.099
11841TIP3   OH235479   4.147   6.062   3.682
11841TIP3    H135480   4.081   5.995   3.667
11841TIP3    H235481   4.132   6.092   3.772
11842TIP3   OH235482   6.058   5.376   6.248
11842TIP3    H135483   6.092   5.433   6.317
11842TIP3    H235484   6.135   5.327   6.217
11843TIP3   OH235485   6.709   2.285   1.007
11843TIP3    H135486   6.644   2.339   0.962
11843TIP3    H235487   6.668   2.199   1.012
11844TIP3   OH235488   2.955   4.397   1.228
11844TIP3    H135489   2.950   4.387   1.133
11844TIP3    H235490   2.997   4.317   1.258
11845TIP3   OH235491   2.453   4.526   4.411
11845TIP3    H135492   2.488   4.519   4.323
11845TIP3    H235493   2.360   4.546   4.399
11846TIP3   OH235494   5.080   2.012   0.986
11846TIP3    H135495   5.020   2.087   0.986
11846TIP3    H235496   5.127   2.019   1.069
11847TIP3   OH235497   6.715   3.150   2.668
11847TIP3    H135498   6.675   3.063   2.657
11847TIP3    H235499   6.703   3.192   2.583
11848TIP3   OH235500   6.942   4.368   6.575
11848TIP3    H135501   6.989   4.420   6.510
11848TIP3    H235502   6.959   4.277   6.549
11849TIP3   OH235503   0.379   3.825   5.815
11849TIP3    H135504   0.405   3.770   5.889
11849TIP3    H235505   0.405   3.913   5.841
11850TIP3   OH235506   5.920   1.863   5.330
11850TIP3    H135507   5.845   1.822   5.288
11850TIP3    H235508   5.883   1.933   5.384
11851TIP3   OH235509   5.869   4.069   1.166
11851TIP3    H135510   5.957   4.037   1.145
11851TIP3    H235511   5.860   4.054   1.260
11852TIP3   OH235512   2.170   1.232   2.193
11852TIP3    H135513   2.165   1.169   2.121
11852TIP3    H235514   2.262   1.260   2.194
11853TIP3   OH235515   0.003   4.732   1.193
11853TIP3    H135516   0.081   4.787   1.186
11853TIP3    H235517  -0.069   4.795   1.202
11854TIP3   OH235518   5.979   1.846   5.026
11854TIP3    H135519   5.891   1.877   5.048
11854TIP3    H235520   6.009   1.906   4.958
11855TIP3   OH235521   4.363   4.101   1.303
11855TIP3    H135522   4.317   4.183   1.284
11855TIP3    H235523   4.294   4.041   1.331
11856TIP3   OH235524   1.000   0.266   6.620
11856TIP3    H135525   0.950   0.268   6.538
11856TIP3    H235526   0.933   0.260   6.689
11857TIP3   OH235527   2.924   3.115   1.005
11857TIP3    H135528   2.954   3.179   0.941
11857TIP3    H235529   3.004   3.084   1.048
11858TIP3   OH235530   3.047   5.478   0.383
11858TIP3    H135531   3.129   5.456   0.427
11858TIP3    H235532   3.037   5.572   0.396
11859TIP3   OH235533   5.040   7.000   6.736
11859TIP3    H135534   4.988   7.002   6.656
11859TIP3    H235535   5.080   6.914   6.736
11860TIP3   OH235536   6.551   7.774   2.149
11860TIP3    H135537   6.530   7.681   2.151
11860TIP3    H235538   6.607   7.788   2.226
11861TIP3   OH235539   1.129   3.718   4.798
11861TIP3    H135540   1.137   3.630   4.760
11861TIP3    H235541   1.041   3.720   4.836
11862TIP3   OH235542   3.831   0.697   2.952
11862TIP3    H135543   3.914   0.693   2.904
11862TIP3    H235544   3.818   0.791   2.968
11863TIP3   OH235545   2.538   1.146   2.273
11863TIP3    H135546   2.596   1.111   2.205
11863TIP3    H235547   2.458   1.094   2.265
11864TIP3   OH235548   1.640   0.674   1.237
11864TIP3    H135549   1.735   0.663   1.243
11864TIP3    H235550   1.627   0.733   1.163
11865TIP3   OH235551   5.530   7.374   2.045
11865TIP3    H135552   5.491   7.426   1.975
11865TIP3    H235553   5.479   7.293   2.047
11866TIP3   OH235554   6.621   5.967   3.042
11866TIP3    H135555   6.589   5.879   3.023
11866TIP3    H235556   6.574   6.023   2.981
11867TIP3   OH235557   0.853   7.000   4.424
11867TIP3    H135558   0.914   7.011   4.350
11867TIP3    H235559   0.826   7.089   4.446
11868TIP3   OH235560   1.582   2.438   4.628
11868TIP3    H135561   1.510   2.427   4.690
11868TIP3    H235562   1.550   2.399   4.546
11869TIP3   OH235563   0.175   2.354   5.117
11869TIP3    H135564   0.181   2.449   5.129
11869TIP3    H235565   0.143   2.321   5.201
11870TIP3   OH235566   1.799   2.384   5.658
11870TIP3    H135567   1.845   2.325   5.598
11870TIP3    H235568   1.845   2.374   5.741
11871TIP3   OH235569   6.970   4.331   4.062
11871TIP3    H135570   7.026   4.405   4.038
11871TIP3    H235571   7.018   4.254   4.032
11872TIP3   OH235572   5.227   3.249   5.580
11872TIP3    H135573   5.212   3.344   5.573
11872TIP3    H235574   5.284   3.229   5.505
11873TIP3   OH235575   4.682   5.924   0.795
11873TIP3    H135576   4.745   5.964   0.735
11873TIP3    H235577   4.617   5.883   0.737
11874TIP3   OH235578   5.946   0.520   0.791
11874TIP3    H135579   5.870   0.577   0.782
11874TIP3    H235580   6.009   0.552   0.727
11875TIP3   OH235581   7.962   2.915   5.830
11875TIP3    H135582   8.013   2.984   5.873
11875TIP3    H235583   8.027   2.857   5.791
11876TIP3   OH235584   2.540   0.491   4.920
11876TIP3    H135585   2.616   0.504   4.977
11876TIP3    H235586   2.545   0.399   4.895
11877TIP3   OH235587   2.467   7.759   0.040
11877TIP3    H135588   2.501   7.825   0.100
11877TIP3    H235589   2.538   7.744  -0.023
11878TIP3   OH235590   5.335   6.487   5.878
11878TIP3    H135591   5.320   6.405   5.924
11878TIP3    H235592   5.419   6.519   5.912
11879TIP3   OH235593   0.674   5.389   1.014
11879TIP3    H135594   0.736   5.448   1.058
11879TIP3    H235595   0.717   5.368   0.931
11880TIP3   OH235596   3.742   2.254   0.517
11880TIP3    H135597   3.707   2.198   0.586
11880TIP3    H235598   3.816   2.204   0.481
11881TIP3   OH235599   1.735   3.382   0.093
11881TIP3    H135600   1.755   3.385   0.187
11881TIP3    H235601   1.793   3.315   0.058
11882TIP3   OH235602   6.597   7.679   0.484
11882TIP3    H135603   6.636   7.767   0.485
11882TIP3    H235604   6.503   7.696   0.481
11883TIP3   OH235605   6.779   6.083   2.125
11883TIP3    H135606   6.816   6.127   2.202
11883TIP3    H235607   6.746   6.000   2.159
11884TIP3   OH235608   1.140   2.408   6.711
11884TIP3    H135609   1.168   2.500   6.709
11884TIP3    H235610   1.221   2.358   6.698
11885TIP3   OH235611   6.262   2.145   5.052
11885TIP3    H135612   6.235   2.169   4.963
11885TIP3    H235613   6.186   2.165   5.107
11886TIP3   OH235614   0.589   7.219   4.534
11886TIP3    H135615   0.645   7.225   4.456
11886TIP3    H235616   0.650   7.214   4.607
11887TIP3   OH235617   4.271   0.331   3.357
11887TIP3    H135618   4.320   0.264   3.405
11887TIP3    H235619   4.203   0.360   3.418
11888TIP3   OH235620   7.116   7.024   5.139
11888TIP3    H135621   7.136   6.977   5.058
11888TIP3    H235622   7.180   7.094   5.143
11889TIP3   OH235623   7.076   2.523   2.673
11889TIP3    H135624   7.062   2.453   2.609
11889TIP3    H235625   6.990   2.535   2.714
11890TIP3   OH235626   6.127   2.244   5.446
11890TIP3    H135627   6.121   2.237   5.351
11890TIP3    H235628   6.139   2.154   5.476
11891TIP3   OH235629   1.075   6.107   4.483
11891TIP3    H135630   1.155   6.109   4.430
11891TIP3    H235631   1.014   6.165   4.438
11892TIP3   OH235632   2.762   5.053   6.713
11892TIP3    H135633   2.833   4.991   6.696
11892TIP3    H235634   2.808   5.135   6.735
11893TIP3   OH235635   4.416   3.412   6.754
11893TIP3    H135636   4.476   3.364   6.697
11893TIP3    H235637   4.456   3.498   6.764
11894TIP3   OH235638   7.579   3.866   4.669
11894TIP3    H135639   7.524   3.795   4.638
11894TIP3    H235640   7.518   3.934   4.697
11895TIP3   OH235641   0.333   2.408   0.209
11895TIP3    H135642   0.310   2.388   0.118
11895TIP3    H235643   0.249   2.414   0.255
11896TIP3   OH235644   1.485   2.781   0.709
11896TIP3    H135645   1.537   2.843   0.657
11896TIP3    H235646   1.539   2.763   0.786
11897TIP3   OH235647   1.291   1.881   1.213
11897TIP3    H135648   1.207   1.859   1.172
11897TIP3    H235649   1.343   1.920   1.143
11898TIP3   OH235650   3.731   3.391   1.338
11898TIP3    H135651   3.656   3.404   1.396
11898TIP3    H235652   3.722   3.301   1.308
11899TIP3   OH235653   2.356   7.505   0.052
11899TIP3    H135654   2.265   7.501   0.082
11899TIP3    H235655   2.378   7.598   0.055
11900TIP3   OH235656   1.421   6.162   5.501
11900TIP3    H135657   1.396   6.092   5.441
11900TIP3    H235658   1.379   6.240   5.466
11901TIP3   OH235659   4.067   2.683   6.137
11901TIP3    H135660   4.117   2.603   6.123
11901TIP3    H235661   4.029   2.673   6.224
11902TIP3   OH235662   6.279   7.036   3.205
11902TIP3    H135663   6.287   6.946   3.238
11902TIP3    H235664   6.353   7.082   3.246
11903TIP3   OH235665   8.011   2.658   4.782
11903TIP3    H135666   7.946   2.594   4.753
11903TIP3    H235667   8.033   2.707   4.703
11904TIP3   OH235668   6.739   5.539   1.182
11904TIP3    H135669   6.819   5.592   1.172
11904TIP3    H235670   6.761   5.476   1.251
11905TIP3   OH235671   5.616   6.866   1.530
11905TIP3    H135672   5.588   6.921   1.603
11905TIP3    H235673   5.554   6.885   1.460
11906TIP3   OH235674   2.062   0.076   6.561
11906TIP3    H135675   2.127   0.031   6.508
11906TIP3    H235676   2.085   0.053   6.651
11907TIP3   OH235677   1.968   1.434   6.152
11907TIP3    H135678   1.951   1.413   6.060
11907TIP3    H235679   2.058   1.467   6.153
11908TIP3   OH235680   7.172   3.191   2.978
11908TIP3    H135681   7.207   3.280   2.974
11908TIP3    H235682   7.084   3.197   2.941
11909TIP3   OH235683   5.905   1.044   2.522
11909TIP3    H135684   5.900   1.130   2.564
11909TIP3    H235685   5.883   0.982   2.592
11910TIP3   OH235686   6.632   1.762   0.772
11910TIP3    H135687   6.645   1.820   0.847
11910TIP3    H235688   6.558   1.706   0.798
11911TIP3   OH235689   5.994   0.598   4.990
11911TIP3    H135690   5.954   0.676   5.028
11911TIP3    H235691   5.936   0.574   4.918
11912TIP3   OH235692   1.883   5.490   3.864
11912TIP3    H135693   1.874   5.585   3.867
11912TIP3    H235694   1.807   5.460   3.813
11913TIP3   OH235695   7.096   5.594   6.104
11913TIP3    H135696   7.113   5.514   6.054
11913TIP3    H235697   7.160   5.591   6.175
11914TIP3   OH235698   0.733   1.093   0.959
11914TIP3    H135699   0.815   1.050   0.934
11914TIP3    H235700   0.664   1.038   0.922
11915TIP3   OH235701   0.754   0.739   0.578
11915TIP3    H135702   0.668   0.770   0.606
11915TIP3    H235703   0.781   0.677   0.646
11916TIP3   OH235704   7.550   4.669   3.808
11916TIP3    H135705   7.578   4.692   3.897
11916TIP3    H235706   7.471   4.616   3.821
11917TIP3   OH235707   1.436   4.741   6.235
11917TIP3    H135708   1.438   4.754   6.140
11917TIP3    H235709   1.528   4.740   6.261
11918TIP3   OH235710   8.006   7.621   6.171
11918TIP3    H135711   8.094   7.659   6.177
11918TIP3    H235712   8.018   7.537   6.127
11919TIP3   OH235713   0.466   3.753   6.104
11919TIP3    H135714   0.557   3.778   6.085
11919TIP3    H235715   0.427   3.830   6.144
11920TIP3   OH235716   0.869   4.984   3.156
11920TIP3    H135717   0.929   4.981   3.231
11920TIP3    H235718   0.918   5.031   3.089
11921TIP3   OH235719   1.622   7.691   1.054
11921TIP3    H135720   1.713   7.711   1.077
11921TIP3    H235721   1.629   7.623   0.986
11922TIP3   OH235722   5.777   4.359   6.009
11922TIP3    H135723   5.776   4.294   5.939
11922TIP3    H235724   5.684   4.379   6.023
11923TIP3   OH235725   3.205   7.408   4.185
11923TIP3    H135726   3.176   7.347   4.117
11923TIP3    H235727   3.251   7.354   4.249
11924TIP3   OH235728   3.678   4.770   0.095
11924TIP3    H135729   3.686   4.707   0.166
11924TIP3    H235730   3.763   4.770   0.052
11925TIP3   OH235731   6.356   0.478   3.767
11925TIP3    H135732   6.360   0.386   3.794
11925TIP3    H235733   6.447   0.502   3.750
11926TIP3   OH235734   4.603   0.301   2.400
11926TIP3    H135735   4.678   0.251   2.432
11926TIP3    H235736   4.589   0.269   2.311
11927TIP3   OH235737   4.491   6.007   5.474
11927TIP3    H135738   4.471   6.012   5.381
11927TIP3    H235739   4.406   5.998   5.516
11928TIP3   OH235740   6.831   0.578   5.117
11928TIP3    H135741   6.867   0.656   5.160
11928TIP3    H235742   6.908   0.534   5.079
11929TIP3   OH235743   6.426   2.356   1.559
11929TIP3    H135744   6.346   2.392   1.597
11929TIP3    H235745   6.484   2.342   1.634
11930TIP3   OH235746   6.727   4.065   1.929
11930TIP3    H135747   6.742   4.130   1.861
11930TIP3    H235748   6.806   4.069   1.984
11931TIP3   OH235749   5.993   6.296   1.773
11931TIP3    H135750   5.913   6.247   1.751
11931TIP3    H235751   6.063   6.247   1.731
11932TIP3   OH235752   5.747   2.989   6.182
11932TIP3    H135753   5.804   2.913   6.176
11932TIP3    H235754   5.662   2.957   6.152
11933TIP3   OH235755   6.381   1.209   6.096
11933TIP3    H135756   6.322   1.152   6.048
11933TIP3    H235757   6.469   1.177   6.074
11934TIP3   OH235758   5.624   5.886   2.991
11934TIP3    H135759   5.553   5.949   2.993
11934TIP3    H235760   5.582   5.801   3.002
11935TIP3   OH235761   0.080   6.081   2.097
11935TIP3    H135762   0.128   6.111   2.020
11935TIP3    H235763   0.011   6.147   2.109
11936TIP3   OH235764   6.186   0.665   6.162
11936TIP3    H135765   6.279   0.678   6.178
11936TIP3    H235766   6.181   0.584   6.112
11937TIP3   OH235767   3.605   6.076   0.396
11937TIP3    H135768   3.617   6.040   0.308
11937TIP3    H235769   3.681   6.043   0.445
11938TIP3   OH235770   3.952   2.661   3.026
11938TIP3    H135771   3.908   2.687   3.107
11938TIP3    H235772   4.041   2.639   3.054
11939TIP3   OH235773   7.550   2.326   2.344
11939TIP3    H135774   7.609   2.266   2.391
11939TIP3    H235775   7.591   2.412   2.353
11940TIP3   OH235776   2.791   5.822   5.875
11940TIP3    H135777   2.842   5.764   5.933
11940TIP3    H235778   2.768   5.768   5.800
11941TIP3   OH235779   3.994   3.829   2.246
11941TIP3    H135780   3.980   3.917   2.211
11941TIP3    H235781   4.063   3.839   2.311
11942TIP3   OH235782   6.630   2.294   4.694
11942TIP3    H135783   6.640   2.252   4.780
11942TIP3    H235784   6.547   2.261   4.660
11943TIP3   OH235785   3.763   5.945   6.761
11943TIP3    H135786   3.689   5.935   6.700
11943TIP3    H235787   3.797   5.857   6.771
11944TIP3   OH235788   1.258   4.744   4.033
11944TIP3    H135789   1.235   4.830   3.998
11944TIP3    H235790   1.321   4.763   4.102
11945TIP3   OH235791   7.546   0.368   1.143
11945TIP3    H135792   7.608   0.341   1.075
11945TIP3    H235793   7.594   0.355   1.225
11946TIP3   OH235794   2.113   1.173   5.834
11946TIP3    H135795   2.187   1.124   5.869
11946TIP3    H235796   2.132   1.184   5.741
11947TIP3   OH235797   6.019   5.056   6.526
11947TIP3    H135798   6.089   5.042   6.462
11947TIP3    H235799   6.065   5.062   6.610
11948TIP3   OH235800   3.204   1.818   5.516
11948TIP3    H135801   3.299   1.832   5.519
11948TIP3    H235802   3.184   1.772   5.598
11949TIP3   OH235803   0.965   1.457   1.944
11949TIP3    H135804   0.893   1.516   1.925
11949TIP3    H235805   1.003   1.436   1.858
11950TIP3   OH235806   8.017   3.971   2.948
11950TIP3    H135807   8.004   3.892   3.000
11950TIP3    H235808   8.023   3.940   2.858
11951TIP3   OH235809   4.784   6.975   3.890
11951TIP3    H135810   4.790   6.957   3.984
11951TIP3    H235811   4.842   7.050   3.876
11952TIP3   OH235812   2.978   6.435   1.527
11952TIP3    H135813   3.058   6.487   1.532
11952TIP3    H235814   2.976   6.386   1.609
11953TIP3   OH235815   7.947   1.853   1.352
11953TIP3    H135816   7.995   1.806   1.421
11953TIP3    H235817   7.901   1.923   1.399
11954TIP3   OH235818   5.303   6.667   3.345
11954TIP3    H135819   5.252   6.695   3.421
11954TIP3    H235820   5.245   6.607   3.299
11955TIP3   OH235821   0.269   4.462   4.355
11955TIP3    H135822   0.306   4.381   4.391
11955TIP3    H235823   0.209   4.493   4.422
11956TIP3   OH235824   0.405   3.697   1.924
11956TIP3    H135825   0.439   3.648   1.849
11956TIP3    H235826   0.404   3.634   1.996
11957TIP3   OH235827   5.537   1.519   1.405
11957TIP3    H135828   5.525   1.425   1.418
11957TIP3    H235829   5.631   1.534   1.419
11958TIP3   OH235830   0.946   0.827   1.436
11958TIP3    H135831   0.958   0.805   1.529
11958TIP3    H235832   0.854   0.808   1.419
11959TIP3   OH235833   2.677   6.146   0.672
11959TIP3    H135834   2.682   6.222   0.730
11959TIP3    H235835   2.742   6.085   0.707
11960TIP3   OH235836   6.946   6.404   0.535
11960TIP3    H135837   6.993   6.321   0.526
11960TIP3    H235838   6.942   6.418   0.630
11961TIP3   OH235839   1.757   6.802   5.552
11961TIP3    H135840   1.835   6.755   5.524
11961TIP3    H235841   1.761   6.800   5.648
11962TIP3   OH235842   8.284   3.130   3.103
11962TIP3    H135843   8.297   3.109   3.196
11962TIP3    H235844   8.189   3.127   3.092
11963TIP3   OH235845   6.337   4.425   2.185
11963TIP3    H135846   6.347   4.440   2.091
11963TIP3    H235847   6.426   4.417   2.219
11964TIP3   OH235848   0.552   1.552   4.446
11964TIP3    H135849   0.460   1.566   4.425
11964TIP3    H235850   0.599   1.615   4.392
11965TIP3   OH235851   6.578   5.198   6.247
11965TIP3    H135852   6.626   5.271   6.285
11965TIP3    H235853   6.626   5.120   6.277
11966TIP3   OH235854   7.135   3.643   0.587
11966TIP3    H135855   7.172   3.569   0.635
11966TIP3    H235856   7.088   3.694   0.653
11967TIP3   OH235857   1.588   4.948   4.779
11967TIP3    H135858   1.524   5.018   4.766
11967TIP3    H235859   1.635   4.943   4.696
11968TIP3   OH235860   5.616   6.625   3.949
11968TIP3    H135861   5.583   6.704   3.906
11968TIP3    H235862   5.679   6.658   4.013
11969TIP3   OH235863   6.361   7.382   3.190
11969TIP3    H135864   6.395   7.390   3.101
11969TIP3    H235865   6.285   7.324   3.182
11970TIP3   OH235866   3.533   4.461   0.702
11970TIP3    H135867   3.447   4.464   0.661
11970TIP3    H235868   3.519   4.416   0.785
11971TIP3   OH235869   1.396   2.547   1.034
11971TIP3    H135870   1.475   2.600   1.020
11971TIP3    H235871   1.429   2.466   1.074
11972TIP3   OH235872   4.933   4.075   5.062
11972TIP3    H135873   4.940   3.980   5.072
11972TIP3    H235874   5.021   4.107   5.083
11973TIP3   OH235875   7.684   5.638   4.753
11973TIP3    H135876   7.681   5.710   4.690
11973TIP3    H235877   7.598   5.641   4.796
11974TIP3   OH235878   5.365   4.421   3.142
11974TIP3    H135879   5.365   4.375   3.226
11974TIP3    H235880   5.274   4.419   3.113
11975TIP3   OH235881   7.646   6.837   1.046
11975TIP3    H135882   7.669   6.749   1.016
11975TIP3    H235883   7.656   6.834   1.141
11976TIP3   OH235884   0.497   3.868   6.598
11976TIP3    H135885   0.470   3.793   6.545
11976TIP3    H235886   0.579   3.841   6.639
11977TIP3   OH235887   5.299   1.430   5.512
11977TIP3    H135888   5.261   1.422   5.424
11977TIP3    H235889   5.321   1.523   5.519
11978TIP3   OH235890   3.420   0.884   0.100
11978TIP3    H135891   3.507   0.893   0.138
11978TIP3    H235892   3.431   0.816   0.033
11979TIP3   OH235893   4.980   7.417   0.538
11979TIP3    H135894   5.060   7.456   0.502
11979TIP3    H235895   4.909   7.465   0.494
11980TIP3   OH235896   8.093   6.506   2.551
11980TIP3    H135897   8.094   6.582   2.493
11980TIP3    H235898   8.033   6.445   2.508
11981TIP3   OH235899   0.108   5.101   5.056
11981TIP3    H135900   0.080   5.184   5.018
11981TIP3    H235901   0.148   5.125   5.140
11982TIP3   OH235902   5.705   7.589   1.279
11982TIP3    H135903   5.671   7.675   1.304
11982TIP3    H235904   5.789   7.583   1.325
11983TIP3   OH235905   6.655   4.765   3.954
11983TIP3    H135906   6.659   4.670   3.949
11983TIP3    H235907   6.580   4.788   3.899
11984TIP3   OH235908   6.077   5.343   4.176
11984TIP3    H135909   6.114   5.254   4.169
11984TIP3    H235910   5.991   5.336   4.137
11985TIP3   OH235911   5.899   3.688   0.086
11985TIP3    H135912   5.821   3.648   0.049
11985TIP3    H235913   5.871   3.776   0.112
11986TIP3   OH235914   3.703   3.999   3.136
11986TIP3    H135915   3.795   3.985   3.160
11986TIP3    H235916   3.707   4.042   3.051
11987TIP3   OH235917   6.827   1.865   1.043
11987TIP3    H135918   6.910   1.837   1.083
11987TIP3    H235919   6.854   1.925   0.974
11988TIP3   OH235920   0.170   0.139   4.148
11988TIP3    H135921   0.095   0.111   4.096
11988TIP3    H235922   0.176   0.233   4.133
11989TIP3   OH235923   7.820   3.896   1.839
11989TIP3    H135924   7.899   3.845   1.819
11989TIP3    H235925   7.823   3.970   1.778
11990TIP3   OH235926   1.310   4.176   0.744
11990TIP3    H135927   1.394   4.218   0.767
11990TIP3    H235928   1.247   4.216   0.803
11991TIP3   OH235929   7.563   1.049   1.443
11991TIP3    H135930   7.484   1.091   1.410
11991TIP3    H235931   7.579   0.977   1.383
11992TIP3   OH235932   4.574   5.721   2.985
11992TIP3    H135933   4.646   5.744   3.044
11992TIP3    H235934   4.609   5.650   2.931
11993TIP3   OH235935   4.495   0.380   5.494
11993TIP3    H135936   4.574   0.327   5.490
11993TIP3    H235937   4.449   0.350   5.572
11994TIP3   OH235938   6.287   4.879   3.372
11994TIP3    H135939   6.381   4.889   3.361
11994TIP3    H235940   6.253   4.878   3.282
11995TIP3   OH235941   4.264   3.542   4.820
11995TIP3    H135942   4.252   3.521   4.913
11995TIP3    H235943   4.240   3.461   4.775
11996TIP3   OH235944   0.373   5.018   3.486
11996TIP3    H135945   0.438   5.082   3.459
11996TIP3    H235946   0.405   4.983   3.569
11997TIP3   OH235947   5.101   1.821   6.664
11997TIP3    H135948   5.118   1.786   6.752
11997TIP3    H235949   5.013   1.859   6.670
11998TIP3   OH235950   0.241   3.769   6.746
11998TIP3    H135951   0.299   3.835   6.783
11998TIP3    H235952   0.179   3.750   6.816
11999TIP3   OH235953   4.596   1.470   3.115
11999TIP3    H135954   4.552   1.444   3.034
11999TIP3    H235955   4.655   1.540   3.090
12000TIP3   OH235956   6.112   1.160   5.338
12000TIP3    H135957   6.049   1.125   5.275
12000TIP3    H235958   6.183   1.095   5.338
12001TIP3   OH235959   2.018   7.224   2.859
12001TIP3    H135960   1.964   7.291   2.901
12001TIP3    H235961   1.955   7.155   2.836
12002TIP3   OH235962   6.868   5.548   4.812
12002TIP3    H135963   6.895   5.624   4.863
12002TIP3    H235964   6.950   5.513   4.775
12003TIP3   OH235965   1.104   2.933   5.601
12003TIP3    H135966   1.019   2.891   5.586
12003TIP3    H235967   1.086   3.003   5.664
12004TIP3   OH235968   0.759   3.099   2.190
12004TIP3    H135969   0.776   3.005   2.202
12004TIP3    H235970   0.749   3.110   2.096
12005TIP3   OH235971   0.425   3.894   0.590
12005TIP3    H135972   0.436   3.927   0.679
12005TIP3    H235973   0.509   3.852   0.570
12006TIP3   OH235974   3.863   6.849   1.448
12006TIP3    H135975   3.804   6.774   1.445
12006TIP3    H235976   3.846   6.889   1.533
12007TIP3   OH235977   1.896   6.986   0.594
12007TIP3    H135978   1.809   6.956   0.621
12007TIP3    H235979   1.942   7.003   0.676
12008TIP3   OH235980   6.803   6.605   3.134
12008TIP3    H135981   6.730   6.544   3.122
12008TIP3    H235982   6.765   6.679   3.181
12009TIP3   OH235983   2.511   4.458   0.355
12009TIP3    H135984   2.575   4.447   0.284
12009TIP3    H235985   2.458   4.533   0.328
12010TIP3   OH235986   0.557   7.046   1.865
12010TIP3    H135987   0.636   7.090   1.834
12010TIP3    H235988   0.576   6.953   1.855
12011TIP3   OH235989   6.533   3.255   5.618
12011TIP3    H135990   6.512   3.234   5.528
12011TIP3    H235991   6.553   3.170   5.659
12012TIP3   OH235992   2.948   7.756   6.754
12012TIP3    H135993   2.877   7.749   6.818
12012TIP3    H235994   2.911   7.806   6.682
12013TIP3   OH235995   5.137   5.774   0.952
12013TIP3    H135996   5.157   5.683   0.975
12013TIP3    H235997   5.065   5.798   1.011
12014TIP3   OH235998   6.766   0.905   1.181
12014TIP3    H135999   6.733   0.966   1.115
12014TIP3    H236000   6.861   0.915   1.176
12015TIP3   OH236001   1.389   0.602   1.301
12015TIP3    H136002   1.332   0.671   1.268
12015TIP3    H236003   1.478   0.635   1.286
12016TIP3   OH236004   7.324   0.454   4.009
12016TIP3    H136005   7.280   0.387   3.957
12016TIP3    H236006   7.255   0.517   4.030
12017TIP3   OH236007   2.164   7.256   2.318
12017TIP3    H136008   2.089   7.211   2.280
12017TIP3    H236009   2.133   7.285   2.404
12018TIP3   OH236010   3.484   6.958   4.346
12018TIP3    H136011   3.439   6.978   4.428
12018TIP3    H236012   3.499   6.864   4.349
12019TIP3   OH236013   1.136   7.555   2.334
12019TIP3    H136014   1.196   7.521   2.268
12019TIP3    H236015   1.078   7.482   2.354
12020TIP3   OH236016   8.086   2.863   5.178
12020TIP3    H136017   8.022   2.813   5.127
12020TIP3    H236018   8.032   2.915   5.238
12021TIP3   OH236019   3.881   2.700   4.907
12021TIP3    H136020   3.895   2.693   5.002
12021TIP3    H236021   3.787   2.715   4.898
12022TIP3   OH236022   0.363   6.201   4.199
12022TIP3    H136023   0.375   6.199   4.294
12022TIP3    H236024   0.439   6.248   4.166
12023TIP3   OH236025   2.969   6.408   4.038
12023TIP3    H136026   2.959   6.422   3.944
12023TIP3    H236027   2.897   6.457   4.077
12024TIP3   OH236028   8.223   0.419   1.955
12024TIP3    H136029   8.188   0.505   1.931
12024TIP3    H236030   8.170   0.357   1.904
12025TIP3   OH236031   4.567   2.589   0.379
12025TIP3    H136032   4.576   2.507   0.332
12025TIP3    H236033   4.550   2.564   0.470
12026TIP3   OH236034   3.398   7.317   5.214
12026TIP3    H136035   3.454   7.394   5.229
12026TIP3    H236036   3.394   7.274   5.300
12027TIP3   OH236037   7.027   2.657   0.421
12027TIP3    H136038   6.957   2.607   0.379
12027TIP3    H236039   7.049   2.607   0.499
12028TIP3   OH236040   1.889   2.016   5.695
12028TIP3    H136041   1.881   2.065   5.613
12028TIP3    H236042   1.864   1.927   5.671
12029TIP3   OH236043   3.769   4.471   0.955
12029TIP3    H136044   3.681   4.506   0.967
12029TIP3    H236045   3.818   4.543   0.915
12030TIP3   OH236046   3.428   7.184   5.843
12030TIP3    H136047   3.418   7.161   5.751
12030TIP3    H236048   3.342   7.167   5.881
12031TIP3   OH236049   6.289   1.456   0.167
12031TIP3    H136050   6.242   1.416   0.240
12031TIP3    H236051   6.338   1.528   0.207
12032TIP3   OH236052   0.560   2.804   5.679
12032TIP3    H136053   0.512   2.723   5.695
12032TIP3    H236054   0.514   2.870   5.730
12033TIP3   OH236055   2.334   1.670   0.178
12033TIP3    H136056   2.413   1.621   0.156
12033TIP3    H236057   2.272   1.649   0.109
12034TIP3   OH236058   7.906   5.670   0.152
12034TIP3    H136059   7.963   5.742   0.179
12034TIP3    H236060   7.819   5.694   0.184
12035TIP3   OH236061   7.050   0.566   5.385
12035TIP3    H136062   7.040   0.548   5.479
12035TIP3    H236063   7.103   0.493   5.353
12036TIP3   OH236064   3.136   5.856   4.755
12036TIP3    H136065   3.111   5.889   4.669
12036TIP3    H236066   3.062   5.802   4.782
12037TIP3   OH236067   5.006   1.562   3.071
12037TIP3    H136068   5.066   1.601   3.134
12037TIP3    H236069   5.043   1.584   2.986
12038TIP3   OH236070   0.918   2.259   2.042
12038TIP3    H136071   0.922   2.352   2.019
12038TIP3    H236072   0.830   2.232   2.017
12039TIP3   OH236073   2.795   0.083   5.840
12039TIP3    H136074   2.829   0.172   5.839
12039TIP3    H236075   2.708   0.091   5.879
12040TIP3   OH236076   0.860   4.826   0.025
12040TIP3    H136077   0.862   4.895  -0.041
12040TIP3    H236078   0.945   4.783   0.018
12041TIP3   OH236079   6.428   7.601   0.876
12041TIP3    H136080   6.361   7.534   0.864
12041TIP3    H236081   6.464   7.583   0.963
12042TIP3   OH236082   5.423   6.204   6.581
12042TIP3    H136083   5.385   6.166   6.659
12042TIP3    H236084   5.437   6.296   6.604
12043TIP3   OH236085   6.692   3.473   1.173
12043TIP3    H136086   6.686   3.407   1.242
12043TIP3    H236087   6.700   3.556   1.219
12044TIP3   OH236088   5.613   4.070   3.604
12044TIP3    H136089   5.698   4.068   3.560
12044TIP3    H236090   5.631   4.111   3.689
12045TIP3   OH236091   4.009   6.547   3.446
12045TIP3    H136092   4.022   6.466   3.397
12045TIP3    H236093   3.998   6.615   3.379
12046TIP3   OH236094   4.396   4.092   5.912
12046TIP3    H136095   4.445   4.159   5.866
12046TIP3    H236096   4.334   4.140   5.967
12047TIP3   OH236097   2.334   5.438   6.533
12047TIP3    H136098   2.324   5.406   6.443
12047TIP3    H236099   2.365   5.528   6.523
12048TIP3   OH236100   2.819   3.275   4.642
12048TIP3    H136101   2.785   3.186   4.631
12048TIP3    H236102   2.756   3.331   4.597
12049TIP3   OH236103   0.751   2.353   4.802
12049TIP3    H136104   0.793   2.304   4.731
12049TIP3    H236105   0.714   2.285   4.859
12050TIP3   OH236106   1.096   5.538   3.517
12050TIP3    H136107   1.161   5.598   3.478
12050TIP3    H236108   1.070   5.581   3.598
12051TIP3   OH236109   7.204   2.665   4.964
12051TIP3    H136110   7.271   2.634   4.904
12051TIP3    H236111   7.239   2.747   5.000
12052TIP3   OH236112   0.662   5.926   6.282
12052TIP3    H136113   0.618   6.011   6.280
12052TIP3    H236114   0.754   5.947   6.270
12053TIP3   OH236115   8.007   5.131   5.215
12053TIP3    H136116   8.080   5.192   5.205
12053TIP3    H236117   7.977   5.145   5.305
12054TIP3   OH236118   0.025   5.894   2.419
12054TIP3    H136119   0.024   5.887   2.515
12054TIP3    H236120   0.006   5.806   2.388
12055TIP3   OH236121   5.021   7.306   6.020
12055TIP3    H136122   5.077   7.277   5.948
12055TIP3    H236123   4.932   7.296   5.987
12056TIP3   OH236124   1.062   2.341   3.229
12056TIP3    H136125   1.038   2.355   3.137
12056TIP3    H236126   1.050   2.247   3.243
12057TIP3   OH236127   5.476   3.174   6.580
12057TIP3    H136128   5.509   3.237   6.516
12057TIP3    H236129   5.455   3.226   6.657
12058TIP3   OH236130   7.270   2.814   3.445
12058TIP3    H136131   7.206   2.856   3.387
12058TIP3    H236132   7.229   2.731   3.469
12059TIP3   OH236133   5.500   2.204   0.385
12059TIP3    H136134   5.429   2.259   0.351
12059TIP3    H236135   5.537   2.255   0.457
12060TIP3   OH236136   0.396   1.198   1.562
12060TIP3    H136137   0.436   1.205   1.475
12060TIP3    H236138   0.304   1.221   1.548
12061TIP3   OH236139   0.373   5.384   1.744
12061TIP3    H136140   0.289   5.340   1.755
12061TIP3    H236141   0.418   5.334   1.676
12062TIP3   OH236142   4.281   2.766   3.024
12062TIP3    H136143   4.334   2.815   3.088
12062TIP3    H236144   4.203   2.820   3.012
12063TIP3   OH236145   2.970   6.138   3.020
12063TIP3    H136146   2.887   6.138   2.972
12063TIP3    H236147   3.018   6.213   2.983
12064TIP3   OH236148   7.089   2.271   3.407
12064TIP3    H136149   7.011   2.327   3.413
12064TIP3    H236150   7.121   2.264   3.497
12065TIP3   OH236151   5.523   6.087   3.305
12065TIP3    H136152   5.591   6.046   3.359
12065TIP3    H236153   5.469   6.013   3.276
12066TIP3   OH236154   7.398   0.729   2.994
12066TIP3    H136155   7.325   0.792   2.995
12066TIP3    H236156   7.431   0.730   3.084
12067TIP3   OH236157   6.315   5.113   4.697
12067TIP3    H136158   6.328   5.139   4.789
12067TIP3    H236159   6.237   5.161   4.670
12068TIP3   OH236160   3.673   1.288   0.576
12068TIP3    H136161   3.689   1.208   0.626
12068TIP3    H236162   3.707   1.270   0.489
12069TIP3   OH236163   7.495   4.948   5.524
12069TIP3    H136164   7.533   5.010   5.462
12069TIP3    H236165   7.402   4.947   5.504
12070TIP3   OH236166   7.224   2.587   2.063
12070TIP3    H136167   7.289   2.516   2.068
12070TIP3    H236168   7.258   2.655   2.121
12071TIP3   OH236169   6.854   2.742   6.055
12071TIP3    H136170   6.768   2.749   6.012
12071TIP3    H236171   6.891   2.831   6.049
12072TIP3   OH236172   7.890   4.934   6.215
12072TIP3    H136173   7.856   4.931   6.126
12072TIP3    H236174   7.827   4.988   6.263
12073TIP3   OH236175   2.356   2.798   0.539
12073TIP3    H136176   2.425   2.752   0.587
12073TIP3    H236177   2.304   2.728   0.500
12074TIP3   OH236178   1.803   6.454   3.300
12074TIP3    H136179   1.762   6.483   3.381
12074TIP3    H236180   1.746   6.384   3.268
12075TIP3   OH236181   3.075   6.147   5.834
12075TIP3    H136182   3.098   6.056   5.817
12075TIP3    H236183   3.142   6.198   5.788
12076TIP3   OH236184   7.061   5.364   0.968
12076TIP3    H136185   7.007   5.304   0.917
12076TIP3    H236186   7.004   5.439   0.985
12077TIP3   OH236187   6.908   4.247   2.946
12077TIP3    H136188   6.840   4.313   2.933
12077TIP3    H236189   6.860   4.163   2.944
12078TIP3   OH236190   6.858   4.877   1.420
12078TIP3    H136191   6.922   4.947   1.408
12078TIP3    H236192   6.787   4.918   1.469
12079TIP3   OH236193   0.151   1.357   5.712
12079TIP3    H136194   0.094   1.294   5.754
12079TIP3    H236195   0.239   1.321   5.723
12080TIP3   OH236196   1.141   5.014   3.809
12080TIP3    H136197   1.173   4.970   3.731
12080TIP3    H236198   1.220   5.038   3.857
12081TIP3   OH236199   4.065   5.755   1.944
12081TIP3    H136200   4.073   5.798   2.029
12081TIP3    H236201   3.993   5.693   1.956
12082TIP3   OH236202   3.228   4.228   5.339
12082TIP3    H136203   3.193   4.223   5.428
12082TIP3    H236204   3.272   4.144   5.326
12083TIP3   OH236205   2.965   0.977   3.624
12083TIP3    H136206   2.969   0.965   3.719
12083TIP3    H236207   2.944   1.070   3.613
12084TIP3   OH236208   2.922   2.627   1.993
12084TIP3    H136209   2.862   2.658   2.060
12084TIP3    H236210   2.996   2.686   1.998
12085TIP3   OH236211   7.969   1.574   6.388
12085TIP3    H136212   8.018   1.551   6.467
12085TIP3    H236213   8.035   1.611   6.329
12086TIP3   OH236214   7.281   6.303   0.725
12086TIP3    H136215   7.189   6.311   0.749
12086TIP3    H236216   7.323   6.267   0.803
12087TIP3   OH236217   7.609   2.845   5.573
12087TIP3    H136218   7.669   2.779   5.539
12087TIP3    H236219   7.656   2.887   5.645
12088TIP3   OH236220   6.026   1.199   4.503
12088TIP3    H136221   6.090   1.270   4.501
12088TIP3    H236222   6.076   1.120   4.485
12089TIP3   OH236223   1.931   3.283   0.576
12089TIP3    H136224   1.901   3.345   0.510
12089TIP3    H236225   1.857   3.272   0.635
12090TIP3   OH236226   0.209   4.387   3.094
12090TIP3    H136227   0.154   4.405   3.171
12090TIP3    H236228   0.255   4.470   3.079
12091TIP3   OH236229   0.893   6.030   3.634
12091TIP3    H136230   0.964   6.094   3.640
12091TIP3    H236231   0.823   6.068   3.688
12092TIP3   OH236232   4.709   5.205   5.828
12092TIP3    H136233   4.698   5.218   5.734
12092TIP3    H236234   4.803   5.191   5.840
12093TIP3   OH236235   3.197   0.031   6.436
12093TIP3    H136236   3.205   0.072   6.523
12093TIP3    H236237   3.285  -0.001   6.417
12094TIP3   OH236238   7.011   1.775   1.539
12094TIP3    H136239   7.099   1.763   1.505
12094TIP3    H236240   7.000   1.870   1.545
12095TIP3   OH236241   3.366   6.373   2.992
12095TIP3    H136242   3.330   6.302   3.046
12095TIP3    H236243   3.325   6.452   3.026
12096TIP3   OH236244   1.138   5.032   5.630
12096TIP3    H136245   1.087   5.087   5.690
12096TIP3    H236246   1.075   5.003   5.564
12097TIP3   OH236247   5.183   2.525   2.753
12097TIP3    H136248   5.101   2.540   2.800
12097TIP3    H236249   5.157   2.478   2.674
12098TIP3   OH236250   7.236   4.096   1.628
12098TIP3    H136251   7.309   4.158   1.637
12098TIP3    H236252   7.185   4.129   1.554
12099TIP3   OH236253   3.117   7.189   4.031
12099TIP3    H136254   3.110   7.140   4.114
12099TIP3    H236255   3.071   7.135   3.967
12100TIP3   OH236256   7.543   0.607   0.022
12100TIP3    H136257   7.637   0.587   0.024
12100TIP3    H236258   7.521   0.607  -0.071
12101TIP3   OH236259   6.621   0.621   3.217
12101TIP3    H136260   6.593   0.541   3.262
12101TIP3    H236261   6.671   0.589   3.142
12102TIP3   OH236262   8.230   3.743   4.031
12102TIP3    H136263   8.293   3.815   4.040
12102TIP3    H236264   8.173   3.751   4.108
12103TIP3   OH236265   1.331   2.867   5.470
12103TIP3    H136266   1.369   2.805   5.533
12103TIP3    H236267   1.249   2.896   5.511
12104TIP3   OH236268   4.544   3.551   5.758
12104TIP3    H136269   4.452   3.544   5.780
12104TIP3    H236270   4.580   3.463   5.773
12105TIP3   OH236271   5.644   5.548   1.862
12105TIP3    H136272   5.616   5.460   1.838
12105TIP3    H236273   5.589   5.606   1.809
12106TIP3   OH236274   0.710   3.419   0.462
12106TIP3    H136275   0.775   3.486   0.485
12106TIP3    H236276   0.630   3.447   0.506
12107TIP3   OH236277   1.176   7.542   2.686
12107TIP3    H136278   1.100   7.600   2.677
12107TIP3    H236279   1.158   7.491   2.765
12108TIP3   OH236280   6.570   7.508   2.261
12108TIP3    H136281   6.549   7.541   2.348
12108TIP3    H236282   6.563   7.413   2.268
12109TIP3   OH236283   1.176   2.903   4.816
12109TIP3    H136284   1.219   2.939   4.894
12109TIP3    H236285   1.228   2.825   4.794
12110TIP3   OH236286   5.732   4.992   5.496
12110TIP3    H136287   5.740   4.976   5.402
12110TIP3    H236288   5.727   5.087   5.504
12111TIP3   OH236289   0.266   6.578   1.299
12111TIP3    H136290   0.214   6.630   1.361
12111TIP3    H236291   0.280   6.637   1.225
12112TIP3   OH236292   7.492   4.966   4.532
12112TIP3    H136293   7.439   4.948   4.610
12112TIP3    H236294   7.544   5.043   4.555
12113TIP3   OH236295   5.988   5.481   4.384
12113TIP3    H136296   6.008   5.568   4.349
12113TIP3    H236297   6.031   5.421   4.323
12114TIP3   OH236298   2.196   5.413   5.334
12114TIP3    H136299   2.197   5.318   5.345
12114TIP3    H236300   2.150   5.446   5.411
12115TIP3   OH236301   3.556   0.154   1.404
12115TIP3    H136302   3.572   0.224   1.467
12115TIP3    H236303   3.609   0.177   1.328
12116TIP3   OH236304   5.713   2.999   1.203
12116TIP3    H136305   5.799   2.958   1.199
12116TIP3    H236306   5.658   2.946   1.146
12117TIP3   OH236307   1.398   0.472   2.203
12117TIP3    H136308   1.485   0.504   2.176
12117TIP3    H236309   1.379   0.521   2.283
12118TIP3   OH236310   4.015   1.388   5.396
12118TIP3    H136311   4.083   1.455   5.408
12118TIP3    H236312   4.027   1.328   5.469
12119TIP3   OH236313   7.613   5.754   2.198
12119TIP3    H136314   7.703   5.768   2.226
12119TIP3    H236315   7.560   5.797   2.265
12120TIP3   OH236316   5.383   5.043   6.238
12120TIP3    H136317   5.365   5.104   6.166
12120TIP3    H236318   5.310   5.054   6.298
12121TIP3   OH236319   0.174   0.328   3.385
12121TIP3    H136320   0.258   0.366   3.410
12121TIP3    H236321   0.177   0.322   3.290
12122TIP3   OH236322   8.214   7.652   5.450
12122TIP3    H136323   8.194   7.733   5.402
12122TIP3    H236324   8.147   7.590   5.420
12123TIP3   OH236325   1.852   6.680   0.694
12123TIP3    H136326   1.770   6.728   0.681
12123TIP3    H236327   1.907   6.706   0.621
12124TIP3   OH236328   3.093   2.351   3.856
12124TIP3    H136329   3.138   2.268   3.844
12124TIP3    H236330   3.003   2.333   3.830
12125TIP3   OH236331   0.465   1.859   5.541
12125TIP3    H136332   0.509   1.934   5.503
12125TIP3    H236333   0.528   1.787   5.535
12126TIP3   OH236334   5.085   0.792   1.188
12126TIP3    H136335   5.116   0.716   1.138
12126TIP3    H236336   5.094   0.765   1.279
12127TIP3   OH236337   0.189   5.174   0.890
12127TIP3    H136338   0.134   5.097   0.881
12127TIP3    H236339   0.169   5.208   0.978
12128TIP3   OH236340   1.723   5.120   6.574
12128TIP3    H136341   1.705   5.089   6.663
12128TIP3    H236342   1.819   5.121   6.568
12129TIP3   OH236343   5.531   5.299   2.518
12129TIP3    H136344   5.580   5.248   2.454
12129TIP3    H236345   5.452   5.247   2.535
12130TIP3   OH236346   6.879   6.529   5.462
12130TIP3    H136347   6.816   6.458   5.464
12130TIP3    H236348   6.851   6.585   5.390
12131TIP3   OH236349   5.650   3.682   6.256
12131TIP3    H136350   5.594   3.721   6.190
12131TIP3    H236351   5.707   3.623   6.207
12132TIP3   OH236352   1.420   7.663   3.940
12132TIP3    H136353   1.397   7.755   3.929
12132TIP3    H236354   1.347   7.626   3.990
12133TIP3   OH236355   1.672   7.405   4.377
12133TIP3    H136356   1.623   7.329   4.346
12133TIP3    H236357   1.606   7.474   4.388
12134TIP3   OH236358   1.832   5.834   4.999
12134TIP3    H136359   1.855   5.918   5.037
12134TIP3    H236360   1.745   5.815   5.033
12135TIP3   OH236361   3.287   2.682   1.148
12135TIP3    H136362   3.352   2.730   1.199
12135TIP3    H236363   3.329   2.667   1.063
12136TIP3   OH236364   0.320   4.569   4.937
12136TIP3    H136365   0.279   4.599   4.856
12136TIP3    H236366   0.258   4.595   5.006
12137TIP3   OH236367   1.734   0.055   2.131
12137TIP3    H136368   1.680   0.123   2.090
12137TIP3    H236369   1.779   0.100   2.202
12138TIP3   OH236370   3.001   2.540   0.276
12138TIP3    H136371   3.050   2.588   0.344
12138TIP3    H236372   2.988   2.605   0.207
12139TIP3   OH236373   0.822   0.283   6.411
12139TIP3    H136374   0.741   0.325   6.439
12139TIP3    H236375   0.793   0.205   6.363
12140TIP3   OH236376   5.543   2.570   4.533
12140TIP3    H136377   5.519   2.662   4.524
12140TIP3    H236378   5.512   2.546   4.620
12141TIP3   OH236379   1.808   2.033   1.185
12141TIP3    H136380   1.860   2.113   1.189
12141TIP3    H236381   1.734   2.050   1.244
12142TIP3   OH236382   5.671   3.535   1.100
12142TIP3    H136383   5.600   3.484   1.061
12142TIP3    H236384   5.719   3.471   1.153
12143TIP3   OH236385   8.045   2.694   0.417
12143TIP3    H136386   8.119   2.641   0.387
12143TIP3    H236387   7.968   2.652   0.379
12144TIP3   OH236388   5.916   1.292   0.930
12144TIP3    H136389   5.843   1.337   0.887
12144TIP3    H236390   5.967   1.254   0.858
12145TIP3   OH236391   4.727   3.838   1.605
12145TIP3    H136392   4.653   3.826   1.665
12145TIP3    H236393   4.796   3.875   1.660
12146TIP3   OH236394   6.656   6.848   3.018
12146TIP3    H136395   6.745   6.883   3.027
12146TIP3    H236396   6.633   6.820   3.107
12147TIP3   OH236397   3.062   7.240   1.257
12147TIP3    H136398   2.975   7.210   1.233
12147TIP3    H236399   3.061   7.334   1.238
12148TIP3   OH236400   4.968   4.399   4.111
12148TIP3    H136401   4.968   4.475   4.169
12148TIP3    H236402   4.995   4.326   4.168
12149TIP3   OH236403   0.678   7.126   2.572
12149TIP3    H136404   0.608   7.157   2.514
12149TIP3    H236405   0.651   7.037   2.595
12150TIP3   OH236406   5.343   7.819   4.381
12150TIP3    H136407   5.353   7.871   4.461
12150TIP3    H236408   5.278   7.866   4.329
12151TIP3   OH236409   1.041   1.761   3.625
12151TIP3    H136410   0.968   1.772   3.686
12151TIP3    H236411   1.006   1.703   3.557
12152TIP3   OH236412   7.386   7.240   2.582
12152TIP3    H136413   7.405   7.213   2.672
12152TIP3    H236414   7.356   7.331   2.591
12153TIP3   OH236415   3.310   1.132   1.437
12153TIP3    H136416   3.352   1.218   1.445
12153TIP3    H236417   3.222   1.151   1.404
12154TIP3   OH236418   0.855   5.945   4.256
12154TIP3    H136419   0.814   5.959   4.342
12154TIP3    H236420   0.913   6.020   4.245
12155TIP3   OH236421   4.852   0.462   4.884
12155TIP3    H136422   4.879   0.517   4.957
12155TIP3    H236423   4.932   0.414   4.859
12156TIP3   OH236424   5.391   4.069   5.391
12156TIP3    H136425   5.401   3.974   5.402
12156TIP3    H236426   5.344   4.078   5.308
12157TIP3   OH236427   8.199   3.880   3.625
12157TIP3    H136428   8.224   3.886   3.532
12157TIP3    H236429   8.279   3.904   3.672
12158TIP3   OH236430   3.511   0.847   1.666
12158TIP3    H136431   3.471   0.929   1.693
12158TIP3    H236432   3.603   0.869   1.652
12159TIP3   OH236433   5.519   6.763   2.927
12159TIP3    H136434   5.438   6.780   2.975
12159TIP3    H236435   5.548   6.850   2.899
12160TIP3   OH236436   7.869   4.036   2.090
12160TIP3    H136437   7.880   4.020   1.996
12160TIP3    H236438   7.927   3.972   2.132
12161TIP3   OH236439   7.190   2.375   5.108
12161TIP3    H136440   7.210   2.382   5.202
12161TIP3    H236441   7.182   2.465   5.078
12162TIP3   OH236442   7.054   5.786   5.213
12162TIP3    H136443   7.097   5.758   5.132
12162TIP3    H236444   6.961   5.775   5.196
12163TIP3   OH236445   2.365   6.710   5.905
12163TIP3    H136446   2.274   6.697   5.880
12163TIP3    H236447   2.377   6.657   5.983
12164TIP3   OH236448   7.862   1.427   5.448
12164TIP3    H136449   7.905   1.482   5.383
12164TIP3    H236450   7.801   1.486   5.493
12165TIP3   OH236451   4.701   2.107   1.529
12165TIP3    H136452   4.625   2.095   1.471
12165TIP3    H236453   4.664   2.147   1.608
12166TIP3   OH236454   0.508   4.984   3.048
12166TIP3    H136455   0.486   5.011   2.959
12166TIP3    H236456   0.424   4.961   3.088
12167TIP3   OH236457   6.622   2.072   3.562
12167TIP3    H136458   6.545   2.129   3.567
12167TIP3    H236459   6.624   2.043   3.471
12168TIP3   OH236460   2.737   4.986   3.157
12168TIP3    H136461   2.758   4.945   3.240
12168TIP3    H236462   2.773   4.926   3.091
12169TIP3   OH236463   1.340   2.914   3.514
12169TIP3    H136464   1.388   2.971   3.454
12169TIP3    H236465   1.334   2.830   3.468
12170TIP3   OH236466   0.238   7.743   4.989
12170TIP3    H136467   0.182   7.744   5.067
12170TIP3    H236468   0.178   7.731   4.916
12171TIP3   OH236469   4.888   4.609   6.005
12171TIP3    H136470   4.815   4.671   6.006
12171TIP3    H236471   4.877   4.557   6.084
12172TIP3   OH236472   0.326   4.576   1.273
12172TIP3    H136473   0.241   4.559   1.232
12172TIP3    H236474   0.336   4.506   1.337
12173TIP3   OH236475   5.130   0.266   0.967
12173TIP3    H136476   5.161   0.281   0.878
12173TIP3    H236477   5.113   0.172   0.971
12174TIP3   OH236478   0.765   1.283   4.458
12174TIP3    H136479   0.697   1.216   4.473
12174TIP3    H236480   0.716   1.360   4.429
12175TIP3   OH236481   6.545   4.308   3.897
12175TIP3    H136482   6.580   4.266   3.819
12175TIP3    H236483   6.481   4.245   3.931
12176TIP3   OH236484   1.715   2.299   0.949
12176TIP3    H136485   1.713   2.353   0.870
12176TIP3    H236486   1.777   2.343   1.007
12177TIP3   OH236487   6.379   3.422   1.987
12177TIP3    H136488   6.324   3.344   1.991
12177TIP3    H236489   6.328   3.485   1.936
12178TIP3   OH236490   0.629   0.869   0.281
12178TIP3    H136491   0.640   0.775   0.295
12178TIP3    H236492   0.652   0.909   0.364
12179TIP3   OH236493   3.408   1.677   3.440
12179TIP3    H136494   3.391   1.725   3.521
12179TIP3    H236495   3.423   1.587   3.467
12180TIP3   OH236496   6.720   2.060   4.022
12180TIP3    H136497   6.741   2.067   3.929
12180TIP3    H236498   6.783   2.118   4.065
12181TIP3   OH236499   7.731   7.370   5.030
12181TIP3    H136500   7.693   7.455   5.010
12181TIP3    H236501   7.713   7.357   5.123
12182TIP3   OH236502   8.077   6.075   2.611
12182TIP3    H136503   8.030   6.031   2.540
12182TIP3    H236504   8.143   6.127   2.567
12183TIP3   OH236505   7.309   7.145   3.278
12183TIP3    H136506   7.323   7.054   3.255
12183TIP3    H236507   7.372   7.163   3.348
12184TIP3   OH236508   0.999   3.596   5.580
12184TIP3    H136509   0.953   3.549   5.511
12184TIP3    H236510   0.946   3.673   5.597
12185TIP3   OH236511   2.592   7.300   6.170
12185TIP3    H136512   2.632   7.224   6.129
12185TIP3    H236513   2.512   7.315   6.119
12186TIP3   OH236514   1.318   6.818   3.818
12186TIP3    H136515   1.355   6.777   3.740
12186TIP3    H236516   1.354   6.907   3.817
12187TIP3   OH236517   1.799   6.645   2.917
12187TIP3    H136518   1.871   6.606   2.965
12187TIP3    H236519   1.745   6.687   2.984
12188TIP3   OH236520   2.566   3.402   6.007
12188TIP3    H136521   2.644   3.352   5.982
12188TIP3    H236522   2.582   3.490   5.974
12189TIP3   OH236523   5.890   4.511   6.682
12189TIP3    H136524   5.942   4.448   6.731
12189TIP3    H236525   5.819   4.536   6.742
12190TIP3   OH236526   3.503   7.504   1.838
12190TIP3    H136527   3.517   7.573   1.903
12190TIP3    H236528   3.590   7.465   1.825
12191TIP3   OH236529   4.646   3.313   6.651
12191TIP3    H136530   4.639   3.384   6.588
12191TIP3    H236531   4.674   3.237   6.600
12192TIP3   OH236532   5.410   5.510   3.263
12192TIP3    H136533   5.331   5.515   3.317
12192TIP3    H236534   5.474   5.465   3.318
12193TIP3   OH236535   5.791   1.888   1.541
12193TIP3    H136536   5.858   1.846   1.486
12193TIP3    H236537   5.802   1.982   1.525
12194TIP3   OH236538   4.322   0.402   3.906
12194TIP3    H136539   4.369   0.391   3.823
12194TIP3    H236540   4.298   0.494   3.908
12195TIP3   OH236541   5.125   2.095   5.167
12195TIP3    H136542   5.076   2.175   5.148
12195TIP3    H236543   5.158   2.067   5.082
12196TIP3   OH236544   3.853   6.881   4.339
12196TIP3    H136545   3.883   6.847   4.255
12196TIP3    H236546   3.781   6.824   4.364
12197TIP3   OH236547   0.717   2.956   0.271
12197TIP3    H136548   0.627   2.933   0.248
12197TIP3    H236549   0.708   3.030   0.332
12198TIP3   OH236550   6.444   5.595   0.812
12198TIP3    H136551   6.417   5.657   0.745
12198TIP3    H236552   6.447   5.511   0.767
12199TIP3   OH236553   4.194   3.691   1.860
12199TIP3    H136554   4.176   3.693   1.954
12199TIP3    H236555   4.259   3.621   1.850
12200TIP3   OH236556   8.095   0.522   5.775
12200TIP3    H136557   8.049   0.574   5.841
12200TIP3    H236558   8.063   0.433   5.787
12201TIP3   OH236559   2.792   6.182   5.718
12201TIP3    H136560   2.837   6.266   5.709
12201TIP3    H236561   2.862   6.117   5.715
12202TIP3   OH236562   4.059   2.152   0.671
12202TIP3    H136563   4.025   2.121   0.755
12202TIP3    H236564   4.005   2.109   0.606
12203TIP3   OH236565   1.331   5.378   1.046
12203TIP3    H136566   1.421   5.384   1.078
12203TIP3    H236567   1.340   5.351   0.955
12204TIP3   OH236568   2.888   2.690   0.747
12204TIP3    H136569   2.935   2.732   0.819
12204TIP3    H236570   2.873   2.601   0.777
12205TIP3   OH236571   6.275   5.994   6.760
12205TIP3    H136572   6.241   6.041   6.837
12205TIP3    H236573   6.326   5.922   6.797
12206TIP3   OH236574   8.197   1.529   3.713
12206TIP3    H136575   8.114   1.488   3.736
12206TIP3    H236576   8.258   1.456   3.702
12207TIP3   OH236577   6.091   0.924   2.113
12207TIP3    H136578   6.129   0.846   2.073
12207TIP3    H236579   6.128   0.997   2.064
12208TIP3   OH236580   3.333   3.798   2.763
12208TIP3    H136581   3.314   3.859   2.692
12208TIP3    H236582   3.412   3.833   2.804
12209TIP3   OH236583   0.605   6.947   2.839
12209TIP3    H136584   0.697   6.973   2.846
12209TIP3    H236585   0.590   6.939   2.745
12210TIP3   OH236586   8.038   7.550   2.198
12210TIP3    H136587   8.017   7.520   2.109
12210TIP3    H236588   7.966   7.516   2.252
12211TIP3   OH236589   2.808   3.548   3.284
12211TIP3    H136590   2.805   3.505   3.199
12211TIP3    H236591   2.836   3.478   3.344
12212TIP3   OH236592   0.833   2.636   6.537
12212TIP3    H136593   0.834   2.731   6.551
12212TIP3    H236594   0.845   2.625   6.443
12213TIP3   OH236595   3.878   0.649   2.181
12213TIP3    H136596   3.922   0.585   2.236
12213TIP3    H236597   3.927   0.649   2.099
12214TIP3   OH236598   6.830   1.575   3.022
12214TIP3    H136599   6.840   1.626   3.103
12214TIP3    H236600   6.767   1.625   2.971
12215TIP3   OH236601   3.434   6.073   5.211
12215TIP3    H136602   3.458   6.024   5.132
12215TIP3    H236603   3.338   6.081   5.206
12216TIP3   OH236604   1.112   2.743   6.324
12216TIP3    H136605   1.153   2.706   6.245
12216TIP3    H236606   1.128   2.837   6.318
12217TIP3   OH236607   0.211   2.178   3.794
12217TIP3    H136608   0.185   2.162   3.884
12217TIP3    H236609   0.288   2.124   3.780
12218TIP3   OH236610   1.463   0.645   2.426
12218TIP3    H136611   1.550   0.632   2.462
12218TIP3    H236612   1.437   0.733   2.455
12219TIP3   OH236613   6.042   2.697   5.551
12219TIP3    H136614   6.064   2.645   5.629
12219TIP3    H236615   6.029   2.632   5.482
12220TIP3   OH236616   3.647   4.450   3.233
12220TIP3    H136617   3.655   4.429   3.326
12220TIP3    H236618   3.553   4.462   3.218
12221TIP3   OH236619   4.715   4.139   0.372
12221TIP3    H136620   4.669   4.070   0.420
12221TIP3    H236621   4.794   4.097   0.339
12222TIP3   OH236622   2.223   0.061   6.346
12222TIP3    H136623   2.278   0.029   6.417
12222TIP3    H236624   2.264   0.143   6.318
12223TIP3   OH236625   3.486   7.102   2.393
12223TIP3    H136626   3.406   7.052   2.413
12223TIP3    H236627   3.467   7.190   2.425
12224TIP3   OH236628   0.778   2.220   3.644
12224TIP3    H136629   0.814   2.134   3.624
12224TIP3    H236630   0.789   2.230   3.739
12225TIP3   OH236631   5.347   1.129   3.075
12225TIP3    H136632   5.294   1.192   3.027
12225TIP3    H236633   5.399   1.086   3.007
12226TIP3   OH236634   5.290   7.662   5.951
12226TIP3    H136635   5.385   7.666   5.956
12226TIP3    H236636   5.266   7.739   5.899
12227TIP3   OH236637   5.019   4.750   5.544
12227TIP3    H136638   5.020   4.661   5.507
12227TIP3    H236639   5.017   4.736   5.639
12228TIP3   OH236640   1.380   3.906   0.848
12228TIP3    H136641   1.327   3.903   0.927
12228TIP3    H236642   1.358   3.989   0.807
12229TIP3   OH236643   3.865   4.050   5.225
12229TIP3    H136644   3.779   4.061   5.267
12229TIP3    H236645   3.864   3.960   5.192
12230TIP3   OH236646   4.567   2.731   2.927
12230TIP3    H136647   4.519   2.769   2.853
12230TIP3    H236648   4.502   2.727   2.997
12231TIP3   OH236649   0.516   5.555   2.850
12231TIP3    H136650   0.571   5.478   2.860
12231TIP3    H236651   0.432   5.530   2.889
12232TIP3   OH236652   0.332   3.124   6.441
12232TIP3    H136653   0.358   3.085   6.524
12232TIP3    H236654   0.339   3.053   6.377
12233TIP3   OH236655   1.182   5.086   1.351
12233TIP3    H136656   1.193   5.176   1.380
12233TIP3    H236657   1.090   5.066   1.370
12234TIP3   OH236658   2.827   2.865   4.121
12234TIP3    H136659   2.748   2.919   4.131
12234TIP3    H236660   2.862   2.889   4.036
12235TIP3   OH236661   4.946   6.405   2.791
12235TIP3    H136662   4.876   6.387   2.728
12235TIP3    H236663   4.907   6.467   2.852
12236TIP3   OH236664   6.085   0.777   0.944
12236TIP3    H136665   6.043   0.779   0.858
12236TIP3    H236666   6.051   0.853   0.990
12237TIP3   OH236667   1.693   0.321   0.276
12237TIP3    H136668   1.721   0.245   0.327
12237TIP3    H236669   1.654   0.284   0.197
12238TIP3   OH236670   8.191   0.677   1.304
12238TIP3    H136671   8.141   0.757   1.323
12238TIP3    H236672   8.200   0.634   1.389
12239TIP3   OH236673   4.095   1.991   1.672
12239TIP3    H136674   4.118   1.905   1.707
12239TIP3    H236675   4.055   1.972   1.587
12240TIP3   OH236676   7.402   3.218   3.878
12240TIP3    H136677   7.495   3.236   3.894
12240TIP3    H236678   7.370   3.182   3.961
12241TIP3   OH236679   7.933   4.578   3.523
12241TIP3    H136680   7.844   4.592   3.491
12241TIP3    H236681   7.963   4.664   3.550
12242TIP3   OH236682   5.472   7.752   0.171
12242TIP3    H136683   5.530   7.696   0.223
12242TIP3    H236684   5.514   7.758   0.086
12243TIP3   OH236685   2.938   1.732   4.998
12243TIP3    H136686   2.918   1.791   4.925
12243TIP3    H236687   3.013   1.772   5.042
12244TIP3   OH236688   3.261   2.794   4.531
12244TIP3    H136689   3.302   2.740   4.464
12244TIP3    H236690   3.335   2.831   4.581
12245TIP3   OH236691   5.275   0.483   5.027
12245TIP3    H136692   5.257   0.550   4.960
12245TIP3    H236693   5.318   0.412   4.978
12246TIP3   OH236694   1.790   4.575   3.492
12246TIP3    H136695   1.717   4.529   3.449
12246TIP3    H236696   1.808   4.523   3.570
12247TIP3   OH236697   3.837   7.521   5.447
12247TIP3    H136698   3.908   7.479   5.496
12247TIP3    H236699   3.881   7.575   5.382
12248TIP3   OH236700   7.897   6.421   5.121
12248TIP3    H136701   7.964   6.359   5.094
12248TIP3    H236702   7.825   6.367   5.152
12249TIP3   OH236703   0.988   4.286   4.018
12249TIP3    H136704   0.978   4.201   4.060
12249TIP3    H236705   1.009   4.346   4.089
12250TIP3   OH236706   7.430   3.725   6.064
12250TIP3    H136707   7.450   3.671   5.988
12250TIP3    H236708   7.359   3.678   6.108
12251TIP3   OH236709   4.890   0.238   4.299
12251TIP3    H136710   4.934   0.203   4.377
12251TIP3    H236711   4.914   0.177   4.229
12252TIP3   OH236712   6.297   6.012   6.467
12252TIP3    H136713   6.297   6.003   6.562
12252TIP3    H236714   6.381   5.976   6.440
12253TIP3   OH236715   6.162   2.627   4.323
12253TIP3    H136716   6.193   2.711   4.291
12253TIP3    H236717   6.199   2.563   4.262
12254TIP3   OH236718   1.358   1.265   5.595
12254TIP3    H136719   1.320   1.177   5.598
12254TIP3    H236720   1.301   1.313   5.535
12255TIP3   OH236721   1.861   5.448   6.299
12255TIP3    H136722   1.856   5.433   6.204
12255TIP3    H236723   1.931   5.390   6.328
12256TIP3   OH236724   2.943   5.503   0.117
12256TIP3    H136725   3.031   5.499   0.079
12256TIP3    H236726   2.955   5.481   0.210
12257TIP3   OH236727   4.082   7.567   3.756
12257TIP3    H136728   4.147   7.624   3.714
12257TIP3    H236729   4.087   7.485   3.706
12258TIP3   OH236730   1.219   3.786   2.006
12258TIP3    H136731   1.139   3.769   1.957
12258TIP3    H236732   1.214   3.878   2.030
12259TIP3   OH236733   5.268   7.661   2.878
12259TIP3    H136734   5.279   7.749   2.840
12259TIP3    H236735   5.357   7.631   2.895
12260TIP3   OH236736   0.567   0.804   5.989
12260TIP3    H136737   0.518   0.868   6.040
12260TIP3    H236738   0.554   0.831   5.898
12261TIP3   OH236739   5.281   2.408   3.722
12261TIP3    H136740   5.240   2.391   3.807
12261TIP3    H236741   5.299   2.502   3.723
12262TIP3   OH236742   1.478   1.812   5.648
12262TIP3    H136743   1.414   1.794   5.717
12262TIP3    H236744   1.556   1.841   5.696
12263TIP3   OH236745   4.837   7.090   3.070
12263TIP3    H136746   4.908   7.137   3.114
12263TIP3    H236747   4.767   7.155   3.061
12264TIP3   OH236748   1.218   3.457   4.710
12264TIP3    H136749   1.313   3.462   4.725
12264TIP3    H236750   1.210   3.420   4.622
12265TIP3   OH236751   5.828   1.119   0.566
12265TIP3    H136752   5.917   1.152   0.583
12265TIP3    H236753   5.780   1.137   0.647
12266TIP3   OH236754   2.266   2.708   2.698
12266TIP3    H136755   2.280   2.702   2.604
12266TIP3    H236756   2.344   2.754   2.731
12267TIP3   OH236757   8.218   1.248   4.498
12267TIP3    H136758   8.259   1.163   4.515
12267TIP3    H236759   8.124   1.231   4.507
12268TIP3   OH236760   7.784   0.307   4.876
12268TIP3    H136761   7.821   0.326   4.963
12268TIP3    H236762   7.796   0.389   4.827
12269TIP3   OH236763   6.195   5.277   3.288
12269TIP3    H136764   6.114   5.241   3.251
12269TIP3    H236765   6.184   5.269   3.383
12270TIP3   OH236766   8.105   3.893   3.287
12270TIP3    H136767   8.017   3.921   3.310
12270TIP3    H236768   8.162   3.966   3.313
12271TIP3   OH236769   1.443   4.516   5.258
12271TIP3    H136770   1.510   4.571   5.298
12271TIP3    H236771   1.360   4.559   5.282
12272TIP3   OH236772   3.107   5.116   0.822
12272TIP3    H136773   3.133   5.112   0.914
12272TIP3    H236774   3.012   5.106   0.824
12273TIP3   OH236775   6.538   3.827   6.399
12273TIP3    H136776   6.573   3.758   6.343
12273TIP3    H236777   6.461   3.789   6.440
12274TIP3   OH236778   3.018   3.111   6.782
12274TIP3    H136779   2.924   3.123   6.793
12274TIP3    H236780   3.042   3.049   6.851
12275TIP3   OH236781   4.905   1.024   0.503
12275TIP3    H136782   4.904   1.035   0.598
12275TIP3    H236783   4.932   1.110   0.470
12276TIP3   OH236784   4.236   2.945   4.403
12276TIP3    H136785   4.293   2.961   4.328
12276TIP3    H236786   4.292   2.898   4.465
12277TIP3   OH236787   3.705   5.387   2.339
12277TIP3    H136788   3.676   5.300   2.367
12277TIP3    H236789   3.748   5.424   2.415
12278TIP3   OH236790   6.213   7.092   1.516
12278TIP3    H136791   6.171   7.087   1.602
12278TIP3    H236792   6.247   7.004   1.501
12279TIP3   OH236793   0.950   0.878   5.526
12279TIP3    H136794   0.927   0.840   5.611
12279TIP3    H236795   0.871   0.921   5.496
12280TIP3   OH236796   1.297   2.656   3.455
12280TIP3    H136797   1.341   2.571   3.459
12280TIP3    H236798   1.236   2.655   3.529
12281TIP3   OH236799   2.594   4.137   0.100
12281TIP3    H136800   2.673   4.165   0.147
12281TIP3    H236801   2.573   4.210   0.042
12282TIP3   OH236802   1.802   2.983   4.774
12282TIP3    H136803   1.868   3.017   4.714
12282TIP3    H236804   1.831   2.894   4.794
12283TIP3   OH236805   7.480   4.747   6.019
12283TIP3    H136806   7.474   4.827   5.968
12283TIP3    H236807   7.543   4.692   5.972
12284TIP3   OH236808   3.609   1.923   1.806
12284TIP3    H136809   3.604   2.003   1.753
12284TIP3    H236810   3.611   1.852   1.741
12285TIP3   OH236811   1.613   3.460   6.305
12285TIP3    H136812   1.553   3.468   6.230
12285TIP3    H236813   1.691   3.509   6.278
12286TIP3   OH236814   5.432   4.659   2.197
12286TIP3    H136815   5.449   4.751   2.179
12286TIP3    H236816   5.363   4.635   2.135
12287TIP3   OH236817   4.430   2.870   6.010
12287TIP3    H136818   4.472   2.902   5.930
12287TIP3    H236819   4.483   2.906   6.081
12288TIP3   OH236820   2.270   0.234   1.144
12288TIP3    H136821   2.343   0.178   1.115
12288TIP3    H236822   2.298   0.269   1.228
12289TIP3   OH236823   2.665   1.851   1.176
12289TIP3    H136824   2.653   1.895   1.260
12289TIP3    H236825   2.637   1.760   1.193
12290TIP3   OH236826   6.798   7.424   6.342
12290TIP3    H136827   6.870   7.453   6.397
12290TIP3    H236828   6.773   7.502   6.292
12291TIP3   OH236829   5.569   5.479   6.725
12291TIP3    H136830   5.562   5.394   6.768
12291TIP3    H236831   5.568   5.459   6.632
12292TIP3   OH236832   5.924   6.448   6.390
12292TIP3    H136833   5.881   6.400   6.460
12292TIP3    H236834   5.863   6.518   6.367
12293TIP3   OH236835   3.073   5.801   0.809
12293TIP3    H136836   3.102   5.891   0.794
12293TIP3    H236837   2.994   5.792   0.755
12294TIP3   OH236838   0.686   6.403   6.736
12294TIP3    H136839   0.724   6.316   6.726
12294TIP3    H236840   0.689   6.441   6.648
12295TIP3   OH236841   4.753   0.192   0.266
12295TIP3    H136842   4.715   0.143   0.338
12295TIP3    H236843   4.722   0.147   0.187
12296TIP3   OH236844   0.408   4.924   1.011
12296TIP3    H136845   0.487   4.881   1.044
12296TIP3    H236846   0.435   5.014   0.993
12297TIP3   OH236847   7.668   0.526   4.699
12297TIP3    H136848   7.650   0.608   4.653
12297TIP3    H236849   7.622   0.533   4.782
12298TIP3   OH236850   6.241   0.738   3.194
12298TIP3    H136851   6.215   0.746   3.102
12298TIP3    H236852   6.201   0.813   3.237
12299TIP3   OH236853   0.045   7.488   6.456
12299TIP3    H136854   0.132   7.528   6.442
12299TIP3    H236855   0.016   7.463   6.368
12300TIP3   OH236856   6.761   2.883   4.622
12300TIP3    H136857   6.838   2.833   4.593
12300TIP3    H236858   6.767   2.884   4.717
12301TIP3   OH236859   1.038   7.672   0.157
12301TIP3    H136860   1.022   7.762   0.186
12301TIP3    H236861   0.950   7.634   0.149
12302TIP3   OH236862   6.686   0.594   4.586
12302TIP3    H136863   6.613   0.532   4.588
12302TIP3    H236864   6.763   0.541   4.606
12303TIP3   OH236865   5.125   4.466   2.181
12303TIP3    H136866   5.210   4.447   2.139
12303TIP3    H236867   5.120   4.404   2.253
12304TIP3   OH236868   2.239   7.622   6.501
12304TIP3    H136869   2.296   7.564   6.449
12304TIP3    H236870   2.151   7.592   6.482
12305TIP3   OH236871   1.819   0.460   4.636
12305TIP3    H136872   1.878   0.429   4.705
12305TIP3    H236873   1.865   0.536   4.599
12306TIP3   OH236874   7.341   7.264   4.303
12306TIP3    H136875   7.383   7.234   4.223
12306TIP3    H236876   7.382   7.214   4.373
12307TIP3   OH236877   7.758   0.081   6.439
12307TIP3    H136878   7.663   0.067   6.438
12307TIP3    H236879   7.787   0.052   6.353
12308TIP3   OH236880   5.264   2.497   4.839
12308TIP3    H136881   5.359   2.486   4.830
12308TIP3    H236882   5.251   2.508   4.934
12309TIP3   OH236883   1.135   7.058   1.572
12309TIP3    H136884   1.139   7.143   1.617
12309TIP3    H236885   1.126   7.081   1.480
12310TIP3   OH236886   1.744   5.654   2.529
12310TIP3    H136887   1.703   5.598   2.464
12310TIP3    H236888   1.715   5.742   2.507
12311TIP3   OH236889   5.787   1.909   5.778
12311TIP3    H136890   5.728   1.863   5.719
12311TIP3    H236891   5.779   2.001   5.753
12312TIP3   OH236892   8.064   4.935   5.042
12312TIP3    H136893   8.068   5.006   5.106
12312TIP3    H236894   8.026   4.862   5.090
12313TIP3   OH236895   1.094   2.738   5.095
12313TIP3    H136896   1.185   2.716   5.079
12313TIP3    H236897   1.064   2.671   5.157
12314TIP3   OH236898   4.098   3.266   0.117
12314TIP3    H136899   4.146   3.306   0.190
12314TIP3    H236900   4.095   3.334   0.050
12315TIP3   OH236901   2.461   1.366   5.721
12315TIP3    H136902   2.391   1.413   5.768
12315TIP3    H236903   2.461   1.279   5.761
12316TIP3   OH236904   2.569   1.525   4.957
12316TIP3    H136905   2.634   1.462   4.926
12316TIP3    H236906   2.600   1.550   5.044
12317TIP3   OH236907   8.207   2.913   3.453
12317TIP3    H136908   8.259   2.833   3.461
12317TIP3    H236909   8.117   2.885   3.470
12318TIP3   OH236910   0.609   1.192   6.734
12318TIP3    H136911   0.648   1.109   6.706
12318TIP3    H236912   0.684   1.249   6.751
12319TIP3   OH236913   0.370   4.196   2.446
12319TIP3    H136914   0.413   4.188   2.361
12319TIP3    H236915   0.325   4.112   2.458
12320TIP3   OH236916   0.728   0.593   1.033
12320TIP3    H136917   0.706   0.599   0.940
12320TIP3    H236918   0.791   0.664   1.047
12321TIP3   OH236919   6.032   6.532   4.043
12321TIP3    H136920   6.006   6.509   3.954
12321TIP3    H236921   6.118   6.492   4.055
12322TIP3   OH236922   4.564   4.610   5.922
12322TIP3    H136923   4.510   4.654   5.988
12322TIP3    H236924   4.590   4.680   5.862
12323TIP3   OH236925   5.805   6.724   1.165
12323TIP3    H136926   5.795   6.738   1.259
12323TIP3    H236927   5.774   6.634   1.150
12324TIP3   OH236928   2.126   0.966   5.142
12324TIP3    H136929   2.178   1.036   5.181
12324TIP3    H236930   2.174   0.942   5.062
12325TIP3   OH236931   7.311   7.200   0.235
12325TIP3    H136932   7.265   7.284   0.241
12325TIP3    H236933   7.243   7.137   0.212
12326TIP3   OH236934   8.188   5.534   0.326
12326TIP3    H136935   8.239   5.501   0.400
12326TIP3    H236936   8.128   5.598   0.365
12327TIP3   OH236937   5.660   5.076   1.719
12327TIP3    H136938   5.747   5.096   1.684
12327TIP3    H236939   5.623   5.161   1.743
12328TIP3   OH236940   4.251   7.103   6.382
12328TIP3    H136941   4.166   7.069   6.410
12328TIP3    H236942   4.286   7.147   6.460
12329TIP3   OH236943   5.491   5.335   0.720
12329TIP3    H136944   5.522   5.270   0.783
12329TIP3    H236945   5.479   5.285   0.639
12330TIP3   OH236946   6.325   1.662   3.930
12330TIP3    H136947   6.326   1.577   3.975
12330TIP3    H236948   6.233   1.688   3.930
12331TIP3   OH236949   1.965   6.764   1.272
12331TIP3    H136950   2.055   6.756   1.243
12331TIP3    H236951   1.971   6.775   1.367
12332TIP3   OH236952   3.831   1.240   3.701
12332TIP3    H136953   3.844   1.162   3.755
12332TIP3    H236954   3.841   1.314   3.762
12333TIP3   OH236955   7.137   5.014   0.519
12333TIP3    H136956   7.206   5.023   0.585
12333TIP3    H236957   7.060   4.985   0.569
12334TIP3   OH236958   1.214   6.130   1.278
12334TIP3    H136959   1.159   6.052   1.286
12334TIP3    H236960   1.203   6.158   1.187
12335TIP3   OH236961   5.996   3.056   4.304
12335TIP3    H136962   5.958   2.968   4.296
12335TIP3    H236963   5.922   3.113   4.325
12336TIP3   OH236964   6.188   7.449   1.156
12336TIP3    H136965   6.174   7.387   1.227
12336TIP3    H236966   6.278   7.434   1.128
12337TIP3   OH236967   7.450   2.385   4.985
12337TIP3    H136968   7.420   2.381   5.075
12337TIP3    H236969   7.545   2.396   4.992
12338TIP3   OH236970   0.531   2.295   2.608
12338TIP3    H136971   0.550   2.201   2.612
12338TIP3    H236972   0.609   2.337   2.644
12339TIP3   OH236973   5.101   1.398   3.652
12339TIP3    H136974   5.066   1.361   3.571
12339TIP3    H236975   5.091   1.329   3.717
12340TIP3   OH236976   7.793   6.221   1.539
12340TIP3    H136977   7.741   6.254   1.466
12340TIP3    H236978   7.760   6.267   1.616
12341TIP3   OH236979   6.571   2.067   5.962
12341TIP3    H136980   6.628   2.106   6.029
12341TIP3    H236981   6.617   2.081   5.880
12342TIP3   OH236982   1.467   6.462   2.569
12342TIP3    H136983   1.507   6.533   2.620
12342TIP3    H236984   1.427   6.506   2.495
12343TIP3   OH236985   5.270   1.171   4.726
12343TIP3    H136986   5.331   1.245   4.712
12343TIP3    H236987   5.258   1.168   4.821
12344TIP3   OH236988   0.192   3.769   0.797
12344TIP3    H136989   0.173   3.795   0.887
12344TIP3    H236990   0.280   3.732   0.801
12345TIP3   OH236991   6.049   2.853   6.749
12345TIP3    H136992   5.987   2.926   6.749
12345TIP3    H236993   6.126   2.886   6.704
12346TIP3   OH236994   7.899   6.567   4.339
12346TIP3    H136995   7.960   6.592   4.408
12346TIP3    H236996   7.932   6.483   4.308
12347TIP3   OH236997   7.821   2.113   3.389
12347TIP3    H136998   7.897   2.055   3.394
12347TIP3    H236999   7.746   2.055   3.386
12348TIP3   OH237000   7.044   3.581   5.294
12348TIP3    H137001   7.024   3.493   5.324
12348TIP3    H237002   7.133   3.598   5.327
12349TIP3   OH237003   5.488   4.556   4.480
12349TIP3    H137004   5.396   4.536   4.498
12349TIP3    H237005   5.527   4.570   4.567
12350TIP3   OH237006   6.245   5.550   4.083
12350TIP3    H137007   6.302   5.502   4.023
12350TIP3    H237008   6.186   5.483   4.119
12351TIP3   OH237009   0.713   3.537   2.166
12351TIP3    H137010   0.655   3.596   2.213
12351TIP3    H237011   0.735   3.468   2.229
12352TIP3   OH237012   0.780   1.857   5.294
12352TIP3    H137013   0.775   1.866   5.199
12352TIP3    H237014   0.706   1.909   5.327
12353TIP3   OH237015   3.373   0.959   3.109
12353TIP3    H137016   3.413   0.934   3.192
12353TIP3    H237017   3.441   1.010   3.065
12354TIP3   OH237018   2.880   1.042   0.844
12354TIP3    H137019   2.878   1.055   0.749
12354TIP3    H237020   2.931   0.961   0.856
12355TIP3   OH237021   6.495   1.535   2.348
12355TIP3    H137022   6.433   1.463   2.347
12355TIP3    H237023   6.543   1.528   2.266
12356TIP3   OH237024   0.493   6.329   0.041
12356TIP3    H137025   0.543   6.255   0.075
12356TIP3    H237026   0.407   6.292   0.019
12357TIP3   OH237027   8.128   7.822   0.820
12357TIP3    H137028   8.126   7.743   0.766
12357TIP3    H237029   8.216   7.858   0.805
12358TIP3   OH237030   4.439   1.032   2.286
12358TIP3    H137031   4.534   1.038   2.298
12358TIP3    H237032   4.406   1.009   2.373
12359TIP3   OH237033   0.924   6.251   4.307
12359TIP3    H137034   0.833   6.280   4.308
12359TIP3    H237035   0.966   6.305   4.241
12360TIP3   OH237036   0.626   5.314   3.743
12360TIP3    H137037   0.669   5.272   3.669
12360TIP3    H237038   0.633   5.408   3.725
12361TIP3   OH237039   7.496   2.493   0.844
12361TIP3    H137040   7.513   2.581   0.877
12361TIP3    H237041   7.528   2.495   0.753
12362TIP3   OH237042   7.827   7.221   1.980
12362TIP3    H137043   7.760   7.256   2.039
12362TIP3    H237044   7.806   7.128   1.974
12363TIP3   OH237045   6.174   2.407   0.903
12363TIP3    H137046   6.116   2.358   0.844
12363TIP3    H237047   6.115   2.444   0.969
12364TIP3   OH237048   0.236   0.950   5.584
12364TIP3    H137049   0.202   1.024   5.532
12364TIP3    H237050   0.187   0.956   5.666
12365TIP3   OH237051   1.048   1.513   1.683
12365TIP3    H137052   1.042   1.469   1.598
12365TIP3    H237053   1.140   1.502   1.708
12366TIP3   OH237054   0.098   2.293   5.364
12366TIP3    H137055   0.182   2.297   5.410
12366TIP3    H237056   0.033   2.284   5.434
12367TIP3   OH237057   7.537   7.194   5.730
12367TIP3    H137058   7.571   7.275   5.768
12367TIP3    H237059   7.583   7.185   5.646
12368TIP3   OH237060   4.760   4.705   1.862
12368TIP3    H137061   4.796   4.724   1.948
12368TIP3    H237062   4.824   4.742   1.801
12369TIP3   OH237063   4.959   4.246   1.095
12369TIP3    H137064   4.910   4.291   1.026
12369TIP3    H237065   4.937   4.294   1.175
12370TIP3   OH237066   7.931  -0.020   5.045
12370TIP3    H137067   7.874  -0.020   5.121
12370TIP3    H237068   7.887  -0.077   4.982
12371TIP3   OH237069   2.041   0.926   2.411
12371TIP3    H137070   1.987   0.967   2.344
12371TIP3    H237071   2.089   0.999   2.451
12372TIP3   OH237072   0.234   2.081   6.542
12372TIP3    H137073   0.291   2.009   6.516
12372TIP3    H237074   0.233   2.139   6.466
12373TIP3   OH237075   2.943   3.894   0.323
12373TIP3    H137076   2.893   3.821   0.358
12373TIP3    H237077   2.995   3.926   0.397
12374TIP3   OH237078   0.537   4.541   4.595
12374TIP3    H137079   0.630   4.522   4.609
12374TIP3    H237080   0.519   4.511   4.506
12375TIP3   OH237081   5.272   2.031   4.944
12375TIP3    H137082   5.364   2.015   4.924
12375TIP3    H237083   5.235   2.063   4.862
12376TIP3   OH237084   6.777   6.829   1.380
12376TIP3    H137085   6.728   6.890   1.325
12376TIP3    H237086   6.836   6.883   1.431
12377TIP3   OH237087   0.358   6.792   2.096
12377TIP3    H137088   0.305   6.861   2.137
12377TIP3    H237089   0.305   6.713   2.104
12378TIP3   OH237090   6.510   0.744   4.805
12378TIP3    H137091   6.591   0.726   4.757
12378TIP3    H237092   6.529   0.715   4.894
12379TIP3   OH237093   0.567   6.148   1.674
12379TIP3    H137094   0.607   6.062   1.688
12379TIP3    H237095   0.628   6.194   1.617
12380TIP3   OH237096   2.967   7.521   1.739
12380TIP3    H137097   2.938   7.452   1.679
12380TIP3    H237098   3.062   7.511   1.743
12381TIP3   OH237099   3.486   2.576   2.253
12381TIP3    H137100   3.493   2.488   2.215
12381TIP3    H237101   3.576   2.601   2.273
12382TIP3   OH237102   3.091   2.151   0.616
12382TIP3    H137103   3.077   2.222   0.553
12382TIP3    H237104   3.184   2.129   0.607
12383TIP3   OH237105   6.871   4.000   5.434
12383TIP3    H137106   6.962   3.997   5.404
12383TIP3    H237107   6.820   4.006   5.353
12384TIP3   OH237108   6.901   1.668   5.095
12384TIP3    H137109   6.817   1.710   5.113
12384TIP3    H237110   6.905   1.662   4.999
12385TIP3   OH237111   2.776   2.443   1.534
12385TIP3    H137112   2.802   2.471   1.446
12385TIP3    H237113   2.808   2.354   1.542
12386TIP3   OH237114   7.127   6.716   0.295
12386TIP3    H137115   7.115   6.809   0.316
12386TIP3    H237116   7.044   6.675   0.320
12387TIP3   OH237117   7.408   0.872   5.872
12387TIP3    H137118   7.437   0.893   5.784
12387TIP3    H237119   7.445   0.941   5.927
12388TIP3   OH237120   1.706   1.385   3.475
12388TIP3    H137121   1.737   1.442   3.404
12388TIP3    H237122   1.691   1.445   3.549
12389TIP3   OH237123   3.108   0.499   2.168
12389TIP3    H137124   3.201   0.492   2.190
12389TIP3    H237125   3.074   0.565   2.229
12390TIP3   OH237126   1.961   5.719   5.988
12390TIP3    H137127   1.908   5.749   5.913
12390TIP3    H237128   2.046   5.760   5.974
12391TIP3   OH237129   5.357   2.917   0.071
12391TIP3    H137130   5.442   2.947   0.100
12391TIP3    H237131   5.311   2.997   0.043
12392TIP3   OH237132   6.644   4.890   4.216
12392TIP3    H137133   6.724   4.941   4.231
12392TIP3    H237134   6.667   4.832   4.143
12393TIP3   OH237135   6.507   7.246   2.275
12393TIP3    H137136   6.572   7.259   2.205
12393TIP3    H237137   6.494   7.151   2.278
12394TIP3   OH237138   1.207   4.445   1.699
12394TIP3    H137139   1.223   4.539   1.690
12394TIP3    H237140   1.139   4.438   1.766
12395TIP3   OH237141   1.960   2.872   0.073
12395TIP3    H137142   1.896   2.926   0.026
12395TIP3    H237143   1.942   2.887   0.165
12396TIP3   OH237144   6.035   7.779   0.634
12396TIP3    H137145   6.077   7.807   0.553
12396TIP3    H237146   5.946   7.753   0.608
12397TIP3   OH237147   7.455   6.131   5.011
12397TIP3    H137148   7.379   6.186   5.029
12397TIP3    H237149   7.514   6.146   5.085
12398TIP3   OH237150   3.610   2.123   4.114
12398TIP3    H137151   3.654   2.170   4.185
12398TIP3    H237152   3.521   2.158   4.114
12399TIP3   OH237153   7.333   7.755   2.609
12399TIP3    H137154   7.402   7.820   2.598
12399TIP3    H237155   7.302   7.738   2.520
12400TIP3   OH237156   1.117   1.305   6.429
12400TIP3    H137157   1.136   1.337   6.518
12400TIP3    H237158   1.106   1.210   6.440
12401TIP3   OH237159   0.527   3.377   6.116
12401TIP3    H137160   0.608   3.428   6.104
12401TIP3    H237161   0.500   3.395   6.206
12402TIP3   OH237162   4.191   2.943   1.433
12402TIP3    H137163   4.217   2.899   1.352
12402TIP3    H237164   4.153   3.026   1.404
12403TIP3   OH237165   6.801   6.688   5.240
12403TIP3    H137166   6.705   6.690   5.237
12403TIP3    H237167   6.827   6.780   5.231
12404TIP3   OH237168   4.694   2.090   2.484
12404TIP3    H137169   4.605   2.123   2.471
12404TIP3    H237170   4.702   2.078   2.578
12405TIP3   OH237171   5.403   3.993   3.752
12405TIP3    H137172   5.480   4.017   3.699
12405TIP3    H237173   5.440   3.954   3.831
12406TIP3   OH237174   2.666   1.833   0.889
12406TIP3    H137175   2.756   1.806   0.868
12406TIP3    H237176   2.664   1.835   0.984
12407TIP3   OH237177   7.362   5.602   3.436
12407TIP3    H137178   7.286   5.546   3.426
12407TIP3    H237179   7.392   5.619   3.347
12408TIP3   OH237180   0.425   1.778   2.925
12408TIP3    H137181   0.442   1.871   2.943
12408TIP3    H237182   0.361   1.752   2.991
12409TIP3   OH237183   1.949   5.821   0.781
12409TIP3    H137184   1.947   5.904   0.734
12409TIP3    H237185   1.861   5.785   0.770
12410TIP3   OH237186   4.910   7.784   3.188
12410TIP3    H137187   4.982   7.721   3.186
12410TIP3    H237188   4.903   7.815   3.098
12411TIP3   OH237189   1.921   1.408   0.214
12411TIP3    H137190   1.831   1.406   0.182
12411TIP3    H237191   1.928   1.490   0.263
12412TIP3   OH237192   5.895   5.850   2.614
12412TIP3    H137193   5.802   5.846   2.633
12412TIP3    H237194   5.903   5.915   2.544
12413TIP3   OH237195   5.413   4.574   2.463
12413TIP3    H137196   5.409   4.631   2.386
12413TIP3    H237197   5.453   4.493   2.430
12414TIP3   OH237198   4.610   3.452   2.350
12414TIP3    H137199   4.612   3.418   2.439
12414TIP3    H237200   4.700   3.475   2.330
12415TIP3   OH237201   0.347   4.168   4.081
12415TIP3    H137202   0.345   4.173   3.985
12415TIP3    H237203   0.402   4.242   4.107
12416TIP3   OH237204   3.676   7.869   4.065
12416TIP3    H137205   3.635   7.797   4.017
12416TIP3    H237206   3.751   7.829   4.109
12417TIP3   OH237207   7.837   3.119   0.803
12417TIP3    H137208   7.806   3.031   0.821
12417TIP3    H237209   7.874   3.114   0.715
12418TIP3   OH237210   4.998   6.569   2.579
12418TIP3    H137211   4.971   6.523   2.659
12418TIP3    H237212   4.955   6.655   2.585
12419TIP3   OH237213   0.854   6.137   5.083
12419TIP3    H137214   0.844   6.217   5.134
12419TIP3    H237215   0.932   6.095   5.119
12420TIP3   OH237216   6.623   0.877   4.555
12420TIP3    H137217   6.695   0.926   4.515
12420TIP3    H237218   6.651   0.785   4.549
12421TIP3   OH237219   1.941   5.378   2.977
12421TIP3    H137220   1.904   5.351   3.061
12421TIP3    H237221   2.017   5.432   3.001
12422TIP3   OH237222   2.318   3.055   1.107
12422TIP3    H137223   2.315   3.107   1.188
12422TIP3    H237224   2.409   3.030   1.098
12423TIP3   OH237225   2.082   4.485   2.338
12423TIP3    H137226   2.066   4.424   2.266
12423TIP3    H237227   2.011   4.550   2.332
12424TIP3   OH237228   2.724   5.031   5.932
12424TIP3    H137229   2.640   4.986   5.943
12424TIP3    H237230   2.758   4.999   5.849
12425TIP3   OH237231   2.255   4.648   6.508
12425TIP3    H137232   2.220   4.574   6.458
12425TIP3    H237233   2.234   4.626   6.599
12426TIP3   OH237234   1.892   2.642   0.755
12426TIP3    H137235   1.899   2.729   0.715
12426TIP3    H237236   1.961   2.640   0.820
12427TIP3   OH237237   6.126   0.115   3.021
12427TIP3    H137238   6.117   0.152   3.109
12427TIP3    H237239   6.212   0.073   3.021
12428TIP3   OH237240   1.553   7.447   2.693
12428TIP3    H137241   1.530   7.402   2.774
12428TIP3    H237242   1.471   7.454   2.644
12429TIP3   OH237243   3.490   6.310   0.147
12429TIP3    H137244   3.483   6.219   0.117
12429TIP3    H237245   3.585   6.324   0.155
12430TIP3   OH237246   7.002   5.906   5.494
12430TIP3    H137247   7.033   5.994   5.470
12430TIP3    H237248   6.995   5.860   5.410
12431TIP3   OH237249   0.223   3.023   0.851
12431TIP3    H137250   0.280   2.949   0.830
12431TIP3    H237251   0.148   2.983   0.897
12432TIP3   OH237252   1.779   0.808   6.027
12432TIP3    H137253   1.758   0.756   5.949
12432TIP3    H237254   1.734   0.891   6.014
12433TIP3   OH237255   1.932   6.904   6.747
12433TIP3    H137256   1.889   6.979   6.707
12433TIP3    H237257   1.897   6.828   6.699
12434TIP3   OH237258   4.360   0.325   6.013
12434TIP3    H137259   4.422   0.337   5.941
12434TIP3    H237260   4.289   0.386   5.995
12435TIP3   OH237261   8.056   0.802   2.522
12435TIP3    H137262   8.082   0.859   2.594
12435TIP3    H237263   8.040   0.717   2.564
12436TIP3   OH237264   3.308   3.980   1.346
12436TIP3    H137265   3.341   3.986   1.436
12436TIP3    H237266   3.244   3.909   1.348
12437TIP3   OH237267   1.960   0.198   4.847
12437TIP3    H137268   2.019   0.272   4.855
12437TIP3    H237269   1.953   0.183   4.752
12438TIP3   OH237270   4.073   4.647   0.493
12438TIP3    H137271   4.140   4.596   0.447
12438TIP3    H237272   4.020   4.582   0.539
12439TIP3   OH237273   6.919   3.122   0.549
12439TIP3    H137274   6.880   3.037   0.567
12439TIP3    H237275   6.921   3.166   0.634
12440TIP3   OH237276   5.696   4.507   2.518
12440TIP3    H137277   5.651   4.535   2.598
12440TIP3    H237278   5.689   4.582   2.459
12441TIP3   OH237279   0.007   5.377   1.512
12441TIP3    H137280  -0.007   5.350   1.421
12441TIP3    H237281   0.001   5.472   1.509
12442TIP3   OH237282   7.594   7.155   2.415
12442TIP3    H137283   7.592   7.122   2.505
12442TIP3    H237284   7.571   7.080   2.361
12443TIP3   OH237285   0.291   6.763   1.833
12443TIP3    H137286   0.325   6.768   1.922
12443TIP3    H237287   0.279   6.854   1.807
12444TIP3   OH237288   2.061   3.960   1.363
12444TIP3    H137289   2.097   4.035   1.410
12444TIP3    H237290   2.050   3.992   1.273
12445TIP3   OH237291   1.640   5.202   3.942
12445TIP3    H137292   1.557   5.162   3.966
12445TIP3    H237293   1.662   5.259   4.016
12446TIP3   OH237294   5.967   5.628   4.865
12446TIP3    H137295   6.034   5.573   4.905
12446TIP3    H237296   6.006   5.659   4.783
12447TIP3   OH237297   0.799   4.107   3.926
12447TIP3    H137298   0.852   4.184   3.945
12447TIP3    H237299   0.860   4.044   3.887
12448TIP3   OH237300   1.357   2.306   6.609
12448TIP3    H137301   1.406   2.383   6.638
12448TIP3    H237302   1.360   2.310   6.514
12449TIP3   OH237303   8.258   0.641   0.696
12449TIP3    H137304   8.185   0.703   0.698
12449TIP3    H237305   8.263   0.605   0.784
12450TIP3   OH237306   2.732   5.211   3.681
12450TIP3    H137307   2.766   5.167   3.759
12450TIP3    H237308   2.689   5.141   3.631
12451TIP3   OH237309   2.682   1.199   5.183
12451TIP3    H137310   2.769   1.230   5.159
12451TIP3    H237311   2.634   1.278   5.208
12452TIP3   OH237312   5.303   0.379   2.428
12452TIP3    H137313   5.244   0.308   2.451
12452TIP3    H237314   5.327   0.363   2.337
12453TIP3   OH237315   0.363   3.933   2.044
12453TIP3    H137316   0.296   3.961   1.981
12453TIP3    H237317   0.364   3.838   2.036
12454TIP3   OH237318   5.454   1.943   3.192
12454TIP3    H137319   5.509   1.880   3.145
12454TIP3    H237320   5.474   2.027   3.151
12455TIP3   OH237321   3.972   2.077   5.710
12455TIP3    H137322   3.894   2.082   5.765
12455TIP3    H237323   4.043   2.110   5.765
12456TIP3   OH237324   5.511   4.276   1.243
12456TIP3    H137325   5.571   4.248   1.313
12456TIP3    H237326   5.560   4.343   1.196
12457TIP3   OH237327   0.826   2.735   6.001
12457TIP3    H137328   0.803   2.679   5.927
12457TIP3    H237329   0.804   2.824   5.971
12458TIP3   OH237330   7.495   2.051   2.414
12458TIP3    H137331   7.519   2.083   2.327
12458TIP3    H237332   7.576   2.058   2.465
12459TIP3   OH237333   5.774   0.421   5.521
12459TIP3    H137334   5.776   0.509   5.483
12459TIP3    H237335   5.729   0.431   5.605
12460TIP3   OH237336   1.864   4.767   4.757
12460TIP3    H137337   1.866   4.829   4.830
12460TIP3    H237338   1.849   4.821   4.680
12461TIP3   OH237339   1.614   2.635   5.088
12461TIP3    H137340   1.623   2.572   5.159
12461TIP3    H237341   1.680   2.701   5.107
12462TIP3   OH237342   2.545   7.492   1.640
12462TIP3    H137343   2.627   7.541   1.649
12462TIP3    H237344   2.560   7.433   1.566
12463TIP3   OH237345   5.877   7.338   1.028
12463TIP3    H137346   5.971   7.339   1.009
12463TIP3    H237347   5.846   7.425   1.002
12464TIP3   OH237348   0.672   5.804   2.236
12464TIP3    H137349   0.731   5.836   2.167
12464TIP3    H237350   0.613   5.877   2.252
12465TIP3   OH237351   5.950   7.798   3.467
12465TIP3    H137352   5.970   7.730   3.402
12465TIP3    H237353   5.892   7.754   3.530
12466TIP3   OH237354   5.569   2.733   6.495
12466TIP3    H137355   5.634   2.745   6.565
12466TIP3    H237356   5.501   2.797   6.514
12467TIP3   OH237357   3.437   4.215   6.491
12467TIP3    H137358   3.429   4.301   6.450
12467TIP3    H237359   3.484   4.162   6.427
12468TIP3   OH237360   5.538   7.154   3.985
12468TIP3    H137361   5.521   7.246   4.008
12468TIP3    H237362   5.597   7.159   3.910
12469TIP3   OH237363   6.845   3.378   0.824
12469TIP3    H137364   6.750   3.372   0.814
12469TIP3    H237365   6.859   3.464   0.865
12470TIP3   OH237366   3.574   6.463   6.268
12470TIP3    H137367   3.491   6.450   6.314
12470TIP3    H237368   3.600   6.376   6.240
12471TIP3   OH237369   7.154   0.851   5.343
12471TIP3    H137370   7.198   0.902   5.411
12471TIP3    H237371   7.123   0.772   5.388
12472TIP3   OH237372   5.209   1.653   0.602
12472TIP3    H137373   5.276   1.593   0.636
12472TIP3    H237374   5.213   1.641   0.507
12473TIP3   OH237375   5.630   7.263   2.846
12473TIP3    H137376   5.549   7.301   2.811
12473TIP3    H237377   5.606   7.174   2.871
12474TIP3   OH237378   6.173   2.400   4.508
12474TIP3    H137379   6.182   2.486   4.467
12474TIP3    H237380   6.258   2.359   4.498
12475TIP3   OH237381   4.867   5.784   4.232
12475TIP3    H137382   4.805   5.857   4.229
12475TIP3    H237383   4.835   5.722   4.167
12476TIP3   OH237384   3.977   1.027   4.041
12476TIP3    H137385   3.963   1.121   4.040
12476TIP3    H237386   4.057   1.016   4.093
12477TIP3   OH237387   1.819   2.668   0.340
12477TIP3    H137388   1.765   2.604   0.385
12477TIP3    H237389   1.776   2.682   0.256
12478TIP3   OH237390   1.636   1.151   3.683
12478TIP3    H137391   1.565   1.135   3.745
12478TIP3    H237392   1.689   1.071   3.684
12479TIP3   OH237393   6.244   5.901   6.121
12479TIP3    H137394   6.268   5.994   6.120
12479TIP3    H237395   6.150   5.900   6.104
12480TIP3   OH237396   3.577   7.563   4.193
12480TIP3    H137397   3.600   7.584   4.103
12480TIP3    H237398   3.493   7.607   4.207
12481TIP3   OH237399   6.590   6.151   5.133
12481TIP3    H137400   6.524   6.216   5.107
12481TIP3    H237401   6.553   6.108   5.210
12482TIP3   OH237402   4.716   2.611   6.430
12482TIP3    H137403   4.629   2.616   6.390
12482TIP3    H237404   4.701   2.627   6.523
12483TIP3   OH237405   5.215   4.973   4.953
12483TIP3    H137406   5.280   5.008   4.892
12483TIP3    H237407   5.243   5.005   5.039
12484TIP3   OH237408   1.921   0.704   5.283
12484TIP3    H137409   1.891   0.781   5.234
12484TIP3    H237410   2.014   0.698   5.260
12485TIP3   OH237411   0.368   4.000   1.339
12485TIP3    H137412   0.363   3.904   1.332
12485TIP3    H237413   0.291   4.024   1.390
12486TIP3   OH237414   0.832   1.195   3.388
12486TIP3    H137415   0.907   1.137   3.401
12486TIP3    H237416   0.835   1.216   3.294
12487TIP3   OH237417   7.457   7.635   3.543
12487TIP3    H137418   7.449   7.575   3.469
12487TIP3    H237419   7.423   7.718   3.510
12488TIP3   OH237420   8.200  -0.039   5.535
12488TIP3    H137421   8.290  -0.033   5.505
12488TIP3    H237422   8.154   0.029   5.485
12489TIP3   OH237423   3.148   4.954   2.287
12489TIP3    H137424   3.160   4.979   2.195
12489TIP3    H237425   3.090   4.878   2.284
12490TIP3   OH237426   3.592   3.651   5.054
12490TIP3    H137427   3.655   3.667   4.984
12490TIP3    H237428   3.594   3.556   5.067
12491TIP3   OH237429   5.209   5.346   0.555
12491TIP3    H137430   5.172   5.403   0.622
12491TIP3    H237431   5.216   5.260   0.597
12492TIP3   OH237432   0.813   7.658   2.084
12492TIP3    H137433   0.855   7.573   2.067
12492TIP3    H237434   0.735   7.637   2.136
12493TIP3   OH237435   3.373   1.088   1.698
12493TIP3    H137436   3.344   1.093   1.607
12493TIP3    H237437   3.402   1.177   1.719
12494TIP3   OH237438   7.439   6.394   5.462
12494TIP3    H137439   7.361   6.402   5.517
12494TIP3    H237440   7.415   6.330   5.395
12495TIP3   OH237441   1.258   2.721   0.190
12495TIP3    H137442   1.275   2.751   0.279
12495TIP3    H237443   1.199   2.787   0.153
12496TIP3   OH237444   1.601   4.907   2.406
12496TIP3    H137445   1.639   4.979   2.356
12496TIP3    H237446   1.506   4.919   2.395
12497TIP3   OH237447   2.261   2.124   6.029
12497TIP3    H137448   2.251   2.179   5.951
12497TIP3    H237449   2.193   2.058   6.021
12498TIP3   OH237450   1.928   3.635   4.768
12498TIP3    H137451   1.980   3.713   4.787
12498TIP3    H237452   1.872   3.661   4.695
12499TIP3   OH237453   6.786   1.264   6.252
12499TIP3    H137454   6.818   1.275   6.163
12499TIP3    H237455   6.702   1.219   6.242
12500TIP3   OH237456   4.457   1.025   0.420
12500TIP3    H137457   4.371   1.037   0.381
12500TIP3    H237458   4.464   0.931   0.436
12501TIP3   OH237459   0.896   4.674   2.729
12501TIP3    H137460   0.861   4.666   2.817
12501TIP3    H237461   0.846   4.745   2.689
12502TIP3   OH237462   3.800   2.273   5.341
12502TIP3    H137463   3.842   2.304   5.261
12502TIP3    H237464   3.854   2.199   5.369
12503TIP3   OH237465   5.584   5.721   1.607
12503TIP3    H137466   5.510   5.771   1.641
12503TIP3    H237467   5.551   5.631   1.601
12504TIP3   OH237468   0.535   6.769   1.129
12504TIP3    H137469   0.439   6.772   1.133
12504TIP3    H237470   0.562   6.861   1.136
12505TIP3   OH237471   5.734   7.628   4.807
12505TIP3    H137472   5.794   7.699   4.829
12505TIP3    H237473   5.739   7.568   4.881
12506TIP3   OH237474   0.625   1.357   2.503
12506TIP3    H137475   0.673   1.278   2.478
12506TIP3    H237476   0.554   1.326   2.559
12507TIP3   OH237477   5.759   4.581   4.987
12507TIP3    H137478   5.751   4.486   4.993
12507TIP3    H237479   5.683   4.614   5.034
12508TIP3   OH237480   6.250   3.572   1.815
12508TIP3    H137481   6.194   3.646   1.791
12508TIP3    H237482   6.338   3.600   1.790
12509TIP3   OH237483   7.675   6.224   0.607
12509TIP3    H137484   7.715   6.251   0.690
12509TIP3    H237485   7.631   6.302   0.575
12510TIP3   OH237486   3.617   3.572   2.333
12510TIP3    H137487   3.565   3.610   2.404
12510TIP3    H237488   3.699   3.623   2.335
12511TIP3   OH237489   3.877   5.099   0.772
12511TIP3    H137490   3.822   5.024   0.747
12511TIP3    H237491   3.955   5.059   0.811
12512TIP3   OH237492   3.187   0.421   4.711
12512TIP3    H137493   3.204   0.328   4.724
12512TIP3    H237494   3.166   0.454   4.798
12513TIP3   OH237495   0.820   1.351   5.836
12513TIP3    H137496   0.769   1.328   5.758
12513TIP3    H237497   0.875   1.423   5.809
12514TIP3   OH237498   3.590   3.700   3.627
12514TIP3    H137499   3.580   3.756   3.703
12514TIP3    H237500   3.632   3.621   3.660
12515TIP3   OH237501   4.211   2.717   4.871
12515TIP3    H137502   4.150   2.782   4.833
12515TIP3    H237503   4.166   2.686   4.950
12516TIP3   OH237504   7.477   5.729   0.577
12516TIP3    H137505   7.436   5.731   0.491
12516TIP3    H237506   7.555   5.784   0.567
12517TIP3   OH237507   1.492   7.082   1.997
12517TIP3    H137508   1.507   7.014   1.931
12517TIP3    H237509   1.580   7.105   2.026
12518TIP3   OH237510   2.584   1.797   4.845
12518TIP3    H137511   2.536   1.714   4.855
12518TIP3    H237512   2.545   1.855   4.911
12519TIP3   OH237513   6.549   0.005   2.755
12519TIP3    H137514   6.638   0.039   2.743
12519TIP3    H237515   6.560  -0.090   2.759
12520TIP3   OH237516   0.048   2.024   4.955
12520TIP3    H137517   0.037   2.101   4.900
12520TIP3    H237518   0.141   2.023   4.978
12521TIP3   OH237519   0.114   1.696   3.579
12521TIP3    H137520   0.037   1.644   3.603
12521TIP3    H237521   0.106   1.776   3.630
12522TIP3   OH237522   1.350   6.837   0.980
12522TIP3    H137523   1.341   6.906   0.914
12522TIP3    H237524   1.433   6.856   1.023
12523TIP3   OH237525   5.997   0.287   6.403
12523TIP3    H137526   6.026   0.295   6.494
12523TIP3    H237527   5.960   0.373   6.381
12524TIP3   OH237528   2.539   7.221   4.189
12524TIP3    H137529   2.467   7.174   4.148
12524TIP3    H237530   2.548   7.182   4.275
12525TIP3   OH237531   5.235   4.612   1.510
12525TIP3    H137532   5.249   4.603   1.416
12525TIP3    H237533   5.246   4.523   1.545
12526TIP3   OH237534   3.402   3.920   1.585
12526TIP3    H137535   3.472   3.929   1.650
12526TIP3    H237536   3.341   3.857   1.624
12527TIP3   OH237537   1.040   6.955   2.600
12527TIP3    H137538   1.128   6.964   2.636
12527TIP3    H237539   1.033   7.025   2.536
12528TIP3   OH237540   4.956   0.215   1.244
12528TIP3    H137541   5.008   0.285   1.204
12528TIP3    H237542   5.002   0.194   1.325
12529TIP3   OH237543   7.728   3.132   3.262
12529TIP3    H137544   7.755   3.086   3.342
12529TIP3    H237545   7.632   3.136   3.269
12530TIP3   OH237546   3.995   4.650   0.841
12530TIP3    H137547   4.051   4.601   0.780
12530TIP3    H237548   4.007   4.742   0.817
12531TIP3   OH237549   5.005   0.301   0.348
12531TIP3    H137550   4.989   0.361   0.421
12531TIP3    H237551   4.920   0.265   0.326
12532TIP3   OH237552   8.296   3.226   2.124
12532TIP3    H137553   8.349   3.167   2.070
12532TIP3    H237554   8.332   3.313   2.106
12533TIP3   OH237555   5.706   7.372   2.600
12533TIP3    H137556   5.679   7.363   2.691
12533TIP3    H237557   5.632   7.414   2.557
12534TIP3   OH237558   1.788   0.460   5.041
12534TIP3    H137559   1.873   0.429   5.074
12534TIP3    H237560   1.799   0.555   5.032
12535TIP3   OH237561   1.191   2.928   4.215
12535TIP3    H137562   1.111   2.940   4.164
12535TIP3    H237563   1.184   2.993   4.286
12536TIP3   OH237564   5.733   1.970   0.539
12536TIP3    H137565   5.818   1.936   0.512
12536TIP3    H237566   5.672   1.896   0.525
12537TIP3   OH237567   0.679   5.537   0.375
12537TIP3    H137568   0.720   5.457   0.341
12537TIP3    H237569   0.728   5.557   0.454
12538TIP3   OH237570   2.176   1.931   3.618
12538TIP3    H137571   2.198   1.838   3.607
12538TIP3    H237572   2.118   1.950   3.544
12539TIP3   OH237573   3.506   5.624   0.374
12539TIP3    H137574   3.580   5.571   0.344
12539TIP3    H237575   3.469   5.662   0.295
12540TIP3   OH237576   2.671   1.516   1.526
12540TIP3    H137577   2.610   1.551   1.591
12540TIP3    H237578   2.756   1.553   1.550
12541TIP3   OH237579   0.665   3.479   2.914
12541TIP3    H137580   0.635   3.407   2.969
12541TIP3    H237581   0.669   3.442   2.826
12542TIP3   OH237582   1.484   3.206   2.760
12542TIP3    H137583   1.405   3.166   2.799
12542TIP3    H237584   1.556   3.172   2.813
12543TIP3   OH237585   7.057   6.396   2.162
12543TIP3    H137586   7.152   6.408   2.162
12543TIP3    H237587   7.034   6.385   2.070
12544TIP3   OH237588   3.070   7.156   2.205
12544TIP3    H137589   3.009   7.104   2.257
12544TIP3    H237590   3.015   7.221   2.161
12545TIP3   OH237591   7.192   3.974   0.429
12545TIP3    H137592   7.099   3.950   0.431
12545TIP3    H237593   7.193   4.067   0.408
12546TIP3   OH237594   0.265   4.092   3.148
12546TIP3    H137595   0.259   4.187   3.140
12546TIP3    H237596   0.232   4.059   3.064
12547TIP3   OH237597   5.126   1.415   2.104
12547TIP3    H137598   5.134   1.340   2.045
12547TIP3    H237599   5.141   1.491   2.047
12548TIP3   OH237600   6.849   7.655   6.199
12548TIP3    H137601   6.888   7.664   6.112
12548TIP3    H237602   6.815   7.742   6.218
12549TIP3   OH237603   7.253   2.163   2.633
12549TIP3    H137604   7.244   2.185   2.726
12549TIP3    H237605   7.296   2.078   2.632
12550TIP3   OH237606   4.065   2.475   6.647
12550TIP3    H137607   3.997   2.422   6.689
12550TIP3    H237608   4.104   2.525   6.719
12551TIP3   OH237609   4.929   3.960   3.387
12551TIP3    H137610   4.866   3.986   3.319
12551TIP3    H237611   4.973   3.883   3.351
12552TIP3   OH237612   4.125   3.943   4.315
12552TIP3    H137613   4.112   3.858   4.271
12552TIP3    H237614   4.045   3.955   4.367
12553TIP3   OH237615   6.795   2.254   2.672
12553TIP3    H137616   6.850   2.320   2.715
12553TIP3    H237617   6.723   2.241   2.734
12554TIP3   OH237618   6.086   3.236   0.215
12554TIP3    H137619   6.070   3.321   0.255
12554TIP3    H237620   6.122   3.256   0.128
12555TIP3   OH237621   2.917   0.687   6.753
12555TIP3    H137622   2.954   0.769   6.722
12555TIP3    H237623   2.822   0.699   6.746
12556TIP3   OH237624   7.109   4.455   2.930
12556TIP3    H137625   7.047   4.437   3.001
12556TIP3    H237626   7.166   4.378   2.928
12557TIP3   OH237627   3.671   4.122   3.804
12557TIP3    H137628   3.626   4.186   3.860
12557TIP3    H237629   3.633   4.137   3.717
12558TIP3   OH237630   0.758   5.640   2.931
12558TIP3    H137631   0.790   5.726   2.902
12558TIP3    H237632   0.668   5.636   2.900
12559TIP3   OH237633   0.003   2.861   0.991
12559TIP3    H137634  -0.089   2.844   0.972
12559TIP3    H237635   0.001   2.931   1.056
12560TIP3   OH237636   0.418   2.638   6.502
12560TIP3    H137637   0.381   2.676   6.582
12560TIP3    H237638   0.488   2.581   6.532
12561TIP3   OH237639   4.991   5.040   4.661
12561TIP3    H137640   5.002   5.131   4.689
12561TIP3    H237641   4.911   5.011   4.705
12562TIP3   OH237642   7.042   3.048   5.715
12562TIP3    H137643   7.083   2.998   5.645
12562TIP3    H237644   6.958   3.077   5.679
12563TIP3   OH237645   3.748   4.347   5.856
12563TIP3    H137646   3.671   4.399   5.832
12563TIP3    H237647   3.733   4.324   5.948
12564TIP3   OH237648   3.768  -0.028   5.319
12564TIP3    H137649   3.839   0.022   5.279
12564TIP3    H237650   3.740   0.025   5.394
12565TIP3   OH237651   5.580   1.872   1.733
12565TIP3    H137652   5.599   1.953   1.779
12565TIP3    H237653   5.657   1.858   1.677
12566TIP3   OH237654   1.871   0.905   5.028
12566TIP3    H137655   1.802   0.902   5.094
12566TIP3    H237656   1.952   0.917   5.078
12567TIP3   OH237657   1.759   6.218   1.839
12567TIP3    H137658   1.854   6.210   1.832
12567TIP3    H237659   1.729   6.128   1.851
12568TIP3   OH237660   1.405   2.736   4.292
12568TIP3    H137661   1.357   2.810   4.254
12568TIP3    H237662   1.337   2.675   4.321
12569TIP3   OH237663   6.060   2.960   6.359
12569TIP3    H137664   6.051   2.865   6.368
12569TIP3    H237665   5.973   2.994   6.379
12570TIP3   OH237666   4.543   4.157   2.001
12570TIP3    H137667   4.609   4.153   2.071
12570TIP3    H237668   4.514   4.248   2.001
12571TIP3   OH237669   6.292   5.291   5.223
12571TIP3    H137670   6.338   5.234   5.284
12571TIP3    H237671   6.229   5.338   5.278
12572TIP3   OH237672   3.698   2.165   3.635
12572TIP3    H137673   3.669   2.115   3.558
12572TIP3    H237674   3.790   2.184   3.618
12573TIP3   OH237675   6.610   7.077   4.589
12573TIP3    H137676   6.592   7.116   4.504
12573TIP3    H237677   6.527   7.086   4.637
12574TIP3   OH237678   0.619   2.480   6.643
12574TIP3    H137679   0.650   2.456   6.730
12574TIP3    H237680   0.688   2.534   6.606
12575TIP3   OH237681   1.516   6.578   0.889
12575TIP3    H137682   1.595   6.527   0.909
12575TIP3    H237683   1.465   6.575   0.970
12576TIP3   OH237684   8.120   3.820   6.183
12576TIP3    H137685   8.197   3.834   6.237
12576TIP3    H237686   8.153   3.774   6.106
12577TIP3   OH237687   4.867   4.713   6.662
12577TIP3    H137688   4.910   4.797   6.648
12577TIP3    H237689   4.937   4.653   6.686
12578TIP3   OH237690   4.161   4.212   2.747
12578TIP3    H137691   4.179   4.169   2.663
12578TIP3    H237692   4.228   4.280   2.754
12579TIP3   OH237693   6.669   5.450   5.278
12579TIP3    H137694   6.619   5.527   5.305
12579TIP3    H237695   6.689   5.467   5.185
12580TIP3   OH237696   4.991   2.118   3.302
12580TIP3    H137697   5.080   2.129   3.335
12580TIP3    H237698   4.989   2.171   3.223
12581TIP3   OH237699   6.958   1.552   6.088
12581TIP3    H137700   7.005   1.562   6.005
12581TIP3    H237701   6.893   1.484   6.070
12582TIP3   OH237702   3.530   4.001   0.317
12582TIP3    H137703   3.566   4.066   0.378
12582TIP3    H237704   3.442   4.034   0.298
12583TIP3   OH237705   3.430   4.161   2.217
12583TIP3    H137706   3.519   4.130   2.201
12583TIP3    H237707   3.378   4.120   2.149
12584TIP3   OH237708   7.314   6.881   2.006
12584TIP3    H137709   7.241   6.923   2.052
12584TIP3    H237710   7.303   6.906   1.915
12585TIP3   OH237711   5.381   2.784   4.592
12585TIP3    H137712   5.320   2.800   4.664
12585TIP3    H237713   5.451   2.848   4.604
12586TIP3   OH237714   3.602   1.547   2.946
12586TIP3    H137715   3.577   1.561   3.037
12586TIP3    H237716   3.552   1.470   2.919
12587TIP3   OH237717   6.115   3.831   1.446
12587TIP3    H137718   6.112   3.743   1.408
12587TIP3    H237719   6.119   3.816   1.541
12588TIP3   OH237720   0.165   7.160   1.689
12588TIP3    H137721   0.105   7.099   1.646
12588TIP3    H237722   0.235   7.175   1.626
12589TIP3   OH237723   4.210   6.208   6.252
12589TIP3    H137724   4.162   6.126   6.268
12589TIP3    H237725   4.275   6.211   6.322
12590TIP3   OH237726   8.334   3.831   1.860
12590TIP3    H137727   8.369   3.790   1.939
12590TIP3    H237728   8.373   3.919   1.860
12591TIP3   OH237729   6.949   3.182   3.202
12591TIP3    H137730   6.974   3.188   3.110
12591TIP3    H237731   7.022   3.222   3.250
12592TIP3   OH237732   0.676   1.061   1.325
12592TIP3    H137733   0.640   0.975   1.306
12592TIP3    H237734   0.769   1.053   1.305
12593TIP3   OH237735   8.089   7.142   5.265
12593TIP3    H137736   8.185   7.144   5.258
12593TIP3    H237737   8.063   7.061   5.223
12594TIP3   OH237738   1.681   7.138   1.319
12594TIP3    H137739   1.717   7.059   1.279
12594TIP3    H237740   1.586   7.127   1.314
12595TIP3   OH237741   1.654   1.613   1.635
12595TIP3    H137742   1.686   1.596   1.546
12595TIP3    H237743   1.713   1.563   1.691
12596TIP3   OH237744   3.672   5.884   6.276
12596TIP3    H137745   3.662   5.879   6.181
12596TIP3    H237746   3.767   5.885   6.289
12597TIP3   OH237747   7.274   6.000   1.800
12597TIP3    H137748   7.215   6.076   1.797
12597TIP3    H237749   7.338   6.017   1.731
12598TIP3   OH237750   7.270   7.488   4.746
12598TIP3    H137751   7.261   7.563   4.686
12598TIP3    H237752   7.223   7.417   4.703
12599TIP3   OH237753   5.425   7.336   2.667
12599TIP3    H137754   5.361   7.342   2.737
12599TIP3    H237755   5.417   7.420   2.620
12600TIP3   OH237756   3.594   6.731   2.307
12600TIP3    H137757   3.619   6.805   2.251
12600TIP3    H237758   3.677   6.695   2.338
12601TIP3   OH237759   6.305   7.048   4.173
12601TIP3    H137760   6.212   7.071   4.168
12601TIP3    H237761   6.335   7.053   4.082
12602TIP3   OH237762   1.904   3.666   3.120
12602TIP3    H137763   1.990   3.680   3.159
12602TIP3    H237764   1.867   3.754   3.111
12603TIP3   OH237765   1.202   5.886   0.205
12603TIP3    H137766   1.227   5.851   0.290
12603TIP3    H237767   1.122   5.936   0.221
12604TIP3   OH237768   2.339   1.670   4.999
12604TIP3    H137769   2.410   1.606   4.988
12604TIP3    H237770   2.383   1.748   5.033
12605TIP3   OH237771   4.618   4.653   5.199
12605TIP3    H137772   4.555   4.597   5.154
12605TIP3    H237773   4.572   4.682   5.278
12606TIP3   OH237774   0.650   1.226   3.932
12606TIP3    H137775   0.687   1.161   3.993
12606TIP3    H237776   0.714   1.297   3.932
12607TIP3   OH237777   1.793   6.173   2.212
12607TIP3    H137778   1.743   6.224   2.276
12607TIP3    H237779   1.730   6.109   2.178
12608TIP3   OH237780   6.932   5.442   5.374
12608TIP3    H137781   6.842   5.474   5.378
12608TIP3    H237782   6.948   5.427   5.281
12609TIP3   OH237783   3.513   3.917   1.840
12609TIP3    H137784   3.442   3.915   1.904
12609TIP3    H237785   3.581   3.971   1.881
12610TIP3   OH237786   0.363   2.608   5.994
12610TIP3    H137787   0.326   2.566   6.072
12610TIP3    H237788   0.398   2.691   6.026
12611TIP3   OH237789   5.573   7.007   2.254
12611TIP3    H137790   5.532   6.921   2.245
12611TIP3    H237791   5.520   7.052   2.320
12612TIP3   OH237792   4.054   7.320   3.627
12612TIP3    H137793   4.010   7.267   3.694
12612TIP3    H237794   4.145   7.325   3.658
12613TIP3   OH237795   0.723   4.993   4.823
12613TIP3    H137796   0.808   4.952   4.837
12613TIP3    H237797   0.681   4.993   4.910
12614TIP3   OH237798   4.314   3.154   6.664
12614TIP3    H137799   4.264   3.216   6.718
12614TIP3    H237800   4.327   3.200   6.581
12615TIP3   OH237801   3.349   7.649   2.700
12615TIP3    H137802   3.303   7.609   2.626
12615TIP3    H237803   3.300   7.729   2.718
12616TIP3   OH237804   8.109   1.248   6.235
12616TIP3    H137805   8.138   1.324   6.184
12616TIP3    H237806   8.064   1.192   6.172
12617TIP3   OH237807   5.584   6.253   0.030
12617TIP3    H137808   5.657   6.207   0.071
12617TIP3    H237809   5.508   6.196   0.047
12618TIP3   OH237810   5.257   4.382   4.663
12618TIP3    H137811   5.346   4.349   4.679
12618TIP3    H237812   5.200   4.315   4.700
12619TIP3   OH237813   6.316   2.827   4.241
12619TIP3    H137814   6.378   2.899   4.255
12619TIP3    H237815   6.271   2.849   4.160
12620TIP3   OH237816   6.048   2.515   2.150
12620TIP3    H137817   5.963   2.497   2.110
12620TIP3    H237818   6.094   2.431   2.148
12621TIP3   OH237819   5.550   4.338   6.384
12621TIP3    H137820   5.467   4.359   6.340
12621TIP3    H237821   5.599   4.287   6.320
12622TIP3   OH237822   0.925   2.856   4.678
12622TIP3    H137823   1.005   2.894   4.715
12622TIP3    H237824   0.909   2.778   4.732
12623TIP3   OH237825   6.414   0.237   4.934
12623TIP3    H137826   6.371   0.271   5.013
12623TIP3    H237827   6.408   0.142   4.942
12624TIP3   OH237828   1.135   6.867   1.178
12624TIP3    H137829   1.143   6.796   1.242
12624TIP3    H237830   1.217   6.864   1.128
12625TIP3   OH237831   7.813   5.994   3.370
12625TIP3    H137832   7.734   5.948   3.341
12625TIP3    H237833   7.864   5.927   3.415
12626TIP3   OH237834   7.213   2.416   4.010
12626TIP3    H137835   7.222   2.510   3.994
12626TIP3    H237836   7.172   2.410   4.096
12627TIP3   OH237837   0.377   4.453   6.150
12627TIP3    H137838   0.299   4.477   6.099
12627TIP3    H237839   0.440   4.523   6.133
12628TIP3   OH237840   6.365   1.043   5.316
12628TIP3    H137841   6.448   1.067   5.358
12628TIP3    H237842   6.385   0.960   5.271
12629TIP3   OH237843   5.231   2.092   3.763
12629TIP3    H137844   5.192   2.022   3.711
12629TIP3    H237845   5.194   2.080   3.851
12630TIP3   OH237846   1.520   0.474   3.360
12630TIP3    H137847   1.605   0.476   3.405
12630TIP3    H237848   1.476   0.397   3.395
12631TIP3   OH237849   4.635   3.108   4.309
12631TIP3    H137850   4.589   3.042   4.360
12631TIP3    H237851   4.682   3.160   4.374
12632TIP3   OH237852   1.759   6.030   3.034
12632TIP3    H137853   1.771   6.019   3.128
12632TIP3    H237854   1.666   6.051   3.024
12633TIP3   OH237855   1.434   6.018   1.986
12633TIP3    H137856   1.351   6.024   1.939
12633TIP3    H237857   1.491   5.969   1.926
12634TIP3   OH237858   2.579   6.898   6.597
12634TIP3    H137859   2.535   6.906   6.682
12634TIP3    H237860   2.591   6.988   6.568
12635TIP3   OH237861   0.352   7.276   3.686
12635TIP3    H137862   0.375   7.306   3.773
12635TIP3    H237863   0.316   7.354   3.642
12636TIP3   OH237864   3.984   3.011   4.499
12636TIP3    H137865   4.062   3.006   4.443
12636TIP3    H237866   3.914   2.972   4.446
12637TIP3   OH237867   5.029   4.605   0.445
12637TIP3    H137868   5.029   4.522   0.397
12637TIP3    H237869   4.960   4.656   0.403
12638TIP3   OH237870   1.439   6.142   1.051
12638TIP3    H137871   1.351   6.164   1.019
12638TIP3    H237872   1.497   6.163   0.977
12639TIP3   OH237873   3.089   1.110   2.822
12639TIP3    H137874   3.137   1.135   2.901
12639TIP3    H237875   3.107   1.016   2.812
12640TIP3   OH237876   3.905   6.723   0.133
12640TIP3    H137877   3.928   6.793   0.195
12640TIP3    H237878   3.835   6.675   0.176
12641TIP3   OH237879   7.429   4.841   1.021
12641TIP3    H137880   7.426   4.748   0.998
12641TIP3    H237881   7.473   4.882   0.947
12642TIP3   OH237882   0.905   1.125   1.791
12642TIP3    H137883   0.897   1.172   1.874
12642TIP3    H237884   0.826   1.148   1.742
12643TIP3   OH237885   0.911   4.492   2.522
12643TIP3    H137886   0.922   4.549   2.598
12643TIP3    H237887   0.885   4.407   2.560
12644TIP3   OH237888   1.483   1.277   6.632
12644TIP3    H137889   1.544   1.219   6.587
12644TIP3    H237890   1.529   1.361   6.638
12645TIP3   OH237891   6.198   6.802   1.898
12645TIP3    H137892   6.167   6.814   1.988
12645TIP3    H237893   6.161   6.718   1.871
12646TIP3   OH237894   6.958   7.727   5.938
12646TIP3    H137895   6.937   7.793   5.871
12646TIP3    H237896   6.920   7.646   5.904
12647TIP3   OH237897   2.288   2.532   0.491
12647TIP3    H137898   2.314   2.441   0.508
12647TIP3    H237899   2.192   2.529   0.495
12648TIP3   OH237900   3.893   0.987   5.156
12648TIP3    H137901   3.808   0.964   5.118
12648TIP3    H237902   3.882   1.076   5.188
12649TIP3   OH237903   8.254   7.054   6.234
12649TIP3    H137904   8.227   6.963   6.221
12649TIP3    H237905   8.257   7.091   6.146
12650TIP3   OH237906   0.805   2.519   2.663
12650TIP3    H137907   0.812   2.425   2.681
12650TIP3    H237908   0.829   2.561   2.745
12651TIP3   OH237909   0.536   1.068   3.751
12651TIP3    H137910   0.577   1.073   3.665
12651TIP3    H237911   0.563   1.149   3.795
12652TIP3   OH237912   3.769   5.357   5.391
12652TIP3    H137913   3.824   5.392   5.321
12652TIP3    H237914   3.686   5.336   5.349
12653TIP3   OH237915   1.014   7.676   4.848
12653TIP3    H137916   0.989   7.662   4.757
12653TIP3    H237917   0.936   7.652   4.898
12654TIP3   OH237918   2.621   3.858   4.317
12654TIP3    H137919   2.572   3.882   4.395
12654TIP3    H237920   2.640   3.941   4.273
12655TIP3   OH237921   4.877   6.050   1.195
12655TIP3    H137922   4.961   6.032   1.237
12655TIP3    H237923   4.900   6.074   1.105
12656TIP3   OH237924   7.888   2.851   1.441
12656TIP3    H137925   7.804   2.854   1.487
12656TIP3    H237926   7.953   2.867   1.509
12657TIP3   OH237927   3.438   6.234   2.009
12657TIP3    H137928   3.394   6.272   2.085
12657TIP3    H237929   3.368   6.185   1.964
12658TIP3   OH237930   6.824   2.091   4.818
12658TIP3    H137931   6.884   2.104   4.891
12658TIP3    H237932   6.739   2.119   4.852
12659TIP3   OH237933   3.751   1.791   2.442
12659TIP3    H137934   3.704   1.738   2.507
12659TIP3    H237935   3.720   1.880   2.456
12660TIP3   OH237936   4.175   3.859   0.207
12660TIP3    H137937   4.129   3.821   0.132
12660TIP3    H237938   4.180   3.788   0.271
12661TIP3   OH237939   5.996   1.824   6.150
12661TIP3    H137940   6.020   1.900   6.204
12661TIP3    H237941   6.042   1.838   6.067
12662TIP3   OH237942   6.807   7.589   0.921
12662TIP3    H137943   6.749   7.662   0.898
12662TIP3    H237944   6.751   7.511   0.916
12663TIP3   OH237945   4.997   1.711   2.109
12663TIP3    H137946   4.938   1.636   2.102
12663TIP3    H237947   4.945   1.785   2.078
12664TIP3   OH237948   4.323   4.421   0.980
12664TIP3    H137949   4.311   4.516   0.991
12664TIP3    H237950   4.352   4.391   1.066
12665TIP3   OH237951   4.499   3.851   2.175
12665TIP3    H137952   4.584   3.835   2.136
12665TIP3    H237953   4.463   3.764   2.192
12666TIP3   OH237954   0.548   0.683   4.665
12666TIP3    H137955   0.588   0.596   4.656
12666TIP3    H237956   0.495   0.676   4.744
12667TIP3   OH237957   4.537   6.827   1.698
12667TIP3    H137958   4.489   6.747   1.679
12667TIP3    H237959   4.478   6.877   1.755
12668TIP3   OH237960   4.037   3.259   6.560
12668TIP3    H137961   4.051   3.354   6.562
12668TIP3    H237962   3.955   3.247   6.609
12669TIP3   OH237963   7.358   3.775   0.478
12669TIP3    H137964   7.306   3.853   0.457
12669TIP3    H237965   7.297   3.717   0.525
12670TIP3   OH237966   6.993   1.601   5.829
12670TIP3    H137967   7.063   1.651   5.788
12670TIP3    H237968   6.914   1.651   5.812
12671TIP3   OH237969   7.146   5.584   4.933
12671TIP3    H137970   7.216   5.525   4.904
12671TIP3    H237971   7.096   5.533   4.996
12672TIP3   OH237972   5.008   0.868   5.349
12672TIP3    H137973   5.040   0.811   5.419
12672TIP3    H237974   4.941   0.817   5.305
12673TIP3   OH237975   0.789   5.353   3.195
12673TIP3    H137976   0.849   5.338   3.122
12673TIP3    H237977   0.844   5.346   3.273
12674TIP3   OH237978   1.445   7.792   3.090
12674TIP3    H137979   1.433   7.804   2.996
12674TIP3    H237980   1.479   7.703   3.099
12675TIP3   OH237981   6.592   7.128   2.588
12675TIP3    H137982   6.506   7.107   2.624
12675TIP3    H237983   6.600   7.223   2.598
12676TIP3   OH237984   2.743   5.205   1.706
12676TIP3    H137985   2.693   5.220   1.626
12676TIP3    H237986   2.834   5.224   1.682
12677TIP3   OH237987   5.826   2.851   1.961
12677TIP3    H137988   5.921   2.837   1.961
12677TIP3    H237989   5.791   2.777   1.912
12678TIP3   OH237990   2.206   7.302   3.056
12678TIP3    H137991   2.153   7.340   3.125
12678TIP3    H237992   2.146   7.247   3.007
12679TIP3   OH237993   2.524   5.616   0.298
12679TIP3    H137994   2.433   5.643   0.306
12679TIP3    H237995   2.530   5.577   0.211
12680TIP3   OH237996   6.298   2.626   1.849
12680TIP3    H137997   6.248   2.574   1.786
12680TIP3    H237998   6.355   2.681   1.796
12681TIP3   OH237999   1.245   1.199   1.953
12681TIP3    H138000   1.292   1.272   1.993
12681TIP3    H238001   1.247   1.219   1.859
12682TIP3   OH238002   7.589   4.454   4.046
12682TIP3    H138003   7.576   4.547   4.065
12682TIP3    H238004   7.674   4.433   4.086
12683TIP3   OH238005   2.486   6.615   1.829
12683TIP3    H138006   2.404   6.652   1.862
12683TIP3    H238007   2.553   6.651   1.887
12684TIP3   OH238008   2.471   6.620   0.851
12684TIP3    H138009   2.537   6.671   0.898
12684TIP3    H238010   2.391   6.671   0.858
12685TIP3   OH238011   4.579   2.374   4.588
12685TIP3    H138012   4.484   2.375   4.580
12685TIP3    H238013   4.596   2.411   4.675
12686TIP3   OH238014   0.234   6.375   2.063
12686TIP3    H138015   0.198   6.463   2.050
12686TIP3    H238016   0.201   6.324   1.990
12687TIP3   OH238017   1.973   7.316   5.545
12687TIP3    H138018   1.988   7.224   5.568
12687TIP3    H238019   2.047   7.340   5.489
12688TIP3   OH238020   3.446   2.991   5.642
12688TIP3    H138021   3.418   2.934   5.570
12688TIP3    H238022   3.468   3.074   5.600
12689TIP3   OH238023   1.537   2.978   5.751
12689TIP3    H138024   1.621   2.975   5.707
12689TIP3    H238025   1.503   3.066   5.732
12690TIP3   OH238026   3.284   7.519   2.328
12690TIP3    H138027   3.289   7.599   2.276
12690TIP3    H238028   3.191   7.512   2.351
12691TIP3   OH238029   2.940   6.395   1.013
12691TIP3    H138030   2.860   6.411   1.063
12691TIP3    H238031   3.008   6.380   1.079
12692TIP3   OH238032   1.606   3.572   5.476
12692TIP3    H138033   1.512   3.569   5.496
12692TIP3    H238034   1.612   3.627   5.398
12693TIP3   OH238035   2.637   7.023   3.017
12693TIP3    H138036   2.693   7.050   2.944
12693TIP3    H238037   2.595   7.103   3.046
12694TIP3   OH238038   1.856   1.277   4.992
12694TIP3    H138039   1.803   1.223   5.051
12694TIP3    H238040   1.816   1.364   4.997
12695TIP3   OH238041   5.512   5.970   1.771
12695TIP3    H138042   5.583   5.978   1.836
12695TIP3    H238043   5.443   5.922   1.817
12696TIP3   OH238044   0.319   4.178   3.464
12696TIP3    H138045   0.339   4.269   3.485
12696TIP3    H238046   0.226   4.168   3.485
12697TIP3   OH238047   7.751   5.091   2.080
12697TIP3    H138048   7.675   5.119   2.130
12697TIP3    H238049   7.824   5.143   2.115
12698TIP3   OH238050   0.471   3.367   2.381
12698TIP3    H138051   0.464   3.275   2.406
12698TIP3    H238052   0.417   3.374   2.302
12699TIP3   OH238053   5.241   1.706   2.576
12699TIP3    H138054   5.258   1.760   2.653
12699TIP3    H238055   5.327   1.671   2.552
12700TIP3   OH238056   2.948   4.641   3.645
12700TIP3    H138057   2.881   4.665   3.580
12700TIP3    H238058   2.908   4.572   3.697
12701TIP3   OH238059   4.211   3.305   4.150
12701TIP3    H138060   4.291   3.341   4.189
12701TIP3    H238061   4.141   3.336   4.206
12702TIP3   OH238062   1.847   1.912   3.118
12702TIP3    H138063   1.795   1.989   3.143
12702TIP3    H238064   1.918   1.947   3.065
12703TIP3   OH238065   2.339   0.216   6.705
12703TIP3    H138066   2.375   0.131   6.681
12703TIP3    H238067   2.287   0.242   6.629
12704TIP3   OH238068   2.484   2.373   6.395
12704TIP3    H138069   2.479   2.385   6.489
12704TIP3    H238070   2.566   2.417   6.370
12705TIP3   OH238071   2.004   3.097   5.305
12705TIP3    H138072   2.042   3.043   5.236
12705TIP3    H238073   2.034   3.186   5.285
12706TIP3   OH238074   0.881   0.158   0.573
12706TIP3    H138075   0.829   0.112   0.506
12706TIP3    H238076   0.833   0.144   0.654
12707TIP3   OH238077   6.113   0.067   3.933
12707TIP3    H138078   6.026   0.030   3.945
12707TIP3    H238079   6.145   0.027   3.852
12708TIP3   OH238080   6.972   2.513   3.275
12708TIP3    H138081   6.922   2.574   3.221
12708TIP3    H238082   7.055   2.503   3.229
12709TIP3   OH238083   3.861   3.531   5.688
12709TIP3    H138084   3.890   3.587   5.616
12709TIP3    H238085   3.766   3.535   5.686
12710TIP3   OH238086   5.031   7.200   0.332
12710TIP3    H138087   4.955   7.252   0.356
12710TIP3    H238088   5.087   7.201   0.409
12711TIP3   OH238089   0.771   0.138   4.817
12711TIP3    H138090   0.833   0.081   4.862
12711TIP3    H238091   0.823   0.183   4.751
12712TIP3   OH238092   5.771   4.651   3.753
12712TIP3    H138093   5.685   4.614   3.775
12712TIP3    H238094   5.810   4.587   3.694
12713TIP3   OH238095   1.569   1.091   2.165
12713TIP3    H138096   1.660   1.121   2.159
12713TIP3    H238097   1.533   1.140   2.239
12714TIP3   OH238098   0.666   5.256   4.772
12714TIP3    H138099   0.580   5.243   4.731
12714TIP3    H238100   0.689   5.171   4.808
12715TIP3   OH238101   8.026   5.716   1.028
12715TIP3    H138102   8.003   5.624   1.022
12715TIP3    H238103   8.110   5.723   0.982
12716TIP3   OH238104   5.700   1.845   6.098
12716TIP3    H138105   5.794   1.828   6.104
12716TIP3    H238106   5.683   1.856   6.004
12717TIP3   OH238107   6.336   4.370   3.176
12717TIP3    H138108   6.404   4.420   3.132
12717TIP3    H238109   6.258   4.425   3.171
12718TIP3   OH238110   4.335   3.378   1.269
12718TIP3    H138111   4.267   3.446   1.271
12718TIP3    H238112   4.323   3.330   1.352
12719TIP3   OH238113   1.609   1.503   4.743
12719TIP3    H138114   1.643   1.560   4.673
12719TIP3    H238115   1.670   1.516   4.815
12720TIP3   OH238116   8.270   4.097   3.355
12720TIP3    H138117   8.287   4.151   3.432
12720TIP3    H238118   8.330   4.023   3.363
12721TIP3   OH238119   5.505   0.319   4.139
12721TIP3    H138120   5.561   0.308   4.063
12721TIP3    H238121   5.480   0.230   4.163
12722TIP3   OH238122   7.169   6.274   5.333
12722TIP3    H138123   7.250   6.225   5.317
12722TIP3    H238124   7.143   6.249   5.421
12723TIP3   OH238125   2.733   1.599   6.290
12723TIP3    H138126   2.689   1.595   6.205
12723TIP3    H238127   2.666   1.573   6.353
12724TIP3   OH238128   5.671   1.165   2.096
12724TIP3    H138129   5.663   1.260   2.105
12724TIP3    H238130   5.760   1.145   2.126
12725TIP3   OH238131   6.377   6.443   6.320
12725TIP3    H138132   6.312   6.512   6.305
12725TIP3    H238133   6.430   6.476   6.392
12726TIP3   OH238134   3.202   1.270   0.707
12726TIP3    H138135   3.209   1.246   0.800
12726TIP3    H238136   3.111   1.250   0.684
12727TIP3   OH238137   2.419   5.401   4.829
12727TIP3    H138138   2.358   5.375   4.898
12727TIP3    H238139   2.478   5.326   4.819
12728TIP3   OH238140   2.885   6.728   1.643
12728TIP3    H138141   2.975   6.699   1.630
12728TIP3    H238142   2.893   6.808   1.696
12729TIP3   OH238143   8.302   2.259   1.790
12729TIP3    H138144   8.357   2.248   1.713
12729TIP3    H238145   8.223   2.304   1.758
12730TIP3   OH238146   2.278   2.734   6.161
12730TIP3    H138147   2.215   2.721   6.232
12730TIP3    H238148   2.321   2.816   6.182
12731TIP3   OH238149   6.612   6.843   5.916
12731TIP3    H138150   6.687   6.785   5.916
12731TIP3    H238151   6.566   6.824   5.998
12732TIP3   OH238152   1.097   5.046   0.297
12732TIP3    H138153   1.159   5.095   0.350
12732TIP3    H238154   1.022   5.032   0.355
12733TIP3   OH238155   0.913   7.299   2.639
12733TIP3    H138156   0.880   7.389   2.642
12733TIP3    H238157   0.836   7.245   2.626
12734TIP3   OH238158   6.287   2.484   5.522
12734TIP3    H138159   6.213   2.428   5.495
12734TIP3    H238160   6.324   2.439   5.598
12735TIP3   OH238161   6.050   6.035   4.204
12735TIP3    H138162   6.035   5.999   4.116
12735TIP3    H238163   6.126   5.987   4.237
12736TIP3   OH238164   4.895   4.389   1.334
12736TIP3    H138165   4.803   4.366   1.324
12736TIP3    H238166   4.922   4.346   1.415
12737TIP3   OH238167   5.568   3.472   0.861
12737TIP3    H138168   5.573   3.494   0.768
12737TIP3    H238169   5.565   3.376   0.863
12738TIP3   OH238170   4.897   1.079   3.955
12738TIP3    H138171   4.802   1.070   3.946
12738TIP3    H238172   4.918   1.032   4.035
12739TIP3   OH238173   6.446   6.871   1.236
12739TIP3    H138174   6.391   6.820   1.296
12739TIP3    H238175   6.415   6.961   1.246
12740TIP3   OH238176   5.823   4.736   4.592
12740TIP3    H138177   5.887   4.712   4.525
12740TIP3    H238178   5.833   4.831   4.602
12741TIP3   OH238179   7.996   4.879   0.660
12741TIP3    H138180   7.962   4.834   0.582
12741TIP3    H238181   8.085   4.846   0.669
12742TIP3   OH238182   5.387   4.956   4.365
12742TIP3    H138183   5.455   4.940   4.430
12742TIP3    H238184   5.419   5.030   4.313
12743TIP3   OH238185   8.081   6.767   2.452
12743TIP3    H138186   8.095   6.845   2.398
12743TIP3    H238187   8.104   6.795   2.541
12744TIP3   OH238188   1.509   6.026   2.848
12744TIP3    H138189   1.514   5.936   2.815
12744TIP3    H238190   1.582   6.071   2.805
12745TIP3   OH238191   5.451   3.053   1.416
12745TIP3    H138192   5.402   3.011   1.487
12745TIP3    H238193   5.384   3.090   1.359
12746TIP3   OH238194   6.641   5.983   3.958
12746TIP3    H138195   6.641   5.905   4.015
12746TIP3    H238196   6.727   6.023   3.972
12747TIP3   OH238197   0.208   5.848   1.489
12747TIP3    H138198   0.117   5.877   1.475
12747TIP3    H238199   0.253   5.926   1.520
12748TIP3   OH238200   4.089   6.632   0.432
12748TIP3    H138201   4.090   6.633   0.527
12748TIP3    H238202   4.123   6.545   0.409
12749TIP3   OH238203   3.565   6.474   5.902
12749TIP3    H138204   3.509   6.409   5.859
12749TIP3    H238205   3.614   6.515   5.831
12750TIP3   OH238206   6.009   0.131   4.571
12750TIP3    H138207   6.056   0.149   4.490
12750TIP3    H238208   6.049   0.189   4.636
12751TIP3   OH238209   1.741   0.108   1.049
12751TIP3    H138210   1.786   0.191   1.040
12751TIP3    H238211   1.721   0.101   1.143
12752TIP3   OH238212   0.693   3.540   2.548
12752TIP3    H138213   0.663   3.481   2.479
12752TIP3    H238214   0.784   3.558   2.527
12753TIP3   OH238215   6.100   3.300   3.696
12753TIP3    H138216   6.158   3.225   3.680
12753TIP3    H238217   6.088   3.301   3.791
12754TIP3   OH238218   1.240   5.805   6.322
12754TIP3    H138219   1.268   5.853   6.245
12754TIP3    H238220   1.215   5.719   6.289
12755TIP3   OH238221   3.576   7.676   6.351
12755TIP3    H138222   3.608   7.642   6.267
12755TIP3    H238223   3.561   7.598   6.404
12756TIP3   OH238224   4.299   4.106   4.448
12756TIP3    H138225   4.235   4.046   4.409
12756TIP3    H238226   4.266   4.193   4.427
12757TIP3   OH238227   1.529   0.196   0.767
12757TIP3    H138228   1.448   0.153   0.796
12757TIP3    H238229   1.526   0.282   0.808
12758TIP3   OH238230   1.286   4.695   2.233
12758TIP3    H138231   1.284   4.650   2.317
12758TIP3    H238232   1.195   4.712   2.211
12759TIP3   OH238233   5.972   3.200   5.502
12759TIP3    H138234   5.887   3.192   5.546
12759TIP3    H238235   6.019   3.120   5.526
12760TIP3   OH238236   4.059   2.980   1.663
12760TIP3    H138237   4.119   2.940   1.600
12760TIP3    H238238   4.101   2.966   1.748
12761TIP3   OH238239   4.037   7.193   0.995
12761TIP3    H138240   4.065   7.268   1.049
12761TIP3    H238241   4.078   7.209   0.910
12762TIP3   OH238242   2.857   4.175   4.547
12762TIP3    H138243   2.766   4.188   4.574
12762TIP3    H238244   2.855   4.097   4.491
12763TIP3   OH238245   1.550   0.249   4.966
12763TIP3    H138246   1.632   0.288   4.997
12763TIP3    H238247   1.538   0.285   4.878
12764TIP3   OH238248   4.789   6.505   1.054
12764TIP3    H138249   4.880   6.510   1.024
12764TIP3    H238250   4.748   6.584   1.021
12765TIP3   OH238251   6.534   0.250   3.276
12765TIP3    H138252   6.571   0.256   3.364
12765TIP3    H238253   6.462   0.312   3.276
12766TIP3   OH238254   1.432   5.368   6.223
12766TIP3    H138255   1.431   5.430   6.150
12766TIP3    H238256   1.368   5.402   6.284
12767TIP3   OH238257   5.328   5.100   1.795
12767TIP3    H138258   5.281   5.129   1.717
12767TIP3    H238259   5.267   5.116   1.867
12768TIP3   OH238260   2.319   0.667   5.781
12768TIP3    H138261   2.252   0.684   5.847
12768TIP3    H238262   2.394   0.635   5.831
12769TIP3   OH238263   8.290   6.211   0.782
12769TIP3    H138264   8.318   6.119   0.785
12769TIP3    H238265   8.319   6.241   0.696
12770TIP3   OH238266   5.206   6.419   1.999
12770TIP3    H138267   5.293   6.451   1.976
12770TIP3    H238268   5.190   6.453   2.087
12771TIP3   OH238269   5.572   5.397   3.455
12771TIP3    H138270   5.502   5.349   3.500
12771TIP3    H238271   5.640   5.332   3.442
12772TIP3   OH238272   3.809   7.125   4.661
12772TIP3    H138273   3.900   7.127   4.632
12772TIP3    H238274   3.789   7.032   4.670
12773TIP3   OH238275   3.294   7.728   0.230
12773TIP3    H138276   3.206   7.690   0.222
12773TIP3    H238277   3.313   7.724   0.324
12774TIP3   OH238278   0.760   4.879   6.159
12774TIP3    H138279   0.788   4.846   6.073
12774TIP3    H238280   0.758   4.801   6.214
12775TIP3   OH238281   1.627   5.430   3.724
12775TIP3    H138282   1.563   5.378   3.772
12775TIP3    H238283   1.604   5.416   3.632
12776TIP3   OH238284   3.940   1.713   0.989
12776TIP3    H138285   3.878   1.644   0.965
12776TIP3    H238286   3.889   1.773   1.044
12777TIP3   OH238287   3.161   5.484   5.936
12777TIP3    H138288   3.181   5.402   5.891
12777TIP3    H238289   3.206   5.551   5.884
12778TIP3   OH238290   5.048   4.790   5.140
12778TIP3    H138291   5.100   4.776   5.219
12778TIP3    H238292   5.114   4.803   5.071
12779TIP3   OH238293   1.381   7.620   4.252
12779TIP3    H138294   1.416   7.705   4.279
12779TIP3    H238295   1.411   7.609   4.162
12780TIP3   OH238296   4.420   4.772   6.092
12780TIP3    H138297   4.474   4.847   6.117
12780TIP3    H238298   4.336   4.810   6.068
12781TIP3   OH238299   5.498   4.425   6.004
12781TIP3    H138300   5.474   4.370   5.930
12781TIP3    H238301   5.429   4.409   6.069
12782TIP3   OH238302   0.424   6.849   0.484
12782TIP3    H138303   0.451   6.932   0.524
12782TIP3    H238304   0.460   6.851   0.396
12783TIP3   OH238305   0.200   1.057   1.188
12783TIP3    H138306   0.271   1.113   1.158
12783TIP3    H238307   0.126   1.082   1.133
12784TIP3   OH238308   3.092   3.594   4.411
12784TIP3    H138309   3.006   3.624   4.381
12784TIP3    H238310   3.154   3.654   4.370
12785TIP3   OH238311   1.024   1.901   0.449
12785TIP3    H138312   0.980   1.882   0.366
12785TIP3    H238313   1.116   1.911   0.426
12786TIP3   OH238314   5.018   6.052   5.461
12786TIP3    H138315   5.038   6.059   5.554
12786TIP3    H238316   4.936   6.101   5.449
12787TIP3   OH238317   4.007   7.150   3.425
12787TIP3    H138318   4.072   7.084   3.451
12787TIP3    H238319   4.017   7.220   3.490
12788TIP3   OH238320   4.701   0.708   2.168
12788TIP3    H138321   4.631   0.692   2.231
12788TIP3    H238322   4.696   0.635   2.106
12789TIP3   OH238323   4.851   7.184   3.444
12789TIP3    H138324   4.837   7.161   3.536
12789TIP3    H238325   4.932   7.138   3.421
12790TIP3   OH238326   4.023   4.674   6.738
12790TIP3    H138327   4.032   4.704   6.647
12790TIP3    H238328   3.953   4.729   6.774
12791TIP3   OH238329   4.370   1.084   3.273
12791TIP3    H138330   4.447   1.121   3.230
12791TIP3    H238331   4.402   1.003   3.313
12792TIP3   OH238332   1.478   5.503   0.670
12792TIP3    H138333   1.405   5.457   0.711
12792TIP3    H238334   1.470   5.593   0.700
12793TIP3   OH238335   7.044  -0.061   6.507
12793TIP3    H138336   6.999   0.001   6.450
12793TIP3    H238337   7.128  -0.020   6.527
12794TIP3   OH238338   5.791   4.816   1.122
12794TIP3    H138339   5.804   4.906   1.092
12794TIP3    H238340   5.826   4.762   1.051
12795TIP3   OH238341   2.404   4.723   0.287
12795TIP3    H138342   2.409   4.802   0.233
12795TIP3    H238343   2.401   4.756   0.377
12796TIP3   OH238344   5.483   2.962   0.613
12796TIP3    H138345   5.388   2.950   0.607
12796TIP3    H238346   5.493   3.050   0.650
12797TIP3   OH238347   0.171   4.875   0.343
12797TIP3    H138348   0.137   4.904   0.427
12797TIP3    H238349   0.185   4.781   0.353
12798TIP3   OH238350   6.370   2.683   3.949
12798TIP3    H138351   6.429   2.679   4.024
12798TIP3    H238352   6.389   2.767   3.908
12799TIP3   OH238353   5.107   4.290   2.399
12799TIP3    H138354   5.149   4.216   2.442
12799TIP3    H238355   5.019   4.260   2.379
12800TIP3   OH238356   6.757   3.164   2.124
12800TIP3    H138357   6.852   3.173   2.133
12800TIP3    H238358   6.723   3.182   2.212
12801TIP3   OH238359   3.966   2.920   2.055
12801TIP3    H138360   4.020   2.963   1.989
12801TIP3    H238361   3.981   2.971   2.135
12802TIP3   OH238362   3.871   0.949   2.696
12802TIP3    H138363   3.945   0.910   2.650
12802TIP3    H238364   3.799   0.888   2.681
12803TIP3   OH238365   6.152   4.820   2.344
12803TIP3    H138366   6.105   4.736   2.334
12803TIP3    H238367   6.117   4.875   2.273
12804TIP3   OH238368   0.426   5.410   5.332
12804TIP3    H138369   0.403   5.456   5.413
12804TIP3    H238370   0.521   5.420   5.325
12805TIP3   OH238371   6.053   6.693   1.366
12805TIP3    H138372   5.999   6.616   1.348
12805TIP3    H238373   5.993   6.756   1.405
12806TIP3   OH238374   7.119   5.788   5.761
12806TIP3    H138375   7.062   5.776   5.837
12806TIP3    H238376   7.068   5.843   5.702
12807TIP3   OH238377   1.167   7.574   1.524
12807TIP3    H138378   1.233   7.598   1.459
12807TIP3    H238379   1.105   7.648   1.524
12808TIP3   OH238380   7.582   3.029   3.710
12808TIP3    H138381   7.579   2.975   3.631
12808TIP3    H238382   7.491   3.053   3.727
12809TIP3   OH238383   4.548   4.113   3.763
12809TIP3    H138384   4.457   4.088   3.779
12809TIP3    H238385   4.547   4.209   3.761
12810TIP3   OH238386  -0.034   5.511   4.742
12810TIP3    H138387   0.036   5.529   4.805
12810TIP3    H238388  -0.112   5.549   4.782
12811TIP3   OH238389   5.577   7.609   6.686
12811TIP3    H138390   5.616   7.620   6.599
12811TIP3    H238391   5.492   7.652   6.681
12812TIP3   OH238392   5.243   0.785   4.086
12812TIP3    H138393   5.287   0.796   4.001
12812TIP3    H238394   5.283   0.707   4.124
12813TIP3   OH238395   7.134   3.817   6.446
12813TIP3    H138396   7.081   3.738   6.447
12813TIP3    H238397   7.151   3.836   6.538
12814TIP3   OH238398   0.706   5.658   1.316
12814TIP3    H138399   0.636   5.712   1.278
12814TIP3    H238400   0.672   5.631   1.401
12815TIP3   OH238401   7.130   1.009   3.559
12815TIP3    H138402   7.040   0.992   3.587
12815TIP3    H238403   7.120   1.066   3.482
12816TIP3   OH238404   1.220   4.663   4.415
12816TIP3    H138405   1.129   4.690   4.402
12816TIP3    H238406   1.227   4.581   4.366
12817TIP3   OH238407   1.911   0.075   5.080
12817TIP3    H138408   1.923   0.147   5.018
12817TIP3    H238409   1.897  -0.002   5.025
12818TIP3   OH238410   3.088   5.324   2.011
12818TIP3    H138411   3.103   5.233   2.036
12818TIP3    H238412   3.117   5.375   2.087
12819TIP3   OH238413   3.943   5.890   3.573
12819TIP3    H138414   3.913   5.842   3.651
12819TIP3    H238415   3.967   5.821   3.511
12820TIP3   OH238416   5.603   2.703   4.253
12820TIP3    H138417   5.614   2.732   4.163
12820TIP3    H238418   5.517   2.661   4.255
12821TIP3   OH238419   5.704   6.658   5.306
12821TIP3    H138420   5.775   6.606   5.268
12821TIP3    H238421   5.745   6.704   5.380
12822TIP3   OH238422   6.371   2.160   4.658
12822TIP3    H138423   6.333   2.084   4.702
12822TIP3    H238424   6.318   2.234   4.689
12823TIP3   OH238425   3.270   1.836   2.777
12823TIP3    H138426   3.222   1.918   2.763
12823TIP3    H238427   3.284   1.801   2.690
12824TIP3   OH238428   4.909   1.364   3.936
12824TIP3    H138429   4.917   1.269   3.934
12824TIP3    H238430   4.926   1.388   4.027
12825TIP3   OH238431   3.931   6.277   2.313
12825TIP3    H138432   3.938   6.279   2.408
12825TIP3    H238433   4.013   6.313   2.281
12826TIP3   OH238434   0.569   3.630   5.258
12826TIP3    H138435   0.621   3.549   5.265
12826TIP3    H238436   0.526   3.623   5.173
12827TIP3   OH238437   2.350   0.787   6.151
12827TIP3    H138438   2.339   0.774   6.057
12827TIP3    H238439   2.299   0.865   6.171
12828TIP3   OH238440   0.886   0.790   1.078
12828TIP3    H138441   0.917   0.824   0.994
12828TIP3    H238442   0.908   0.858   1.142
12829TIP3   OH238443   2.048   4.296   3.883
12829TIP3    H138444   2.141   4.291   3.906
12829TIP3    H238445   2.021   4.383   3.912
12830TIP3   OH238446   3.747   2.816   4.602
12830TIP3    H138447   3.692   2.784   4.674
12830TIP3    H238448   3.709   2.899   4.577
12831TIP3   OH238449   1.547   3.702   4.690
12831TIP3    H138450   1.572   3.731   4.602
12831TIP3    H238451   1.552   3.781   4.743
12832TIP3   OH238452   6.710   4.709   1.726
12832TIP3    H138453   6.709   4.619   1.694
12832TIP3    H238454   6.706   4.701   1.821
12833TIP3   OH238455   2.938   4.278   4.191
12833TIP3    H138456   2.955   4.367   4.159
12833TIP3    H238457   2.908   4.231   4.114
12834TIP3   OH238458   6.811   6.198   4.961
12834TIP3    H138459   6.734   6.179   5.015
12834TIP3    H238460   6.870   6.246   5.019
12835TIP3   OH238461   0.877   2.245   4.602
12835TIP3    H138462   0.801   2.223   4.548
12835TIP3    H238463   0.952   2.232   4.544
12836TIP3   OH238464   4.500   1.343   3.937
12836TIP3    H138465   4.543   1.414   3.889
12836TIP3    H238466   4.540   1.345   4.024
12837TIP3   OH238467   0.782   4.457   0.063
12837TIP3    H138468   0.849   4.452   0.131
12837TIP3    H238469   0.708   4.407   0.097
12838TIP3   OH238470   2.204   7.857   6.605
12838TIP3    H138471   2.204   7.765   6.581
12838TIP3    H238472   2.145   7.863   6.680
12839TIP3   OH238473   2.083   5.708   5.101
12839TIP3    H138474   2.047   5.758   5.028
12839TIP3    H238475   2.011   5.652   5.130
12840TIP3   OH238476   5.914   6.945   1.435
12840TIP3    H138477   5.902   7.034   1.468
12840TIP3    H238478   5.829   6.904   1.444
12841TIP3   OH238479   2.589   7.609   5.924
12841TIP3    H138480   2.591   7.601   6.019
12841TIP3    H238481   2.591   7.519   5.892
12842TIP3   OH238482   2.541   1.278   0.749
12842TIP3    H138483   2.516   1.193   0.714
12842TIP3    H238484   2.535   1.337   0.674
12843TIP3   OH238485   6.024   6.530   4.920
12843TIP3    H138486   5.953   6.521   4.983
12843TIP3    H238487   6.017   6.621   4.889
12844TIP3   OH238488   2.359   0.357   3.191
12844TIP3    H138489   2.315   0.400   3.118
12844TIP3    H238490   2.417   0.293   3.149
12845TIP3   OH238491   6.539   0.688   1.533
12845TIP3    H138492   6.528   0.753   1.464
12845TIP3    H238493   6.620   0.713   1.577
12846TIP3   OH238494   1.213   3.240   1.522
12846TIP3    H138495   1.247   3.301   1.457
12846TIP3    H238496   1.247   3.272   1.606
12847TIP3   OH238497   5.686   6.060   6.065
12847TIP3    H138498   5.702   6.155   6.065
12847TIP3    H238499   5.633   6.046   5.986
12848TIP3   OH238500   4.166   1.344   2.806
12848TIP3    H138501   4.108   1.397   2.861
12848TIP3    H238502   4.133   1.255   2.815
12849TIP3   OH238503   0.945   5.772   5.826
12849TIP3    H138504   0.888   5.842   5.793
12849TIP3    H238505   0.900   5.691   5.803
12850TIP3   OH238506   1.540   6.287   4.661
12850TIP3    H138507   1.621   6.283   4.610
12850TIP3    H238508   1.506   6.375   4.643
12851TIP3   OH238509   4.582   5.696   5.014
12851TIP3    H138510   4.562   5.627   4.952
12851TIP3    H238511   4.668   5.672   5.050
12852TIP3   OH238512   1.325   0.570   2.737
12852TIP3    H138513   1.289   0.501   2.794
12852TIP3    H238514   1.411   0.588   2.774
12853TIP3   OH238515   2.620   7.064   0.581
12853TIP3    H138516   2.714   7.083   0.581
12853TIP3    H238517   2.608   7.006   0.506
12854TIP3   OH238518   7.699   7.323   2.814
12854TIP3    H138519   7.743   7.406   2.830
12854TIP3    H238520   7.640   7.340   2.741
12855TIP3   OH238521   5.085   6.503   6.000
12855TIP3    H138522   5.101   6.413   5.971
12855TIP3    H238523   5.162   6.552   5.971
12856TIP3   OH238524   1.872   7.779   1.107
12856TIP3    H138525   1.885   7.836   1.183
12856TIP3    H238526   1.935   7.708   1.118
12857TIP3   OH238527   5.903   5.745   5.970
12857TIP3    H138528   5.816   5.771   5.939
12857TIP3    H238529   5.940   5.826   6.007
12858TIP3   OH238530   3.369   3.107   1.502
12858TIP3    H138531   3.433   3.046   1.464
12858TIP3    H238532   3.423   3.172   1.548
12859TIP3   OH238533   1.266   4.272   2.970
12859TIP3    H138534   1.224   4.192   2.938
12859TIP3    H238535   1.253   4.270   3.064
12860TIP3   OH238536   2.631   5.709   6.626
12860TIP3    H138537   2.551   5.710   6.574
12860TIP3    H238538   2.672   5.793   6.609
12861TIP3   OH238539   2.905   4.922   4.386
12861TIP3    H138540   2.843   4.939   4.315
12861TIP3    H238541   2.957   4.847   4.356
12862TIP3   OH238542   2.346   3.712   0.541
12862TIP3    H138543   2.292   3.727   0.618
12862TIP3    H238544   2.431   3.685   0.575
12863TIP3   OH238545   7.180   4.271   0.398
12863TIP3    H138546   7.104   4.229   0.358
12863TIP3    H238547   7.219   4.323   0.327
12864TIP3   OH238548   7.395   2.458   5.635
12864TIP3    H138549   7.383   2.434   5.727
12864TIP3    H238550   7.410   2.552   5.637
12865TIP3   OH238551   6.430   6.919   5.475
12865TIP3    H138552   6.423   7.002   5.428
12865TIP3    H238553   6.503   6.930   5.535
12866TIP3   OH238554   4.420   6.861   3.075
12866TIP3    H138555   4.443   6.908   3.154
12866TIP3    H238556   4.343   6.809   3.100
12867TIP3   OH238557   3.491   3.487   2.820
12867TIP3    H138558   3.409   3.441   2.803
12867TIP3    H238559   3.548   3.464   2.747
12868TIP3   OH238560   1.560   4.142   3.103
12868TIP3    H138561   1.541   4.236   3.094
12868TIP3    H238562   1.505   4.114   3.177
12869TIP3   OH238563   2.522   6.191   3.867
12869TIP3    H138564   2.544   6.283   3.855
12869TIP3    H238565   2.434   6.192   3.905
12870TIP3   OH238566   6.499   0.899   2.032
12870TIP3    H138567   6.454   0.890   2.117
12870TIP3    H238568   6.570   0.960   2.050
12871TIP3   OH238569   5.604   2.870   0.948
12871TIP3    H138570   5.654   2.790   0.967
12871TIP3    H238571   5.666   2.927   0.903
12872TIP3   OH238572   4.161   2.469   3.383
12872TIP3    H138573   4.218   2.475   3.460
12872TIP3    H238574   4.094   2.405   3.407
12873TIP3   OH238575   1.866   6.018   6.421
12873TIP3    H138576   1.812   5.962   6.478
12873TIP3    H238577   1.937   6.049   6.477
12874TIP3   OH238578   4.741   2.724   6.679
12874TIP3    H138579   4.662   2.745   6.729
12874TIP3    H238580   4.787   2.808   6.672
12875TIP3   OH238581   5.758   5.752   0.757
12875TIP3    H138582   5.851   5.732   0.749
12875TIP3    H238583   5.725   5.752   0.667
12876TIP3   OH238584   1.832   1.517   5.455
12876TIP3    H138585   1.847   1.606   5.424
12876TIP3    H238586   1.865   1.461   5.384
12877TIP3   OH238587   2.170   7.407   3.757
12877TIP3    H138588   2.162   7.375   3.847
12877TIP3    H238589   2.168   7.502   3.765
12878TIP3   OH238590   5.412   1.927   5.793
12878TIP3    H138591   5.466   1.853   5.819
12878TIP3    H238592   5.372   1.957   5.875
12879TIP3   OH238593   0.526   2.754   2.654
12879TIP3    H138594   0.475   2.769   2.733
12879TIP3    H238595   0.576   2.835   2.642
12880TIP3   OH238596   2.732   3.183   4.968
12880TIP3    H138597   2.685   3.105   4.938
12880TIP3    H238598   2.714   3.249   4.902
12881TIP3   OH238599   5.642   1.510   4.131
12881TIP3    H138600   5.560   1.518   4.082
12881TIP3    H238601   5.647   1.588   4.185
12882TIP3   OH238602   4.654   4.125   4.685
12882TIP3    H138603   4.727   4.143   4.743
12882TIP3    H238604   4.683   4.156   4.599
12883TIP3   OH238605   6.421   1.216   2.141
12883TIP3    H138606   6.363   1.169   2.081
12883TIP3    H238607   6.503   1.166   2.139
12884TIP3   OH238608   2.976   1.891   2.867
12884TIP3    H138609   3.031   1.964   2.838
12884TIP3    H238610   2.887   1.925   2.862
12885TIP3   OH238611   4.961   2.516   5.480
12885TIP3    H138612   4.914   2.503   5.562
12885TIP3    H238613   4.912   2.465   5.415
12886TIP3   OH238614   7.526   4.975   2.436
12886TIP3    H138615   7.523   4.972   2.341
12886TIP3    H238616   7.475   5.054   2.459
12887TIP3   OH238617   2.374   3.379   5.265
12887TIP3    H138618   2.383   3.288   5.296
12887TIP3    H238619   2.280   3.389   5.248
12888TIP3   OH238620   1.399   6.434   1.663
12888TIP3    H138621   1.369   6.486   1.589
12888TIP3    H238622   1.494   6.444   1.663
12889TIP3   OH238623   7.349   2.587   4.260
12889TIP3    H138624   7.255   2.586   4.242
12889TIP3    H238625   7.380   2.667   4.219
12890TIP3   OH238626   4.452   1.871   3.020
12890TIP3    H138627   4.535   1.867   3.067
12890TIP3    H238628   4.399   1.801   3.058
12891TIP3   OH238629   0.595   1.665   5.407
12891TIP3    H138630   0.597   1.570   5.396
12891TIP3    H238631   0.670   1.696   5.357
12892TIP3   OH238632   3.229   6.348   5.363
12892TIP3    H138633   3.207   6.416   5.427
12892TIP3    H238634   3.261   6.396   5.287
12893TIP3   OH238635   6.934   3.751   5.106
12893TIP3    H138636   6.997   3.707   5.163
12893TIP3    H238637   6.852   3.752   5.156
12894TIP3   OH238638   4.217   1.791   5.196
12894TIP3    H138639   4.130   1.793   5.157
12894TIP3    H238640   4.239   1.698   5.201
12895TIP3   OH238641   6.109   4.143   4.747
12895TIP3    H138642   6.068   4.224   4.718
12895TIP3    H238643   6.094   4.141   4.842
12896TIP3   OH238644   7.532   3.716   3.210
12896TIP3    H138645   7.616   3.671   3.218
12896TIP3    H238646   7.547   3.802   3.250
12897TIP3   OH238647   0.680   4.967   2.262
12897TIP3    H138648   0.602   4.989   2.314
12897TIP3    H238649   0.688   4.872   2.271
12898TIP3   OH238650   2.655   5.548   0.745
12898TIP3    H138651   2.706   5.481   0.699
12898TIP3    H238652   2.653   5.518   0.836
12899TIP3   OH238653   7.962   0.243   2.984
12899TIP3    H138654   7.996   0.191   3.056
12899TIP3    H238655   7.997   0.200   2.905
12900TIP3   OH238656   5.349   4.825   2.736
12900TIP3    H138657   5.370   4.771   2.812
12900TIP3    H238658   5.291   4.770   2.683
12901TIP3   OH238659   5.329   2.627   4.185
12901TIP3    H138660   5.287   2.700   4.229
12901TIP3    H238661   5.256   2.576   4.149
12902TIP3   OH238662   3.695   5.934   4.273
12902TIP3    H138663   3.640   6.011   4.258
12902TIP3    H238664   3.746   5.956   4.352
12903TIP3   OH238665   5.564   3.509   5.625
12903TIP3    H138666   5.525   3.480   5.543
12903TIP3    H238667   5.492   3.510   5.687
12904TIP3   OH238668   2.671   0.298   0.817
12904TIP3    H138669   2.614   0.270   0.745
12904TIP3    H238670   2.732   0.225   0.830
12905TIP3   OH238671   5.251   4.712   3.790
12905TIP3    H138672   5.280   4.774   3.858
12905TIP3    H238673   5.186   4.658   3.834
12906TIP3   OH238674   3.314   6.325   5.736
12906TIP3    H138675   3.359   6.390   5.681
12906TIP3    H238676   3.308   6.247   5.681
12907TIP3   OH238677   2.878   6.820   5.393
12907TIP3    H138678   2.827   6.856   5.465
12907TIP3    H238679   2.966   6.808   5.430
12908TIP3   OH238680   3.199   7.117   0.358
12908TIP3    H138681   3.129   7.079   0.306
12908TIP3    H238682   3.243   7.042   0.398
12909TIP3   OH238683   0.394   5.507   2.265
12909TIP3    H138684   0.328   5.536   2.202
12909TIP3    H238685   0.469   5.565   2.250
12910TIP3   OH238686   7.090   7.670   3.529
12910TIP3    H138687   7.001   7.680   3.562
12910TIP3    H238688   7.145   7.708   3.598
12911TIP3   OH238689   3.864   3.656   2.418
12911TIP3    H138690   3.925   3.587   2.444
12911TIP3    H238691   3.916   3.711   2.358
12912TIP3   OH238692   3.210   2.748   1.561
12912TIP3    H138693   3.298   2.710   1.562
12912TIP3    H238694   3.152   2.673   1.574
12913TIP3   OH238695   3.187   0.806   6.211
12913TIP3    H138696   3.155   0.876   6.269
12913TIP3    H238697   3.199   0.731   6.269
12914TIP3   OH238698   6.994   6.267   3.107
12914TIP3    H138699   7.070   6.259   3.164
12914TIP3    H238700   7.030   6.283   3.020
12915TIP3   OH238701   4.478   3.375   4.233
12915TIP3    H138702   4.468   3.363   4.327
12915TIP3    H238703   4.569   3.404   4.222
12916TIP3   OH238704   3.376   1.974   5.151
12916TIP3    H138705   3.437   2.009   5.216
12916TIP3    H238706   3.433   1.937   5.082
12917TIP3   OH238707   1.521   4.504   2.759
12917TIP3    H138708   1.496   4.413   2.774
12917TIP3    H238709   1.616   4.501   2.748
12918TIP3   OH238710   5.949   4.585   2.363
12918TIP3    H138711   5.926   4.579   2.456
12918TIP3    H238712   5.867   4.604   2.318
12919TIP3   OH238713   0.484   7.451   4.650
12919TIP3    H138714   0.472   7.541   4.620
12919TIP3    H238715   0.531   7.408   4.578
12920TIP3   OH238716   4.713   6.883   5.380
12920TIP3    H138717   4.775   6.940   5.333
12920TIP3    H238718   4.645   6.863   5.315
12921TIP3   OH238719   7.727   7.771   3.772
12921TIP3    H138720   7.790   7.727   3.828
12921TIP3    H238721   7.722   7.860   3.806
12922TIP3   OH238722   5.850   5.014   1.457
12922TIP3    H138723   5.885   5.094   1.419
12922TIP3    H238724   5.760   5.010   1.424
12923TIP3   OH238725   4.602   3.318   2.608
12923TIP3    H138726   4.670   3.251   2.616
12923TIP3    H238727   4.559   3.319   2.693
12924TIP3   OH238728   0.565   7.188   2.986
12924TIP3    H138729   0.567   7.102   2.944
12924TIP3    H238730   0.536   7.247   2.916
12925TIP3   OH238731   6.060   5.785   5.565
12925TIP3    H138732   5.970   5.813   5.580
12925TIP3    H238733   6.097   5.852   5.507
12926TIP3   OH238734   2.239   1.114   2.768
12926TIP3    H138735   2.262   1.206   2.774
12926TIP3    H238736   2.284   1.083   2.689
12927TIP3   OH238737   8.017   3.450   1.060
12927TIP3    H138738   8.015   3.517   0.992
12927TIP3    H238739   7.936   3.464   1.110
12928TIP3   OH238740   7.443   2.170  -0.029
12928TIP3    H138741   7.505   2.108  -0.068
12928TIP3    H238742   7.495   2.248  -0.012
12929TIP3   OH238743   3.775   2.908   1.636
12929TIP3    H138744   3.860   2.952   1.635
12929TIP3    H238745   3.764   2.880   1.727
12930TIP3   OH238746   4.006   2.144   0.373
12930TIP3    H138747   3.947   2.147   0.298
12930TIP3    H238748   4.093   2.159   0.336
12931TIP3   OH238749   0.789   6.768   1.331
12931TIP3    H138750   0.835   6.847   1.304
12931TIP3    H238751   0.713   6.800   1.380
12932TIP3   OH238752   7.018   4.456   5.182
12932TIP3    H138753   7.099   4.411   5.205
12932TIP3    H238754   7.020   4.463   5.087
12933TIP3   OH238755   3.769   6.533   1.243
12933TIP3    H138756   3.773   6.544   1.338
12933TIP3    H238757   3.714   6.456   1.230
12934TIP3   OH238758   6.536   4.957   1.729
12934TIP3    H138759   6.569   5.024   1.669
12934TIP3    H238760   6.593   4.882   1.714
12935TIP3   OH238761   1.110   2.406   1.067
12935TIP3    H138762   1.156   2.422   1.149
12935TIP3    H238763   1.143   2.474   1.008
12936TIP3   OH238764   0.565   7.172   3.340
12936TIP3    H138765   0.500   7.109   3.373
12936TIP3    H238766   0.602   7.212   3.419
12937TIP3   OH238767   4.596   6.312   6.705
12937TIP3    H138768   4.504   6.323   6.681
12937TIP3    H238769   4.625   6.400   6.731
12938TIP3   OH238770   6.429   5.034   3.969
12938TIP3    H138771   6.496   5.088   4.011
12938TIP3    H238772   6.384   4.991   4.041
12939TIP3   OH238773   0.492   4.673   2.540
12939TIP3    H138774   0.479   4.585   2.576
12939TIP3    H238775   0.547   4.660   2.463
12940TIP3   OH238776   1.706   0.244   4.161
12940TIP3    H138777   1.758   0.297   4.101
12940TIP3    H238778   1.770   0.205   4.220
12941TIP3   OH238779   7.513   7.606   2.384
12941TIP3    H138780   7.421   7.622   2.406
12941TIP3    H238781   7.513   7.594   2.289
12942TIP3   OH238782   7.059   1.357   5.710
12942TIP3    H138783   7.038   1.451   5.713
12942TIP3    H238784   7.154   1.354   5.703
12943TIP3   OH238785   1.589   5.958   1.186
12943TIP3    H138786   1.636   6.001   1.257
12943TIP3    H238787   1.533   6.026   1.150
12944TIP3   OH238788   0.326   2.978   6.692
12944TIP3    H138789   0.385   2.998   6.765
12944TIP3    H238790   0.286   2.894   6.716
12945TIP3   OH238791   4.352   6.968   0.080
12945TIP3    H138792   4.317   6.903   0.141
12945TIP3    H238793   4.316   7.052   0.111
12946TIP3   OH238794   2.487   2.926   2.759
12946TIP3    H138795   2.462   3.014   2.787
12946TIP3    H238796   2.579   2.918   2.781
12947TIP3   OH238797   4.987   1.547   5.186
12947TIP3    H138798   5.066   1.492   5.186
12947TIP3    H238799   5.011   1.623   5.240
12948TIP3   OH238800   7.890   3.956   4.145
12948TIP3    H138801   7.845   4.036   4.171
12948TIP3    H238802   7.819   3.893   4.130
12949TIP3   OH238803   1.760   4.387   2.969
12949TIP3    H138804   1.814   4.437   2.908
12949TIP3    H238805   1.763   4.297   2.936
12950TIP3   OH238806   1.366   0.081   1.832
12950TIP3    H138807   1.289   0.138   1.838
12950TIP3    H238808   1.439   0.136   1.860
12951TIP3   OH238809   2.443   3.597   4.992
12951TIP3    H138810   2.483   3.587   5.078
12951TIP3    H238811   2.377   3.528   4.988
12952TIP3   OH238812   3.108   7.348   6.487
12952TIP3    H138813   3.190   7.301   6.501
12952TIP3    H238814   3.101   7.357   6.391
12953TIP3   OH238815   1.403   2.595   3.809
12953TIP3    H138816   1.481   2.625   3.762
12953TIP3    H238817   1.411   2.500   3.810
12954TIP3   OH238818   5.527   0.059   2.709
12954TIP3    H138819   5.530   0.129   2.774
12954TIP3    H238820   5.595  -0.002   2.736
12955TIP3   OH238821   8.106   3.873   4.302
12955TIP3    H138822   8.041   3.804   4.315
12955TIP3    H238823   8.056   3.945   4.263
12956TIP3   OH238824   2.775   0.484   5.104
12956TIP3    H138825   2.754   0.397   5.136
12956TIP3    H238826   2.820   0.527   5.177
12957TIP3   OH238827   1.786   4.349   6.352
12957TIP3    H138828   1.818   4.368   6.264
12957TIP3    H238829   1.710   4.293   6.338
12958TIP3   OH238830   1.494   1.755   2.452
12958TIP3    H138831   1.402   1.780   2.441
12958TIP3    H238832   1.511   1.764   2.545
12959TIP3   OH238833   1.799   0.022   0.270
12959TIP3    H138834   1.809  -0.065   0.231
12959TIP3    H238835   1.887   0.044   0.301
12960TIP3   OH238836   4.841   1.544   3.729
12960TIP3    H138837   4.853   1.486   3.805
12960TIP3    H238838   4.927   1.581   3.714
12961TIP3   OH238839   7.863   0.579   0.676
12961TIP3    H138840   7.945   0.578   0.725
12961TIP3    H238841   7.869   0.504   0.617
12962TIP3   OH238842   4.588   1.724   4.837
12962TIP3    H138843   4.637   1.799   4.868
12962TIP3    H238844   4.576   1.668   4.914
12963TIP3   OH238845   3.122   0.814   2.843
12963TIP3    H138846   3.140   0.868   2.920
12963TIP3    H238847   3.092   0.730   2.877
12964TIP3   OH238848   2.030   5.173   1.361
12964TIP3    H138849   2.074   5.187   1.445
12964TIP3    H238850   2.092   5.122   1.310
12965TIP3   OH238851   3.401   1.960   4.284
12965TIP3    H138852   3.475   1.900   4.275
12965TIP3    H238853   3.347   1.943   4.207
12966TIP3   OH238854   3.399   2.560   2.698
12966TIP3    H138855   3.393   2.640   2.751
12966TIP3    H238856   3.437   2.495   2.758
12967TIP3   OH238857   7.682   3.791   4.221
12967TIP3    H138858   7.713   3.846   4.293
12967TIP3    H238859   7.625   3.849   4.170
12968TIP3   OH238860   5.797   2.158   1.477
12968TIP3    H138861   5.713   2.120   1.450
12968TIP3    H238862   5.782   2.253   1.473
12969TIP3   OH238863   2.863   2.922   4.800
12969TIP3    H138864   2.902   2.908   4.714
12969TIP3    H238865   2.769   2.917   4.784
12970TIP3   OH238866   7.403   0.945   0.318
12970TIP3    H138867   7.393   0.854   0.288
12970TIP3    H238868   7.455   0.987   0.249
12971TIP3   OH238869   1.681   6.099   3.547
12971TIP3    H138870   1.714   6.144   3.625
12971TIP3    H238871   1.587   6.117   3.547
12972TIP3   OH238872   0.644   0.756   6.461
12972TIP3    H138873   0.725   0.710   6.482
12972TIP3    H238874   0.625   0.730   6.370
12973TIP3   OH238875   0.169   5.946   0.852
12973TIP3    H138876   0.180   5.993   0.770
12973TIP3    H238877   0.246   5.970   0.904
12974TIP3   OH238878   2.930   6.806   1.929
12974TIP3    H138879   2.970   6.824   1.844
12974TIP3    H238880   3.003   6.814   1.991
12975TIP3   OH238881   2.655   7.342   2.605
12975TIP3    H138882   2.744   7.319   2.577
12975TIP3    H238883   2.668   7.398   2.682
12976TIP3   OH238884   0.653   0.371   2.885
12976TIP3    H138885   0.740   0.343   2.914
12976TIP3    H238886   0.594   0.344   2.956
12977TIP3   OH238887   0.560   3.742   5.532
12977TIP3    H138888   0.474   3.785   5.528
12977TIP3    H238889   0.585   3.731   5.440
12978TIP3   OH238890   0.546   5.111   6.518
12978TIP3    H138891   0.458   5.102   6.554
12978TIP3    H238892   0.599   5.143   6.591
12979TIP3   OH238893   2.216   1.963   4.016
12979TIP3    H138894   2.295   1.912   4.037
12979TIP3    H238895   2.250   2.042   3.975
12980TIP3   OH238896   5.892   4.771   6.511
12980TIP3    H138897   5.851   4.761   6.597
12980TIP3    H238898   5.946   4.850   6.519
12981TIP3   OH238899   7.326   7.219   5.517
12981TIP3    H138900   7.374   7.179   5.590
12981TIP3    H238901   7.268   7.283   5.559
12982TIP3   OH238902   7.106   3.712   2.860
12982TIP3    H138903   7.113   3.742   2.769
12982TIP3    H238904   7.196   3.716   2.893
12983TIP3   OH238905   2.156   2.225   3.535
12983TIP3    H138906   2.090   2.173   3.490
12983TIP3    H238907   2.106   2.287   3.589
12984TIP3   OH238908   6.325   2.997   4.648
12984TIP3    H138909   6.311   3.056   4.574
12984TIP3    H238910   6.386   2.931   4.615
12985TIP3   OH238911   5.503   1.314   6.598
12985TIP3    H138912   5.568   1.373   6.637
12985TIP3    H238913   5.421   1.362   6.606
12986TIP3   OH238914   2.275   4.927   1.933
12986TIP3    H138915   2.334   4.971   1.871
12986TIP3    H238916   2.317   4.843   1.951
12987TIP3   OH238917   2.171   4.602   5.621
12987TIP3    H138918   2.166   4.541   5.694
12987TIP3    H238919   2.082   4.637   5.613
12988TIP3   OH238920   1.200   3.829   6.539
12988TIP3    H138921   1.144   3.797   6.609
12988TIP3    H238922   1.146   3.826   6.460
12989TIP3   OH238923   0.093   6.412   4.179
12989TIP3    H138924   0.036   6.469   4.127
12989TIP3    H238925   0.159   6.381   4.116
12990TIP3   OH238926   3.708   1.786   3.790
12990TIP3    H138927   3.724   1.707   3.843
12990TIP3    H238928   3.694   1.855   3.855
12991TIP3   OH238929   1.725   0.861   1.976
12991TIP3    H138930   1.771   0.945   1.973
12991TIP3    H238931   1.722   0.833   1.884
12992TIP3   OH238932   2.061   0.565   4.372
12992TIP3    H138933   2.017   0.649   4.362
12992TIP3    H238934   2.154   0.587   4.375
12993TIP3   OH238935   4.515   4.891   1.490
12993TIP3    H138936   4.446   4.826   1.482
12993TIP3    H238937   4.596   4.839   1.497
12994TIP3   OH238938   6.287   0.021   5.223
12994TIP3    H138939   6.193   0.036   5.231
12994TIP3    H238940   6.319   0.016   5.314
12995TIP3   OH238941   8.155   3.103   5.925
12995TIP3    H138942   8.207   3.161   5.869
12995TIP3    H238943   8.208   3.092   6.004
12996TIP3   OH238944   5.226   7.570   4.364
12996TIP3    H138945   5.280   7.648   4.355
12996TIP3    H238946   5.141   7.594   4.326
12997TIP3   OH238947   7.173   5.202   4.296
12997TIP3    H138948   7.182   5.294   4.320
12997TIP3    H238949   7.127   5.204   4.212
12998TIP3   OH238950   7.752   5.068   6.406
12998TIP3    H138951   7.720   5.039   6.492
12998TIP3    H238952   7.685   5.128   6.374
12999TIP3   OH238953   1.254   0.117   0.777
12999TIP3    H138954   1.208   0.199   0.792
12999TIP3    H238955   1.224   0.059   0.848
13000TIP3   OH238956   6.573   1.442   1.041
13000TIP3    H138957   6.581   1.422   0.948
13000TIP3    H238958   6.585   1.537   1.046
13001TIP3   OH238959   3.582   3.015   2.296
13001TIP3    H138960   3.563   3.040   2.206
13001TIP3    H238961   3.569   3.095   2.347
13002TIP3   OH238962   0.981   0.183   3.781
13002TIP3    H138963   1.037   0.152   3.710
13002TIP3    H238964   1.021   0.146   3.860
13003TIP3   OH238965   6.221   1.083   2.842
13003TIP3    H138966   6.281   1.157   2.846
13003TIP3    H238967   6.145   1.112   2.893
13004TIP3   OH238968   1.702   5.178   5.448
13004TIP3    H138969   1.729   5.154   5.359
13004TIP3    H238970   1.611   5.149   5.453
13005TIP3   OH238971   3.853   3.252   3.701
13005TIP3    H138972   3.793   3.178   3.697
13005TIP3    H238973   3.928   3.224   3.648
13006TIP3   OH238974   3.827   1.449   3.239
13006TIP3    H138975   3.745   1.492   3.216
13006TIP3    H238976   3.827   1.444   3.335
13007TIP3   OH238977   5.567   3.089   3.150
13007TIP3    H138978   5.531   3.006   3.116
13007TIP3    H238979   5.493   3.131   3.193
13008TIP3   OH238980   1.247   5.657   1.500
13008TIP3    H138981   1.330   5.621   1.468
13008TIP3    H238982   1.226   5.727   1.438
13009TIP3   OH238983   1.627   2.731   3.693
13009TIP3    H138984   1.689   2.752   3.763
13009TIP3    H238985   1.640   2.801   3.628
13010TIP3   OH238986   3.101   1.793   6.216
13010TIP3    H138987   3.138   1.809   6.129
13010TIP3    H238988   3.043   1.718   6.204
13011TIP3   OH238989   3.024   4.529   0.272
13011TIP3    H138990   2.970   4.474   0.329
13011TIP3    H238991   2.988   4.618   0.283
13012TIP3   OH238992   1.391   1.387   1.398
13012TIP3    H138993   1.396   1.482   1.403
13012TIP3    H238994   1.460   1.356   1.456
13013TIP3   OH238995   0.857   3.590   0.611
13013TIP3    H138996   0.819   3.543   0.685
13013TIP3    H238997   0.952   3.577   0.621
13014TIP3   OH238998   8.121   6.431   1.155
13014TIP3    H138999   8.168   6.511   1.179
13014TIP3    H239000   8.133   6.373   1.231
13015TIP3   OH239001   1.122   3.710   2.706
13015TIP3    H139002   1.166   3.794   2.694
13015TIP3    H239003   1.118   3.698   2.801
13016TIP3   OH239004   7.669   1.984   4.145
13016TIP3    H139005   7.713   2.052   4.197
13016TIP3    H239006   7.584   1.974   4.188
13017TIP3   OH239007   5.382   5.253   4.566
13017TIP3    H139008   5.404   5.331   4.514
13017TIP3    H239009   5.297   5.275   4.605
13018TIP3   OH239010   1.081   1.358   5.935
13018TIP3    H139011   0.986   1.356   5.930
13018TIP3    H239012   1.100   1.370   6.028
13019TIP3   OH239013   5.079   4.339   3.235
13019TIP3    H139014   4.993   4.382   3.236
13019TIP3    H239015   5.094   4.314   3.326
13020TIP3   OH239016   6.613   4.106   6.461
13020TIP3    H139017   6.685   4.091   6.522
13020TIP3    H239018   6.574   4.020   6.447
13021TIP3   OH239019   5.153   6.063   6.576
13021TIP3    H139020   5.095   6.109   6.637
13021TIP3    H239021   5.146   6.113   6.494
13022TIP3   OH239022   4.732   1.890   5.007
13022TIP3    H139023   4.801   1.901   5.072
13022TIP3    H239024   4.656   1.862   5.057
13023TIP3   OH239025   2.752   5.874   4.738
13023TIP3    H139026   2.681   5.904   4.795
13023TIP3    H239027   2.793   5.802   4.787
13024TIP3   OH239028   7.543   2.225   0.784
13024TIP3    H139029   7.546   2.286   0.857
13024TIP3    H239030   7.473   2.164   0.806
13025TIP3   OH239031   5.160   1.916   4.558
13025TIP3    H139032   5.142   1.905   4.651
13025TIP3    H239033   5.125   2.002   4.537
13026TIP3   OH239034   4.473   4.728   4.540
13026TIP3    H139035   4.458   4.727   4.634
13026TIP3    H239036   4.547   4.669   4.527
13027TIP3   OH239037   5.268   6.467   6.251
13027TIP3    H139038   5.193   6.484   6.194
13027TIP3    H239039   5.323   6.544   6.241
13028TIP3   OH239040   7.897   1.885   2.027
13028TIP3    H139041   7.963   1.862   2.092
13028TIP3    H239042   7.926   1.968   1.991
13029TIP3   OH239043   4.240   2.626   2.767
13029TIP3    H139044   4.229   2.642   2.861
13029TIP3    H239045   4.244   2.531   2.759
13030TIP3   OH239046   1.413   0.433   0.113
13030TIP3    H139047   1.384   0.426   0.023
13030TIP3    H239048   1.439   0.344   0.137
13031TIP3   OH239049   0.219   6.555   6.141
13031TIP3    H139050   0.187   6.525   6.056
13031TIP3    H239051   0.244   6.475   6.187
13032TIP3   OH239052   4.240   1.351   0.389
13032TIP3    H139053   4.304   1.358   0.460
13032TIP3    H239054   4.202   1.439   0.383
13033TIP3   OH239055   6.397   2.718   0.856
13033TIP3    H139056   6.384   2.788   0.921
13033TIP3    H239057   6.318   2.665   0.862
13034TIP3   OH239058   4.408   7.600   1.109
13034TIP3    H139059   4.433   7.533   1.045
13034TIP3    H239060   4.469   7.588   1.182
13035TIP3   OH239061   7.755   1.628   0.640
13035TIP3    H139062   7.807   1.622   0.559
13035TIP3    H239063   7.699   1.550   0.638
13036TIP3   OH239064   2.735   0.038   5.147
13036TIP3    H139065   2.774  -0.040   5.186
13036TIP3    H239066   2.677   0.072   5.214
13037TIP3   OH239067   6.460   6.736   0.982
13037TIP3    H139068   6.414   6.815   1.010
13037TIP3    H239069   6.455   6.738   0.886
13038TIP3   OH239070   6.048   1.723   3.877
13038TIP3    H139071   5.974   1.677   3.916
13038TIP3    H239072   6.017   1.749   3.790
13039TIP3   OH239073   0.165   1.318   3.959
13039TIP3    H139074   0.227   1.273   4.016
13039TIP3    H239075   0.082   1.314   4.006
13040TIP3   OH239076   4.490   1.353   0.899
13040TIP3    H139077   4.508   1.400   0.980
13040TIP3    H239078   4.395   1.354   0.891
13041TIP3   OH239079   2.852   6.157   1.271
13041TIP3    H139080   2.808   6.197   1.346
13041TIP3    H239081   2.782   6.139   1.209
13042TIP3   OH239082   3.020   0.403   4.487
13042TIP3    H139083   3.066   0.421   4.569
13042TIP3    H239084   3.020   0.486   4.440
13043TIP3   OH239085   4.274   1.783   2.854
13043TIP3    H139086   4.310   1.717   2.912
13043TIP3    H239087   4.330   1.860   2.867
13044TIP3   OH239088   0.975   5.492   6.648
13044TIP3    H139089   0.901   5.552   6.660
13044TIP3    H239090   0.934   5.406   6.635
13045TIP3   OH239091   2.588   2.399   5.855
13045TIP3    H139092   2.549   2.315   5.830
13045TIP3    H239093   2.550   2.419   5.940
13046TIP3   OH239094   1.450   1.259   3.420
13046TIP3    H139095   1.539   1.293   3.432
13046TIP3    H239096   1.460   1.191   3.354
13047TIP3   OH239097   3.152   6.119   5.203
13047TIP3    H139098   3.181   6.201   5.242
13047TIP3    H239099   3.089   6.145   5.136
13048TIP3   OH239100   3.264   2.337   4.974
13048TIP3    H139101   3.202   2.274   5.012
13048TIP3    H239102   3.229   2.355   4.887
13049TIP3   OH239103   1.408   1.502   3.566
13049TIP3    H139104   1.437   1.468   3.651
13049TIP3    H239105   1.398   1.424   3.512
13050TIP3   OH239106   7.722   7.491   1.709
13050TIP3    H139107   7.724   7.405   1.752
13050TIP3    H239108   7.649   7.485   1.647
13051TIP3   OH239109   8.122   5.282   4.084
13051TIP3    H139110   8.040   5.257   4.127
13051TIP3    H239111   8.188   5.278   4.154
13052TIP3   OH239112   7.403   7.060   5.944
13052TIP3    H139113   7.401   7.120   5.869
13052TIP3    H239114   7.484   7.083   5.991
13053TIP3   OH239115   0.191   0.901   0.898
13053TIP3    H139116   0.104   0.907   0.936
13053TIP3    H239117   0.178   0.853   0.816
13054TIP3   OH239118   1.667   4.012   6.439
13054TIP3    H139119   1.741   4.050   6.488
13054TIP3    H239120   1.604   4.084   6.434
13055TIP3   OH239121   3.884   1.366   1.892
13055TIP3    H139122   3.886   1.350   1.986
13055TIP3    H239123   3.845   1.287   1.855
13056TIP3   OH239124   4.388   2.235   0.944
13056TIP3    H139125   4.359   2.322   0.919
13056TIP3    H239126   4.318   2.177   0.916
13057TIP3   OH239127   5.761   2.664   0.977
13057TIP3    H139128   5.734   2.585   0.930
13057TIP3    H239129   5.849   2.683   0.942
13058TIP3   OH239130   7.913   3.921   5.349
13058TIP3    H139131   7.994   3.970   5.335
13058TIP3    H239132   7.942   3.838   5.387
13059TIP3   OH239133   6.703   2.134   5.742
13059TIP3    H139134   6.706   2.141   5.647
13059TIP3    H239135   6.768   2.197   5.773
13060TIP3   OH239136   1.447   4.948   0.815
13060TIP3    H139137   1.477   4.963   0.725
13060TIP3    H239138   1.492   5.015   0.867
13061TIP3   OH239139   6.823   3.197   5.562
13061TIP3    H139140   6.901   3.251   5.550
13061TIP3    H239141   6.760   3.254   5.605
13062TIP3   OH239142   3.674   0.495   2.783
13062TIP3    H139143   3.601   0.550   2.756
13062TIP3    H239144   3.723   0.549   2.845
13063TIP3   OH239145   4.939   7.201   1.761
13063TIP3    H139146   5.015   7.212   1.704
13063TIP3    H239147   4.905   7.114   1.739
13064TIP3   OH239148   0.172   0.881   1.426
13064TIP3    H139149   0.084   0.848   1.410
13064TIP3    H239150   0.188   0.943   1.355
13065TIP3   OH239151   7.218   5.969   0.043
13065TIP3    H139152   7.235   6.012   0.127
13065TIP3    H239153   7.152   6.023   0.001
13066TIP3   OH239154   2.344   4.855   5.688
13066TIP3    H139155   2.307   4.772   5.718
13066TIP3    H239156   2.350   4.847   5.593
13067TIP3   OH239157   4.148   5.252   6.612
13067TIP3    H139158   4.057   5.222   6.609
13067TIP3    H239159   4.199   5.174   6.592
13068TIP3   OH239160   4.451   2.587   6.602
13068TIP3    H139161   4.363   2.555   6.585
13068TIP3    H239162   4.509   2.518   6.570
13069TIP3   OH239163   1.105   2.563   2.640
13069TIP3    H139164   1.158   2.516   2.704
13069TIP3    H239165   1.114   2.511   2.560
13070TIP3   OH239166   7.712   7.166   0.426
13070TIP3    H139167   7.758   7.161   0.342
13070TIP3    H239168   7.691   7.258   0.436
13071TIP3   OH239169   5.301   1.793   2.830
13071TIP3    H139170   5.339   1.880   2.818
13071TIP3    H239171   5.272   1.792   2.922
13072TIP3   OH239172   0.505   1.463   4.111
13072TIP3    H139173   0.539   1.448   4.023
13072TIP3    H239174   0.494   1.376   4.149
13073TIP3   OH239175   0.077   1.006   3.490
13073TIP3    H139176   0.154   1.033   3.540
13073TIP3    H239177   0.102   0.922   3.451
13074TIP3   OH239178   7.038   3.836   6.102
13074TIP3    H139179   7.017   3.745   6.123
13074TIP3    H239180   6.955   3.882   6.105
13075TIP3   OH239181   0.058   5.807   2.680
13075TIP3    H139182   0.026   5.717   2.690
13075TIP3    H239183   0.151   5.802   2.701
13076TIP3   OH239184   6.057   4.915   3.165
13076TIP3    H139185   6.020   4.843   3.216
13076TIP3    H239186   6.007   4.992   3.192
13077TIP3   OH239187   7.446   5.602   4.918
13077TIP3    H139188   7.472   5.552   4.996
13077TIP3    H239189   7.414   5.685   4.953
13078TIP3   OH239190   4.971   2.810   5.680
13078TIP3    H139191   5.027   2.794   5.603
13078TIP3    H239192   4.885   2.778   5.653
13079TIP3   OH239193   2.782   2.478   0.135
13079TIP3    H139194   2.703   2.432   0.165
13079TIP3    H239195   2.839   2.480   0.212
13080TIP3   OH239196   2.390   1.088   5.677
13080TIP3    H139197   2.419   1.019   5.618
13080TIP3    H239198   2.307   1.118   5.639
13081TIP3   OH239199   5.638   0.311   2.871
13081TIP3    H139200   5.567   0.366   2.838
13081TIP3    H239201   5.718   0.349   2.834
13082TIP3   OH239202   7.834   4.756   4.238
13082TIP3    H139203   7.807   4.779   4.327
13082TIP3    H239204   7.929   4.768   4.238
13083TIP3   OH239205   0.325   7.368   0.802
13083TIP3    H139206   0.415   7.390   0.824
13083TIP3    H239207   0.327   7.344   0.709
13084TIP3   OH239208   4.578   0.638   4.249
13084TIP3    H139209   4.567   0.633   4.344
13084TIP3    H239210   4.613   0.552   4.225
13085TIP3   OH239211   6.122   2.955   5.497
13085TIP3    H139212   6.215   2.932   5.508
13085TIP3    H239213   6.075   2.882   5.539
13086TIP3   OH239214   0.235   7.125   2.477
13086TIP3    H139215   0.197   7.213   2.485
13086TIP3    H239216   0.316   7.139   2.427
13087TIP3   OH239217   5.708   5.473   4.275
13087TIP3    H139218   5.801   5.470   4.298
13087TIP3    H239219   5.689   5.567   4.263
13088TIP3   OH239220   5.087   3.513   2.963
13088TIP3    H139221   4.997   3.545   2.966
13088TIP3    H239222   5.085   3.432   3.014
13089TIP3   OH239223   3.471   1.307   0.198
13089TIP3    H139224   3.432   1.290   0.284
13089TIP3    H239225   3.468   1.403   0.189
13090TIP3   OH239226   7.142   6.490   5.172
13090TIP3    H139227   7.124   6.567   5.226
13090TIP3    H239228   7.154   6.419   5.236
13091TIP3   OH239229   1.215   3.253   6.660
13091TIP3    H139230   1.216   3.307   6.582
13091TIP3    H239231   1.136   3.200   6.652
13092TIP3   OH239232   6.266   2.866   0.474
13092TIP3    H139233   6.211   2.884   0.550
13092TIP3    H239234   6.326   2.940   0.470
13093TIP3   OH239235   3.616   1.162   3.212
13093TIP3    H139236   3.647   1.092   3.154
13093TIP3    H239237   3.647   1.135   3.299
13094TIP3   OH239238   1.831   5.820   5.340
13094TIP3    H139239   1.919   5.783   5.350
13094TIP3    H239240   1.815   5.867   5.422
13095TIP3   OH239241   4.752   2.137   6.115
13095TIP3    H139242   4.754   2.207   6.180
13095TIP3    H239243   4.662   2.102   6.120
13096TIP3   OH239244   5.771   0.660   1.210
13096TIP3    H139245   5.854   0.691   1.247
13096TIP3    H239246   5.760   0.712   1.130
13097TIP3   OH239247   8.300   6.719   5.672
13097TIP3    H139248   8.229   6.674   5.718
13097TIP3    H239249   8.314   6.667   5.593
13098TIP3   OH239250   4.571   4.419   3.122
13098TIP3    H139251   4.516   4.386   3.193
13098TIP3    H239252   4.614   4.496   3.158
13099TIP3   OH239253   7.009   3.036   4.814
13099TIP3    H139254   7.073   3.058   4.746
13099TIP3    H239255   6.954   3.114   4.821
13100TIP3   OH239256   2.385   6.798   6.418
13100TIP3    H139257   2.458   6.816   6.477
13100TIP3    H239258   2.425   6.793   6.331
13101TIP3   OH239259   2.830   6.410   5.126
13101TIP3    H139260   2.883   6.460   5.188
13101TIP3    H239261   2.746   6.399   5.169
13102TIP3   OH239262   5.549   6.293   3.150
13102TIP3    H139263   5.532   6.221   3.212
13102TIP3    H239264   5.629   6.267   3.105
13103TIP3   OH239265   3.159   2.060   4.985
13103TIP3    H139266   3.228   2.014   5.033
13103TIP3    H239267   3.185   2.053   4.893
13104TIP3   OH239268   5.342   6.145   0.120
13104TIP3    H139269   5.259   6.164   0.164
13104TIP3    H239270   5.317   6.122   0.031
13105TIP3   OH239271   0.453   7.812   3.497
13105TIP3    H139272   0.412   7.763   3.425
13105TIP3    H239273   0.382   7.827   3.559
13106TIP3   OH239274   4.662   0.182   3.680
13106TIP3    H139275   4.685   0.249   3.615
13106TIP3    H239276   4.711   0.105   3.653
13107TIP3   OH239277   2.441   0.549   0.692
13107TIP3    H139278   2.477   0.583   0.773
13107TIP3    H239279   2.395   0.469   0.717
13108TIP3   OH239280   6.947   7.700   1.136
13108TIP3    H139281   6.902   7.674   1.056
13108TIP3    H239282   6.878   7.705   1.202
13109TIP3   OH239283   7.532   4.009   0.745
13109TIP3    H139284   7.480   4.080   0.707
13109TIP3    H239285   7.467   3.950   0.783
13110TIP3   OH239286   5.004   4.186   3.499
13110TIP3    H139287   4.918   4.190   3.541
13110TIP3    H239288   5.006   4.099   3.458
13111TIP3   OH239289   3.994   7.643   4.587
13111TIP3    H139290   3.914   7.602   4.619
13111TIP3    H239291   3.966   7.727   4.551
13112TIP3   OH239292   1.130   5.574   0.142
13112TIP3    H139293   1.067   5.634   0.182
13112TIP3    H239294   1.205   5.630   0.121
13113TIP3   OH239295   0.079   5.337   6.417
13113TIP3    H139296   0.087   5.426   6.449
13113TIP3    H239297   0.101   5.343   6.324
13114TIP3   OH239298   4.679   0.827   2.547
13114TIP3    H139299   4.697   0.734   2.532
13114TIP3    H239300   4.737   0.851   2.620
13115TIP3   OH239301   7.235   4.011   6.296
13115TIP3    H139302   7.222   3.928   6.341
13115TIP3    H239303   7.172   4.010   6.224
13116TIP3   OH239304   4.069   1.076   6.420
13116TIP3    H139305   4.024   1.111   6.343
13116TIP3    H239306   4.036   1.128   6.493
13117TIP3   OH239307   5.400   2.147   1.098
13117TIP3    H139308   5.496   2.146   1.103
13117TIP3    H239309   5.372   2.072   1.150
13118TIP3   OH239310   4.300   6.867   3.809
13118TIP3    H139311   4.337   6.954   3.796
13118TIP3    H239312   4.210   6.874   3.779
13119TIP3   OH239313   2.252   2.309   1.671
13119TIP3    H139314   2.317   2.363   1.627
13119TIP3    H239315   2.221   2.249   1.603
13120TIP3   OH239316   2.296   5.309   1.244
13120TIP3    H139317   2.360   5.267   1.187
13120TIP3    H239318   2.285   5.396   1.207
13121TIP3   OH239319   5.240   1.837   1.901
13121TIP3    H139320   5.152   1.853   1.934
13121TIP3    H239321   5.245   1.742   1.889
13122TIP3   OH239322   0.051   1.887   2.835
13122TIP3    H139323  -0.039   1.914   2.817
13122TIP3    H239324   0.043   1.806   2.886
13123TIP3   OH239325   0.540   0.163   0.197
13123TIP3    H139326   0.576   0.248   0.170
13123TIP3    H239327   0.449   0.165   0.168
13124TIP3   OH239328   5.673   0.431   4.670
13124TIP3    H139329   5.708   0.435   4.759
13124TIP3    H239330   5.579   0.445   4.681
13125TIP3   OH239331   6.301   3.565   3.778
13125TIP3    H139332   6.292   3.598   3.689
13125TIP3    H239333   6.218   3.520   3.795
13126TIP3   OH239334   8.190   5.509   2.928
13126TIP3    H139335   8.201   5.552   3.013
13126TIP3    H239336   8.207   5.417   2.945
13127TIP3   OH239337   6.442   4.606   4.237
13127TIP3    H139338   6.466   4.616   4.145
13127TIP3    H239339   6.355   4.566   4.234
13128TIP3   OH239340   0.506   3.934   2.509
13128TIP3    H139341   0.531   4.026   2.494
13128TIP3    H239342   0.459   3.936   2.593
13129TIP3   OH239343   0.545   0.168   1.098
13129TIP3    H139344   0.489   0.109   1.047
13129TIP3    H239345   0.634   0.133   1.086
13130TIP3   OH239346   7.588   1.755   5.935
13130TIP3    H139347   7.505   1.794   5.961
13130TIP3    H239348   7.621   1.812   5.866
13131TIP3   OH239349   7.465   0.241   0.057
13131TIP3    H139350   7.551   0.207   0.032
13131TIP3    H239351   7.471   0.253   0.152
13132TIP3   OH239352   3.252   6.858   3.540
13132TIP3    H139353   3.300   6.777   3.520
13132TIP3    H239354   3.228   6.893   3.454
13133TIP3   OH239355   7.751   1.852   2.465
13133TIP3    H139356   7.728   1.861   2.373
13133TIP3    H239357   7.830   1.905   2.475
13134TIP3   OH239358   6.337   7.113   6.368
13134TIP3    H139359   6.328   7.056   6.444
13134TIP3    H239360   6.422   7.156   6.380
13135TIP3   OH239361   3.446   3.418   3.858
13135TIP3    H139362   3.401   3.442   3.939
13135TIP3    H239363   3.380   3.428   3.790
13136TIP3   OH239364   7.785   5.660   3.862
13136TIP3    H139365   7.743   5.642   3.778
13136TIP3    H239366   7.853   5.593   3.870
13137TIP3   OH239367   7.147   4.687   0.693
13137TIP3    H139368   7.092   4.613   0.718
13137TIP3    H239369   7.222   4.648   0.648
13138TIP3   OH239370   5.553   1.270   1.203
13138TIP3    H139371   5.604   1.351   1.216
13138TIP3    H239372   5.606   1.218   1.143
13139TIP3   OH239373   0.420   0.500   1.473
13139TIP3    H139374   0.431   0.482   1.379
13139TIP3    H239375   0.510   0.505   1.506
13140TIP3   OH239376   0.226   3.750   2.306
13140TIP3    H139377   0.147   3.742   2.252
13140TIP3    H239378   0.223   3.840   2.340
13141TIP3   OH239379   3.733   7.383   5.119
13141TIP3    H139380   3.669   7.417   5.182
13141TIP3    H239381   3.696   7.402   5.033
13142TIP3   OH239382   4.404   4.722   0.402
13142TIP3    H139383   4.460   4.647   0.418
13142TIP3    H239384   4.327   4.686   0.359
13143TIP3   OH239385   2.893   3.184   0.585
13143TIP3    H139386   2.855   3.200   0.498
13143TIP3    H239387   2.856   3.100   0.613
13144TIP3   OH239388   5.398   2.783   2.770
13144TIP3    H139389   5.356   2.750   2.690
13144TIP3    H239390   5.358   2.733   2.841
13145TIP3   OH239391   4.583   1.068   1.813
13145TIP3    H139392   4.518   1.090   1.880
13145TIP3    H239393   4.631   0.994   1.850
13146TIP3   OH239394   2.899   1.943   5.661
13146TIP3    H139395   2.870   1.852   5.651
13146TIP3    H239396   2.859   1.989   5.587
13147TIP3   OH239397   7.502   4.587   1.025
13147TIP3    H139398   7.494   4.499   1.063
13147TIP3    H239399   7.518   4.572   0.932
13148TIP3   OH239400   7.405   7.246   2.922
13148TIP3    H139401   7.468   7.195   2.973
13148TIP3    H239402   7.320   7.212   2.949
13149TIP3   OH239403   6.093   6.878   4.434
13149TIP3    H139404   6.080   6.843   4.346
13149TIP3    H239405   6.151   6.815   4.477
13150TIP3   OH239406   1.721   1.062   4.861
13150TIP3    H139407   1.651   1.075   4.924
13150TIP3    H239408   1.793   1.026   4.913
13151TIP3   OH239409   1.467   2.317   3.959
13151TIP3    H139410   1.400   2.264   4.003
13151TIP3    H239411   1.499   2.260   3.889
13152TIP3   OH239412   2.615   6.324   5.258
13152TIP3    H139413   2.526   6.290   5.267
13152TIP3    H239414   2.636   6.357   5.345
13153TIP3   OH239415   3.249   0.810   4.681
13153TIP3    H139416   3.190   0.742   4.650
13153TIP3    H239417   3.311   0.764   4.738
13154TIP3   OH239418   0.037   3.913   1.466
13154TIP3    H139419   0.099   3.868   1.523
13154TIP3    H239420   0.016   3.849   1.398
13155TIP3   OH239421   1.785   2.801   5.196
13155TIP3    H139422   1.849   2.846   5.141
13155TIP3    H239423   1.822   2.806   5.284
13156TIP3   OH239424   1.883   4.829   3.686
13156TIP3    H139425   1.876   4.816   3.591
13156TIP3    H239426   1.844   4.915   3.700
13157TIP3   OH239427   0.713   4.990   0.434
13157TIP3    H139428   0.681   4.924   0.495
13157TIP3    H239429   0.636   5.041   0.411
13158TIP3   OH239430   7.508   4.576   0.749
13158TIP3    H139431   7.460   4.576   0.666
13158TIP3    H239432   7.590   4.530   0.730
13159TIP3   OH239433   1.390   6.118   4.174
13159TIP3    H139434   1.298   6.091   4.178
13159TIP3    H239435   1.403   6.169   4.254
13160TIP3   OH239436   1.841   1.676   5.682
13160TIP3    H139437   1.822   1.600   5.628
13160TIP3    H239438   1.936   1.688   5.676
13161TIP3   OH239439   6.405   1.493   5.079
13161TIP3    H139440   6.340   1.425   5.068
13161TIP3    H239441   6.454   1.468   5.158
13162TIP3   OH239442   6.941   5.903   2.344
13162TIP3    H139443   6.888   5.982   2.347
13162TIP3    H239444   6.992   5.906   2.425
13163TIP3   OH239445   0.208   5.437   0.818
13163TIP3    H139446   0.181   5.489   0.894
13163TIP3    H239447   0.209   5.347   0.851
13164TIP3   OH239448   0.532   6.131   0.795
13164TIP3    H139449   0.545   6.203   0.734
13164TIP3    H239450   0.611   6.131   0.849
13165TIP3   OH239451   2.138   2.065   5.013
13165TIP3    H139452   2.162   1.974   4.996
13165TIP3    H239453   2.144   2.074   5.108
13166TIP3   OH239454   4.902   4.834   6.257
13166TIP3    H139455   4.875   4.743   6.267
13166TIP3    H239456   4.858   4.880   6.328
13167TIP3   OH239457   2.937   6.273   0.614
13167TIP3    H139458   2.927   6.337   0.684
13167TIP3    H239459   3.031   6.252   0.614
13168TIP3   OH239460   6.559   4.470   6.284
13168TIP3    H139461   6.533   4.402   6.223
13168TIP3    H239462   6.635   4.513   6.243
13169TIP3   OH239463   6.870   3.196   6.083
13169TIP3    H139464   6.915   3.220   6.164
13169TIP3    H239465   6.782   3.231   6.092
13170TIP3   OH239466   8.010   3.065   6.680
13170TIP3    H139467   8.003   3.159   6.695
13170TIP3    H239468   8.098   3.053   6.644
13171TIP3   OH239469   0.964   6.189   1.465
13171TIP3    H139470   1.044   6.136   1.465
13171TIP3    H239471   0.984   6.262   1.523
13172TIP3   OH239472   3.064   4.145   1.340
13172TIP3    H139473   3.106   4.092   1.272
13172TIP3    H239474   3.064   4.088   1.418
13173TIP3   OH239475   4.695   0.051   2.163
13173TIP3    H139476   4.753   0.084   2.094
13173TIP3    H239477   4.620   0.111   2.161
13174TIP3   OH239478   0.795   1.912   5.011
13174TIP3    H139479   0.863   1.915   4.944
13174TIP3    H239480   0.761   2.001   5.014
13175TIP3   OH239481   2.209   6.266   1.394
13175TIP3    H139482   2.154   6.223   1.328
13175TIP3    H239483   2.299   6.256   1.360
13176TIP3   OH239484   6.789   0.797   1.558
13176TIP3    H139485   6.790   0.722   1.499
13176TIP3    H239486   6.806   0.872   1.501
13177TIP3   OH239487   0.899   1.741   0.199
13177TIP3    H139488   0.891   1.726   0.105
13177TIP3    H239489   0.950   1.667   0.231
13178TIP3   OH239490   3.749   4.655   0.627
13178TIP3    H139491   3.827   4.600   0.629
13178TIP3    H239492   3.677   4.594   0.612
13179TIP3   OH239493   2.651   6.276   3.304
13179TIP3    H139494   2.609   6.307   3.384
13179TIP3    H239495   2.588   6.297   3.235
13180TIP3   OH239496   2.940   4.148   6.298
13180TIP3    H139497   2.854   4.123   6.333
13180TIP3    H239498   2.919   4.197   6.218
13181TIP3   OH239499   1.646   2.975   0.588
13181TIP3    H139500   1.652   3.036   0.515
13181TIP3    H239501   1.730   2.929   0.588
13182TIP3   OH239502   0.261   7.156   3.947
13182TIP3    H139503   0.266   7.126   4.038
13182TIP3    H239504   0.236   7.077   3.898
13183TIP3   OH239505   0.522   2.888   5.210
13183TIP3    H139506   0.474   2.871   5.129
13183TIP3    H239507   0.605   2.926   5.182
13184TIP3   OH239508   2.693   3.063   2.919
13184TIP3    H139509   2.727   3.051   2.830
13184TIP3    H239510   2.650   3.149   2.917
13185TIP3   OH239511   8.219   1.675   0.095
13185TIP3    H139512   8.286   1.740   0.115
13185TIP3    H239513   8.196   1.691   0.003
13186TIP3   OH239514   5.584   5.758   4.308
13186TIP3    H139515   5.557   5.839   4.266
13186TIP3    H239516   5.612   5.784   4.396
13187TIP3   OH239517   1.191   0.352   5.884
13187TIP3    H139518   1.231   0.351   5.797
13187TIP3    H239519   1.265   0.359   5.945
13188TIP3   OH239520   0.994   1.547   6.642
13188TIP3    H139521   1.083   1.518   6.661
13188TIP3    H239522   0.987   1.633   6.683
13189TIP3   OH239523   6.981   3.356   6.645
13189TIP3    H139524   7.034   3.321   6.716
13189TIP3    H239525   6.958   3.445   6.673
13190TIP3   OH239526   7.686   5.423   6.095
13190TIP3    H139527   7.665   5.478   6.020
13190TIP3    H239528   7.603   5.412   6.141
13191TIP3   OH239529   0.758   2.404   1.206
13191TIP3    H139530   0.665   2.419   1.222
13191TIP3    H239531   0.765   2.399   1.111
13192TIP3   OH239532   7.043   5.685   1.529
13192TIP3    H139533   7.059   5.636   1.610
13192TIP3    H239534   6.993   5.762   1.557
13193TIP3   OH239535   3.940   4.733   2.932
13193TIP3    H139536   3.878   4.707   3.000
13193TIP3    H239537   3.949   4.655   2.876
13194TIP3   OH239538   0.394   0.546   6.294
13194TIP3    H139539   0.354   0.513   6.214
13194TIP3    H239540   0.470   0.596   6.264
13195TIP3   OH239541   5.587   2.389   0.616
13195TIP3    H139542   5.519   2.331   0.649
13195TIP3    H239543   5.631   2.422   0.694
13196TIP3   OH239544   3.380   1.314   4.991
13196TIP3    H139545   3.296   1.361   4.997
13196TIP3    H239546   3.391   1.297   4.897
13197TIP3   OH239547   0.456   5.017   2.386
13197TIP3    H139548   0.456   5.094   2.330
13197TIP3    H239549   0.363   5.002   2.406
13198TIP3   OH239550   5.728   2.125   5.129
13198TIP3    H139551   5.699   2.093   5.215
13198TIP3    H239552   5.649   2.125   5.076
13199TIP3   OH239553   8.131   3.639   3.387
13199TIP3    H139554   8.120   3.583   3.310
13199TIP3    H239555   8.121   3.728   3.353
13200TIP3   OH239556   1.627   6.834   0.696
13200TIP3    H139557   1.625   6.844   0.792
13200TIP3    H239558   1.542   6.798   0.674
13201TIP3   OH239559   2.771   4.626   4.694
13201TIP3    H139560   2.867   4.626   4.691
13201TIP3    H239561   2.745   4.705   4.646
13202TIP3   OH239562   3.233   3.256   6.422
13202TIP3    H139563   3.170   3.246   6.350
13202TIP3    H239564   3.317   3.268   6.378
13203TIP3   OH239565   1.063   6.380   5.493
13203TIP3    H139566   1.031   6.304   5.446
13203TIP3    H239567   1.025   6.455   5.446
13204TIP3   OH239568   6.282   7.364   2.393
13204TIP3    H139569   6.359   7.322   2.354
13204TIP3    H239570   6.304   7.457   2.396
13205TIP3   OH239571   1.751   1.083   3.433
13205TIP3    H139572   1.808   1.152   3.400
13205TIP3    H239573   1.712   1.120   3.511
13206TIP3   OH239574   7.930   4.889   2.532
13206TIP3    H139575   7.973   4.805   2.552
13206TIP3    H239576   7.843   4.881   2.570
13207TIP3   OH239577   2.563   1.125   1.163
13207TIP3    H139578   2.605   1.138   1.078
13207TIP3    H239579   2.622   1.167   1.226
13208TIP3   OH239580   0.230   2.916   6.029
13208TIP3    H139581   0.151   2.936   6.080
13208TIP3    H239582   0.303   2.939   6.087
13209TIP3   OH239583   1.465   5.944   3.718
13209TIP3    H139584   1.501   5.978   3.801
13209TIP3    H239585   1.502   5.856   3.710
13210TIP3   OH239586   3.724   2.645   1.333
13210TIP3    H139587   3.743   2.735   1.360
13210TIP3    H239588   3.750   2.641   1.241
13211TIP3   OH239589   4.532   7.604   5.867
13211TIP3    H139590   4.611   7.640   5.908
13211TIP3    H239591   4.562   7.569   5.783
13212TIP3   OH239592   1.423   7.366   0.247
13212TIP3    H139593   1.369   7.444   0.262
13212TIP3    H239594   1.456   7.376   0.158
13213TIP3   OH239595   0.536   4.972   4.387
13213TIP3    H139596   0.583   4.890   4.372
13213TIP3    H239597   0.526   5.010   4.300
13214TIP3   OH239598   7.025   1.999   2.813
13214TIP3    H139599   7.049   2.084   2.849
13214TIP3    H239600   7.066   1.996   2.727
13215TIP3   OH239601   1.800   6.329   6.607
13215TIP3    H139602   1.810   6.422   6.626
13215TIP3    H239603   1.887   6.300   6.581
13216TIP3   OH239604   5.937   0.377   3.697
13216TIP3    H139605   5.952   0.339   3.783
13216TIP3    H239606   5.981   0.462   3.700
13217TIP3   OH239607   3.109   5.220   4.189
13217TIP3    H139608   3.104   5.270   4.107
13217TIP3    H239609   3.107   5.129   4.162
13218TIP3   OH239610   5.777   0.631   4.207
13218TIP3    H139611   5.830   0.652   4.283
13218TIP3    H239612   5.694   0.676   4.222
13219TIP3   OH239613   6.995   0.079   1.582
13219TIP3    H139614   7.039   0.108   1.502
13219TIP3    H239615   6.944   0.003   1.555
13220TIP3   OH239616   0.391   6.483   0.798
13220TIP3    H139617   0.401   6.572   0.832
13220TIP3    H239618   0.479   6.458   0.770
13221TIP3   OH239619   1.238   0.863   1.958
13221TIP3    H139620   1.170   0.837   2.019
13221TIP3    H239621   1.262   0.952   1.984
13222TIP3   OH239622   6.880   0.314   0.531
13222TIP3    H139623   6.835   0.298   0.448
13222TIP3    H239624   6.895   0.408   0.533
13223TIP3   OH239625   3.276   1.452  -0.041
13223TIP3    H139626   3.216   1.522  -0.017
13223TIP3    H239627   3.242   1.375   0.004
13224TIP3   OH239628   3.059   1.250   1.394
13224TIP3    H139629   3.090   1.329   1.437
13224TIP3    H239630   3.022   1.280   1.311
13225TIP3   OH239631   7.981   2.557   3.912
13225TIP3    H139632   8.058   2.610   3.896
13225TIP3    H239633   8.003   2.471   3.875
13226TIP3   OH239634   0.459   4.075   5.951
13226TIP3    H139635   0.547   4.040   5.968
13226TIP3    H239636   0.451   4.149   6.011
13227TIP3   OH239637   8.248   5.206   0.229
13227TIP3    H139638   8.169   5.171   0.188
13227TIP3    H239639   8.226   5.213   0.322
13228TIP3   OH239640   7.173   1.950   3.493
13228TIP3    H139641   7.111   2.003   3.543
13228TIP3    H239642   7.223   1.903   3.560
13229TIP3   OH239643   3.582   5.476   5.858
13229TIP3    H139644   3.652   5.423   5.821
13229TIP3    H239645   3.528   5.415   5.907
13230TIP3   OH239646   2.185   6.557   3.792
13230TIP3    H139647   2.154   6.467   3.802
13230TIP3    H239648   2.156   6.583   3.704
13231TIP3   OH239649   7.706   3.810   2.936
13231TIP3    H139650   7.738   3.800   3.026
13231TIP3    H239651   7.775   3.772   2.881
13232TIP3   OH239652   0.888   4.554   3.040
13232TIP3    H139653   0.842   4.630   3.074
13232TIP3    H239654   0.833   4.523   2.968
13233TIP3   OH239655   5.083   3.233   6.722
13233TIP3    H139656   4.998   3.242   6.765
13233TIP3    H239657   5.116   3.322   6.714
13234TIP3   OH239658   5.989   6.223   5.515
13234TIP3    H139659   6.061   6.181   5.562
13234TIP3    H239660   6.017   6.221   5.423
13235TIP3   OH239661   5.026   1.562   6.577
13235TIP3    H139662   5.059   1.652   6.574
13235TIP3    H239663   4.997   1.550   6.668
13236TIP3   OH239664   1.433   4.183   5.026
13236TIP3    H139665   1.444   4.196   5.121
13236TIP3    H239666   1.349   4.224   5.007
13237TIP3   OH239667   7.506   2.250   3.063
13237TIP3    H139668   7.511   2.157   3.041
13237TIP3    H239669   7.464   2.252   3.149
13238TIP3   OH239670   3.705   1.870   4.488
13238TIP3    H139671   3.702   1.961   4.516
13238TIP3    H239672   3.672   1.820   4.563
13239TIP3   OH239673   0.993   2.537   4.137
13239TIP3    H139674   1.016   2.624   4.106
13239TIP3    H239675   0.995   2.544   4.232
13240TIP3   OH239676   0.422   0.810   3.842
13240TIP3    H139677   0.342   0.849   3.877
13240TIP3    H239678   0.470   0.884   3.805
13241TIP3   OH239679   7.354   6.219   6.150
13241TIP3    H139680   7.447   6.238   6.137
13241TIP3    H239681   7.338   6.142   6.095
13242TIP3   OH239682   4.201   5.211   4.919
13242TIP3    H139683   4.296   5.213   4.914
13242TIP3    H239684   4.179   5.280   4.981
13243TIP3   OH239685   2.916   4.931   4.793
13243TIP3    H139686   2.896   4.975   4.711
13243TIP3    H239687   2.967   4.854   4.768
13244TIP3   OH239688   2.231   2.936   5.632
13244TIP3    H139689   2.185   3.019   5.641
13244TIP3    H239690   2.175   2.883   5.575
13245TIP3   OH239691   7.930   1.600   4.568
13245TIP3    H139692   7.856   1.658   4.588
13245TIP3    H239693   7.948   1.615   4.475
13246TIP3   OH239694   7.614   0.022   3.567
13246TIP3    H139695   7.697   0.063   3.542
13246TIP3    H239696   7.565   0.092   3.611
13247TIP3   OH239697   7.271   0.672   1.257
13247TIP3    H139698   7.257   0.642   1.347
13247TIP3    H239699   7.345   0.732   1.263
13248TIP3   OH239700   6.326   6.961   0.890
13248TIP3    H139701   6.360   7.028   0.831
13248TIP3    H239702   6.294   7.010   0.966
13249TIP3   OH239703   3.907   3.966   5.730
13249TIP3    H139704   3.913   3.886   5.781
13249TIP3    H239705   3.997   3.995   5.718
13250TIP3   OH239706   6.002   4.989   0.298
13250TIP3    H139707   5.974   4.936   0.372
13250TIP3    H239708   5.925   5.040   0.274
13251TIP3   OH239709   5.739   4.933   3.739
13251TIP3    H139710   5.748   4.838   3.733
13251TIP3    H239711   5.671   4.955   3.675
13252TIP3   OH239712   7.883   2.172   1.930
13252TIP3    H139713   7.977   2.172   1.948
13252TIP3    H239714   7.877   2.191   1.836
13253TIP3   OH239715   6.097   6.741   5.237
13253TIP3    H139716   6.100   6.688   5.317
13253TIP3    H239717   6.179   6.791   5.238
13254TIP3   OH239718   4.190   3.015   1.888
13254TIP3    H139719   4.243   3.091   1.866
13254TIP3    H239720   4.238   2.973   1.960
13255TIP3   OH239721   7.492   0.945   2.509
13255TIP3    H139722   7.439   0.868   2.531
13255TIP3    H239723   7.450   0.982   2.432
13256TIP3   OH239724   5.164   2.429   4.124
13256TIP3    H139725   5.119   2.373   4.060
13256TIP3    H239726   5.222   2.369   4.171
13257TIP3   OH239727   0.980   6.540   4.814
13257TIP3    H139728   0.961   6.446   4.822
13257TIP3    H239729   0.911   6.573   4.757
13258TIP3   OH239730   1.707   6.545   3.745
13258TIP3    H139731   1.765   6.510   3.678
13258TIP3    H239732   1.759   6.545   3.826
13259TIP3   OH239733   3.869   5.667   4.514
13259TIP3    H139734   3.802   5.635   4.454
13259TIP3    H239735   3.822   5.687   4.595
13260TIP3   OH239736   3.133   1.442   6.169
13260TIP3    H139737   3.203   1.508   6.175
13260TIP3    H239738   3.158   1.375   6.233
13261TIP3   OH239739   7.727   0.341   3.718
13261TIP3    H139740   7.730   0.406   3.788
13261TIP3    H239741   7.643   0.356   3.675
13262TIP3   OH239742   1.155   5.550   3.150
13262TIP3    H139743   1.227   5.587   3.099
13262TIP3    H239744   1.189   5.544   3.239
13263TIP3   OH239745   6.260   1.329   3.859
13263TIP3    H139746   6.352   1.352   3.874
13263TIP3    H239747   6.259   1.234   3.859
13264TIP3   OH239748   1.625   2.766   0.981
13264TIP3    H139749   1.581   2.770   1.066
13264TIP3    H239750   1.717   2.781   1.000
13265TIP3   OH239751   8.104   4.840   1.836
13265TIP3    H139752   8.117   4.749   1.864
13265TIP3    H239753   8.011   4.847   1.818
13266TIP3   OH239754   4.158   6.089   2.534
13266TIP3    H139755   4.113   6.056   2.612
13266TIP3    H239756   4.213   6.016   2.506
13267TIP3   OH239757   7.400   2.904   6.298
13267TIP3    H139758   7.387   2.875   6.388
13267TIP3    H239759   7.322   2.873   6.251
13268TIP3   OH239760   2.731   4.440   5.761
13268TIP3    H139761   2.663   4.434   5.695
13268TIP3    H239762   2.707   4.516   5.814
13269TIP3   OH239763   2.492   7.153   1.873
13269TIP3    H139764   2.496   7.209   1.950
13269TIP3    H239765   2.565   7.181   1.818
13270TIP3   OH239766   6.117   1.657   5.162
13270TIP3    H139767   6.053   1.726   5.148
13270TIP3    H239768   6.078   1.579   5.121
13271TIP3   OH239769   4.861   3.988   3.680
13271TIP3    H139770   4.884   3.952   3.594
13271TIP3    H239771   4.945   4.018   3.716
13272TIP3   OH239772   8.132   1.054   2.044
13272TIP3    H139773   8.082   0.972   2.050
13272TIP3    H239774   8.188   1.042   1.968
13273TIP3   OH239775   6.394   4.738   1.642
13273TIP3    H139776   6.395   4.770   1.552
13273TIP3    H239777   6.486   4.732   1.667
13274TIP3   OH239778   4.220   2.200   3.272
13274TIP3    H139779   4.268   2.212   3.354
13274TIP3    H239780   4.136   2.243   3.286
13275TIP3   OH239781   2.615   5.997   4.310
13275TIP3    H139782   2.666   6.040   4.379
13275TIP3    H239783   2.581   6.068   4.257
13276TIP3   OH239784   1.258   2.193   4.746
13276TIP3    H139785   1.190   2.156   4.801
13276TIP3    H239786   1.316   2.120   4.727
13277TIP3   OH239787   6.901   3.977   1.216
13277TIP3    H139788   6.907   4.023   1.132
13277TIP3    H239789   6.842   4.030   1.269
13278TIP3   OH239790   6.826   0.432   4.359
13278TIP3    H139791   6.840   0.409   4.450
13278TIP3    H239792   6.731   0.424   4.346
13279TIP3   OH239793   2.091   2.963   1.651
13279TIP3    H139794   2.176   2.925   1.673
13279TIP3    H239795   2.044   2.966   1.734
13280TIP3   OH239796   2.706   4.658   1.553
13280TIP3    H139797   2.742   4.618   1.632
13280TIP3    H239798   2.611   4.650   1.562
13281TIP3   OH239799   5.737   2.811   5.617
13281TIP3    H139800   5.664   2.826   5.676
13281TIP3    H239801   5.808   2.780   5.673
13282TIP3   OH239802   2.463   3.677   2.086
13282TIP3    H139803   2.398   3.607   2.095
13282TIP3    H239804   2.498   3.689   2.174
13283TIP3   OH239805   1.064   6.848   0.029
13283TIP3    H139806   1.147   6.814  -0.004
13283TIP3    H239807   1.084   6.879   0.117
13284TIP3   OH239808   1.910   4.673   2.268
13284TIP3    H139809   1.934   4.766   2.270
13284TIP3    H239810   1.816   4.673   2.250
13285TIP3   OH239811   2.422   0.356   4.264
13285TIP3    H139812   2.488   0.290   4.247
13285TIP3    H239813   2.339   0.314   4.242
13286TIP3   OH239814   5.679   7.769   0.424
13286TIP3    H139815   5.755   7.714   0.401
13286TIP3    H239816   5.716   7.852   0.451
13287TIP3   OH239817   3.441   2.917   5.033
13287TIP3    H139818   3.362   2.959   5.066
13287TIP3    H239819   3.456   2.844   5.093
13288TIP3   OH239820   7.929   0.698   4.613
13288TIP3    H139821   8.007   0.677   4.561
13288TIP3    H239822   7.956   0.773   4.666
13289TIP3   OH239823   5.268   5.805   2.023
13289TIP3    H139824   5.248   5.895   2.001
13289TIP3    H239825   5.351   5.810   2.071
13290TIP3   OH239826   1.942   0.765   0.389
13290TIP3    H139827   1.867   0.754   0.331
13290TIP3    H239828   2.018   0.764   0.331
13291TIP3   OH239829   7.948   3.441   4.499
13291TIP3    H139830   7.879   3.469   4.559
13291TIP3    H239831   7.929   3.349   4.482
13292TIP3   OH239832   7.175   2.231   2.884
13292TIP3    H139833   7.100   2.243   2.941
13292TIP3    H239834   7.250   2.224   2.944
13293TIP3   OH239835   7.313   5.032   1.713
13293TIP3    H139836   7.269   5.052   1.795
13293TIP3    H239837   7.371   5.106   1.697
13294TIP3   OH239838   6.546   4.526   4.704
13294TIP3    H139839   6.551   4.431   4.700
13294TIP3    H239840   6.583   4.556   4.621
13295TIP3   OH239841   5.990   2.431   3.679
13295TIP3    H139842   5.942   2.513   3.692
13295TIP3    H239843   5.967   2.378   3.755
13296TIP3   OH239844   3.749   2.116   3.250
13296TIP3    H139845   3.758   2.033   3.204
13296TIP3    H239846   3.684   2.098   3.319
13297TIP3   OH239847   5.078   2.845   5.226
13297TIP3    H139848   4.989   2.881   5.216
13297TIP3    H239849   5.132   2.902   5.171
13298TIP3   OH239850   2.494   5.393   5.419
13298TIP3    H139851   2.513   5.328   5.351
13298TIP3    H239852   2.416   5.358   5.464
13299TIP3   OH239853   1.750   5.870   5.616
13299TIP3    H139854   1.699   5.951   5.617
13299TIP3    H239855   1.692   5.805   5.655
13300TIP3   OH239856   5.742   7.020   3.121
13300TIP3    H139857   5.762   7.020   3.027
13300TIP3    H239858   5.757   6.929   3.148
13301TIP3   OH239859   4.602   0.459   2.745
13301TIP3    H139860   4.647   0.384   2.782
13301TIP3    H239861   4.658   0.488   2.673
13302TIP3   OH239862   2.187   0.607   5.293
13302TIP3    H139863   2.183   0.591   5.387
13302TIP3    H239864   2.264   0.662   5.281
13303TIP3   OH239865   1.497   7.474   5.678
13303TIP3    H139866   1.452   7.555   5.656
13303TIP3    H239867   1.520   7.483   5.771
13304TIP3   OH239868   1.969   0.358   4.095
13304TIP3    H139869   1.983   0.415   4.170
13304TIP3    H239870   2.037   0.382   4.033
13305TIP3   OH239871   8.056   1.028   6.091
13305TIP3    H139872   7.998   0.970   6.139
13305TIP3    H239873   8.143   1.009   6.126
13306TIP3   OH239874   3.527   2.744   3.666
13306TIP3    H139875   3.602   2.764   3.611
13306TIP3    H239876   3.528   2.648   3.674
13307TIP3   OH239877   6.003   1.679   6.726
13307TIP3    H139878   5.920   1.661   6.771
13307TIP3    H239879   6.056   1.725   6.791
13308TIP3   OH239880   7.895   5.270   6.769
13308TIP3    H139881   7.916   5.256   6.677
13308TIP3    H239882   7.802   5.292   6.769
13309TIP3   OH239883   2.743   0.155   4.506
13309TIP3    H139884   2.808   0.225   4.510
13309TIP3    H239885   2.746   0.125   4.415
13310TIP3   OH239886   7.853   1.662   3.340
13310TIP3    H139887   7.851   1.597   3.269
13310TIP3    H239888   7.805   1.737   3.305
13311TIP3   OH239889   4.305   0.296   2.864
13311TIP3    H139890   4.274   0.354   2.934
13311TIP3    H239891   4.383   0.255   2.900
13312TIP3   OH239892   1.330   0.517   4.973
13312TIP3    H139893   1.415   0.532   5.014
13312TIP3    H239894   1.296   0.605   4.956
13313TIP3   OH239895   5.341   3.855   1.381
13313TIP3    H139896   5.426   3.827   1.415
13313TIP3    H239897   5.278   3.800   1.427
13314TIP3   OH239898   1.324   7.262   5.660
13314TIP3    H139899   1.268   7.291   5.732
13314TIP3    H239900   1.400   7.319   5.665
13315TIP3   OH239901   0.675   4.765   2.958
13315TIP3    H139902   0.637   4.843   2.999
13315TIP3    H239903   0.605   4.731   2.902
13316TIP3   OH239904   4.221   6.761   0.235
13316TIP3    H139905   4.148   6.712   0.197
13316TIP3    H239906   4.227   6.728   0.325
13317TIP3   OH239907   0.817   5.034   4.521
13317TIP3    H139908   0.738   5.088   4.528
13317TIP3    H239909   0.881   5.091   4.479
13318TIP3   OH239910   3.467   5.886   5.583
13318TIP3    H139911   3.392   5.919   5.632
13318TIP3    H239912   3.523   5.846   5.649
13319TIP3   OH239913   4.024   5.573   0.142
13319TIP3    H139914   4.049   5.595   0.053
13319TIP3    H239915   4.040   5.653   0.192
13320TIP3   OH239916   7.770   7.690   1.284
13320TIP3    H139917   7.725   7.766   1.322
13320TIP3    H239918   7.702   7.647   1.232
13321TIP3   OH239919   4.762   6.205   0.148
13321TIP3    H139920   4.824   6.234   0.081
13321TIP3    H239921   4.734   6.118   0.119
13322TIP3   OH239922   0.149   2.623   5.022
13322TIP3    H139923   0.068   2.613   4.973
13322TIP3    H239924   0.121   2.660   5.107
13323TIP3   OH239925   8.066   0.917   1.287
13323TIP3    H139926   8.132   0.937   1.221
13323TIP3    H239927   7.998   0.983   1.273
13324TIP3   OH239928   8.106   4.204   0.116
13324TIP3    H139929   8.199   4.225   0.110
13324TIP3    H239930   8.104   4.109   0.121
13325TIP3   OH239931   0.089   5.643   4.418
13325TIP3    H139932   0.045   5.569   4.460
13325TIP3    H239933   0.152   5.674   4.483
13326TIP3   OH239934   3.725   0.889   1.355
13326TIP3    H139935   3.639   0.908   1.316
13326TIP3    H239936   3.782   0.957   1.320
13327TIP3   OH239937   2.408   4.250   4.305
13327TIP3    H139938   2.380   4.318   4.365
13327TIP3    H239939   2.328   4.220   4.263
13328TIP3   OH239940   3.004   5.716   3.671
13328TIP3    H139941   2.941   5.773   3.625
13328TIP3    H239942   2.988   5.629   3.635
13329TIP3   OH239943   0.922   0.251   3.244
13329TIP3    H139944   0.871   0.174   3.268
13329TIP3    H239945   1.012   0.218   3.237
13330TIP3   OH239946   8.000   7.484   4.810
13330TIP3    H139947   8.012   7.447   4.898
13330TIP3    H239948   8.028   7.575   4.817
13331TIP3   OH239949   4.384   5.181   3.127
13331TIP3    H139950   4.472   5.171   3.091
13331TIP3    H239951   4.377   5.110   3.191
13332TIP3   OH239952   2.668   4.938   3.550
13332TIP3    H139953   2.617   4.951   3.630
13332TIP3    H239954   2.666   4.844   3.536
13333TIP3   OH239955   7.959   6.382   3.110
13333TIP3    H139956   8.024   6.369   3.041
13333TIP3    H239957   7.912   6.298   3.114
13334TIP3   OH239958   7.013   4.081   1.825
13334TIP3    H139959   6.989   3.989   1.824
13334TIP3    H239960   7.082   4.089   1.759
13335TIP3   OH239961   4.314   4.833   5.792
13335TIP3    H139962   4.347   4.875   5.713
13335TIP3    H239963   4.338   4.894   5.863
13336TIP3   OH239964   2.566   1.640   5.856
13336TIP3    H139965   2.604   1.554   5.878
13336TIP3    H239966   2.638   1.702   5.869
13337TIP3   OH239967   4.523   4.455   2.445
13337TIP3    H139968   4.609   4.496   2.449
13337TIP3    H239969   4.476   4.502   2.376
13338TIP3   OH239970   3.285   3.934   6.548
13338TIP3    H139971   3.301   3.841   6.557
13338TIP3    H239972   3.308   3.971   6.633
13339TIP3   OH239973   6.780   4.443   1.259
13339TIP3    H139974   6.822   4.375   1.311
13339TIP3    H239975   6.746   4.397   1.182
13340TIP3   OH239976   0.239   6.305   3.967
13340TIP3    H139977   0.227   6.258   3.884
13340TIP3    H239978   0.294   6.248   4.020
13341TIP3   OH239979   6.479   6.043   4.311
13341TIP3    H139980   6.573   6.061   4.321
13341TIP3    H239981   6.462   6.060   4.218
13342TIP3   OH239982   3.130   5.966   1.871
13342TIP3    H139983   3.128   5.998   1.961
13342TIP3    H239984   3.223   5.968   1.846
13343TIP3   OH239985   5.562   6.887   3.866
13343TIP3    H139986   5.614   6.906   3.787
13343TIP3    H239987   5.553   6.972   3.909
13344TIP3   OH239988   6.637   4.918   5.491
13344TIP3    H139989   6.612   4.983   5.426
13344TIP3    H239990   6.590   4.839   5.465
13345TIP3   OH239991   2.791   3.103   5.667
13345TIP3    H139992   2.797   3.115   5.761
13345TIP3    H239993   2.882   3.092   5.639
13346TIP3   OH239994   7.947   5.999   5.117
13346TIP3    H139995   7.886   5.959   5.056
13346TIP3    H239996   7.999   5.926   5.151
13347TIP3   OH239997   3.017   2.112   4.244
13347TIP3    H139998   3.062   2.028   4.256
13347TIP3    H239999   2.976   2.105   4.158
13348TIP3   OH240000   1.304   6.881   4.643
13348TIP3    H140001   1.290   6.811   4.706
13348TIP3    H240002   1.380   6.853   4.592
13349TIP3   OH240003   2.040   2.272   3.138
13349TIP3    H140004   1.991   2.256   3.219
13349TIP3    H240005   1.975   2.307   3.078
13350TIP3   OH240006   4.320   7.380   3.106
13350TIP3    H140007   4.356   7.395   3.194
13350TIP3    H240008   4.384   7.323   3.064
13351TIP3   OH240009   0.403   0.578   2.238
13351TIP3    H140010   0.340   0.647   2.222
13351TIP3    H240011   0.425   0.545   2.151
13352TIP3   OH240012   5.069   1.048   3.179
13352TIP3    H140013   5.008   1.084   3.114
13352TIP3    H240014   5.156   1.067   3.143
13353TIP3   OH240015   4.737   4.885   3.659
13353TIP3    H140016   4.825   4.886   3.621
13353TIP3    H240017   4.723   4.975   3.689
13354TIP3   OH240018   5.210   2.967   4.968
13354TIP3    H140019   5.190   2.962   4.875
13354TIP3    H240020   5.290   3.019   4.972
13355TIP3   OH240021   3.593   3.260   1.597
13355TIP3    H140022   3.644   3.179   1.607
13355TIP3    H240023   3.646   3.327   1.641
13356TIP3   OH240024   1.584   3.149   6.108
13356TIP3    H140025   1.510   3.175   6.054
13356TIP3    H240026   1.656   3.206   6.081
13357TIP3   OH240027   3.858   3.797   5.127
13357TIP3    H140028   3.781   3.779   5.180
13357TIP3    H240029   3.852   3.736   5.054
13358TIP3   OH240030   3.092   3.515   1.245
13358TIP3    H140031   3.003   3.541   1.269
13358TIP3    H240032   3.107   3.435   1.295
13359TIP3   OH240033   5.292   5.908   2.655
13359TIP3    H140034   5.330   5.996   2.658
13359TIP3    H240035   5.244   5.899   2.737
13360TIP3   OH240036   6.457   3.068   2.376
13360TIP3    H140037   6.406   3.020   2.441
13360TIP3    H240038   6.523   3.005   2.346
13361TIP3   OH240039   5.747   1.697   5.547
13361TIP3    H140040   5.655   1.714   5.524
13361TIP3    H240041   5.796   1.723   5.469
13362TIP3   OH240042   6.549   5.246   0.349
13362TIP3    H140043   6.466   5.272   0.389
13362TIP3    H240044   6.539   5.267   0.256
13363TIP3   OH240045   3.814   1.906   6.172
13363TIP3    H140046   3.873   1.977   6.148
13363TIP3    H240047   3.865   1.853   6.233
13364TIP3   OH240048   4.705   0.482   2.002
13364TIP3    H140049   4.774   0.451   1.944
13364TIP3    H240050   4.625   0.476   1.950
13365TIP3   OH240051   5.225   7.120   4.987
13365TIP3    H140052   5.252   7.038   5.030
13365TIP3    H240053   5.219   7.183   5.059
13366TIP3   OH240054   6.181   4.564   3.458
13366TIP3    H140055   6.153   4.477   3.429
13366TIP3    H240056   6.204   4.553   3.550
13367TIP3   OH240057   0.812   4.300   2.208
13367TIP3    H140058   0.901   4.280   2.178
13367TIP3    H240059   0.792   4.384   2.168
13368TIP3   OH240060   5.280   2.753   2.128
13368TIP3    H140061   5.191   2.719   2.137
13368TIP3    H240062   5.282   2.829   2.187
13369TIP3   OH240063   0.087   5.011   3.530
13369TIP3    H140064   0.129   5.094   3.509
13369TIP3    H240065   0.153   4.945   3.509
13370TIP3   OH240066   4.739   0.541   2.531
13370TIP3    H140067   4.822   0.493   2.530
13370TIP3    H240068   4.686   0.496   2.465
13371TIP3   OH240069   5.641   2.838   4.008
13371TIP3    H140070   5.652   2.755   3.963
13371TIP3    H240071   5.728   2.861   4.039
13372TIP3   OH240072   6.937   1.430   6.715
13372TIP3    H140073   6.844   1.444   6.697
13372TIP3    H240074   6.948   1.335   6.706
13373TIP3   OH240075   5.034   4.197   0.502
13373TIP3    H140076   5.126   4.213   0.524
13373TIP3    H240077   5.009   4.271   0.447
13374TIP3   OH240078   8.330   5.618   6.476
13374TIP3    H140079   8.293   5.638   6.563
13374TIP3    H240080   8.266   5.654   6.415
13375TIP3   OH240081   4.793   4.632   3.656
13375TIP3    H140082   4.736   4.707   3.677
13375TIP3    H240083   4.873   4.648   3.706
13376TIP3   OH240084   0.440   2.984   5.845
13376TIP3    H140085   0.473   3.074   5.853
13376TIP3    H240086   0.367   2.980   5.906
13377TIP3   OH240087   6.749   4.976   6.267
13377TIP3    H140088   6.721   4.931   6.187
13377TIP3    H240089   6.776   4.906   6.326
13378TIP3   OH240090   5.461   3.984   0.177
13378TIP3    H140091   5.518   4.022   0.245
13378TIP3    H240092   5.514   3.986   0.098
13379TIP3   OH240093   6.486   7.724   4.204
13379TIP3    H140094   6.444   7.699   4.122
13379TIP3    H240095   6.561   7.665   4.212
13380TIP3   OH240096   1.482   1.912   5.919
13380TIP3    H140097   1.487   1.977   5.989
13380TIP3    H240098   1.551   1.848   5.941
13381TIP3   OH240099   1.956   6.411   5.586
13381TIP3    H140100   1.975   6.377   5.673
13381TIP3    H240101   1.925   6.335   5.536
13382TIP3   OH240102   2.658   5.648   5.469
13382TIP3    H140103   2.664   5.667   5.375
13382TIP3    H240104   2.576   5.600   5.478
13383TIP3   OH240105   4.204   0.535   5.610
13383TIP3    H140106   4.298   0.552   5.614
13383TIP3    H240107   4.191   0.459   5.667
13384TIP3   OH240108   1.890   2.439   1.121
13384TIP3    H140109   1.818   2.495   1.150
13384TIP3    H240110   1.969   2.487   1.145
13385TIP3   OH240111   0.865   4.801   0.285
13385TIP3    H140112   0.813   4.875   0.314
13385TIP3    H240113   0.886   4.820   0.193
13386TIP3   OH240114   4.093   6.006   5.004
13386TIP3    H140115   4.159   6.075   4.994
13386TIP3    H240116   4.063   6.015   5.094
13387TIP3   OH240117   1.655   7.446   0.460
13387TIP3    H140118   1.673   7.352   0.456
13387TIP3    H240119   1.593   7.461   0.389
13388TIP3   OH240120   0.540   1.416   5.253
13388TIP3    H140121   0.555   1.324   5.272
13388TIP3    H240122   0.536   1.421   5.157
13389TIP3   OH240123   6.481   6.003   5.347
13389TIP3    H140124   6.491   6.038   5.435
13389TIP3    H240125   6.396   5.960   5.347
13390TIP3   OH240126   7.655   2.965   6.512
13390TIP3    H140127   7.570   3.008   6.521
13390TIP3    H240128   7.669   2.923   6.597
13391TIP3   OH240129   6.446   7.406   2.930
13391TIP3    H140130   6.469   7.322   2.890
13391TIP3    H240131   6.531   7.442   2.958
13392TIP3   OH240132   0.573   3.924   4.752
13392TIP3    H140133   0.576   3.894   4.661
13392TIP3    H240134   0.664   3.949   4.771
13393TIP3   OH240135   2.324   4.432   0.825
13393TIP3    H140136   2.402   4.481   0.801
13393TIP3    H240137   2.285   4.482   0.897
13394TIP3   OH240138   7.578   0.140   4.778
13394TIP3    H140139   7.592   0.068   4.840
13394TIP3    H240140   7.666   0.174   4.762
13395TIP3   OH240141  -0.018   3.312   5.776
13395TIP3    H140142  -0.040   3.301   5.683
13395TIP3    H240143   0.071   3.348   5.774
13396TIP3   OH240144   1.453   5.275   1.473
13396TIP3    H140145   1.536   5.312   1.441
13396TIP3    H240146   1.444   5.309   1.561
13397TIP3   OH240147   7.436   4.223   0.059
13397TIP3    H140148   7.346   4.207   0.089
13397TIP3    H240149   7.433   4.310   0.020
13398TIP3   OH240150   3.184   2.995   6.589
13398TIP3    H140151   3.226   3.071   6.547
13398TIP3    H240152   3.107   3.032   6.633
13399TIP3   OH240153   7.643   2.243   1.559
13399TIP3    H140154   7.607   2.276   1.476
13399TIP3    H240155   7.573   2.256   1.622
13400TIP3   OH240156   3.963   0.775   1.929
13400TIP3    H140157   3.921   0.774   1.843
13400TIP3    H240158   4.035   0.837   1.920
13401TIP3   OH240159   0.168   6.993   5.486
13401TIP3    H140160   0.263   7.001   5.485
13401TIP3    H240161   0.142   7.014   5.575
13402TIP3   OH240162   4.264   1.554   4.308
13402TIP3    H140163   4.273   1.578   4.216
13402TIP3    H240164   4.170   1.550   4.322
13403TIP3   OH240165   5.379   3.187   4.907
13403TIP3    H140166   5.419   3.204   4.993
13403TIP3    H240167   5.431   3.238   4.846
13404TIP3   OH240168   7.352   7.668   5.510
13404TIP3    H140169   7.426   7.608   5.524
13404TIP3    H240170   7.393   7.753   5.493
13405TIP3   OH240171   7.445   3.072   4.139
13405TIP3    H140172   7.411   3.048   4.226
13405TIP3    H240173   7.512   3.137   4.157
13406TIP3   OH240174   1.789   5.516   5.839
13406TIP3    H140175   1.791   5.421   5.827
13406TIP3    H240176   1.878   5.538   5.866
13407TIP3   OH240177   6.946   0.869   5.662
13407TIP3    H140178   6.867   0.858   5.609
13407TIP3    H240179   6.981   0.954   5.636
13408TIP3   OH240180   2.635   6.533   0.397
13408TIP3    H140181   2.648   6.542   0.302
13408TIP3    H240182   2.612   6.441   0.409
13409TIP3   OH240183   4.794   0.712   5.237
13409TIP3    H140184   4.705   0.747   5.226
13409TIP3    H240185   4.784   0.640   5.299
13410TIP3   OH240186   3.450   0.999   4.598
13410TIP3    H140187   3.386   0.928   4.604
13410TIP3    H240188   3.490   0.988   4.512
13411TIP3   OH240189   5.065   0.190   4.538
13411TIP3    H140190   5.147   0.221   4.498
13411TIP3    H240191   5.074   0.095   4.541
13412TIP3   OH240192   5.351   4.668   0.947
13412TIP3    H140193   5.300   4.734   0.900
13412TIP3    H240194   5.442   4.687   0.924
13413TIP3   OH240195   7.751   5.242   3.816
13413TIP3    H140196   7.697   5.168   3.843
13413TIP3    H240197   7.692   5.317   3.817
13414TIP3   OH240198   7.642   5.847   0.883
13414TIP3    H140199   7.547   5.846   0.886
13414TIP3    H240200   7.663   5.863   0.791
13415TIP3   OH240201   2.846   4.924   1.641
13415TIP3    H140202   2.846   4.990   1.572
13415TIP3    H240203   2.774   4.865   1.618
13416TIP3   OH240204   7.079   7.350   6.535
13416TIP3    H140205   7.144   7.281   6.524
13416TIP3    H240206   7.110   7.422   6.481
13417TIP3   OH240207   5.736   6.286   2.914
13417TIP3    H140208   5.825   6.289   2.881
13417TIP3    H240209   5.695   6.214   2.866
13418TIP3   OH240210   3.167   6.500   1.965
13418TIP3    H140211   3.192   6.496   1.873
13418TIP3    H240212   3.140   6.411   1.986
13419TIP3   OH240213   2.298   1.107   0.419
13419TIP3    H140214   2.382   1.063   0.429
13419TIP3    H240215   2.234   1.036   0.413
13420TIP3   OH240216   7.042   2.564   5.664
13420TIP3    H140217   6.980   2.636   5.647
13420TIP3    H240218   7.007   2.490   5.614
13421TIP3   OH240219   4.472   0.199   2.120
13421TIP3    H140220   4.459   0.218   2.027
13421TIP3    H240221   4.400   0.244   2.165
13422TIP3   OH240222   5.289   3.842   1.972
13422TIP3    H140223   5.370   3.889   1.990
13422TIP3    H240224   5.222   3.910   1.969
13423TIP3   OH240225   7.565  -0.007   0.640
13423TIP3    H140226   7.637   0.027   0.588
13423TIP3    H240227   7.521   0.071   0.674
13424TIP3   OH240228   2.367   3.069   3.279
13424TIP3    H140229   2.442   3.089   3.223
13424TIP3    H240230   2.387   2.984   3.318
13425TIP3   OH240231   7.443   3.674   4.550
13425TIP3    H140232   7.379   3.642   4.486
13425TIP3    H240233   7.405   3.652   4.635
13426TIP3   OH240234   0.009   6.310   5.765
13426TIP3    H140235   0.071   6.243   5.736
13426TIP3    H240236  -0.063   6.304   5.702
13427TIP3   OH240237   5.696   0.774   4.647
13427TIP3    H140238   5.636   0.764   4.721
13427TIP3    H240239   5.776   0.809   4.686
13428TIP3   OH240240   2.592   3.279   5.577
13428TIP3    H140241   2.522   3.228   5.537
13428TIP3    H240242   2.648   3.213   5.619
13429TIP3   OH240243   5.624   0.235   6.810
13429TIP3    H140244   5.611   0.315   6.759
13429TIP3    H240245   5.653   0.170   6.746
13430TIP3   OH240246   1.332   7.230   0.458
13430TIP3    H140247   1.259   7.282   0.492
13430TIP3    H240248   1.369   7.283   0.387
13431TIP3   OH240249   7.989   3.029   0.049
13431TIP3    H140250   7.901   3.029   0.012
13431TIP3    H240251   7.981   3.074   0.132
13432TIP3   OH240252   6.553   6.128   0.471
13432TIP3    H140253   6.569   6.052   0.415
13432TIP3    H240254   6.619   6.122   0.540
13433TIP3   OH240255   7.408   1.492   1.387
13433TIP3    H140256   7.439   1.479   1.298
13433TIP3    H240257   7.483   1.529   1.434
13434TIP3   OH240258   2.485   0.372   2.527
13434TIP3    H140259   2.579   0.371   2.511
13434TIP3    H240260   2.477   0.359   2.621
13435TIP3   OH240261   2.157   1.396   4.850
13435TIP3    H140262   2.121   1.465   4.905
13435TIP3    H240263   2.235   1.436   4.810
13436TIP3   OH240264   6.967   0.118   6.335
13436TIP3    H140265   6.960   0.155   6.247
13436TIP3    H240266   7.022   0.179   6.383
13437TIP3   OH240267   8.122   4.328   4.103
13437TIP3    H140268   8.112   4.243   4.061
13437TIP3    H240269   8.117   4.310   4.197
13438TIP3   OH240270   6.674   0.982   5.011
13438TIP3    H140271   6.718   0.912   4.963
13438TIP3    H240272   6.690   1.060   4.958
13439TIP3   OH240273   3.778   3.854   4.509
13439TIP3    H140274   3.866   3.887   4.524
13439TIP3    H240275   3.773   3.839   4.414
13440TIP3   OH240276   7.524   1.118   4.271
13440TIP3    H140277   7.582   1.044   4.292
13440TIP3    H240278   7.508   1.160   4.355
13441TIP3   OH240279   5.707   0.748   0.958
13441TIP3    H140280   5.740   0.741   0.869
13441TIP3    H240281   5.632   0.687   0.960
13442TIP3   OH240282   6.433   3.744   4.358
13442TIP3    H140283   6.503   3.772   4.417
13442TIP3    H240284   6.465   3.664   4.318
13443TIP3   OH240285   7.062   4.395   1.011
13443TIP3    H140286   7.087   4.450   1.086
13443TIP3    H240287   7.017   4.455   0.952
13444TIP3   OH240288   4.769   5.111   2.003
13444TIP3    H140289   4.796   5.023   2.029
13444TIP3    H240290   4.694   5.097   1.946
13445TIP3   OH240291   0.095   3.456   1.425
13445TIP3    H140292   0.088   3.497   1.512
13445TIP3    H240293   0.009   3.471   1.385
13446TIP3   OH240294   5.259   6.138   5.702
13446TIP3    H140295   5.254   6.043   5.707
13446TIP3    H240296   5.298   6.156   5.617
13447TIP3   OH240297   2.856   5.049   1.401
13447TIP3    H140298   2.809   5.115   1.349
13447TIP3    H240299   2.935   5.030   1.349
13448TIP3   OH240300   4.900   2.144   4.098
13448TIP3    H140301   4.871   2.232   4.121
13448TIP3    H240302   4.838   2.086   4.140
13449TIP3   OH240303   4.755   7.318   0.371
13449TIP3    H140304   4.685   7.383   0.381
13449TIP3    H240305   4.715   7.236   0.399
13450TIP3   OH240306   6.542   0.195   3.555
13450TIP3    H140307   6.599   0.125   3.524
13450TIP3    H240308   6.515   0.167   3.642
13451TIP3   OH240309   0.571   2.687   1.086
13451TIP3    H140310   0.638   2.638   1.040
13451TIP3    H240311   0.576   2.656   1.176
13452TIP3   OH240312   2.251   3.980   0.931
13452TIP3    H140313   2.313   3.966   0.859
13452TIP3    H240314   2.250   4.075   0.943
13453TIP3   OH240315   7.514   4.215   5.401
13453TIP3    H140316   7.588   4.165   5.367
13453TIP3    H240317   7.550   4.302   5.420
13454TIP3   OH240318   6.665   2.762   5.441
13454TIP3    H140319   6.600   2.693   5.451
13454TIP3    H240320   6.618   2.833   5.397
13455TIP3   OH240321   1.538   4.504   1.015
13455TIP3    H140322   1.452   4.539   1.040
13455TIP3    H240323   1.587   4.581   0.986
13456TIP3   OH240324   4.235   5.406   1.958
13456TIP3    H140325   4.154   5.357   1.946
13456TIP3    H240326   4.263   5.428   1.869
13457TIP3   OH240327   5.140   3.509   5.599
13457TIP3    H140328   5.059   3.553   5.624
13457TIP3    H240329   5.170   3.554   5.521
13458TIP3   OH240330   4.249   3.327   1.651
13458TIP3    H140331   4.207   3.412   1.635
13458TIP3    H240332   4.293   3.337   1.735
13459TIP3   OH240333   3.023   7.072   5.142
13459TIP3    H140334   3.116   7.092   5.140
13459TIP3    H240335   2.994   7.103   5.228
13460TIP3   OH240336   4.666   0.722   0.293
13460TIP3    H140337   4.588   0.736   0.347
13460TIP3    H240338   4.740   0.733   0.354
13461TIP3   OH240339   3.283   0.239   3.380
13461TIP3    H140340   3.345   0.233   3.307
13461TIP3    H240341   3.252   0.149   3.392
13462TIP3   OH240342   0.114   4.556   5.392
13462TIP3    H140343   0.200   4.519   5.414
13462TIP3    H240344   0.053   4.484   5.407
13463TIP3   OH240345   1.741   4.837   5.224
13463TIP3    H140346   1.828   4.848   5.186
13463TIP3    H240347   1.687   4.901   5.179
13464TIP3   OH240348   7.506   2.899   2.403
13464TIP3    H140349   7.440   2.954   2.362
13464TIP3    H240350   7.511   2.930   2.493
13465TIP3   OH240351   2.862   7.579   3.165
13465TIP3    H140352   2.819   7.539   3.240
13465TIP3    H240353   2.954   7.587   3.191
13466TIP3   OH240354   7.999   5.948   0.170
13466TIP3    H140355   8.023   6.038   0.192
13466TIP3    H240356   8.079   5.898   0.187
13467TIP3   OH240357   1.362   5.406   1.705
13467TIP3    H140358   1.416   5.485   1.712
13467TIP3    H240359   1.383   5.356   1.784
13468TIP3   OH240360   2.846   5.134   0.859
13468TIP3    H140361   2.795   5.075   0.914
13468TIP3    H240362   2.780   5.182   0.808
13469TIP3   OH240363   3.850   4.254   0.798
13469TIP3    H140364   3.773   4.208   0.765
13469TIP3    H240365   3.816   4.331   0.842
13470TIP3   OH240366   7.386   1.322   4.907
13470TIP3    H140367   7.399   1.392   4.843
13470TIP3    H240368   7.292   1.324   4.926
13471TIP3   OH240369   0.079   5.207   5.976
13471TIP3    H140370  -0.006   5.165   5.964
13471TIP3    H240371   0.084   5.272   5.905
13472TIP3   OH240372   0.497   6.134   5.642
13472TIP3    H140373   0.570   6.191   5.666
13472TIP3    H240374   0.538   6.051   5.619
13473TIP3   OH240375   2.714   5.239   0.140
13473TIP3    H140376   2.666   5.320   0.155
13473TIP3    H240377   2.772   5.232   0.216
13474TIP3   OH240378   5.474   2.457   3.281
13474TIP3    H140379   5.545   2.427   3.338
13474TIP3    H240380   5.503   2.542   3.249
13475TIP3   OH240381   3.275   1.105   2.543
13475TIP3    H140382   3.180   1.097   2.535
13475TIP3    H240383   3.293   1.196   2.516
13476TIP3   OH240384   3.636   2.857   3.080
13476TIP3    H140385   3.603   2.839   2.992
13476TIP3    H240386   3.582   2.803   3.137
13477TIP3   OH240387   4.065   2.410   0.144
13477TIP3    H140388   4.149   2.401   0.189
13477TIP3    H240389   4.090   2.424   0.052
13478TIP3   OH240390   5.762   7.305   1.879
13478TIP3    H140391   5.699   7.265   1.940
13478TIP3    H240392   5.847   7.294   1.922
13479TIP3   OH240393   3.470   3.965   5.189
13479TIP3    H140394   3.483   4.008   5.104
13479TIP3    H240395   3.403   3.899   5.174
13480TIP3   OH240396   2.721   3.129   6.731
13480TIP3    H140397   2.764   3.199   6.681
13480TIP3    H240398   2.628   3.151   6.725
13481TIP3   OH240399   5.450   5.132   0.976
13481TIP3    H140400   5.393   5.168   1.044
13481TIP3    H240401   5.485   5.051   1.013
13482TIP3   OH240402   3.311   5.665   1.125
13482TIP3    H140403   3.219   5.667   1.099
13482TIP3    H240404   3.311   5.696   1.216
13483TIP3   OH240405   0.491   5.136   4.591
13483TIP3    H140406   0.404   5.126   4.630
13483TIP3    H240407   0.512   5.049   4.556
13484TIP3   OH240408   6.041   0.618   6.647
13484TIP3    H140409   5.983   0.695   6.650
13484TIP3    H240410   6.127   0.652   6.670
13485TIP3   OH240411   5.894   2.331   0.591
13485TIP3    H140412   5.903   2.426   0.594
13485TIP3    H240413   5.806   2.317   0.555
13486TIP3   OH240414   4.798   7.613   6.536
13486TIP3    H140415   4.882   7.606   6.580
13486TIP3    H240416   4.812   7.571   6.450
13487TIP3   OH240417   8.227   6.499   3.765
13487TIP3    H140418   8.280   6.488   3.686
13487TIP3    H240419   8.139   6.520   3.732
13488TIP3   OH240420   5.993   3.302   5.243
13488TIP3    H140421   5.990   3.238   5.314
13488TIP3    H240422   6.077   3.286   5.199
13489TIP3   OH240423   5.351   2.299   5.566
13489TIP3    H140424   5.320   2.347   5.489
13489TIP3    H240425   5.279   2.240   5.588
13490TIP3   OH240426   0.960   5.603   4.267
13490TIP3    H140427   0.925   5.633   4.350
13490TIP3    H240428   1.003   5.520   4.287
13491TIP3   OH240429   7.106   3.696   4.464
13491TIP3    H140430   7.046   3.740   4.404
13491TIP3    H240431   7.164   3.646   4.407
13492TIP3   OH240432   1.027   0.525   1.081
13492TIP3    H140433   0.979   0.608   1.074
13492TIP3    H240434   1.074   0.531   1.165
13493TIP3   OH240435   5.218   2.175   1.756
13493TIP3    H140436   5.129   2.202   1.734
13493TIP3    H240437   5.214   2.080   1.763
13494TIP3   OH240438   6.714   4.882   5.998
13494TIP3    H140439   6.619   4.877   5.985
13494TIP3    H240440   6.746   4.923   5.917
13495TIP3   OH240441   1.384   4.236   5.601
13495TIP3    H140442   1.472   4.272   5.608
13495TIP3    H240443   1.393   4.163   5.540
13496TIP3   OH240444   5.813   1.900   3.828
13496TIP3    H140445   5.737   1.874   3.881
13496TIP3    H240446   5.776   1.925   3.743
13497TIP3   OH240447   1.168   2.244   2.449
13497TIP3    H140448   1.100   2.304   2.419
13497TIP3    H240449   1.218   2.295   2.513
13498TIP3   OH240450   4.222   5.929   6.384
13498TIP3    H140451   4.307   5.900   6.351
13498TIP3    H240452   4.217   5.893   6.472
13499TIP3   OH240453   7.354   5.597   3.911
13499TIP3    H140454   7.293   5.639   3.972
13499TIP3    H240455   7.418   5.664   3.891
13500TIP3   OH240456   6.604   5.208   4.951
13500TIP3    H140457   6.646   5.124   4.931
13500TIP3    H240458   6.587   5.247   4.866
13501TIP3   OH240459   3.326   6.685   2.063
13501TIP3    H140460   3.318   6.677   2.158
13501TIP3    H240461   3.270   6.616   2.028
13502TIP3   OH240462   7.865   3.559   2.401
13502TIP3    H140463   7.830   3.639   2.438
13502TIP3    H240464   7.829   3.554   2.313
13503TIP3   OH240465   6.795   5.374   6.359
13503TIP3    H140466   6.883   5.365   6.395
13503TIP3    H240467   6.807   5.421   6.277
13504TIP3   OH240468   1.127   3.534   4.062
13504TIP3    H140469   1.058   3.599   4.070
13504TIP3    H240470   1.148   3.533   3.968
13505TIP3   OH240471   3.664   7.086   5.920
13505TIP3    H140472   3.577   7.123   5.910
13505TIP3    H240473   3.669   7.016   5.854
13506TIP3   OH240474   3.358   5.406   1.052
13506TIP3    H140475   3.334   5.496   1.074
13506TIP3    H240476   3.450   5.398   1.079
13507TIP3   OH240477   4.123   3.941   4.816
13507TIP3    H140478   4.215   3.957   4.833
13507TIP3    H240479   4.092   3.894   4.894
13508TIP3   OH240480   1.970   1.758   1.878
13508TIP3    H140481   2.032   1.713   1.935
13508TIP3    H240482   2.002   1.849   1.875
13509TIP3   OH240483   0.669   5.031   5.421
13509TIP3    H140484   0.606   4.962   5.399
13509TIP3    H240485   0.708   5.056   5.338
13510TIP3   OH240486   2.879   6.555   4.362
13510TIP3    H140487   2.789   6.550   4.332
13510TIP3    H240488   2.905   6.646   4.347
13511TIP3   OH240489   7.535   2.855   4.782
13511TIP3    H140490   7.475   2.929   4.781
13511TIP3    H240491   7.489   2.788   4.833
13512TIP3   OH240492   2.789   1.509   3.382
13512TIP3    H140493   2.831   1.432   3.344
13512TIP3    H240494   2.704   1.477   3.413
13513TIP3   OH240495   1.037   0.526   4.607
13513TIP3    H140496   1.002   0.538   4.518
13513TIP3    H240497   0.991   0.592   4.660
13514TIP3   OH240498   5.000   1.228   2.464
13514TIP3    H140499   5.006   1.180   2.547
13514TIP3    H240500   4.951   1.307   2.486
13515TIP3   OH240501   3.934   4.289   1.630
13515TIP3    H140502   3.891   4.365   1.670
13515TIP3    H240503   3.905   4.215   1.682
13516TIP3   OH240504   6.734   1.594   6.380
13516TIP3    H140505   6.662   1.621   6.324
13516TIP3    H240506   6.812   1.600   6.325
13517TIP3   OH240507   5.769   4.512   6.414
13517TIP3    H140508   5.683   4.471   6.423
13517TIP3    H240509   5.811   4.499   6.499
13518TIP3   OH240510   6.849   5.257   5.694
13518TIP3    H140511   6.758   5.286   5.690
13518TIP3    H240512   6.848   5.185   5.758
13519TIP3   OH240513   2.545   2.681   2.292
13519TIP3    H140514   2.598   2.624   2.236
13519TIP3    H240515   2.511   2.748   2.233
13520TIP3   OH240516   4.147   3.396   0.418
13520TIP3    H140517   4.125   3.452   0.493
13520TIP3    H240518   4.126   3.307   0.447
13521TIP3   OH240519   1.815   4.129   3.909
13521TIP3    H140520   1.745   4.191   3.931
13521TIP3    H240521   1.896   4.175   3.931
13522TIP3   OH240522   4.629   5.154   6.636
13522TIP3    H140523   4.563   5.216   6.604
13522TIP3    H240524   4.607   5.140   6.728
13523TIP3   OH240525   7.216   1.829   3.927
13523TIP3    H140526   7.180   1.755   3.878
13523TIP3    H240527   7.153   1.845   3.997
13524TIP3   OH240528   8.087   6.549   3.507
13524TIP3    H140529   8.109   6.467   3.462
13524TIP3    H240530   8.068   6.611   3.436
13525TIP3   OH240531   5.171   3.270   0.886
13525TIP3    H140532   5.172   3.179   0.856
13525TIP3    H240533   5.239   3.273   0.954
13526TIP3   OH240534   5.495   6.645   4.251
13526TIP3    H140535   5.582   6.653   4.212
13526TIP3    H240536   5.510   6.604   4.336
13527TIP3   OH240537   2.669   7.013   3.372
13527TIP3    H140538   2.620   7.095   3.370
13527TIP3    H240539   2.602   6.946   3.384
13528TIP3   OH240540   6.530   1.215   2.506
13528TIP3    H140541   6.537   1.149   2.574
13528TIP3    H240542   6.599   1.192   2.443
13529TIP3   OH240543   6.382   0.887   2.294
13529TIP3    H140544   6.319   0.942   2.341
13529TIP3    H240545   6.406   0.819   2.356
13530TIP3   OH240546   4.445   3.802   4.983
13530TIP3    H140547   4.422   3.893   4.967
13530TIP3    H240548   4.369   3.752   4.954
13531TIP3   OH240549   3.203   3.580   0.066
13531TIP3    H140550   3.152   3.502   0.046
13531TIP3    H240551   3.178   3.602   0.156
13532TIP3   OH240552   0.239   1.741   6.270
13532TIP3    H140553   0.312   1.784   6.315
13532TIP3    H240554   0.280   1.694   6.197
13533TIP3   OH240555   4.519   6.662   2.619
13533TIP3    H140556   4.504   6.586   2.676
13533TIP3    H240557   4.584   6.631   2.556
13534TIP3   OH240558   5.808   2.201   6.074
13534TIP3    H140559   5.804   2.183   5.980
13534TIP3    H240560   5.743   2.270   6.088
13535TIP3   OH240561   3.266   1.656   5.771
13535TIP3    H140562   3.327   1.628   5.703
13535TIP3    H240563   3.293   1.607   5.849
13536TIP3   OH240564   7.438   2.275   4.567
13536TIP3    H140565   7.497   2.347   4.588
13536TIP3    H240566   7.494   2.207   4.531
13537TIP3   OH240567   3.855   0.330   0.134
13537TIP3    H140568   3.934   0.297   0.178
13537TIP3    H240569   3.878   0.420   0.109
13538TIP3   OH240570   6.658   2.412   6.088
13538TIP3    H140571   6.606   2.448   6.017
13538TIP3    H240572   6.599   2.351   6.132
13539TIP3   OH240573   6.335   1.912   6.310
13539TIP3    H140574   6.294   1.861   6.379
13539TIP3    H240575   6.337   1.853   6.235
13540TIP3   OH240576   7.004   6.730   1.923
13540TIP3    H140577   6.955   6.757   1.845
13540TIP3    H240578   6.949   6.662   1.963
13541TIP3   OH240579   7.136   6.649   0.699
13541TIP3    H140580   7.113   6.557   0.684
13541TIP3    H240581   7.089   6.696   0.630
13542TIP3   OH240582   0.474   7.276   2.363
13542TIP3    H140583   0.396   7.315   2.323
13542TIP3    H240584   0.498   7.204   2.305
13543TIP3   OH240585   6.450   2.308   5.666
13543TIP3    H140586   6.527   2.270   5.709
13543TIP3    H240587   6.430   2.248   5.595
13544TIP3   OH240588   7.468   4.148   4.221
13544TIP3    H140589   7.499   4.078   4.162
13544TIP3    H240590   7.420   4.208   4.164
13545TIP3   OH240591   0.113   5.724   0.443
13545TIP3    H140592   0.023   5.740   0.470
13545TIP3    H240593   0.125   5.630   0.455
13546TIP3   OH240594   4.986   5.025   0.073
13546TIP3    H140595   4.910   5.076   0.102
13546TIP3    H240596   5.060   5.063   0.120
13547TIP3   OH240597   3.079   7.696   0.857
13547TIP3    H140598   3.175   7.698   0.850
13547TIP3    H240599   3.058   7.770   0.914
13548TIP3   OH240600   4.494   3.457   6.433
13548TIP3    H140601   4.466   3.366   6.427
13548TIP3    H240602   4.476   3.494   6.346
13549TIP3   OH240603   0.694   2.440   2.267
13549TIP3    H140604   0.631   2.438   2.195
13549TIP3    H240605   0.642   2.464   2.344
13550TIP3   OH240606   4.442   6.461   4.068
13550TIP3    H140607   4.470   6.458   4.159
13550TIP3    H240608   4.429   6.555   4.050
13551TIP3   OH240609   6.734   6.378   2.296
13551TIP3    H140610   6.705   6.442   2.360
13551TIP3    H240611   6.769   6.430   2.223
13552TIP3   OH240612   6.464   3.641   0.185
13552TIP3    H140613   6.379   3.683   0.197
13552TIP3    H240614   6.456   3.592   0.103
13553TIP3   OH240615   0.046   0.660   5.760
13553TIP3    H140616   0.122   0.612   5.727
13553TIP3    H240617  -0.028   0.603   5.743
13554TIP3   OH240618   5.904   1.932   2.065
13554TIP3    H140619   5.893   2.021   2.030
13554TIP3    H240620   5.818   1.909   2.101
13555TIP3   OH240621   6.182   7.760   5.527
13555TIP3    H140622   6.229   7.749   5.610
13555TIP3    H240623   6.092   7.783   5.554
13556TIP3   OH240624   8.106   1.467   1.557
13556TIP3    H140625   8.106   1.387   1.610
13556TIP3    H240626   8.065   1.442   1.475
13557TIP3   OH240627   5.959   5.193   3.218
13557TIP3    H140628   5.913   5.180   3.301
13557TIP3    H240629   5.903   5.254   3.170
13558TIP3   OH240630   7.423   0.320   5.535
13558TIP3    H140631   7.372   0.326   5.454
13558TIP3    H240632   7.462   0.233   5.532
13559TIP3   OH240633   4.008   7.099   4.279
13559TIP3    H140634   3.969   7.178   4.318
13559TIP3    H240635   3.963   7.026   4.322
13560TIP3   OH240636   1.658   7.756   4.855
13560TIP3    H140637   1.731   7.817   4.852
13560TIP3    H240638   1.694   7.674   4.822
13561TIP3   OH240639   2.830   0.375   3.413
13561TIP3    H140640   2.747   0.329   3.423
13561TIP3    H240641   2.812   0.464   3.445
13562TIP3   OH240642   1.441   5.445   2.867
13562TIP3    H140643   1.412   5.426   2.778
13562TIP3    H240644   1.536   5.428   2.865
13563TIP3   OH240645   4.015   1.089   4.428
13563TIP3    H140646   3.923   1.092   4.403
13563TIP3    H240647   4.060   1.059   4.348
13564TIP3   OH240648   3.553   4.385   0.339
13564TIP3    H140649   3.473   4.390   0.391
13564TIP3    H240650   3.609   4.324   0.385
13565TIP3   OH240651   1.987   1.050   3.203
13565TIP3    H140652   2.065   1.105   3.196
13565TIP3    H240653   2.018   0.962   3.179
13566TIP3   OH240654   3.844   1.920   5.431
13566TIP3    H140655   3.931   1.958   5.421
13566TIP3    H240656   3.853   1.829   5.402
13567TIP3   OH240657   5.006   1.511   2.395
13567TIP3    H140658   5.095   1.485   2.422
13567TIP3    H240659   4.971   1.433   2.352
13568TIP3   OH240660   4.354   2.468   0.161
13568TIP3    H140661   4.445   2.478   0.187
13568TIP3    H240662   4.344   2.527   0.086
13569TIP3   OH240663   1.975   6.422   1.003
13569TIP3    H140664   1.919   6.476   1.059
13569TIP3    H240665   1.933   6.425   0.917
13570TIP3   OH240666   7.180   2.788   6.133
13570TIP3    H140667   7.120   2.847   6.088
13570TIP3    H240668   7.211   2.728   6.065
13571TIP3   OH240669   7.437   1.241   0.614
13571TIP3    H140670   7.474   1.178   0.552
13571TIP3    H240671   7.513   1.288   0.648
13572TIP3   OH240672   1.820   6.802   6.113
13572TIP3    H140673   1.828   6.709   6.136
13572TIP3    H240674   1.736   6.829   6.150
13573TIP3   OH240675   0.307   7.837   2.495
13573TIP3    H140676   0.308   7.776   2.569
13573TIP3    H240677   0.315   7.780   2.418
13574TIP3   OH240678   0.983   6.508   5.715
13574TIP3    H140679   1.000   6.463   5.632
13574TIP3    H240680   1.057   6.568   5.726
13575TIP3   OH240681   1.938   2.391   5.891
13575TIP3    H140682   1.937   2.328   5.963
13575TIP3    H240683   1.970   2.473   5.930
13576TIP3   OH240684   0.191   1.800   5.617
13576TIP3    H140685   0.137   1.877   5.601
13576TIP3    H240686   0.275   1.821   5.576
13577TIP3   OH240687   6.744   3.734   4.073
13577TIP3    H140688   6.755   3.809   4.014
13577TIP3    H240689   6.698   3.668   4.021
13578TIP3   OH240690   0.122   3.171   0.411
13578TIP3    H140691   0.152   3.160   0.501
13578TIP3    H240692   0.032   3.137   0.411
13579TIP3   OH240693   5.793   2.572   5.034
13579TIP3    H140694   5.770   2.664   5.042
13579TIP3    H240695   5.783   2.553   4.940
13580TIP3   OH240696   0.028   7.653   5.718
13580TIP3    H140697   0.028   7.739   5.761
13580TIP3    H240698   0.024   7.673   5.624
13581TIP3   OH240699   4.159   3.152   6.312
13581TIP3    H140700   4.117   3.235   6.337
13581TIP3    H240701   4.114   3.127   6.231
13582TIP3   OH240702   1.891   6.411   6.258
13582TIP3    H140703   1.837   6.334   6.241
13582TIP3    H240704   1.828   6.478   6.286
13583TIP3   OH240705   3.431   1.481   6.496
13583TIP3    H140706   3.468   1.436   6.419
13583TIP3    H240707   3.341   1.499   6.472
13584TIP3   OH240708   4.456   3.869   1.148
13584TIP3    H140709   4.365   3.844   1.164
13584TIP3    H240710   4.463   3.958   1.184
13585TIP3   OH240711   7.819   6.304   0.832
13585TIP3    H140712   7.767   6.283   0.910
13585TIP3    H240713   7.901   6.339   0.867
13586TIP3   OH240714   3.770   3.822   6.490
13586TIP3    H140715   3.808   3.735   6.505
13586TIP3    H240716   3.740   3.850   6.576
13587TIP3   OH240717   7.224   4.179   2.304
13587TIP3    H140718   7.170   4.201   2.228
13587TIP3    H240719   7.203   4.245   2.370
13588TIP3   OH240720   3.485   1.323   1.790
13588TIP3    H140721   3.496   1.377   1.712
13588TIP3    H240722   3.445   1.382   1.854
13589TIP3   OH240723   2.828   4.077   5.917
13589TIP3    H140724   2.739   4.066   5.950
13589TIP3    H240725   2.879   4.009   5.960
13590TIP3   OH240726   3.518   7.675   2.058
13590TIP3    H140727   3.426   7.690   2.034
13590TIP3    H240728   3.518   7.677   2.154
13591TIP3   OH240729   1.358   1.445   2.079
13591TIP3    H140730   1.359   1.540   2.065
13591TIP3    H240731   1.449   1.424   2.101
13592TIP3   OH240732   2.197   6.851   6.752
13592TIP3    H140733   2.187   6.761   6.723
13592TIP3    H240734   2.107   6.885   6.757
13593TIP3   OH240735   1.379   0.245   0.528
13593TIP3    H140736   1.415   0.199   0.451
13593TIP3    H240737   1.433   0.215   0.601
13594TIP3   OH240738   0.453   5.848   1.313
13594TIP3    H140739   0.405   5.818   1.390
13594TIP3    H240740   0.505   5.922   1.345
13595TIP3   OH240741   1.507   1.303   0.600
13595TIP3    H140742   1.575   1.365   0.574
13595TIP3    H240743   1.426   1.339   0.562
13596TIP3   OH240744   6.844   2.431   2.321
13596TIP3    H140745   6.866   2.444   2.228
13596TIP3    H240746   6.914   2.375   2.354
13597TIP3   OH240747   5.398   1.233   5.928
13597TIP3    H140748   5.478   1.220   5.978
13597TIP3    H240749   5.361   1.315   5.961
13598TIP3   OH240750   0.809   7.622   0.824
13598TIP3    H140751   0.753   7.628   0.901
13598TIP3    H240752   0.883   7.679   0.843
13599TIP3   OH240753   4.520   6.941   4.732
13599TIP3    H140754   4.586   6.902   4.674
13599TIP3    H240755   4.562   6.942   4.818
13600TIP3   OH240756   5.743   6.762   3.202
13600TIP3    H140757   5.727   6.687   3.145
13600TIP3    H240758   5.673   6.757   3.267
13601TIP3   OH240759   1.795   4.025   4.887
13601TIP3    H140760   1.716   3.984   4.850
13601TIP3    H240761   1.774   4.119   4.890
13602TIP3   OH240762   6.055   7.513   3.080
13602TIP3    H140763   6.112   7.532   3.006
13602TIP3    H240764   6.001   7.439   3.051
13603TIP3   OH240765   5.262   2.082   2.631
13603TIP3    H140766   5.187   2.053   2.578
13603TIP3    H240767   5.224   2.104   2.716
13604TIP3   OH240768   2.585   5.486   1.003
13604TIP3    H140769   2.545   5.399   0.999
13604TIP3    H240770   2.517   5.542   1.041
13605TIP3   OH240771   4.001   6.599   3.170
13605TIP3    H140772   4.029   6.523   3.120
13605TIP3    H240773   3.908   6.609   3.149
13606TIP3   OH240774   6.393   3.809   2.334
13606TIP3    H140775   6.376   3.856   2.252
13606TIP3    H240776   6.381   3.717   2.312
13607TIP3   OH240777   3.680   0.785   0.965
13607TIP3    H140778   3.755   0.726   0.959
13607TIP3    H240779   3.711   0.858   1.019
13608TIP3   OH240780   4.619   0.305   0.702
13608TIP3    H140781   4.624   0.393   0.737
13608TIP3    H240782   4.703   0.292   0.658
13609TIP3   OH240783   7.552   3.010   5.320
13609TIP3    H140784   7.583   2.926   5.286
13609TIP3    H240785   7.490   2.986   5.389
13610TIP3   OH240786   3.379   6.212   1.300
13610TIP3    H140787   3.414   6.286   1.349
13610TIP3    H240788   3.302   6.185   1.349
13611TIP3   OH240789   7.762   1.261   6.777
13611TIP3    H140790   7.786   1.334   6.721
13611TIP3    H240791   7.815   1.272   6.856
13612TIP3   OH240792   2.479   4.579   6.056
13612TIP3    H140793   2.560   4.603   6.011
13612TIP3    H240794   2.464   4.488   6.032
13613TIP3   OH240795   4.071   1.524   3.083
13613TIP3    H140796   4.008   1.494   3.148
13613TIP3    H240797   4.029   1.505   2.999
13614TIP3   OH240798   1.228   0.366   6.792
13614TIP3    H140799   1.164   0.301   6.763
13614TIP3    H240800   1.285   0.319   6.852
13615TIP3   OH240801   0.770   6.045   3.106
13615TIP3    H140802   0.800   6.044   3.197
13615TIP3    H240803   0.708   6.118   3.102
13616TIP3   OH240804   4.750   0.622   5.632
13616TIP3    H140805   4.790   0.686   5.691
13616TIP3    H240806   4.679   0.670   5.589
13617TIP3   OH240807   4.049   0.309   4.914
13617TIP3    H140808   4.016   0.228   4.952
13617TIP3    H240809   4.093   0.282   4.833
13618TIP3   OH240810   3.681   1.595   6.624
13618TIP3    H140811   3.737   1.524   6.593
13618TIP3    H240812   3.741   1.670   6.633
13619TIP3   OH240813   5.181   5.402   3.112
13619TIP3    H140814   5.215   5.406   3.201
13619TIP3    H240815   5.220   5.477   3.067
13620TIP3   OH240816   5.828   3.288  -0.028
13620TIP3    H140817   5.896   3.299   0.038
13620TIP3    H240818   5.864   3.330  -0.107
13621TIP3   OH240819   1.167   7.785   4.551
13621TIP3    H140820   1.237   7.772   4.614
13621TIP3    H240821   1.110   7.709   4.562
13622TIP3   OH240822   5.079   0.465   2.659
13622TIP3    H140823   5.139   0.443   2.730
13622TIP3    H240824   5.048   0.381   2.625
13623TIP3   OH240825   1.128   3.720   6.223
13623TIP3    H140826   1.213   3.738   6.183
13623TIP3    H240827   1.147   3.652   6.288
13624TIP3   OH240828   1.190   1.252   3.488
13624TIP3    H140829   1.160   1.312   3.420
13624TIP3    H240830   1.285   1.251   3.479
13625TIP3   OH240831   3.866   5.104   5.368
13625TIP3    H140832   3.861   5.197   5.392
13625TIP3    H240833   3.857   5.057   5.450
13626TIP3   OH240834   2.955   2.553   4.001
13626TIP3    H140835   3.002   2.470   3.992
13626TIP3    H240836   3.023   2.618   4.015
13627TIP3   OH240837   2.880   0.456   6.613
13627TIP3    H140838   2.845   0.533   6.659
13627TIP3    H240839   2.910   0.398   6.682
13628TIP3   OH240840   4.504   2.185   1.191
13628TIP3    H140841   4.454   2.117   1.236
13628TIP3    H240842   4.450   2.209   1.116
13629TIP3   OH240843   2.172   5.945   1.527
13629TIP3    H140844   2.154   5.962   1.619
13629TIP3    H240845   2.264   5.969   1.515
13630TIP3   OH240846   6.994   6.019   3.328
13630TIP3    H140847   7.067   6.012   3.266
13630TIP3    H240848   6.923   6.058   3.278
13631TIP3   OH240849   5.011   2.076   6.179
13631TIP3    H140850   4.917   2.073   6.164
13631TIP3    H240851   5.048   2.104   6.095
13632TIP3   OH240852   3.425   0.204   4.266
13632TIP3    H140853   3.458   0.265   4.200
13632TIP3    H240854   3.362   0.149   4.218
13633TIP3   OH240855   4.038   0.775   3.882
13633TIP3    H140856   4.065   0.863   3.907
13633TIP3    H240857   4.084   0.758   3.799
13634TIP3   OH240858   1.278   5.782   5.533
13634TIP3    H140859   1.204   5.751   5.481
13634TIP3    H240860   1.317   5.852   5.480
13635TIP3   OH240861   1.522   5.410   3.464
13635TIP3    H140862   1.564   5.365   3.391
13635TIP3    H240863   1.450   5.352   3.489
13636TIP3   OH240864   3.764   6.276   4.506
13636TIP3    H140865   3.765   6.261   4.411
13636TIP3    H240866   3.672   6.293   4.527
13637TIP3   OH240867   6.219   5.933   4.803
13637TIP3    H140868   6.307   5.936   4.766
13637TIP3    H240869   6.178   5.858   4.761
13638TIP3   OH240870   0.597   1.952   2.259
13638TIP3    H140871   0.590   1.929   2.351
13638TIP3    H240872   0.508   1.971   2.231
13639TIP3   OH240873   0.236   7.310   2.246
13639TIP3    H140874   0.144   7.329   2.230
13639TIP3    H240875   0.275   7.307   2.159
13640TIP3   OH240876   6.716   0.994   2.398
13640TIP3    H140877   6.723   0.909   2.355
13640TIP3    H240878   6.784   0.992   2.466
13641TIP3   OH240879   2.256   7.352   1.768
13641TIP3    H140880   2.219   7.279   1.718
13641TIP3    H240881   2.230   7.335   1.858
13642TIP3   OH240882   3.388   6.000   3.066
13642TIP3    H140883   3.477   6.035   3.053
13642TIP3    H240884   3.344   6.066   3.120
13643TIP3   OH240885   4.977   0.332   6.552
13643TIP3    H140886   4.970   0.237   6.552
13643TIP3    H240887   5.070   0.350   6.544
13644TIP3   OH240888   1.801   4.602   1.874
13644TIP3    H140889   1.729   4.565   1.924
13644TIP3    H240890   1.763   4.619   1.787
13645TIP3   OH240891   0.260   3.574   6.117
13645TIP3    H140892   0.274   3.514   6.190
13645TIP3    H240893   0.341   3.625   6.113
13646TIP3   OH240894   6.679   6.467   0.526
13646TIP3    H140895   6.692   6.517   0.606
13646TIP3    H240896   6.758   6.413   0.518
13647TIP3   OH240897   7.332   2.316   3.271
13647TIP3    H140898   7.239   2.316   3.292
13647TIP3    H240899   7.376   2.322   3.356
13648TIP3   OH240900   4.585   0.114   6.647
13648TIP3    H140901   4.527   0.072   6.711
13648TIP3    H240902   4.623   0.188   6.695
13649TIP3   OH240903   6.967   7.765   6.506
13649TIP3    H140904   7.025   7.811   6.566
13649TIP3    H240905   6.908   7.833   6.474
13650TIP3   OH240906   6.127   2.803   1.516
13650TIP3    H140907   6.151   2.864   1.586
13650TIP3    H240908   6.179   2.832   1.441
13651TIP3   OH240909   1.236   2.309   0.619
13651TIP3    H140910   1.148   2.347   0.624
13651TIP3    H240911   1.292   2.370   0.665
13652TIP3   OH240912   1.183   7.591   4.051
13652TIP3    H140913   1.094   7.563   4.029
13652TIP3    H240914   1.174   7.635   4.135
13653TIP3   OH240915   6.335   4.130   2.266
13653TIP3    H140916   6.365   4.106   2.354
13653TIP3    H240917   6.361   4.221   2.257
13654TIP3   OH240918   1.174   0.632   5.673
13654TIP3    H140919   1.108   0.632   5.743
13654TIP3    H240920   1.250   0.674   5.712
13655TIP3   OH240921   5.656   1.232   4.207
13655TIP3    H140922   5.648   1.325   4.185
13655TIP3    H240923   5.641   1.227   4.301
13656TIP3   OH240924   0.910   3.949   3.037
13656TIP3    H140925   0.865   3.896   3.102
13656TIP3    H240926   0.934   3.887   2.968
13657TIP3   OH240927   1.604   1.284   6.278
13657TIP3    H140928   1.542   1.330   6.335
13657TIP3    H240929   1.579   1.192   6.284
13658TIP3   OH240930   7.434   6.486   1.349
13658TIP3    H140931   7.413   6.491   1.256
13658TIP3    H240932   7.425   6.576   1.380
13659TIP3   OH240933   5.822   7.475   5.016
13659TIP3    H140934   5.819   7.395   5.069
13659TIP3    H240935   5.877   7.535   5.066
13660TIP3   OH240936   2.530   2.424   1.181
13660TIP3    H140937   2.500   2.334   1.188
13660TIP3    H240938   2.616   2.418   1.139
13661TIP3   OH240939   1.722   4.039   4.263
13661TIP3    H140940   1.787   3.983   4.221
13661TIP3    H240941   1.733   4.022   4.357
13662TIP3   OH240942   6.575   6.785   3.261
13662TIP3    H140943   6.491   6.762   3.300
13662TIP3    H240944   6.628   6.815   3.336
13663TIP3   OH240945   2.847   3.176   2.127
13663TIP3    H140946   2.935   3.166   2.164
13663TIP3    H240947   2.836   3.099   2.071
13664TIP3   OH240948   2.585   5.146   4.535
13664TIP3    H140949   2.504   5.174   4.491
13664TIP3    H240950   2.644   5.220   4.524
13665TIP3   OH240951   7.580   0.490   2.385
13665TIP3    H140952   7.624   0.448   2.458
13665TIP3    H240953   7.646   0.496   2.317
13666TIP3   OH240954   2.613   4.853   2.624
13666TIP3    H140955   2.691   4.800   2.612
13666TIP3    H240956   2.645   4.941   2.640
13667TIP3   OH240957   0.143   6.937   3.852
13667TIP3    H140958   0.054   6.939   3.818
13667TIP3    H240959   0.186   6.866   3.804
13668TIP3   OH240960   3.759   6.600   1.503
13668TIP3    H140961   3.692   6.596   1.572
13668TIP3    H240962   3.842   6.589   1.550
13669TIP3   OH240963   7.814   5.466   1.299
13669TIP3    H140964   7.784   5.531   1.237
13669TIP3    H240965   7.863   5.516   1.365
13670TIP3   OH240966   3.705   4.477   3.814
13670TIP3    H140967   3.783   4.492   3.760
13670TIP3    H240968   3.662   4.563   3.820
13671TIP3   OH240969   1.938   0.102   4.609
13671TIP3    H140970   1.940   0.011   4.582
13671TIP3    H240971   1.883   0.146   4.543
13672TIP3   OH240972   6.079   0.306   0.273
13672TIP3    H140973   6.160   0.354   0.255
13672TIP3    H240974   6.068   0.312   0.368
13673TIP3   OH240975   7.145   0.032   4.815
13673TIP3    H140976   7.180  -0.020   4.887
13673TIP3    H240977   7.051   0.011   4.813
13674TIP3   OH240978   3.461   6.844   0.334
13674TIP3    H140979   3.504   6.839   0.420
13674TIP3    H240980   3.510   6.782   0.279
13675TIP3   OH240981   7.794   4.621   1.397
13675TIP3    H140982   7.713   4.578   1.369
13675TIP3    H240983   7.799   4.701   1.345
13676TIP3   OH240984   1.467   1.983   1.873
13676TIP3    H140985   1.394   2.042   1.856
13676TIP3    H240986   1.458   1.913   1.808
13677TIP3   OH240987   2.678   7.860   4.511
13677TIP3    H140988   2.629   7.780   4.492
13677TIP3    H240989   2.714   7.847   4.598
13678TIP3   OH240990   5.164   1.456   4.635
13678TIP3    H140991   5.259   1.455   4.628
13678TIP3    H240992   5.147   1.455   4.729
13679TIP3   OH240993   8.131   1.821   6.468
13679TIP3    H140994   8.159   1.818   6.376
13679TIP3    H240995   8.211   1.843   6.516
13680TIP3   OH240996   5.505   1.282   0.300
13680TIP3    H140997   5.592   1.280   0.341
13680TIP3    H240998   5.523   1.294   0.207
13681TIP3   OH240999   6.982   2.137   2.031
13681TIP3    H141000   6.923   2.187   1.974
13681TIP3    H241001   7.062   2.188   2.033
13682TIP3   OH241002   5.056   2.287   3.076
13682TIP3    H141003   5.023   2.366   3.033
13682TIP3    H241004   5.124   2.319   3.136
13683TIP3   OH241005   2.917   0.618   0.615
13683TIP3    H141006   2.983   0.595   0.680
13683TIP3    H241007   2.891   0.534   0.577
13684TIP3   OH241008   2.595   5.355   5.727
13684TIP3    H141009   2.509   5.341   5.765
13684TIP3    H241010   2.656   5.340   5.799
13685TIP3   OH241011   5.282   0.589   1.648
13685TIP3    H141012   5.298   0.672   1.693
13685TIP3    H241013   5.369   0.562   1.618
13686TIP3   OH241014   3.705   5.784   0.499
13686TIP3    H141015   3.662   5.791   0.585
13686TIP3    H241016   3.649   5.724   0.450
13687TIP3   OH241017   1.064   2.202   1.503
13687TIP3    H141018   1.134   2.145   1.470
13687TIP3    H241019   1.110   2.282   1.530
13688TIP3   OH241020   6.181   4.132   3.769
13688TIP3    H141021   6.138   4.065   3.715
13688TIP3    H241022   6.116   4.155   3.835
13689TIP3   OH241023   0.631   1.400   1.785
13689TIP3    H141024   0.628   1.304   1.785
13689TIP3    H241025   0.642   1.424   1.693
13690TIP3   OH241026   3.209   4.110   6.056
13690TIP3    H141027   3.216   4.046   6.127
13690TIP3    H241028   3.172   4.188   6.098
13691TIP3   OH241029   2.823   1.917   4.848
13691TIP3    H141030   2.737   1.882   4.869
13691TIP3    H241031   2.813   1.960   4.763
13692TIP3   OH241032   5.339   2.643   2.989
13692TIP3    H141033   5.358   2.570   3.048
13692TIP3    H241034   5.274   2.696   3.036
13693TIP3   OH241035   5.082   0.082   3.130
13693TIP3    H141036   4.987   0.084   3.115
13693TIP3    H241037   5.103   0.168   3.165
13694TIP3   OH241038   3.029   7.210   5.675
13694TIP3    H141039   3.010   7.204   5.581
13694TIP3    H241040   2.984   7.289   5.704
13695TIP3   OH241041   2.025   4.494   3.202
13695TIP3    H141042   2.016   4.443   3.283
13695TIP3    H241043   1.964   4.454   3.141
13696TIP3   OH241044   6.073   0.169   3.284
13696TIP3    H141045   6.092   0.107   3.355
13696TIP3    H241046   6.014   0.233   3.324
13697TIP3   OH241047   7.915   0.321   5.795
13697TIP3    H141048   7.888   0.301   5.885
13697TIP3    H241049   7.842   0.372   5.759
13698TIP3   OH241050   7.471   1.429   3.024
13698TIP3    H141051   7.427   1.430   2.939
13698TIP3    H241052   7.400   1.435   3.088
13699TIP3   OH241053   2.045   4.359   0.461
13699TIP3    H141054   2.133   4.322   0.457
13699TIP3    H241055   2.037   4.409   0.379
13700TIP3   OH241056   4.598   1.228   3.229
13700TIP3    H141057   4.567   1.295   3.170
13700TIP3    H241058   4.661   1.272   3.286
13701TIP3   OH241059   3.157   6.693   6.311
13701TIP3    H141060   3.234   6.690   6.368
13701TIP3    H241061   3.191   6.675   6.224
13702TIP3   OH241062   1.899   6.440   3.571
13702TIP3    H141063   1.959   6.407   3.505
13702TIP3    H241064   1.883   6.365   3.629
13703TIP3   OH241065   2.634   4.841   5.222
13703TIP3    H141066   2.678   4.822   5.140
13703TIP3    H241067   2.701   4.882   5.277
13704TIP3   OH241068   5.683   3.970   2.800
13704TIP3    H141069   5.773   3.994   2.824
13704TIP3    H241070   5.692   3.884   2.760
13705TIP3   OH241071   7.979   5.185   0.718
13705TIP3    H141072   7.891   5.200   0.681
13705TIP3    H241073   7.965   5.121   0.788
13706TIP3   OH241074   1.017   1.480   0.191
13706TIP3    H141075   1.011   1.400   0.243
13706TIP3    H241076   0.950   1.469   0.123
13707TIP3   OH241077   2.991   3.202   3.975
13707TIP3    H141078   2.922   3.223   4.037
13707TIP3    H241079   2.952   3.139   3.915
13708TIP3   OH241080   5.527   5.663   0.303
13708TIP3    H141081   5.528   5.624   0.216
13708TIP3    H241082   5.458   5.730   0.298
13709TIP3   OH241083   1.939   5.673   3.126
13709TIP3    H141084   1.942   5.755   3.175
13709TIP3    H241085   1.911   5.608   3.190
13710TIP3   OH241086   7.039   1.621   2.274
13710TIP3    H141087   7.092   1.700   2.281
13710TIP3    H241088   6.958   1.641   2.320
13711TIP3   OH241089   1.607   6.593   5.974
13711TIP3    H141090   1.520   6.604   6.014
13711TIP3    H241091   1.632   6.504   5.997
13712TIP3   OH241092   6.640   5.570   0.491
13712TIP3    H141093   6.680   5.619   0.562
13712TIP3    H241094   6.590   5.501   0.535
13713TIP3   OH241095   1.916   5.405   1.314
13713TIP3    H141096   1.989   5.454   1.279
13713TIP3    H241097   1.950   5.316   1.327
13714TIP3   OH241098   3.489   7.502   0.458
13714TIP3    H141099   3.427   7.437   0.423
13714TIP3    H241100   3.442   7.585   0.451
13715TIP3   OH241101   3.874   1.283   4.084
13715TIP3    H141102   3.909   1.317   4.167
13715TIP3    H241103   3.864   1.361   4.029
13716TIP3   OH241104   4.364   7.195   5.615
13716TIP3    H141105   4.342   7.267   5.674
13716TIP3    H241106   4.288   7.189   5.556
13717TIP3   OH241107   4.089   0.674   3.409
13717TIP3    H141108   4.173   0.649   3.372
13717TIP3    H241109   4.090   0.770   3.409
13718TIP3   OH241110   0.927   6.507   2.485
13718TIP3    H141111   0.831   6.510   2.489
13718TIP3    H241112   0.955   6.506   2.577
13719TIP3   OH241113   7.264   2.699   1.305
13719TIP3    H141114   7.284   2.788   1.276
13719TIP3    H241115   7.242   2.653   1.224
13720TIP3   OH241116   0.530   6.583   3.030
13720TIP3    H141117   0.621   6.611   3.020
13720TIP3    H241118   0.495   6.639   3.100
13721TIP3   OH241119   8.108   2.610   6.322
13721TIP3    H141120   8.198   2.601   6.354
13721TIP3    H241121   8.116   2.672   6.249
13722TIP3   OH241122   5.436   3.853   6.582
13722TIP3    H141123   5.463   3.935   6.541
13722TIP3    H241124   5.357   3.875   6.631
13723TIP3   OH241125   8.124   7.192   0.348
13723TIP3    H141126   8.152   7.195   0.440
13723TIP3    H241127   8.123   7.284   0.320
13724TIP3   OH241128   6.474   1.738   3.584
13724TIP3    H141129   6.404   1.675   3.599
13724TIP3    H241130   6.526   1.734   3.664
13725TIP3   OH241131   0.090   1.519   4.794
13725TIP3    H141132   0.120   1.588   4.734
13725TIP3    H241133  -0.001   1.502   4.767
13726TIP3   OH241134   6.887   1.981   5.529
13726TIP3    H141135   6.793   1.979   5.544
13726TIP3    H241136   6.896   1.993   5.434
13727TIP3   OH241137   2.784   2.235   4.914
13727TIP3    H141138   2.783   2.290   4.836
13727TIP3    H241139   2.839   2.283   4.976
13728TIP3   OH241140   4.317   6.116   3.462
13728TIP3    H141141   4.381   6.046   3.477
13728TIP3    H241142   4.250   6.101   3.530
13729TIP3   OH241143   3.969   0.801   4.609
13729TIP3    H141144   3.989   0.892   4.630
13729TIP3    H241145   4.007   0.787   4.522
13730TIP3   OH241146   1.685   7.607   3.421
13730TIP3    H141147   1.690   7.638   3.511
13730TIP3    H241148   1.596   7.573   3.413
13731TIP3   OH241149   0.166   0.291   2.047
13731TIP3    H141150   0.155   0.201   2.015
13731TIP3    H241151   0.082   0.334   2.027
13732TIP3   OH241152   4.826   5.866   5.233
13732TIP3    H141153   4.921   5.857   5.232
13732TIP3    H241154   4.794   5.794   5.179
13733TIP3   OH241155   5.750   7.273   0.224
13733TIP3    H141156   5.704   7.339   0.172
13733TIP3    H241157   5.693   7.257   0.299
13734TIP3   OH241158   7.446   6.405   6.791
13734TIP3    H141159   7.492   6.362   6.863
13734TIP3    H241160   7.513   6.455   6.746
13735TIP3   OH241161   6.351   3.044   4.007
13735TIP3    H141162   6.394   2.996   3.936
13735TIP3    H241163   6.369   3.136   3.989
13736TIP3   OH241164   7.866   4.415   0.034
13736TIP3    H141165   7.936   4.391  -0.027
13736TIP3    H241166   7.824   4.332   0.057
13737TIP3   OH241167   0.630   4.844   4.637
13737TIP3    H141168   0.689   4.848   4.561
13737TIP3    H241169   0.665   4.911   4.697
13738TIP3   OH241170   0.040   6.190   4.584
13738TIP3    H141171  -0.043   6.224   4.548
13738TIP3    H241172   0.024   6.096   4.595
13739TIP3   OH241173   4.388   3.608   2.290
13739TIP3    H141174   4.476   3.576   2.308
13739TIP3    H241175   4.335   3.579   2.364
13740TIP3   OH241176   0.356   4.231   4.484
13740TIP3    H141177   0.383   4.203   4.572
13740TIP3    H241178   0.351   4.150   4.434
13741TIP3   OH241179   1.005   0.990   0.838
13741TIP3    H141180   1.068   1.049   0.880
13741TIP3    H241181   1.056   0.913   0.815
13742TIP3   OH241182   0.237   4.430   2.391
13742TIP3    H141183   0.201   4.490   2.457
13742TIP3    H241184   0.268   4.355   2.441
13743TIP3   OH241185   8.040   6.098   5.855
13743TIP3    H141186   8.130   6.093   5.823
13743TIP3    H241187   8.029   6.189   5.883
13744TIP3   OH241188   2.193   5.133   5.386
13744TIP3    H141189   2.237   5.124   5.470
13744TIP3    H241190   2.110   5.086   5.397
13745TIP3   OH241191   7.102   6.701   3.695
13745TIP3    H141192   7.054   6.780   3.670
13745TIP3    H241193   7.046   6.629   3.666
13746TIP3   OH241194   0.737   0.214   3.952
13746TIP3    H141195   0.793   0.158   3.898
13746TIP3    H241196   0.649   0.179   3.940
13747TIP3   OH241197   7.036   4.720   2.899
13747TIP3    H141198   7.073   4.642   2.939
13747TIP3    H241199   7.088   4.732   2.819
13748TIP3   OH241200   7.457   5.369   0.414
13748TIP3    H141201   7.518   5.400   0.481
13748TIP3    H241202   7.474   5.425   0.339
13749TIP3   OH241203   0.541   3.778   2.226
13749TIP3    H141204   0.541   3.809   2.316
13749TIP3    H241205   0.507   3.851   2.175
13750TIP3   OH241206   6.914   5.082   5.911
13750TIP3    H141207   6.942   5.000   5.869
13750TIP3    H241208   6.959   5.083   5.995
13751TIP3   OH241209   4.440   1.060   1.059
13751TIP3    H141210   4.441   1.002   0.983
13751TIP3    H241211   4.363   1.115   1.048
13752TIP3   OH241212   5.683   5.636   0.514
13752TIP3    H141213   5.633   5.557   0.532
13752TIP3    H241214   5.622   5.693   0.468
13753TIP3   OH241215   5.809   3.947   0.205
13753TIP3    H141216   5.815   4.024   0.262
13753TIP3    H241217   5.772   3.879   0.262
13754TIP3   OH241218   1.210   2.031   5.218
13754TIP3    H141219   1.170   2.092   5.280
13754TIP3    H241220   1.297   2.014   5.254
13755TIP3   OH241221   0.543   1.977   0.482
13755TIP3    H141222   0.580   2.057   0.521
13755TIP3    H241223   0.527   1.920   0.557
13756TIP3   OH241224   6.363   1.796   5.207
13756TIP3    H141225   6.398   1.731   5.268
13756TIP3    H241226   6.276   1.763   5.184
13757TIP3   OH241227   4.412   4.743   0.029
13757TIP3    H141228   4.487   4.728  -0.030
13757TIP3    H241229   4.416   4.671   0.092
13758TIP3   OH241230   3.170   3.056   2.418
13758TIP3    H141231   3.218   3.120   2.471
13758TIP3    H241232   3.114   3.010   2.481
13759TIP3   OH241233   4.306   4.282   5.651
13759TIP3    H141234   4.268   4.350   5.595
13759TIP3    H241235   4.343   4.329   5.725
13760TIP3   OH241236   3.602   5.309   1.229
13760TIP3    H141237   3.673   5.370   1.210
13760TIP3    H241238   3.644   5.236   1.273
13761TIP3   OH241239   1.598   3.576   1.935
13761TIP3    H141240   1.640   3.635   1.999
13761TIP3    H241241   1.513   3.555   1.974
13762TIP3   OH241242   3.984   3.440   3.885
13762TIP3    H141243   3.914   3.438   3.950
13762TIP3    H241244   3.944   3.405   3.805
13763TIP3   OH241245   2.156   0.470   0.135
13763TIP3    H141246   2.087   0.406   0.117
13763TIP3    H241247   2.111   0.543   0.178
13764TIP3   OH241248   6.667   7.064   6.096
13764TIP3    H141249   6.654   7.014   6.016
13764TIP3    H241250   6.760   7.056   6.115
13765TIP3   OH241251   2.559   5.315   1.879
13765TIP3    H141252   2.630   5.278   1.828
13765TIP3    H241253   2.549   5.255   1.953
13766TIP3   OH241254   0.901   3.641   1.414
13766TIP3    H141255   0.836   3.703   1.445
13766TIP3    H241256   0.917   3.667   1.323
13767TIP3   OH241257   4.185   3.876   1.102
13767TIP3    H141258   4.101   3.920   1.116
13767TIP3    H241259   4.238   3.941   1.056
13768TIP3   OH241260   6.038   1.007   6.703
13768TIP3    H141261   6.056   0.934   6.763
13768TIP3    H241262   5.943   1.016   6.704
13769TIP3   OH241263   0.267   0.985   5.888
13769TIP3    H141264   0.252   0.892   5.904
13769TIP3    H241265   0.224   1.030   5.961
13770TIP3   OH241266   6.416   5.902   3.772
13770TIP3    H141267   6.473   5.970   3.735
13770TIP3    H241268   6.330   5.944   3.779
13771TIP3   OH241269   5.964   0.424   5.221
13771TIP3    H141270   5.995   0.503   5.266
13771TIP3    H241271   5.962   0.449   5.128
13772TIP3   OH241272   1.724   1.853   0.461
13772TIP3    H141273   1.685   1.861   0.548
13772TIP3    H241274   1.749   1.942   0.437
13773TIP3   OH241275   4.976   4.284   1.558
13773TIP3    H141276   5.048   4.285   1.622
13773TIP3    H241277   4.906   4.334   1.600
13774TIP3   OH241278   2.438   2.472   1.526
13774TIP3    H141279   2.503   2.535   1.558
13774TIP3    H241280   2.359   2.525   1.513
13775TIP3   OH241281   5.401   0.520   4.688
13775TIP3    H141282   5.367   0.431   4.690
13775TIP3    H241283   5.327   0.575   4.712
13776TIP3   OH241284   2.854   2.941   5.898
13776TIP3    H141285   2.801   2.906   5.969
13776TIP3    H241286   2.901   3.015   5.936
13777TIP3   OH241287   7.719   4.789   3.648
13777TIP3    H141288   7.787   4.829   3.703
13777TIP3    H241289   7.647   4.769   3.708
13778TIP3   OH241290   4.585   3.957   6.260
13778TIP3    H141291   4.507   3.919   6.221
13778TIP3    H241292   4.575   4.052   6.247
13779TIP3   OH241293   3.051   5.778   4.380
13779TIP3    H141294   3.029   5.858   4.429
13779TIP3    H241295   2.980   5.768   4.317
13780TIP3   OH241296   1.983   2.075   4.372
13780TIP3    H141297   2.005   2.168   4.376
13780TIP3    H241298   2.051   2.032   4.423
13781TIP3   OH241299   6.930   3.365   1.930
13781TIP3    H141300   7.012   3.332   1.895
13781TIP3    H241301   6.928   3.333   2.021
13782TIP3   OH241302   2.389   7.689   3.890
13782TIP3    H141303   2.439   7.631   3.948
13782TIP3    H241304   2.452   7.719   3.825
13783TIP3   OH241305   4.577   3.684   0.360
13783TIP3    H141306   4.522   3.756   0.391
13783TIP3    H241307   4.567   3.617   0.428
13784TIP3   OH241308   1.765   5.052   2.675
13784TIP3    H141309   1.802   5.141   2.680
13784TIP3    H241310   1.820   5.007   2.611
13785TIP3   OH241311   3.104   2.245   3.457
13785TIP3    H141312   3.010   2.228   3.461
13785TIP3    H241313   3.124   2.246   3.363
13786TIP3   OH241314   3.983   3.584   2.811
13786TIP3    H141315   3.901   3.564   2.857
13786TIP3    H241316   3.963   3.662   2.760
13787TIP3   OH241317   3.562   3.740   0.296
13787TIP3    H141318   3.491   3.692   0.254
13787TIP3    H241319   3.534   3.832   0.292
13788TIP3   OH241320   8.094   0.416   3.205
13788TIP3    H141321   8.112   0.322   3.196
13788TIP3    H241322   8.111   0.435   3.297
13789TIP3   OH241323   5.856   3.116   6.746
13789TIP3    H141324   5.803   3.086   6.672
13789TIP3    H241325   5.900   3.195   6.714
13790TIP3   OH241326   1.328   7.609   0.333
13790TIP3    H141327   1.399   7.671   0.349
13790TIP3    H241328   1.291   7.637   0.250
13791TIP3   OH241329   0.954   6.154   3.974
13791TIP3    H141330   0.983   6.234   4.018
13791TIP3    H241331   0.959   6.175   3.881
13792TIP3   OH241332   6.625   4.642   4.461
13792TIP3    H141333   6.574   4.611   4.386
13792TIP3    H241334   6.710   4.599   4.452
13793TIP3   OH241335   7.531   2.389   4.240
13793TIP3    H141336   7.589   2.434   4.178
13793TIP3    H241337   7.475   2.458   4.275
13794TIP3   OH241338   1.621   3.675   4.374
13794TIP3    H141339   1.707   3.632   4.373
13794TIP3    H241340   1.576   3.640   4.297
13795TIP3   OH241341   0.970   1.153   2.628
13795TIP3    H141342   0.891   1.101   2.613
13795TIP3    H241343   0.994   1.185   2.541
13796TIP3   OH241344   2.821   7.027   6.411
13796TIP3    H141345   2.842   6.942   6.452
13796TIP3    H241346   2.895   7.043   6.352
13797TIP3   OH241347   5.096   6.454   0.629
13797TIP3    H141348   5.102   6.359   0.642
13797TIP3    H241349   5.105   6.490   0.717
13798TIP3   OH241350   0.476   6.900   5.660
13798TIP3    H141351   0.459   6.863   5.573
13798TIP3    H241352   0.440   6.989   5.655
13799TIP3   OH241353   4.163   6.379   3.782
13799TIP3    H141354   4.239   6.404   3.729
13799TIP3    H241355   4.198   6.317   3.846
13800TIP3   OH241356   4.928   3.033   5.484
13800TIP3    H141357   4.899   3.023   5.393
13800TIP3    H241358   4.930   3.127   5.498
13801TIP3   OH241359   8.287   1.192   5.847
13801TIP3    H141360   8.315   1.173   5.937
13801TIP3    H241361   8.261   1.106   5.812
13802TIP3   OH241362   7.287   1.505   5.301
13802TIP3    H141363   7.370   1.513   5.347
13802TIP3    H241364   7.289   1.574   5.235
13803TIP3   OH241365   4.448   5.476   3.060
13803TIP3    H141366   4.403   5.408   3.009
13803TIP3    H241367   4.494   5.528   2.995
13804TIP3   OH241368   3.043   2.643   0.518
13804TIP3    H141369   2.989   2.651   0.597
13804TIP3    H241370   3.109   2.712   0.526
13805TIP3   OH241371   1.409   5.161   4.754
13805TIP3    H141372   1.396   5.233   4.816
13805TIP3    H241373   1.391   5.200   4.668
13806TIP3   OH241374   2.105   7.687   0.167
13806TIP3    H141375   2.010   7.688   0.177
13806TIP3    H241376   2.139   7.697   0.256
13807TIP3   OH241377   7.639   4.116   3.501
13807TIP3    H141378   7.647   4.211   3.492
13807TIP3    H241379   7.638   4.084   3.411
13808TIP3   OH241380   7.032   6.913   3.360
13808TIP3    H141381   7.103   6.889   3.300
13808TIP3    H241382   7.076   6.955   3.434
13809TIP3   OH241383   6.283   3.774   3.239
13809TIP3    H141384   6.361   3.802   3.190
13809TIP3    H241385   6.302   3.684   3.265
13810TIP3   OH241386   6.380   0.230   3.860
13810TIP3    H141387   6.321   0.167   3.816
13810TIP3    H241388   6.413   0.182   3.935
13811TIP3   OH241389   0.140   6.161   3.740
13811TIP3    H141390   0.114   6.077   3.702
13811TIP3    H241391   0.167   6.214   3.665
13812TIP3   OH241392   4.900   3.579   5.812
13812TIP3    H141393   4.904   3.670   5.840
13812TIP3    H241394   4.889   3.583   5.717
13813TIP3   OH241395   7.219   3.504   4.068
13813TIP3    H141396   7.187   3.423   4.028
13813TIP3    H241397   7.156   3.571   4.041
13814TIP3   OH241398   8.184   3.178   5.156
13814TIP3    H141399   8.236   3.102   5.182
13814TIP3    H241400   8.230   3.253   5.193
13815TIP3   OH241401   2.131   6.705   5.777
13815TIP3    H141402   2.059   6.678   5.720
13815TIP3    H241403   2.173   6.778   5.731
13816TIP3   OH241404   1.826   3.262   1.708
13816TIP3    H141405   1.866   3.280   1.623
13816TIP3    H241406   1.892   3.209   1.754
13817TIP3   OH241407   3.550   1.512   3.734
13817TIP3    H141408   3.516   1.577   3.796
13817TIP3    H241409   3.643   1.505   3.756
13818TIP3   OH241410   6.190   6.175   2.613
13818TIP3    H141411   6.256   6.242   2.635
13818TIP3    H241412   6.161   6.199   2.525
13819TIP3   OH241413   4.757   1.411   0.357
13819TIP3    H141414   4.716   1.497   0.348
13819TIP3    H241415   4.734   1.365   0.276
13820TIP3   OH241416   0.949   0.334   5.453
13820TIP3    H141417   0.927   0.242   5.460
13820TIP3    H241418   0.898   0.366   5.379
13821TIP3   OH241419   0.812   7.048   5.123
13821TIP3    H141420   0.844   7.124   5.074
13821TIP3    H241421   0.804   6.979   5.057
13822TIP3   OH241422   7.061   0.969   3.116
13822TIP3    H141423   7.121   1.026   3.069
13822TIP3    H241424   7.061   1.001   3.206
13823TIP3   OH241425   2.668   7.478   4.765
13823TIP3    H141426   2.758   7.493   4.734
13823TIP3    H241427   2.659   7.382   4.765
13824TIP3   OH241428   2.014   7.398   3.270
13824TIP3    H141429   1.963   7.402   3.351
13824TIP3    H241430   1.956   7.432   3.203
13825TIP3   OH241431   1.454   0.121   3.085
13825TIP3    H141432   1.450   0.042   3.032
13825TIP3    H241433   1.497   0.094   3.166
13826TIP3   OH241434   2.310   5.610   0.700
13826TIP3    H141435   2.294   5.698   0.666
13826TIP3    H241436   2.392   5.582   0.658
13827TIP3   OH241437   6.978   3.606   6.773
13827TIP3    H141438   7.072   3.591   6.779
13827TIP3    H241439   6.970   3.701   6.758
13828TIP3   OH241440   4.634   0.066   5.203
13828TIP3    H141441   4.566   0.024   5.150
13828TIP3    H241442   4.592   0.085   5.287
13829TIP3   OH241443   1.596   6.410   1.973
13829TIP3    H141444   1.675   6.452   2.006
13829TIP3    H241445   1.628   6.337   1.921
13830TIP3   OH241446   2.916   6.762   6.058
13830TIP3    H141447   2.884   6.690   6.113
13830TIP3    H241448   3.009   6.745   6.048
13831TIP3   OH241449   7.401   3.387   5.326
13831TIP3    H141450   7.390   3.310   5.271
13831TIP3    H241451   7.410   3.352   5.415
13832TIP3   OH241452   2.882   5.651   4.841
13832TIP3    H141453   2.895   5.606   4.757
13832TIP3    H241454   2.892   5.582   4.906
13833TIP3   OH241455   0.472   6.983   4.391
13833TIP3    H141456   0.552   6.935   4.412
13833TIP3    H241457   0.444   7.021   4.474
13834TIP3   OH241458   4.401   2.653   5.297
13834TIP3    H141459   4.378   2.586   5.233
13834TIP3    H241460   4.383   2.613   5.382
13835TIP3   OH241461   8.323   7.320   1.894
13835TIP3    H141462   8.394   7.322   1.829
13835TIP3    H241463   8.253   7.273   1.850
13836TIP3   OH241464   4.522   7.196   1.272
13836TIP3    H141465   4.493   7.127   1.212
13836TIP3    H241466   4.615   7.208   1.252
13837TIP3   OH241467   0.427   3.902   0.075
13837TIP3    H141468   0.334   3.896   0.054
13837TIP3    H241469   0.431   3.900   0.171
13838TIP3   OH241470   3.402   6.572   5.635
13838TIP3    H141471   3.460   6.647   5.649
13838TIP3    H241472   3.327   6.588   5.692
13839TIP3   OH241473   4.516   7.038   2.651
13839TIP3    H141474   4.515   7.009   2.742
13839TIP3    H241475   4.423   7.038   2.626
13840TIP3   OH241476   0.307   2.894   4.128
13840TIP3    H141477   0.349   2.839   4.062
13840TIP3    H241478   0.214   2.873   4.121
13841TIP3   OH241479   7.521   0.893   1.919
13841TIP3    H141480   7.472   0.976   1.921
13841TIP3    H241481   7.537   0.874   2.012
13842TIP3   OH241482   3.347   3.993   3.823
13842TIP3    H141483   3.379   4.053   3.756
13842TIP3    H241484   3.258   3.973   3.797
13843TIP3   OH241485   2.274   6.242   4.803
13843TIP3    H141486   2.363   6.260   4.833
13843TIP3    H241487   2.245   6.324   4.762
13844TIP3   OH241488   0.440   5.879   3.168
13844TIP3    H141489   0.405   5.793   3.148
13844TIP3    H241490   0.533   5.864   3.185
13845TIP3   OH241491   2.768   4.419   1.951
13845TIP3    H141492   2.759   4.493   2.011
13845TIP3    H241493   2.739   4.343   2.001
13846TIP3   OH241494   0.798   4.584   1.759
13846TIP3    H141495   0.747   4.645   1.813
13846TIP3    H241496   0.874   4.635   1.731
13847TIP3   OH241497   0.186   6.111   2.341
13847TIP3    H141498   0.151   6.114   2.252
13847TIP3    H241499   0.155   6.027   2.375
13848TIP3   OH241500   1.898   0.173   6.357
13848TIP3    H141501   1.956   0.125   6.416
13848TIP3    H241502   1.954   0.241   6.319
13849TIP3   OH241503   0.643   7.169   5.876
13849TIP3    H141504   0.638   7.205   5.787
13849TIP3    H241505   0.682   7.082   5.864
13850TIP3   OH241506   7.375   1.613   0.509
13850TIP3    H141507   7.394   1.687   0.452
13850TIP3    H241508   7.315   1.648   0.575
13851TIP3   OH241509   2.542   2.814   6.610
13851TIP3    H141510   2.525   2.730   6.653
13851TIP3    H241511   2.619   2.849   6.654
13852TIP3   OH241512   6.836   1.572   3.709
13852TIP3    H141513   6.834   1.545   3.801
13852TIP3    H241514   6.793   1.500   3.662
13853TIP3   OH241515   0.212   6.587   3.896
13853TIP3    H141516   0.126   6.592   3.854
13853TIP3    H241517   0.218   6.498   3.928
13854TIP3   OH241518   6.172   4.448   1.684
13854TIP3    H141519   6.142   4.521   1.737
13854TIP3    H241520   6.169   4.480   1.594
13855TIP3   OH241521   5.032   1.858   3.756
13855TIP3    H141522   5.051   1.877   3.848
13855TIP3    H241523   4.964   1.922   3.733
13856TIP3   OH241524   7.365   4.244   0.724
13856TIP3    H141525   7.294   4.278   0.669
13856TIP3    H241526   7.325   4.234   0.810
13857TIP3   OH241527   4.140   3.970   5.113
13857TIP3    H141528   4.223   4.011   5.138
13857TIP3    H241529   4.073   4.032   5.142
13858TIP3   OH241530   0.518   2.618   1.370
13858TIP3    H141531   0.430   2.592   1.342
13858TIP3    H241532   0.545   2.549   1.430
13859TIP3   OH241533   6.312   2.411   4.206
13859TIP3    H141534   6.372   2.412   4.132
13859TIP3    H241535   6.352   2.353   4.270
13860TIP3   OH241536   4.172   1.619   1.498
13860TIP3    H141537   4.187   1.575   1.414
13860TIP3    H241538   4.129   1.701   1.475
13861TIP3   OH241539   4.125   7.838   2.219
13861TIP3    H141540   4.211   7.807   2.191
13861TIP3    H241541   4.071   7.759   2.220
13862TIP3   OH241542   2.757   2.672   3.826
13862TIP3    H141543   2.819   2.644   3.893
13862TIP3    H241544   2.744   2.765   3.842
13863TIP3   OH241545   0.446   3.486   3.305
13863TIP3    H141546   0.419   3.421   3.239
13863TIP3    H241547   0.493   3.553   3.256
13864TIP3   OH241548   0.236   5.450   2.674
13864TIP3    H141549   0.296   5.435   2.747
13864TIP3    H241550   0.262   5.386   2.608
13865TIP3   OH241551   3.314   4.742   3.981
13865TIP3    H141552   3.303   4.709   4.070
13865TIP3    H241553   3.258   4.685   3.928
13866TIP3   OH241554   1.846   5.447   3.261
13866TIP3    H141555   1.846   5.482   3.350
13866TIP3    H241556   1.767   5.393   3.256
13867TIP3   OH241557   4.878   5.115   6.722
13867TIP3    H141558   4.863   5.109   6.816
13867TIP3    H241559   4.790   5.110   6.684
13868TIP3   OH241560   1.315   6.831   2.543
13868TIP3    H141561   1.324   6.887   2.466
13868TIP3    H241562   1.240   6.776   2.523
13869TIP3   OH241563   1.672   0.650   4.206
13869TIP3    H141564   1.668   0.694   4.122
13869TIP3    H241565   1.581   0.629   4.227
13870TIP3   OH241566   6.442   0.632   5.522
13870TIP3    H141567   6.531   0.604   5.547
13870TIP3    H241568   6.421   0.701   5.585
13871TIP3   OH241569   3.123   1.497   1.535
13871TIP3    H141570   3.215   1.474   1.527
13871TIP3    H241571   3.115   1.581   1.490
13872TIP3   OH241572   5.745   3.775   0.418
13872TIP3    H141573   5.667   3.733   0.381
13872TIP3    H241574   5.717   3.804   0.505
13873TIP3   OH241575   1.673   5.367   1.135
13873TIP3    H141576   1.766   5.383   1.123
13873TIP3    H241577   1.655   5.395   1.225
13874TIP3   OH241578   3.346   2.239   0.914
13874TIP3    H141579   3.405   2.266   0.844
13874TIP3    H241580   3.344   2.314   0.974
13875TIP3   OH241581   5.533   2.058   5.584
13875TIP3    H141582   5.474   2.022   5.650
13875TIP3    H241583   5.480   2.124   5.539
13876TIP3   OH241584   3.572   5.756   2.720
13876TIP3    H141585   3.508   5.722   2.782
13876TIP3    H241586   3.633   5.684   2.707
13877TIP3   OH241587   3.112   6.743   4.598
13877TIP3    H141588   3.076   6.748   4.509
13877TIP3    H241589   3.186   6.804   4.597
13878TIP3   OH241590   8.152   3.473   1.320
13878TIP3    H141591   8.116   3.560   1.302
13878TIP3    H241592   8.123   3.420   1.246
13879TIP3   OH241593   5.515   7.751   2.538
13879TIP3    H141594   5.534   7.670   2.491
13879TIP3    H241595   5.446   7.794   2.485
13880TIP3   OH241596   2.285   0.475   6.080
13880TIP3    H141597   2.353   0.518   6.028
13880TIP3    H241598   2.202   0.506   6.041
13881TIP3   OH241599   7.337   4.550   0.521
13881TIP3    H141600   7.390   4.622   0.487
13881TIP3    H241601   7.344   4.482   0.455
13882TIP3   OH241602   6.620   6.500   5.571
13882TIP3    H141603   6.532   6.521   5.602
13882TIP3    H241604   6.613   6.497   5.476
13883TIP3   OH241605   7.541   5.246   1.176
13883TIP3    H141606   7.512   5.338   1.175
13883TIP3    H241607   7.598   5.240   1.253
13884TIP3   OH241608   1.631   6.386   5.288
13884TIP3    H141609   1.592   6.397   5.201
13884TIP3    H241610   1.572   6.433   5.347
13885TIP3   OH241611   3.108   3.862   0.013
13885TIP3    H141612   3.174   3.812   0.061
13885TIP3    H241613   3.045   3.796  -0.018
13886TIP3   OH241614   2.019   3.498   1.612
13886TIP3    H141615   1.961   3.513   1.687
13886TIP3    H241616   1.983   3.555   1.543
13887TIP3   OH241617   5.833   2.908   3.252
13887TIP3    H141618   5.786   2.910   3.335
13887TIP3    H241619   5.891   2.832   3.260
13888TIP3   OH241620   5.190   6.454   5.625
13888TIP3    H141621   5.103   6.422   5.651
13888TIP3    H241622   5.244   6.440   5.702
13889TIP3   OH241623   0.271   3.126   3.306
13889TIP3    H141624   0.327   3.058   3.268
13889TIP3    H241625   0.278   3.200   3.245
13890TIP3   OH241626   4.951   4.063   5.690
13890TIP3    H141627   5.000   4.055   5.607
13890TIP3    H241628   4.863   4.088   5.663
13891TIP3   OH241629   1.975   1.800   2.486
13891TIP3    H141630   1.885   1.815   2.457
13891TIP3    H241631   1.967   1.733   2.554
13892TIP3   OH241632   0.984   3.845   4.599
13892TIP3    H141633   0.950   3.761   4.629
13892TIP3    H241634   0.973   3.903   4.675
13893TIP3   OH241635   0.385   5.973   2.631
13893TIP3    H141636   0.377   5.949   2.539
13893TIP3    H241637   0.352   5.897   2.679
13894TIP3   OH241638   6.265   1.123   1.940
13894TIP3    H141639   6.238   1.186   1.874
13894TIP3    H241640   6.328   1.066   1.895
13895TIP3   OH241641   7.884   5.403   5.702
13895TIP3    H141642   7.950   5.418   5.770
13895TIP3    H241643   7.932   5.417   5.620
13896TIP3   OH241644   6.178   1.178   0.184
13896TIP3    H141645   6.094   1.196   0.142
13896TIP3    H241646   6.156   1.129   0.263
13897TIP3   OH241647   1.615   5.910   0.498
13897TIP3    H141648   1.601   5.933   0.406
13897TIP3    H241649   1.618   5.815   0.499
13898TIP3   OH241650   0.146   0.347   3.115
13898TIP3    H141651   0.074   0.338   3.052
13898TIP3    H241652   0.196   0.265   3.105
13899TIP3   OH241653   7.646   6.448   4.378
13899TIP3    H141654   7.674   6.358   4.364
13899TIP3    H241655   7.727   6.498   4.387
13900TIP3   OH241656   0.084   2.293   2.948
13900TIP3    H141657   0.166   2.322   2.906
13900TIP3    H241658   0.106   2.208   2.987
13901TIP3   OH241659   1.607   0.015   1.517
13901TIP3    H141660   1.514   0.007   1.494
13901TIP3    H241661   1.636   0.096   1.474
13902TIP3   OH241662   2.478   7.085   5.648
13902TIP3    H141663   2.419   7.160   5.638
13902TIP3    H241664   2.445   7.038   5.724
13903TIP3   OH241665   2.348   4.427   2.671
13903TIP3    H141666   2.328   4.510   2.713
13903TIP3    H241667   2.263   4.389   2.649
13904TIP3   OH241668   2.898   3.280   3.398
13904TIP3    H141669   2.946   3.205   3.364
13904TIP3    H241670   2.862   3.251   3.482
13905TIP3   OH241671   0.777   6.549   3.417
13905TIP3    H141672   0.839   6.482   3.390
13905TIP3    H241673   0.810   6.630   3.377
13906TIP3   OH241674   3.161   6.165   6.767
13906TIP3    H141675   3.193   6.089   6.718
13906TIP3    H241676   3.176   6.239   6.709
13907TIP3   OH241677   3.995   1.220   6.771
13907TIP3    H141678   4.011   1.135   6.812
13907TIP3    H241679   4.048   1.281   6.822
13908TIP3   OH241680   3.631   3.383   5.538
13908TIP3    H141681   3.674   3.380   5.453
13908TIP3    H241682   3.553   3.329   5.528
13909TIP3   OH241683   5.578   2.780   1.378
13909TIP3    H141684   5.543   2.863   1.347
13909TIP3    H241685   5.578   2.787   1.473
13910TIP3   OH241686   0.475   4.150   1.140
13910TIP3    H141687   0.569   4.155   1.120
13910TIP3    H241688   0.471   4.117   1.229
13911TIP3   OH241689   2.638   4.318   0.835
13911TIP3    H141690   2.627   4.364   0.918
13911TIP3    H241691   2.596   4.375   0.770
13912TIP3   OH241692   4.877   0.167   5.143
13912TIP3    H141693   4.804   0.132   5.194
13912TIP3    H241694   4.897   0.098   5.080
13913TIP3   OH241695   0.749   2.568   1.857
13913TIP3    H141696   0.728   2.635   1.791
13913TIP3    H241697   0.845   2.567   1.859
13914TIP3   OH241698   0.666   2.841   1.448
13914TIP3    H141699   0.677   2.872   1.358
13914TIP3    H241700   0.623   2.756   1.439
13915TIP3   OH241701   2.641   5.507   0.057
13915TIP3    H141702   2.735   5.517   0.070
13915TIP3    H241703   2.632   5.480  -0.034
13916TIP3   OH241704   5.227   0.165   1.861
13916TIP3    H141705   5.290   0.222   1.817
13916TIP3    H241706   5.194   0.107   1.792
13917TIP3   OH241707   2.228   5.686   1.365
13917TIP3    H141708   2.287   5.633   1.418
13917TIP3    H241709   2.177   5.737   1.428
13918TIP3   OH241710   6.642   3.955   0.428
13918TIP3    H141711   6.649   3.903   0.348
13918TIP3    H241712   6.569   3.916   0.475
13919TIP3   OH241713   3.951   0.420   5.311
13919TIP3    H141714   3.904   0.442   5.390
13919TIP3    H241715   3.973   0.327   5.321
13920TIP3   OH241716   7.807   3.509   1.279
13920TIP3    H141717   7.750   3.584   1.264
13920TIP3    H241718   7.866   3.537   1.349
13921TIP3   OH241719   7.942   0.565   5.548
13921TIP3    H141720   7.989   0.570   5.632
13921TIP3    H241721   7.906   0.476   5.547
13922TIP3   OH241722   0.605   3.264   4.800
13922TIP3    H141723   0.587   3.193   4.740
13922TIP3    H241724   0.525   3.317   4.800
13923TIP3   OH241725   3.234   7.391   2.072
13923TIP3    H141726   3.272   7.401   2.160
13923TIP3    H241727   3.140   7.401   2.085
13924TIP3   OH241728   1.328   3.769   3.128
13924TIP3    H141729   1.361   3.761   3.038
13924TIP3    H241730   1.336   3.862   3.148
13925TIP3   OH241731   2.699   7.804   3.177
13925TIP3    H141732   2.738   7.741   3.116
13925TIP3    H241733   2.762   7.808   3.249
13926TIP3   OH241734   3.107   1.025   1.789
13926TIP3    H141735   3.098   0.933   1.813
13926TIP3    H241736   3.193   1.031   1.746
13927TIP3   OH241737   0.005   5.904   4.311
13927TIP3    H141738   0.035   5.813   4.301
13927TIP3    H241739   0.057   5.953   4.248
13928TIP3   OH241740   5.902   2.996   0.265
13928TIP3    H141741   5.815   3.021   0.297
13928TIP3    H241742   5.956   3.073   0.279
13929TIP3   OH241743   2.325   7.314   5.693
13929TIP3    H141744   2.301   7.385   5.634
13929TIP3    H241745   2.407   7.344   5.734
13930TIP3   OH241746   7.530   5.934   2.848
13930TIP3    H141747   7.623   5.920   2.831
13930TIP3    H241748   7.496   5.969   2.765
13931TIP3   OH241749   1.150   7.735   4.282
13931TIP3    H141750   1.144   7.806   4.345
13931TIP3    H241751   1.226   7.683   4.311
13932TIP3   OH241752   8.298   3.389   3.279
13932TIP3    H141753   8.251   3.347   3.351
13932TIP3    H241754   8.288   3.328   3.206
13933TIP3   OH241755   2.699   5.779   5.181
13933TIP3    H141756   2.789   5.792   5.151
13933TIP3    H241757   2.647   5.777   5.101
13934TIP3   OH241758   2.821   7.650   2.402
13934TIP3    H141759   2.817   7.640   2.497
13934TIP3    H241760   2.789   7.739   2.386
13935TIP3   OH241761   0.964   3.790   2.169
13935TIP3    H141762   0.948   3.709   2.218
13935TIP3    H241763   1.034   3.767   2.108
13936TIP3   OH241764   1.677   6.130   1.367
13936TIP3    H141765   1.655   6.068   1.436
13936TIP3    H241766   1.693   6.212   1.412
13937TIP3   OH241767   0.517   0.910   5.738
13937TIP3    H141768   0.546   0.980   5.797
13937TIP3    H241769   0.422   0.917   5.739
13938TIP3   OH241770   5.237   5.224   3.318
13938TIP3    H141771   5.263   5.283   3.389
13938TIP3    H241772   5.148   5.198   3.341
13939TIP3   OH241773   3.377   1.305   3.757
13939TIP3    H141774   3.419   1.288   3.841
13939TIP3    H241775   3.425   1.380   3.721
13940TIP3   OH241776   6.653   0.128   6.410
13940TIP3    H141777   6.711   0.063   6.371
13940TIP3    H241778   6.632   0.093   6.497
13941TIP3   OH241779   4.672   0.555   3.676
13941TIP3    H141780   4.735   0.588   3.740
13941TIP3    H241781   4.589   0.555   3.722
13942TIP3   OH241782   4.842   3.838   5.285
13942TIP3    H141783   4.892   3.829   5.204
13942TIP3    H241784   4.806   3.927   5.281
13943TIP3   OH241785   2.090   6.001   1.774
13943TIP3    H141786   2.133   6.084   1.796
13943TIP3    H241787   2.037   5.980   1.851
13944TIP3   OH241788   4.461   0.578   5.772
13944TIP3    H141789   4.496   0.667   5.763
13944TIP3    H241790   4.535   0.526   5.802
13945TIP3   OH241791   1.959   2.168   2.255
13945TIP3    H141792   1.943   2.260   2.237
13945TIP3    H241793   1.888   2.122   2.209
13946TIP3   OH241794   5.331   1.096   1.241
13946TIP3    H141795   5.301   1.104   1.151
13946TIP3    H241796   5.397   1.163   1.251
13947TIP3   OH241797   5.625   1.827   2.100
13947TIP3    H141798   5.625   1.774   2.179
13947TIP3    H241799   5.630   1.763   2.028
13948TIP3   OH241800   1.850   2.090   2.895
13948TIP3    H141801   1.876   2.169   2.848
13948TIP3    H241802   1.757   2.102   2.914
13949TIP3   OH241803   3.513   2.046   2.190
13949TIP3    H141804   3.575   2.093   2.135
13949TIP3    H241805   3.501   2.103   2.267
13950TIP3   OH241806   4.130   1.614   1.997
13950TIP3    H141807   4.151   1.662   2.077
13950TIP3    H241808   4.035   1.615   1.993
13951TIP3   OH241809   4.703   3.268   4.521
13951TIP3    H141810   4.690   3.232   4.608
13951TIP3    H241811   4.649   3.347   4.519
13952TIP3   OH241812   0.243   3.445   5.789
13952TIP3    H141813   0.256   3.430   5.883
13952TIP3    H241814   0.332   3.458   5.754
13953TIP3   OH241815   0.100   7.349   3.483
13953TIP3    H141816   0.151   7.424   3.515
13953TIP3    H241817   0.010   7.382   3.478
13954TIP3   OH241818   3.805   3.666   4.861
13954TIP3    H141819   3.891   3.631   4.838
13954TIP3    H241820   3.748   3.639   4.789
13955TIP3   OH241821   2.840   3.475   6.506
13955TIP3    H141822   2.815   3.406   6.444
13955TIP3    H241823   2.764   3.484   6.564
13956TIP3   OH241824   6.561   0.422   4.368
13956TIP3    H141825   6.509   0.360   4.316
13956TIP3    H241826   6.506   0.500   4.372
13957TIP3   OH241827   0.951   7.744   2.332
13957TIP3    H141828   0.901   7.741   2.251
13957TIP3    H241829   1.026   7.687   2.317
13958TIP3   OH241830   6.591   1.708   1.090
13958TIP3    H141831   6.677   1.745   1.073
13958TIP3    H241832   6.571   1.733   1.180
13959TIP3   OH241833   1.692   0.418   2.195
13959TIP3    H141834   1.669   0.490   2.137
13959TIP3    H241835   1.768   0.448   2.243
13960TIP3   OH241836   4.941   7.699   1.947
13960TIP3    H141837   4.863   7.696   2.003
13960TIP3    H241838   5.007   7.743   2.001
13961TIP3   OH241839   7.872   1.101   1.271
13961TIP3    H141840   7.804   1.103   1.203
13961TIP3    H241841   7.823   1.110   1.353
13962TIP3   OH241842   4.038   7.728   0.063
13962TIP3    H141843   4.098   7.763  -0.002
13962TIP3    H241844   3.980   7.669   0.014
13963TIP3   OH241845   1.267   3.757   0.274
13963TIP3    H141846   1.176   3.766   0.301
13963TIP3    H241847   1.287   3.665   0.290
13964TIP3   OH241848   5.769   7.310   4.205
13964TIP3    H141849   5.778   7.291   4.112
13964TIP3    H241850   5.697   7.373   4.210
13965TIP3   OH241851   4.951   6.562   6.300
13965TIP3    H141852   4.971   6.646   6.259
13965TIP3    H241853   4.865   6.538   6.265
13966TIP3   OH241854   7.208   5.493   4.382
13966TIP3    H141855   7.282   5.542   4.347
13966TIP3    H241856   7.136   5.511   4.321
13967TIP3   OH241857   2.456   6.822   3.484
13967TIP3    H141858   2.516   6.752   3.461
13967TIP3    H241859   2.370   6.789   3.461
13968TIP3   OH241860   4.864   6.071   5.703
13968TIP3    H141861   4.772   6.046   5.696
13968TIP3    H241862   4.884   6.065   5.796
13969TIP3   OH241863   0.927   4.693   6.649
13969TIP3    H141864   0.995   4.664   6.710
13969TIP3    H241865   0.845   4.670   6.692
13970TIP3   OH241866   5.383   3.284   1.743
13970TIP3    H141867   5.456   3.234   1.708
13970TIP3    H241868   5.341   3.224   1.805
13971TIP3   OH241869   2.963   5.396   5.731
13971TIP3    H141870   2.901   5.373   5.800
13971TIP3    H241871   3.031   5.446   5.776
13972TIP3   OH241872   6.008   6.857   5.888
13972TIP3    H141873   6.007   6.776   5.939
13972TIP3    H241874   6.038   6.924   5.949
13973TIP3   OH241875   1.677   0.594   2.578
13973TIP3    H141876   1.631   0.589   2.662
13973TIP3    H241877   1.749   0.655   2.593
13974TIP3   OH241878   4.343   2.908   1.091
13974TIP3    H141879   4.308   2.840   1.149
13974TIP3    H241880   4.304   2.989   1.123
13975TIP3   OH241881   1.077   6.568   3.617
13975TIP3    H141882   1.110   6.638   3.561
13975TIP3    H241883   1.149   6.506   3.623
13976TIP3   OH241884   1.959   7.586   6.488
13976TIP3    H141885   1.943   7.680   6.486
13976TIP3    H241886   1.874   7.548   6.513
13977TIP3   OH241887   3.826   7.464   3.513
13977TIP3    H141888   3.921   7.467   3.499
13977TIP3    H241889   3.808   7.372   3.534
13978TIP3   OH241890   7.987   6.117   6.494
13978TIP3    H141891   7.961   6.027   6.472
13978TIP3    H241892   8.051   6.140   6.427
13979TIP3   OH241893   4.294   3.576   0.021
13979TIP3    H141894   4.321   3.518  -0.051
13979TIP3    H241895   4.318   3.529   0.100
13980TIP3   OH241896   2.930   6.252   1.775
13980TIP3    H141897   2.847   6.219   1.809
13980TIP3    H241898   2.995   6.223   1.839
13981TIP3   OH241899   5.631   3.719   2.965
13981TIP3    H141900   5.718   3.726   3.004
13981TIP3    H241901   5.628   3.791   2.901
13982TIP3   OH241902   2.712   6.146   1.524
13982TIP3    H141903   2.736   6.059   1.492
13982TIP3    H241904   2.766   6.158   1.602
13983TIP3   OH241905   1.335   5.183   5.075
13983TIP3    H141906   1.407   5.241   5.102
13983TIP3    H241907   1.378   5.101   5.052
13984TIP3   OH241908   7.228   4.432   0.209
13984TIP3    H141909   7.321   4.446   0.225
13984TIP3    H241910   7.195   4.516   0.179
13985TIP3   OH241911   1.441   0.857   2.188
13985TIP3    H141912   1.482   0.942   2.169
13985TIP3    H241913   1.433   0.855   2.283
13986TIP3   OH241914   8.268   3.251   5.503
13986TIP3    H141915   8.319   3.192   5.448
13986TIP3    H241916   8.177   3.227   5.484
13987TIP3   OH241917   1.718   5.955   6.104
13987TIP3    H141918   1.804   5.970   6.066
13987TIP3    H241919   1.727   5.874   6.154
13988TIP3   OH241920   1.012   1.440   0.714
13988TIP3    H141921   0.948   1.510   0.725
13988TIP3    H241922   1.058   1.463   0.633
13989TIP3   OH241923   0.188   6.559   5.843
13989TIP3    H141924   0.195   6.468   5.813
13989TIP3    H241925   0.140   6.604   5.774
13990TIP3   OH241926   2.762   5.329   4.561
13990TIP3    H141927   2.774   5.304   4.652
13990TIP3    H241928   2.844   5.305   4.518
13991TIP3   OH241929   2.253   6.327   0.367
13991TIP3    H141930   2.271   6.370   0.283
13991TIP3    H241931   2.338   6.327   0.413
13992TIP3   OH241932   6.664   7.417   4.663
13992TIP3    H141933   6.591   7.421   4.602
13992TIP3    H241934   6.674   7.507   4.695
13993TIP3   OH241935   7.228   5.968   0.998
13993TIP3    H141936   7.156   5.975   0.935
13993TIP3    H241937   7.241   6.057   1.030
13994TIP3   OH241938   0.097   3.499   5.567
13994TIP3    H141939   0.169   3.480   5.628
13994TIP3    H241940   0.082   3.417   5.522
13995TIP3   OH241941   3.861   7.098   0.340
13995TIP3    H141942   3.898   7.173   0.386
13995TIP3    H241943   3.896   7.022   0.387
13996TIP3   OH241944   5.666   5.436   2.103
13996TIP3    H141945   5.570   5.440   2.097
13996TIP3    H241946   5.696   5.474   2.020
13997TIP3   OH241947   5.488   1.191   5.195
13997TIP3    H141948   5.412   1.178   5.138
13997TIP3    H241949   5.467   1.141   5.274
13998TIP3   OH241950   3.392   5.934   3.470
13998TIP3    H141951   3.373   5.866   3.535
13998TIP3    H241952   3.409   5.886   3.389
13999TIP3   OH241953   3.300   6.377   2.200
13999TIP3    H141954   3.225   6.435   2.209
13999TIP3    H241955   3.280   6.303   2.257
14000TIP3   OH241956   2.419   2.013   1.090
14000TIP3    H141957   2.478   2.006   1.165
14000TIP3    H241958   2.414   1.924   1.055
14001TIP3   OH241959   4.733   0.478   0.124
14001TIP3    H141960   4.785   0.401   0.150
14001TIP3    H241961   4.729   0.532   0.203
14002TIP3   OH241962   0.926   3.915   3.781
14002TIP3    H141963   0.848   3.874   3.742
14002TIP3    H241964   0.995   3.900   3.717
14003TIP3   OH241965   1.289   0.324   2.862
14003TIP3    H141966   1.234   0.250   2.835
14003TIP3    H241967   1.378   0.290   2.859
14004TIP3   OH241968   7.727   6.901   5.400
14004TIP3    H141969   7.786   6.885   5.473
14004TIP3    H241970   7.737   6.824   5.344
14005TIP3   OH241971   4.930   4.594   4.303
14005TIP3    H141972   4.974   4.573   4.386
14005TIP3    H241973   4.906   4.686   4.312
14006TIP3   OH241974   6.061   0.257   5.009
14006TIP3    H141975   6.125   0.298   5.068
14006TIP3    H241976   6.045   0.171   5.048
14007TIP3   OH241977   3.985   0.263   0.457
14007TIP3    H141978   3.890   0.268   0.466
14007TIP3    H241979   4.014   0.208   0.529
14008TIP3   OH241980   3.843   5.228   0.146
14008TIP3    H141981   3.760   5.211   0.190
14008TIP3    H241982   3.896   5.150   0.162
14009TIP3   OH241983   7.622   3.709   1.322
14009TIP3    H141984   7.603   3.765   1.247
14009TIP3    H241985   7.672   3.764   1.382
14010TIP3   OH241986   8.129   1.166   4.801
14010TIP3    H141987   8.086   1.082   4.816
14010TIP3    H241988   8.060   1.222   4.765
14011TIP3   OH241989   0.567   4.979   1.682
14011TIP3    H141990   0.475   4.987   1.656
14011TIP3    H241991   0.571   4.898   1.732
14012TIP3   OH241992   5.229   4.917   5.736
14012TIP3    H141993   5.190   4.835   5.707
14012TIP3    H241994   5.157   4.964   5.778
14013TIP3   OH241995   8.081   3.834   1.745
14013TIP3    H141996   8.089   3.765   1.679
14013TIP3    H241997   8.167   3.838   1.786
14014TIP3   OH241998   1.479   7.411   3.229
14014TIP3    H141999   1.442   7.329   3.262
14014TIP3    H242000   1.404   7.469   3.218
14015TIP3   OH242001   6.649   3.826   4.477
14015TIP3    H142002   6.733   3.785   4.499
14015TIP3    H242003   6.668   3.920   4.479
14016TIP3   OH242004   4.639   6.039   6.539
14016TIP3    H142005   4.657   6.109   6.602
14016TIP3    H242006   4.665   5.959   6.584
14017TIP3   OH242007   5.090   0.239   6.181
14017TIP3    H142008   5.040   0.259   6.102
14017TIP3    H242009   5.063   0.150   6.205
14018TIP3   OH242010   4.680   0.385   4.181
14018TIP3    H142011   4.764   0.349   4.208
14018TIP3    H242012   4.663   0.344   4.096
14019TIP3   OH242013   1.411   2.562   0.392
14019TIP3    H142014   1.406   2.542   0.298
14019TIP3    H242015   1.328   2.606   0.411
14020TIP3   OH242016   3.983   6.095   4.553
14020TIP3    H142017   3.905   6.138   4.517
14020TIP3    H242018   3.997   6.136   4.638
14021TIP3   OH242019   6.271   3.756   2.877
14021TIP3    H142020   6.310   3.793   2.797
14021TIP3    H242021   6.324   3.792   2.948
14022TIP3   OH242022   1.383   0.710   3.269
14022TIP3    H142023   1.305   0.719   3.325
14022TIP3    H242024   1.429   0.634   3.305
14023TIP3   OH242025   6.153   0.392   6.121
14023TIP3    H142026   6.131   0.311   6.076
14023TIP3    H242027   6.141   0.373   6.214
14024TIP3   OH242028   6.420   3.588   0.614
14024TIP3    H142029   6.344   3.645   0.625
14024TIP3    H242030   6.442   3.558   0.702
14025TIP3   OH242031   2.284   0.880   6.715
14025TIP3    H142032   2.278   0.961   6.765
14025TIP3    H242033   2.217   0.888   6.647
14026TIP3   OH242034   6.307   5.578   1.725
14026TIP3    H142035   6.341   5.652   1.775
14026TIP3    H242036   6.212   5.595   1.720
14027TIP3   OH242037   8.259   3.806   6.697
14027TIP3    H142038   8.320   3.871   6.732
14027TIP3    H242039   8.313   3.750   6.641
14028TIP3   OH242040   3.067   0.910   3.374
14028TIP3    H142041   3.027   0.884   3.457
14028TIP3    H242042   3.138   0.970   3.399
14029TIP3   OH242043   2.120   1.993   3.094
14029TIP3    H142044   2.109   2.087   3.082
14029TIP3    H242045   2.199   1.971   3.045
14030TIP3   OH242046   1.155   0.624   0.383
14030TIP3    H142047   1.174   0.552   0.323
14030TIP3    H242048   1.148   0.582   0.469
14031TIP3   OH242049   5.420   1.636   4.025
14031TIP3    H142050   5.326   1.636   4.040
14031TIP3    H242051   5.439   1.724   3.992
14032TIP3   OH242052   3.264   4.027   0.994
14032TIP3    H142053   3.256   3.935   1.019
14032TIP3    H242054   3.320   4.065   1.062
14033TIP3   OH242055   5.351   7.528   5.639
14033TIP3    H142056   5.403   7.505   5.717
14033TIP3    H242057   5.406   7.589   5.591
14034TIP3   OH242058   5.037   2.373   2.061
14034TIP3    H142059   5.080   2.436   2.003
14034TIP3    H242060   5.107   2.314   2.088
14035TIP3   OH242061   4.627   1.134   3.723
14035TIP3    H142062   4.552   1.191   3.702
14035TIP3    H242063   4.704   1.187   3.700
14036TIP3   OH242064   8.007   7.859   1.564
14036TIP3    H142065   8.049   7.802   1.499
14036TIP3    H242066   7.959   7.800   1.621
14037TIP3   OH242067   5.833   3.582   5.225
14037TIP3    H142068   5.778   3.642   5.175
14037TIP3    H242069   5.813   3.496   5.191
14038TIP3   OH242070   3.486   3.243   1.109
14038TIP3    H142071   3.442   3.321   1.143
14038TIP3    H242072   3.518   3.198   1.187
14039TIP3   OH242073   2.573   0.125   5.356
14039TIP3    H142074   2.551   0.207   5.311
14039TIP3    H242075   2.511   0.121   5.429
14040TIP3   OH242076   2.051   3.630   5.702
14040TIP3    H142077   2.039   3.591   5.789
14040TIP3    H242078   1.962   3.650   5.672
14041TIP3   OH242079   0.330   4.193   6.319
14041TIP3    H142080   0.308   4.280   6.285
14041TIP3    H242081   0.250   4.142   6.307
14042TIP3   OH242082   5.165   3.729   4.833
14042TIP3    H142083   5.244   3.702   4.786
14042TIP3    H242084   5.099   3.665   4.809
14043TIP3   OH242085   1.663   2.189   2.566
14043TIP3    H142086   1.630   2.234   2.488
14043TIP3    H242087   1.713   2.115   2.531
14044TIP3   OH242088   6.696   1.199   5.284
14044TIP3    H142089   6.608   1.230   5.264
14044TIP3    H242090   6.683   1.131   5.350
14045TIP3   OH242091   5.916   4.636   3.042
14045TIP3    H142092   5.825   4.656   3.063
14045TIP3    H242093   5.918   4.628   2.947
14046TIP3   OH242094   2.791   1.678   5.553
14046TIP3    H142095   2.732   1.606   5.531
14046TIP3    H242096   2.840   1.694   5.473
14047TIP3   OH242097   6.866   7.158   4.944
14047TIP3    H142098   6.937   7.217   4.970
14047TIP3    H242099   6.796   7.217   4.915
14048TIP3   OH242100   4.802   7.248   2.413
14048TIP3    H142101   4.757   7.182   2.361
14048TIP3    H242102   4.770   7.331   2.379
14049TIP3   OH242103   6.232   2.679   3.472
14049TIP3    H142104   6.322   2.710   3.468
14049TIP3    H242105   6.191   2.734   3.539
14050TIP3   OH242106   0.711   4.886   2.628
14050TIP3    H142107   0.703   4.961   2.687
14050TIP3    H242108   0.622   4.853   2.619
14051TIP3   OH242109   7.742   2.615   2.821
14051TIP3    H142110   7.758   2.707   2.845
14051TIP3    H242111   7.708   2.576   2.902
14052TIP3   OH242112   7.444   4.476   3.162
14052TIP3    H142113   7.504   4.416   3.118
14052TIP3    H242114   7.367   4.423   3.183
14053TIP3   OH242115   7.562   5.539   1.506
14053TIP3    H142116   7.532   5.540   1.416
14053TIP3    H242117   7.613   5.458   1.513
14054TIP3   OH242118   2.555   6.805   6.187
14054TIP3    H142119   2.549   6.709   6.182
14054TIP3    H242120   2.482   6.836   6.134
14055TIP3   OH242121   3.902   2.584   4.199
14055TIP3    H142122   3.944   2.671   4.206
14055TIP3    H242123   3.852   2.576   4.280
14056TIP3   OH242124   1.905   0.775   4.280
14056TIP3    H142125   1.829   0.720   4.294
14056TIP3    H242126   1.881   0.859   4.319
14057TIP3   OH242127   6.935   3.225   2.804
14057TIP3    H142128   6.991   3.280   2.749
14057TIP3    H242129   6.863   3.199   2.746
14058TIP3   OH242130   5.296   2.898   3.747
14058TIP3    H142131   5.345   2.980   3.743
14058TIP3    H242132   5.258   2.897   3.835
14059TIP3   OH242133   2.189   5.292   2.599
14059TIP3    H142134   2.155   5.379   2.575
14059TIP3    H242135   2.188   5.243   2.517
14060TIP3   OH242136   6.264   3.436   4.388
14060TIP3    H142137   6.194   3.498   4.367
14060TIP3    H242138   6.339   3.466   4.337
14061TIP3   OH242139   3.190   5.361   4.876
14061TIP3    H142140   3.101   5.373   4.910
14061TIP3    H242141   3.216   5.274   4.907
14062TIP3   OH242142   7.090   5.458   3.809
14062TIP3    H142143   7.022   5.504   3.858
14062TIP3    H242144   7.172   5.488   3.848
14063TIP3   OH242145   8.132   4.543   2.770
14063TIP3    H142146   8.041   4.563   2.746
14063TIP3    H242147   8.140   4.573   2.861
14064TIP3   OH242148   6.970   2.324   1.754
14064TIP3    H142149   6.985   2.400   1.811
14064TIP3    H242150   6.879   2.299   1.770
14065TIP3   OH242151   1.394   6.042   0.662
14065TIP3    H142152   1.361   5.994   0.586
14065TIP3    H242153   1.468   6.093   0.628
14066TIP3   OH242154   4.096   2.022   2.282
14066TIP3    H142155   4.091   1.966   2.359
14066TIP3    H242156   4.036   2.095   2.301
14067TIP3   OH242157   7.963   1.864   0.582
14067TIP3    H142158   7.979   1.901   0.668
14067TIP3    H242159   8.022   1.788   0.577
14068TIP3   OH242160   5.393   0.285   5.359
14068TIP3    H142161   5.475   0.283   5.311
14068TIP3    H242162   5.325   0.278   5.292
14069TIP3   OH242163   3.161   4.252   3.027
14069TIP3    H142164   3.222   4.179   3.017
14069TIP3    H242165   3.151   4.262   3.121
14070TIP3   OH242166   6.890   0.525   2.379
14070TIP3    H142167   6.886   0.434   2.349
14070TIP3    H242168   6.801   0.544   2.410
14071TIP3   OH242169   2.928   7.038   2.982
14071TIP3    H142170   2.917   7.015   3.074
14071TIP3    H242171   2.906   7.132   2.978
14072TIP3   OH242172   4.084   2.786   0.938
14072TIP3    H142173   4.142   2.798   1.014
14072TIP3    H242174   4.101   2.696   0.909
14073TIP3   OH242175   2.476   7.814   6.371
14073TIP3    H142176   2.513   7.736   6.330
14073TIP3    H242177   2.472   7.793   6.464
14074TIP3   OH242178   4.958   5.013   5.474
14074TIP3    H142179   4.984   5.014   5.382
14074TIP3    H242180   4.991   4.929   5.507
14075TIP3   OH242181   7.961   0.381   5.093
14075TIP3    H142182   7.999   0.460   5.132
14075TIP3    H242183   7.890   0.358   5.152
14076TIP3   OH242184   1.818   6.193   4.265
14076TIP3    H142185   1.900   6.143   4.276
14076TIP3    H242186   1.784   6.202   4.354
14077TIP3   OH242187   5.236   6.802   1.058
14077TIP3    H142188   5.173   6.816   1.130
14077TIP3    H242189   5.212   6.716   1.024
14078TIP3   OH242190   5.349   0.288   4.518
14078TIP3    H142191   5.404   0.210   4.516
14078TIP3    H242192   5.325   0.302   4.427
14079TIP3   OH242193   4.393   4.987   1.960
14079TIP3    H142194   4.446   4.918   2.001
14079TIP3    H242195   4.457   5.044   1.917
14080TIP3   OH242196   0.116   3.223   2.603
14080TIP3    H142197   0.212   3.233   2.599
14080TIP3    H242198   0.101   3.171   2.682
14081TIP3   OH242199   3.531   4.340   5.475
14081TIP3    H142200   3.544   4.247   5.458
14081TIP3    H242201   3.499   4.375   5.392
14082TIP3   OH242202   7.889   4.623   0.202
14082TIP3    H142203   7.868   4.544   0.153
14082TIP3    H242204   7.859   4.694   0.145
14083TIP3   OH242205   2.934   5.931   1.101
14083TIP3    H142206   2.946   5.971   1.015
14083TIP3    H242207   2.939   6.004   1.163
14084TIP3   OH242208   5.025   0.746   5.855
14084TIP3    H142209   5.096   0.766   5.795
14084TIP3    H242210   5.055   0.781   5.940
14085TIP3   OH242211   5.543   1.451   3.118
14085TIP3    H142212   5.610   1.418   3.059
14085TIP3    H242213   5.465   1.460   3.063
14086TIP3   OH242214   4.453   1.296   1.471
14086TIP3    H142215   4.462   1.300   1.376
14086TIP3    H242216   4.358   1.291   1.486
14087TIP3   OH242217   1.433   4.114   3.600
14087TIP3    H142218   1.407   4.120   3.692
14087TIP3    H242219   1.511   4.060   3.600
14088TIP3   OH242220   2.705   1.648   5.158
14088TIP3    H142221   2.781   1.685   5.113
14088TIP3    H242222   2.675   1.718   5.216
14089TIP3   OH242223  -0.026   0.813   6.170
14089TIP3    H142224  -0.096   0.751   6.149
14089TIP3    H242225   0.025   0.821   6.090
14090TIP3   OH242226   3.265   7.687   0.495
14090TIP3    H142227   3.264   7.743   0.573
14090TIP3    H242228   3.173   7.663   0.482
14091TIP3   OH242229   1.210   4.215   6.667
14091TIP3    H142230   1.267   4.265   6.609
14091TIP3    H242231   1.253   4.130   6.675
14092TIP3   OH242232   2.162   3.518   3.412
14092TIP3    H142233   2.120   3.547   3.493
14092TIP3    H242234   2.104   3.450   3.378
14093TIP3   OH242235   5.590   0.877   2.310
14093TIP3    H142236   5.615   0.922   2.229
14093TIP3    H242237   5.607   0.785   2.293
14094TIP3   OH242238   8.299   7.506   5.943
14094TIP3    H142239   8.226   7.568   5.955
14094TIP3    H242240   8.355   7.547   5.878
14095TIP3   OH242241   1.345   0.873   1.396
14095TIP3    H142242   1.344   0.930   1.472
14095TIP3    H242243   1.413   0.909   1.339
14096TIP3   OH242244   6.529   6.475   3.586
14096TIP3    H142245   6.593   6.543   3.605
14096TIP3    H242246   6.469   6.476   3.661
14097TIP3   OH242247   6.795   3.421   2.998
14097TIP3    H142248   6.824   3.370   2.923
14097TIP3    H242249   6.712   3.380   3.025
14098TIP3   OH242250   4.008   0.626   2.774
14098TIP3    H142251   4.045   0.565   2.838
14098TIP3    H242252   3.961   0.570   2.712
14099TIP3   OH242253   3.756   3.688   4.112
14099TIP3    H142254   3.757   3.733   4.027
14099TIP3    H242255   3.694   3.738   4.165
14100TIP3   OH242256   0.631   3.399   3.794
14100TIP3    H142257   0.647   3.483   3.838
14100TIP3    H242258   0.536   3.388   3.799
14101TIP3   OH242259   0.036   6.718   2.309
14101TIP3    H142260   0.089   6.797   2.295
14101TIP3    H242261  -0.055   6.748   2.300
14102TIP3   OH242262   2.096   5.476   3.588
14102TIP3    H142263   2.081   5.457   3.495
14102TIP3    H242264   2.186   5.448   3.603
14103TIP3   OH242265   0.597   7.101   3.794
14103TIP3    H142266   0.508   7.117   3.763
14103TIP3    H242267   0.586   7.043   3.869
14104TIP3   OH242268   4.485   3.794   4.409
14104TIP3    H142269   4.400   3.754   4.392
14104TIP3    H242270   4.510   3.834   4.326
14105TIP3   OH242271   5.811   0.122   0.472
14105TIP3    H142272   5.726   0.109   0.514
14105TIP3    H242273   5.835   0.036   0.438
14106TIP3   OH242274   5.767   3.058   2.129
14106TIP3    H142275   5.679   3.023   2.138
14106TIP3    H242276   5.811   2.999   2.068
14107TIP3   OH242277   7.239   0.638   4.747
14107TIP3    H142278   7.175   0.704   4.774
14107TIP3    H242279   7.324   0.679   4.766
14108TIP3   OH242280   3.108   1.022   4.786
14108TIP3    H142281   3.171   0.957   4.756
14108TIP3    H242282   3.120   1.096   4.727
14109TIP3   OH242283   1.898   7.515   5.083
14109TIP3    H142284   1.967   7.569   5.045
14109TIP3    H242285   1.893   7.543   5.174
14110TIP3   OH242286   7.503   6.730   1.511
14110TIP3    H142287   7.470   6.772   1.590
14110TIP3    H242288   7.472   6.786   1.440
14111TIP3   OH242289   2.577   7.300   3.491
14111TIP3    H142290   2.604   7.291   3.583
14111TIP3    H242291   2.487   7.333   3.495
14112TIP3   OH242292   4.093   7.188   1.892
14112TIP3    H142293   4.114   7.258   1.830
14112TIP3    H242294   4.010   7.216   1.932
14113TIP3   OH242295   1.363   1.645   6.104
14113TIP3    H142296   1.440   1.590   6.088
14113TIP3    H242297   1.291   1.582   6.118
14114TIP3   OH242298   5.698   0.029   0.150
14114TIP3    H142299   5.610   0.064   0.136
14114TIP3    H242300   5.739   0.091   0.211
14115TIP3   OH242301   4.856   3.737   0.977
14115TIP3    H142302   4.913   3.660   0.981
14115TIP3    H242303   4.794   3.718   0.908
14116TIP3   OH242304   0.668   0.482   1.577
14116TIP3    H142305   0.695   0.395   1.604
14116TIP3    H242306   0.681   0.537   1.654
14117TIP3   OH242307   2.315   0.514   1.165
14117TIP3    H142308   2.363   0.586   1.124
14117TIP3    H242309   2.372   0.438   1.153
14118TIP3   OH242310   3.414   7.773   3.385
14118TIP3    H142311   3.490   7.794   3.332
14118TIP3    H242312   3.443   7.701   3.441
14119TIP3   OH242313   5.924   1.374   3.187
14119TIP3    H142314   5.834   1.358   3.216
14119TIP3    H242315   5.977   1.358   3.266
14120TIP3   OH242316   7.816   3.497   1.863
14120TIP3    H142317   7.824   3.503   1.768
14120TIP3    H242318   7.722   3.499   1.879
14121TIP3   OH242319   0.903   5.689   0.241
14121TIP3    H142320   0.868   5.762   0.191
14121TIP3    H242321   0.830   5.627   0.247
14122TIP3   OH242322   5.466   7.606   3.344
14122TIP3    H142323   5.382   7.613   3.389
14122TIP3    H242324   5.531   7.623   3.412
14123TIP3   OH242325   8.213   1.240   5.450
14123TIP3    H142326   8.308   1.231   5.459
14123TIP3    H242327   8.202   1.284   5.366
14124TIP3   OH242328   2.721   3.748   0.188
14124TIP3    H142329   2.696   3.744   0.096
14124TIP3    H242330   2.789   3.815   0.191
14125TIP3   OH242331   3.933   5.750   3.200
14125TIP3    H142332   3.992   5.746   3.276
14125TIP3    H242333   3.847   5.769   3.237
14126TIP3   OH242334   2.105   0.314   0.948
14126TIP3    H142335   2.038   0.371   0.985
14126TIP3    H242336   2.146   0.274   1.025
14127TIP3   OH242337   2.134   6.860   4.841
14127TIP3    H142338   2.210   6.830   4.891
14127TIP3    H242339   2.060   6.810   4.876
14128TIP3   OH242340   1.155   1.510   5.679
14128TIP3    H142341   1.162   1.444   5.747
14128TIP3    H242342   1.209   1.583   5.709
14129TIP3   OH242343   5.049   5.304   6.609
14129TIP3    H142344   5.103   5.249   6.553
14129TIP3    H242345   4.985   5.245   6.648
14130TIP3   OH242346   4.958   1.213   6.579
14130TIP3    H142347   4.929   1.260   6.500
14130TIP3    H242348   4.938   1.274   6.651
14131TIP3   OH242349   6.370   6.998   2.305
14131TIP3    H142350   6.386   6.910   2.339
14131TIP3    H242351   6.275   7.007   2.307
14132TIP3   OH242352   1.939   0.997   3.698
14132TIP3    H142353   2.003   0.929   3.722
14132TIP3    H242354   1.856   0.950   3.690
14133TIP3   OH242355   3.739   4.074   2.003
14133TIP3    H142356   3.732   4.028   2.087
14133TIP3    H242357   3.722   4.165   2.025
14134TIP3   OH242358   4.173   7.363   4.729
14134TIP3    H142359   4.096   7.316   4.762
14134TIP3    H242360   4.137   7.441   4.687
14135TIP3   OH242361   7.810   1.152   5.078
14135TIP3    H142362   7.881   1.132   5.139
14135TIP3    H242363   7.815   1.247   5.065
14136TIP3   OH242364   0.968   2.705   1.001
14136TIP3    H142365   0.910   2.632   0.981
14136TIP3    H242366   0.919   2.783   0.973
14137TIP3   OH242367   1.689   7.701   3.934
14137TIP3    H142368   1.676   7.793   3.956
14137TIP3    H242369   1.600   7.665   3.932
14138TIP3   OH242370   0.749   6.014   4.636
14138TIP3    H142371   0.677   6.009   4.573
14138TIP3    H242372   0.729   5.947   4.701
14139TIP3   OH242373   7.074   5.310   2.022
14139TIP3    H142374   7.086   5.343   2.111
14139TIP3    H242375   7.061   5.389   1.969
14140TIP3   OH242376   6.357   1.324   1.155
14140TIP3    H142377   6.355   1.245   1.101
14140TIP3    H242378   6.429   1.376   1.119
14141TIP3   OH242379   2.798   3.355   1.171
14141TIP3    H142380   2.738   3.360   1.096
14141TIP3    H242381   2.865   3.294   1.143
14142TIP3   OH242382   2.952   6.993   3.988
14142TIP3    H142383   2.900   7.072   4.004
14142TIP3    H242384   2.918   6.929   4.050
14143TIP3   OH242385   7.700   5.042   3.518
14143TIP3    H142386   7.753   5.043   3.598
14143TIP3    H242387   7.654   4.958   3.521
14144TIP3   OH242388   4.786   2.392   6.233
14144TIP3    H142389   4.770   2.438   6.315
14144TIP3    H242390   4.828   2.456   6.176
14145TIP3   OH242391   7.126   1.529   1.339
14145TIP3    H142392   7.064   1.516   1.411
14145TIP3    H242393   7.212   1.523   1.380
14146TIP3   OH242394   8.070   0.401   0.218
14146TIP3    H142395   7.982   0.374   0.192
14146TIP3    H242396   8.116   0.320   0.237
14147TIP3   OH242397   4.776   4.174   5.345
14147TIP3    H142398   4.690   4.179   5.387
14147TIP3    H242399   4.829   4.238   5.393
14148TIP3   OH242400   0.307   3.565   2.507
14148TIP3    H142401   0.279   3.626   2.438
14148TIP3    H242402   0.359   3.499   2.461
14149TIP3   OH242403   0.362   3.391   1.944
14149TIP3    H142404   0.409   3.426   2.019
14149TIP3    H242405   0.277   3.435   1.945
14150TIP3   OH242406   8.102   4.690   3.877
14150TIP3    H142407   8.168   4.732   3.821
14150TIP3    H242408   8.151   4.657   3.952
14151TIP3   OH242409   1.332   4.341   3.504
14151TIP3    H142410   1.366   4.264   3.549
14151TIP3    H242411   1.282   4.388   3.570
14152TIP3   OH242412   0.578   4.575   0.276
14152TIP3    H142413   0.535   4.597   0.359
14152TIP3    H242414   0.541   4.490   0.253
14153TIP3   OH242415   2.287   5.354   5.089
14153TIP3    H142416   2.233   5.386   5.161
14153TIP3    H242417   2.353   5.299   5.131
14154TIP3   OH242418   0.868   1.418   5.116
14154TIP3    H142419   0.781   1.379   5.117
14154TIP3    H242420   0.855   1.505   5.078
14155TIP3   OH242421   4.177   4.080   3.714
14155TIP3    H142422   4.217   4.030   3.785
14155TIP3    H242423   4.181   4.171   3.744
14156TIP3   OH242424   4.118   5.754   1.273
14156TIP3    H142425   4.097   5.788   1.360
14156TIP3    H242426   4.046   5.783   1.218
14157TIP3   OH242427   6.906   5.409   2.245
14157TIP3    H142428   6.873   5.365   2.168
14157TIP3    H242429   6.867   5.497   2.241
14158TIP3   OH242430   6.700   0.449   1.538
14158TIP3    H142431   6.631   0.505   1.502
14158TIP3    H242432   6.664   0.414   1.619
14159TIP3   OH242433   3.454   3.441   0.550
14159TIP3    H142434   3.524   3.497   0.518
14159TIP3    H242435   3.449   3.460   0.644
14160TIP3   OH242436   5.311   0.276   0.322
14160TIP3    H142437   5.220   0.285   0.295
14160TIP3    H242438   5.323   0.342   0.390
14161TIP3   OH242439   0.262   3.152   2.035
14161TIP3    H142440   0.262   3.099   1.956
14161TIP3    H242441   0.303   3.234   2.009
14162TIP3   OH242442   4.528   6.225   4.576
14162TIP3    H142443   4.581   6.302   4.553
14162TIP3    H242444   4.541   6.165   4.502
14163TIP3   OH242445   7.450   4.216   4.500
14163TIP3    H142446   7.455   4.189   4.409
14163TIP3    H242447   7.380   4.163   4.538
14164TIP3   OH242448   6.493   2.564   2.556
14164TIP3    H142449   6.418   2.519   2.595
14164TIP3    H242450   6.468   2.577   2.465
14165TIP3   OH242451   1.158   6.547   3.149
14165TIP3    H142452   1.241   6.574   3.187
14165TIP3    H242453   1.177   6.464   3.106
14166TIP3   OH242454   0.027   1.393  -0.031
14166TIP3    H142455   0.043   1.455   0.040
14166TIP3    H242456  -0.063   1.411  -0.059
14167TIP3   OH242457   8.061   4.265   6.233
14167TIP3    H142458   8.027   4.350   6.261
14167TIP3    H242459   8.129   4.244   6.297
14168TIP3   OH242460   0.302   2.246   5.561
14168TIP3    H142461   0.270   2.290   5.640
14168TIP3    H242462   0.380   2.199   5.589
14169TIP3   OH242463   2.073   0.803   3.150
14169TIP3    H142464   2.115   0.723   3.181
14169TIP3    H242465   2.113   0.821   3.065
14170TIP3   OH242466   5.169   1.219   3.403
14170TIP3    H142467   5.238   1.155   3.387
14170TIP3    H242468   5.105   1.203   3.334
14171TIP3   OH242469   5.418   7.267   1.731
14171TIP3    H142470   5.371   7.286   1.650
14171TIP3    H242471   5.411   7.347   1.783
14172TIP3   OH242472   3.957   0.641   0.771
14172TIP3    H142473   3.871   0.610   0.801
14172TIP3    H242474   3.962   0.612   0.680
14173TIP3   OH242475   7.096   3.477   3.040
14173TIP3    H142476   7.001   3.464   3.046
14173TIP3    H242477   7.108   3.529   2.960
14174TIP3   OH242478   0.480   6.531   5.274
14174TIP3    H142479   0.510   6.537   5.184
14174TIP3    H242480   0.441   6.444   5.281
14175TIP3   OH242481   4.804   1.257   1.704
14175TIP3    H142482   4.857   1.180   1.683
14175TIP3    H242483   4.739   1.225   1.767
14176TIP3   OH242484   4.758   2.614   3.437
14176TIP3    H142485   4.662   2.623   3.442
14176TIP3    H242486   4.776   2.616   3.343
14177TIP3   OH242487   7.123   4.401   2.480
14177TIP3    H142488   7.143   4.455   2.404
14177TIP3    H242489   7.108   4.463   2.551
14178TIP3   OH242490   7.386   4.968   5.122
14178TIP3    H142491   7.406   5.060   5.140
14178TIP3    H242492   7.297   4.956   5.154
14179TIP3   OH242493   0.301   6.064   0.656
14179TIP3    H142494   0.342   6.025   0.579
14179TIP3    H242495   0.371   6.069   0.721
14180TIP3   OH242496   8.024   1.922   3.398
14180TIP3    H142497   8.066   1.899   3.481
14180TIP3    H242498   8.016   1.839   3.351
14181TIP3   OH242499   4.342   6.373   4.744
14181TIP3    H142500   4.379   6.324   4.670
14181TIP3    H242501   4.414   6.429   4.774
14182TIP3   OH242502   0.142   2.759   3.391
14182TIP3    H142503   0.145   2.786   3.299
14182TIP3    H242504   0.155   2.664   3.390
14183TIP3   OH242505   2.782   0.956   3.335
14183TIP3    H142506   2.872   0.949   3.367
14183TIP3    H242507   2.781   0.906   3.254
14184TIP3   OH242508   5.219   2.387   5.361
14184TIP3    H142509   5.266   2.415   5.282
14184TIP3    H242510   5.127   2.404   5.341
14185TIP3   OH242511   1.703   0.646   0.894
14185TIP3    H142512   1.658   0.561   0.895
14185TIP3    H242513   1.712   0.667   0.801
14186TIP3   OH242514   7.698   0.743   6.615
14186TIP3    H142515   7.713   0.666   6.560
14186TIP3    H242516   7.756   0.810   6.578
14187TIP3   OH242517   0.940   7.514   3.485
14187TIP3    H142518   0.857   7.544   3.448
14187TIP3    H242519   0.951   7.568   3.564
14188TIP3   OH242520   4.657   2.991   3.526
14188TIP3    H142521   4.598   2.918   3.506
14188TIP3    H242522   4.728   2.982   3.462
14189TIP3   OH242523   1.813   1.436   2.781
14189TIP3    H142524   1.883   1.377   2.810
14189TIP3    H242525   1.749   1.378   2.739
14190TIP3   OH242526   7.130   7.181   4.075
14190TIP3    H142527   7.149   7.269   4.044
14190TIP3    H242528   7.079   7.194   4.155
14191TIP3   OH242529   0.752   3.937   2.086
14191TIP3    H142530   0.682   3.886   2.127
14191TIP3    H242531   0.832   3.893   2.114
14192TIP3   OH242532   3.487   5.502   3.105
14192TIP3    H142533   3.572   5.540   3.130
14192TIP3    H242534   3.451   5.467   3.186
14193TIP3   OH242535   3.148   6.287   4.598
14193TIP3    H142536   3.182   6.209   4.555
14193TIP3    H242537   3.177   6.280   4.689
14194TIP3   OH242538   0.404   1.585   1.895
14194TIP3    H142539   0.448   1.506   1.863
14194TIP3    H242540   0.470   1.630   1.948
14195TIP3   OH242541   4.050   4.322   5.790
14195TIP3    H142542   4.091   4.292   5.709
14195TIP3    H242543   3.960   4.342   5.766
14196TIP3   OH242544   8.213   0.846   3.225
14196TIP3    H142545   8.133   0.808   3.188
14196TIP3    H242546   8.196   0.940   3.226
14197TIP3   OH242547   8.150   0.087   2.362
14197TIP3    H142548   8.190   0.100   2.276
14197TIP3    H242549   8.056   0.077   2.344
14198TIP3   OH242550   5.786   6.133   1.702
14198TIP3    H142551   5.700   6.126   1.659
14198TIP3    H242552   5.773   6.091   1.788
14199TIP3   OH242553   5.831   3.418   4.354
14199TIP3    H142554   5.895   3.397   4.423
14199TIP3    H242555   5.783   3.336   4.341
14200TIP3   OH242556   5.330   1.411   0.500
14200TIP3    H142557   5.273   1.408   0.423
14200TIP3    H242558   5.419   1.411   0.465
14201TIP3   OH242559   4.502   5.521   0.579
14201TIP3    H142560   4.429   5.462   0.596
14201TIP3    H242561   4.574   5.464   0.553
14202TIP3   OH242562   3.233   3.689   1.387
14202TIP3    H142563   3.192   3.606   1.364
14202TIP3    H242564   3.215   3.700   1.481
14203TIP3   OH242565   6.462   3.318   3.504
14203TIP3    H142566   6.526   3.281   3.443
14203TIP3    H242567   6.509   3.388   3.549
14204TIP3   OH242568   0.340   3.140   2.299
14204TIP3    H142569   0.269   3.122   2.237
14204TIP3    H242570   0.369   3.053   2.328
14205TIP3   OH242571   6.173  -0.018   4.208
14205TIP3    H142572   6.175   0.075   4.232
14205TIP3    H242573   6.180  -0.018   4.112
14206TIP3   OH242574   3.558   6.630   4.832
14206TIP3    H142575   3.492   6.562   4.842
14206TIP3    H242576   3.611   6.600   4.758
14207TIP3   OH242577   1.235   4.068   3.784
14207TIP3    H142578   1.253   3.977   3.761
14207TIP3    H242579   1.154   4.090   3.739
14208TIP3   OH242580   5.500   4.298   3.965
14208TIP3    H142581   5.477   4.388   3.985
14208TIP3    H242582   5.417   4.250   3.968
14209TIP3   OH242583   1.471   4.761   4.510
14209TIP3    H142584   1.387   4.752   4.465
14209TIP3    H242585   1.513   4.676   4.501
14210TIP3   OH242586   6.921   0.840   4.578
14210TIP3    H142587   6.914   0.747   4.555
14210TIP3    H242588   7.009   0.865   4.551
14211TIP3   OH242589   2.331   3.157   4.744
14211TIP3    H142590   2.399   3.211   4.785
14211TIP3    H242591   2.310   3.203   4.663
14212TIP3   OH242592   2.720   0.910   5.204
14212TIP3    H142593   2.628   0.892   5.227
14212TIP3    H242594   2.721   1.002   5.179
14213TIP3   OH242595   4.866   2.064   3.660
14213TIP3    H142596   4.920   2.142   3.649
14213TIP3    H242597   4.776   2.096   3.651
14214TIP3   OH242598   4.972   5.561   3.329
14214TIP3    H142599   4.952   5.490   3.269
14214TIP3    H242600   4.908   5.554   3.399
14215TIP3   OH242601   0.559   4.080   1.524
14215TIP3    H142602   0.507   4.076   1.604
14215TIP3    H242603   0.501   4.047   1.455
14216TIP3   OH242604   4.845   3.305   6.365
14216TIP3    H142605   4.843   3.356   6.284
14216TIP3    H242606   4.863   3.370   6.434
14217TIP3   OH242607   2.563   2.454   2.524
14217TIP3    H142608   2.520   2.506   2.455
14217TIP3    H242609   2.503   2.458   2.598
14218TIP3   OH242610   7.964   5.837   6.731
14218TIP3    H142611   8.042   5.785   6.714
14218TIP3    H242612   7.921   5.846   6.646
14219TIP3   OH242613   6.857   5.526   0.298
14219TIP3    H142614   6.815   5.567   0.373
14219TIP3    H242615   6.818   5.438   0.293
14220TIP3   OH242616   1.362   1.400   6.332
14220TIP3    H142617   1.399   1.453   6.404
14220TIP3    H242618   1.272   1.385   6.358
14221TIP3   OH242619   2.881   1.249   3.912
14221TIP3    H142620   2.958   1.245   3.970
14221TIP3    H242621   2.838   1.332   3.933
14222TIP3   OH242622   7.961   0.078   1.697
14222TIP3    H142623   7.874   0.079   1.657
14222TIP3    H242624   8.021   0.078   1.622
14223TIP3   OH242625   7.899   5.543   6.620
14223TIP3    H142626   7.973   5.564   6.678
14223TIP3    H242627   7.911   5.450   6.600
14224TIP3   OH242628   2.296   7.029   1.015
14224TIP3    H142629   2.346   6.982   0.948
14224TIP3    H242630   2.297   6.970   1.090
14225TIP3   OH242631   3.281   4.650   6.567
14225TIP3    H142632   3.251   4.679   6.653
14225TIP3    H242633   3.292   4.555   6.576
14226TIP3   OH242634   3.982   4.025   3.204
14226TIP3    H142635   3.969   4.120   3.206
14226TIP3    H242636   4.022   4.004   3.288
14227TIP3   OH242637   5.919   2.369   1.076
14227TIP3    H142638   5.826   2.391   1.067
14227TIP3    H242639   5.938   2.319   0.997
14228TIP3   OH242640   0.083   3.874   3.039
14228TIP3    H142641   0.096   3.793   3.089
14228TIP3    H242642   0.000   3.909   3.071
14229TIP3   OH242643   3.589   3.238   0.714
14229TIP3    H142644   3.510   3.280   0.749
14229TIP3    H242645   3.659   3.302   0.730
14230TIP3   OH242646   2.206   2.014   4.565
14230TIP3    H142647   2.213   1.920   4.548
14230TIP3    H242648   2.294   2.039   4.596
14231TIP3   OH242649   1.634   3.943   0.717
14231TIP3    H142650   1.657   3.850   0.713
14231TIP3    H242651   1.543   3.944   0.748
14232TIP3   OH242652   1.760   2.655   1.534
14232TIP3    H142653   1.829   2.639   1.470
14232TIP3    H242654   1.749   2.750   1.534
14233TIP3   OH242655   5.167   3.429   4.460
14233TIP3    H142656   5.167   3.380   4.542
14233TIP3    H242657   5.246   3.483   4.465
14234TIP3   OH242658   3.828   3.005   3.219
14234TIP3    H142659   3.774   2.949   3.164
14234TIP3    H242660   3.772   3.029   3.292
14235TIP3   OH242661   7.497   1.537   1.757
14235TIP3    H142662   7.589   1.529   1.781
14235TIP3    H242663   7.485   1.630   1.738
14236TIP3   OH242664   0.601   1.887   4.753
14236TIP3    H142665   0.582   1.979   4.771
14236TIP3    H242666   0.561   1.839   4.825
14237TIP3   OH242667   6.030   6.576   0.188
14237TIP3    H142668   5.984   6.599   0.269
14237TIP3    H242669   6.006   6.484   0.172
14238TIP3   OH242670   2.480   1.439   0.105
14238TIP3    H142671   2.433   1.402   0.179
14238TIP3    H242672   2.435   1.404   0.028
14239TIP3   OH242673   5.000   5.118   3.385
14239TIP3    H142674   4.979   5.124   3.478
14239TIP3    H242675   5.001   5.024   3.367
14240TIP3   OH242676   4.671   7.596   3.058
14240TIP3    H142677   4.676   7.603   3.154
14240TIP3    H242678   4.758   7.619   3.028
14241TIP3   OH242679   1.955   3.942   1.087
14241TIP3    H142680   2.047   3.937   1.059
14241TIP3    H242681   1.951   3.886   1.165
14242TIP3   OH242682   1.134   6.331   6.774
14242TIP3    H142683   1.221   6.349   6.737
14242TIP3    H242684   1.112   6.410   6.824
14243TIP3   OH242685   8.034   5.909   4.258
14243TIP3    H142686   8.054   5.815   4.253
14243TIP3    H242687   8.118   5.952   4.240
14244TIP3   OH242688   2.761   6.942   2.684
14244TIP3    H142689   2.788   7.021   2.732
14244TIP3    H242690   2.711   6.976   2.610
14245TIP3   OH242691   4.971   2.898   4.130
14245TIP3    H142692   4.918   2.907   4.209
14245TIP3    H242693   4.997   2.806   4.128
14246TIP3   OH242694   2.008   2.576   4.202
14246TIP3    H142695   1.987   2.496   4.249
14246TIP3    H242696   1.925   2.604   4.163
14247TIP3   OH242697   2.476   3.645   6.186
14247TIP3    H142698   2.386   3.655   6.217
14247TIP3    H242699   2.474   3.682   6.097
14248TIP3   OH242700   5.709   4.135   4.557
14248TIP3    H142701   5.674   4.210   4.510
14248TIP3    H242702   5.742   4.171   4.639
14249TIP3   OH242703   6.795   4.263   4.812
14249TIP3    H142704   6.857   4.333   4.836
14249TIP3    H242705   6.829   4.185   4.856
14250TIP3   OH242706   2.592   7.289   2.121
14250TIP3    H142707   2.653   7.362   2.119
14250TIP3    H242708   2.531   7.310   2.192
14251TIP3   OH242709   7.765   1.242   5.653
14251TIP3    H142710   7.811   1.160   5.633
14251TIP3    H242711   7.806   1.307   5.596
14252TIP3   OH242712   2.873   1.147   3.079
14252TIP3    H142713   2.924   1.217   3.038
14252TIP3    H242714   2.793   1.142   3.026
14253TIP3   OH242715   4.220   4.811   5.068
14253TIP3    H142716   4.161   4.873   5.109
14253TIP3    H242717   4.183   4.795   4.981
14254TIP3   OH242718   8.290   1.241   2.413
14254TIP3    H142719   8.293   1.206   2.324
14254TIP3    H242720   8.357   1.309   2.414
14255TIP3   OH242721   7.303   1.388   6.024
14255TIP3    H142722   7.386   1.394   6.072
14255TIP3    H242723   7.289   1.475   5.988
14256TIP3   OH242724   5.766   2.517   2.055
14256TIP3    H142725   5.763   2.576   1.980
14256TIP3    H242726   5.677   2.482   2.062
14257TIP3   OH242727   6.193   1.828   6.540
14257TIP3    H142728   6.110   1.787   6.563
14257TIP3    H242729   6.215   1.882   6.615
14258TIP3   OH242730   3.244   3.757   1.069
14258TIP3    H142731   3.321   3.719   1.027
14258TIP3    H242732   3.259   3.744   1.163
14259TIP3   OH242733   1.579   0.467   0.475
14259TIP3    H142734   1.521   0.391   0.480
14259TIP3    H242735   1.650   0.440   0.417
14260TIP3   OH242736   5.593   4.444   1.909
14260TIP3    H142737   5.664   4.509   1.915
14260TIP3    H242738   5.637   4.364   1.881
14261TIP3   OH242739   4.484   5.239   6.163
14261TIP3    H142740   4.488   5.317   6.107
14261TIP3    H242741   4.552   5.253   6.228
14262TIP3   OH242742   0.285   7.769   5.869
14262TIP3    H142743   0.296   7.743   5.961
14262TIP3    H242744   0.210   7.828   5.870
14263TIP3   OH242745   3.721   7.530   0.595
14263TIP3    H142746   3.666   7.529   0.517
14263TIP3    H242747   3.706   7.445   0.636
14264TIP3   OH242748   2.119   6.335   0.625
14264TIP3    H142749   2.186   6.343   0.693
14264TIP3    H242750   2.169   6.329   0.544
14265TIP3   OH242751   1.525   5.543   3.951
14265TIP3    H142752   1.436   5.552   3.917
14265TIP3    H242753   1.576   5.508   3.878
14266TIP3   OH242754   6.060   7.039   4.912
14266TIP3    H142755   6.143   7.001   4.883
14266TIP3    H242756   6.084   7.115   4.964
14267TIP3   OH242757   7.032   1.902   0.517
14267TIP3    H142758   7.107   1.958   0.498
14267TIP3    H242759   6.993   1.884   0.432
14268TIP3   OH242760   0.037   1.879   4.292
14268TIP3    H142761   0.034   1.791   4.252
14268TIP3    H242762  -0.049   1.916   4.272
14269TIP3   OH242763   1.294   3.477   6.217
14269TIP3    H142764   1.255   3.451   6.301
14269TIP3    H242765   1.331   3.563   6.233
14270TIP3   OH242766   4.237   0.164   4.734
14270TIP3    H142767   4.328   0.152   4.761
14270TIP3    H242768   4.242   0.211   4.651
14271TIP3   OH242769   5.983   2.936   5.252
14271TIP3    H142770   6.046   2.950   5.323
14271TIP3    H242771   5.898   2.953   5.292
14272TIP3   OH242772   4.452   7.169   2.957
14272TIP3    H142773   4.409   7.175   2.872
14272TIP3    H242774   4.418   7.087   2.995
14273TIP3   OH242775   3.941   4.546   1.710
14273TIP3    H142776   3.883   4.545   1.785
14273TIP3    H242777   4.020   4.501   1.739
14274TIP3   OH242778   1.450   2.353   5.911
14274TIP3    H142779   1.459   2.268   5.869
14274TIP3    H242780   1.363   2.351   5.952
14275TIP3   OH242781   4.160   3.719   5.781
14275TIP3    H142782   4.110   3.704   5.701
14275TIP3    H242783   4.206   3.802   5.766
14276TIP3   OH242784   6.642   5.285   2.158
14276TIP3    H142785   6.625   5.199   2.122
14276TIP3    H242786   6.703   5.326   2.096
14277TIP3   OH242787   8.067   4.353   6.769
14277TIP3    H142788   8.065   4.326   6.677
14277TIP3    H242789   7.998   4.301   6.811
14278TIP3   OH242790   5.884   2.669   3.660
14278TIP3    H142791   5.876   2.737   3.592
14278TIP3    H242792   5.915   2.716   3.737
14279TIP3   OH242793   6.860   2.908   6.672
14279TIP3    H142794   6.852   2.815   6.650
14279TIP3    H242795   6.861   2.953   6.588
14280TIP3   OH242796   2.366   0.477   1.799
14280TIP3    H142797   2.318   0.402   1.764
14280TIP3    H242798   2.357   0.468   1.894
14281TIP3   OH242799   7.341   6.218   1.328
14281TIP3    H142800   7.311   6.207   1.238
14281TIP3    H242801   7.336   6.312   1.344
14282TIP3   OH242802   6.040   1.856   5.875
14282TIP3    H142803   6.052   1.763   5.856
14282TIP3    H242804   5.952   1.876   5.843
14283TIP3   OH242805   6.261   3.965   2.071
14283TIP3    H142806   6.286   4.037   2.129
14283TIP3    H242807   6.340   3.946   2.020
14284TIP3   OH242808   6.106   7.204   1.745
14284TIP3    H142809   6.134   7.247   1.826
14284TIP3    H242810   6.051   7.132   1.774
14285TIP3   OH242811   1.639   0.556   2.855
14285TIP3    H142812   1.619   0.495   2.926
14285TIP3    H242813   1.667   0.636   2.899
14286TIP3   OH242814   5.357   1.549   2.883
14286TIP3    H142815   5.452   1.549   2.867
14286TIP3    H242816   5.329   1.638   2.865
14287TIP3   OH242817   6.089   0.514   5.852
14287TIP3    H142818   6.125   0.522   5.763
14287TIP3    H242819   6.162   0.481   5.904
14288TIP3   OH242820   2.620   4.035   6.104
14288TIP3    H142821   2.691   3.980   6.138
14288TIP3    H242822   2.609   4.102   6.171
14289TIP3   OH242823   6.370   1.995   1.446
14289TIP3    H142824   6.405   2.009   1.534
14289TIP3    H242825   6.428   1.930   1.407
14290TIP3   OH242826   1.553   2.994   1.590
14290TIP3    H142827   1.647   2.990   1.574
14290TIP3    H242828   1.514   2.996   1.502
14291TIP3   OH242829   4.795   5.449   2.594
14291TIP3    H142830   4.879   5.405   2.597
14291TIP3    H242831   4.760   5.428   2.507
14292TIP3   OH242832   7.817   7.537   5.440
14292TIP3    H142833   7.840   7.481   5.366
14292TIP3    H242834   7.895   7.536   5.496
14293TIP3   OH242835   4.973   3.480   1.009
14293TIP3    H142836   4.949   3.390   0.985
14293TIP3    H242837   5.055   3.495   0.962
14294TIP3   OH242838   3.485   0.705   3.679
14294TIP3    H142839   3.394   0.731   3.694
14294TIP3    H242840   3.480   0.615   3.649
14295TIP3   OH242841   3.466   5.428   3.367
14295TIP3    H142842   3.527   5.484   3.415
14295TIP3    H242843   3.501   5.340   3.377
14296TIP3   OH242844   1.884   1.721   3.674
14296TIP3    H142845   1.817   1.671   3.627
14296TIP3    H242846   1.837   1.795   3.713
14297TIP3   OH242847   6.677   0.130   6.053
14297TIP3    H142848   6.719   0.181   6.122
14297TIP3    H242849   6.666   0.043   6.090
14298TIP3   OH242850   5.785   1.505   2.477
14298TIP3    H142851   5.704   1.555   2.488
14298TIP3    H242852   5.789   1.489   2.382
14299TIP3   OH242853   6.848   2.839   0.624
14299TIP3    H142854   6.906   2.774   0.586
14299TIP3    H242855   6.765   2.793   0.637
14300TIP3   OH242856   7.746   0.289   4.552
14300TIP3    H142857   7.689   0.324   4.483
14300TIP3    H242858   7.736   0.351   4.624
14301TIP3   OH242859   0.828   1.296   6.232
14301TIP3    H142860   0.872   1.364   6.283
14301TIP3    H242861   0.898   1.256   6.180
14302TIP3   OH242862   0.144   7.312   4.327
14302TIP3    H142863   0.166   7.241   4.267
14302TIP3    H242864   0.148   7.272   4.414
14303TIP3   OH242865   8.230   0.997   2.965
14303TIP3    H142866   8.315   0.985   3.007
14303TIP3    H242867   8.177   1.043   3.030
14304TIP3   OH242868   1.235   1.776   2.406
14304TIP3    H142869   1.181   1.852   2.429
14304TIP3    H242870   1.243   1.781   2.310
14305TIP3   OH242871   7.530   4.361   2.204
14305TIP3    H142872   7.621   4.351   2.176
14305TIP3    H242873   7.526   4.319   2.290
14306TIP3   OH242874   6.558   2.088   2.010
14306TIP3    H142875   6.596   2.139   1.939
14306TIP3    H242876   6.467   2.118   2.016
14307TIP3   OH242877   0.398   0.367   4.814
14307TIP3    H142878   0.378   0.460   4.799
14307TIP3    H242879   0.452   0.341   4.740
14308TIP3   OH242880   5.248   2.478   1.618
14308TIP3    H142881   5.330   2.432   1.600
14308TIP3    H242882   5.218   2.510   1.533
14309TIP3   OH242883   1.213   4.850   0.555
14309TIP3    H142884   1.139   4.904   0.581
14309TIP3    H242885   1.289   4.892   0.596
14310TIP3   OH242886   3.075   5.845   5.215
14310TIP3    H142887   3.062   5.937   5.236
14310TIP3    H242888   3.134   5.846   5.139
14311TIP3   OH242889   5.089   0.795   3.636
14311TIP3    H142890   5.181   0.776   3.616
14311TIP3    H242891   5.054   0.831   3.554
14312TIP3   OH242892   1.114   2.121   4.958
14312TIP3    H142893   1.115   2.117   5.053
14312TIP3    H242894   1.070   2.203   4.938
14313TIP3   OH242895   2.271   0.214   1.697
14313TIP3    H142896   2.349   0.181   1.652
14313TIP3    H242897   2.244   0.143   1.754
14314TIP3   OH242898   1.917   2.256   4.976
14314TIP3    H142899   1.921   2.342   4.935
14314TIP3    H242900   1.999   2.214   4.950
14315TIP3   OH242901   5.267   0.357   0.746
14315TIP3    H142902   5.330   0.381   0.813
14315TIP3    H242903   5.302   0.276   0.708
14316TIP3   OH242904   3.643   1.215   1.308
14316TIP3    H142905   3.736   1.232   1.323
14316TIP3    H242906   3.597   1.279   1.362
14317TIP3   OH242907   0.761   6.593   0.458
14317TIP3    H142908   0.836   6.550   0.500
14317TIP3    H242909   0.764   6.563   0.367
14318TIP3   OH242910   1.684   6.122   2.624
14318TIP3    H142911   1.759   6.149   2.678
14318TIP3    H242912   1.680   6.188   2.555
14319TIP3   OH242913   8.192   6.518   4.041
14319TIP3    H142914   8.114   6.476   4.078
14319TIP3    H242915   8.177   6.516   3.946
14320TIP3   OH242916   5.621   5.630   5.458
14320TIP3    H142917   5.683   5.699   5.482
14320TIP3    H242918   5.633   5.563   5.525
14321TIP3   OH242919   0.489   2.750   0.228
14321TIP3    H142920   0.409   2.803   0.227
14321TIP3    H242921   0.457   2.659   0.225
14322TIP3   OH242922   0.348   5.353   2.899
14322TIP3    H142923   0.422   5.302   2.933
14322TIP3    H242924   0.271   5.317   2.944
14323TIP3   OH242925   3.457   4.944   5.064
14323TIP3    H142926   3.537   4.980   5.104
14323TIP3    H242927   3.484   4.921   4.975
14324TIP3   OH242928   7.731   3.587   3.851
14324TIP3    H142929   7.669   3.622   3.914
14324TIP3    H242930   7.677   3.558   3.777
14325TIP3   OH242931   6.858   6.549   4.167
14325TIP3    H142932   6.945   6.524   4.199
14325TIP3    H242933   6.874   6.581   4.078
14326TIP3   OH242934   3.293   5.269   1.816
14326TIP3    H142935   3.369   5.316   1.850
14326TIP3    H242936   3.221   5.294   1.875
14327TIP3   OH242937   0.801   6.384   6.434
14327TIP3    H142938   0.710   6.369   6.410
14327TIP3    H242939   0.836   6.296   6.452
14328TIP3   OH242940   6.652   6.717   4.239
14328TIP3    H142941   6.715   6.659   4.196
14328TIP3    H242942   6.697   6.801   4.246
14329TIP3   OH242943   1.037   0.369   0.222
14329TIP3    H142944   1.004   0.396   0.307
14329TIP3    H242945   1.027   0.273   0.221
14330TIP3   OH242946   5.919   1.968   0.191
14330TIP3    H142947   5.872   2.049   0.213
14330TIP3    H242948   5.956   1.938   0.274
14331TIP3   OH242949   4.308   4.321   3.759
14331TIP3    H142950   4.298   4.369   3.841
14331TIP3    H242951   4.326   4.389   3.694
14332TIP3   OH242952   7.353   6.284   1.849
14332TIP3    H142953   7.400   6.357   1.810
14332TIP3    H242954   7.292   6.255   1.781
14333TIP3   OH242955   0.690   7.609   3.417
14333TIP3    H142956   0.647   7.598   3.501
14333TIP3    H242957   0.633   7.564   3.355
14334TIP3   OH242958   4.677   1.852   3.873
14334TIP3    H142959   4.668   1.787   3.803
14334TIP3    H242960   4.731   1.808   3.939
14335TIP3   OH242961   7.076   5.253   5.496
14335TIP3    H142962   7.024   5.239   5.576
14335TIP3    H242963   7.034   5.327   5.453
14336TIP3   OH242964   1.341   5.352   4.199
14336TIP3    H142965   1.245   5.348   4.192
14336TIP3    H242966   1.371   5.263   4.180
14337TIP3   OH242967   1.107   2.507   0.042
14337TIP3    H142968   1.152   2.526   0.124
14337TIP3    H242969   1.060   2.425   0.058
14338TIP3   OH242970   3.862   2.243   0.164
14338TIP3    H142971   3.838   2.226   0.073
14338TIP3    H242972   3.942   2.296   0.158
14339TIP3   OH242973   1.916   0.418   1.764
14339TIP3    H142974   1.938   0.401   1.856
14339TIP3    H242975   1.950   0.342   1.717
14340TIP3   OH242976   4.653   2.313   3.043
14340TIP3    H142977   4.648   2.257   2.966
14340TIP3    H242978   4.622   2.257   3.115
14341TIP3   OH242979   6.923   4.794   3.425
14341TIP3    H142980   6.993   4.837   3.474
14341TIP3    H242981   6.882   4.736   3.489
14342TIP3   OH242982   4.188   5.468   2.576
14342TIP3    H142983   4.134   5.407   2.527
14342TIP3    H242984   4.249   5.504   2.511
14343TIP3   OH242985   4.096   2.706   1.911
14343TIP3    H142986   4.044   2.633   1.876
14343TIP3    H242987   4.034   2.758   1.962
14344TIP3   OH242988   5.718   5.190   2.330
14344TIP3    H142989   5.791   5.182   2.268
14344TIP3    H242990   5.669   5.108   2.320
14345TIP3   OH242991   0.359   1.077   4.052
14345TIP3    H142992   0.434   1.085   3.993
14345TIP3    H242993   0.289   1.041   3.997
14346TIP3   OH242994   3.589   6.641   0.933
14346TIP3    H142995   3.549   6.568   0.886
14346TIP3    H242996   3.675   6.652   0.893
14347TIP3   OH242997   5.035   5.328   2.840
14347TIP3    H142998   5.072   5.241   2.850
14347TIP3    H242999   5.056   5.373   2.921
14348TIP3   OH243000   1.778   2.007   0.927
14348TIP3    H143001   1.760   2.099   0.904
14348TIP3    H243002   1.772   2.006   1.023
14349TIP3   OH243003   6.312   3.841   5.235
14349TIP3    H143004   6.276   3.754   5.220
14349TIP3    H243005   6.320   3.849   5.330
14350TIP3   OH243006   0.264   5.802   5.779
14350TIP3    H143007   0.270   5.802   5.684
14350TIP3    H243008   0.340   5.852   5.809
14351TIP3   OH243009   0.329   1.458   3.637
14351TIP3    H143010   0.268   1.436   3.566
14351TIP3    H243011   0.274   1.497   3.705
14352TIP3   OH243012   2.155   3.689   1.364
14352TIP3    H143013   2.063   3.663   1.378
14352TIP3    H243014   2.155   3.784   1.374
14353TIP3   OH243015   6.307   4.354   0.247
14353TIP3    H143016   6.380   4.293   0.240
14353TIP3    H243017   6.288   4.359   0.341
14354TIP3   OH243018   0.487   4.654   3.724
14354TIP3    H143019   0.476   4.733   3.670
14354TIP3    H243020   0.398   4.634   3.754
14355TIP3   OH243021   4.466   3.622   6.179
14355TIP3    H143022   4.427   3.562   6.116
14355TIP3    H243023   4.436   3.709   6.151
14356TIP3   OH243024   7.422   7.390   5.342
14356TIP3    H143025   7.499   7.348   5.302
14356TIP3    H243026   7.368   7.317   5.371
14357TIP3   OH243027   3.215   1.228   6.331
14357TIP3    H143028   3.203   1.158   6.266
14357TIP3    H243029   3.281   1.193   6.391
14358TIP3   OH243030   4.144   1.668   2.459
14358TIP3    H143031   4.107   1.726   2.526
14358TIP3    H243032   4.208   1.723   2.413
14359TIP3   OH243033   3.202   3.978   6.296
14359TIP3    H143034   3.121   3.927   6.292
14359TIP3    H243035   3.241   3.955   6.380
14360TIP3   OH243036   3.502   1.377   6.248
14360TIP3    H143037   3.473   1.288   6.230
14360TIP3    H243038   3.595   1.368   6.267
14361TIP3   OH243039   1.562   2.272   3.687
14361TIP3    H143040   1.601   2.197   3.642
14361TIP3    H243041   1.630   2.303   3.746
14362TIP3   OH243042   1.985   5.023   6.554
14362TIP3    H143043   2.058   5.010   6.615
14362TIP3    H243044   1.947   4.935   6.544
14363TIP3   OH243045   1.501   2.034   4.093
14363TIP3    H143046   1.591   2.018   4.061
14363TIP3    H243047   1.500   1.994   4.180
14364TIP3   OH243048   6.681   6.355   4.262
14364TIP3    H143049   6.707   6.355   4.354
14364TIP3    H243050   6.724   6.432   4.225
14365TIP3   OH243051   2.296   3.421   4.043
14365TIP3    H143052   2.297   3.433   3.948
14365TIP3    H243053   2.326   3.506   4.077
14366TIP3   OH243054   0.102   3.640   6.545
14366TIP3    H143055   0.167   3.679   6.602
14366TIP3    H243056   0.126   3.547   6.541
14367TIP3   OH243057   2.600   2.942   4.913
14367TIP3    H143058   2.635   2.929   5.001
14367TIP3    H243059   2.514   2.900   4.915
14368TIP3   OH243060   6.015   0.073   2.793
14368TIP3    H143061   6.046   0.141   2.733
14368TIP3    H243062   6.048   0.100   2.879
14369TIP3   OH243063   1.966   4.461   2.798
14369TIP3    H143064   2.024   4.431   2.868
14369TIP3    H243065   2.015   4.532   2.755
14370TIP3   OH243066   3.853   4.041   1.754
14370TIP3    H143067   3.814   4.055   1.840
14370TIP3    H243068   3.918   3.972   1.769
14371TIP3   OH243069   4.704   7.612   3.326
14371TIP3    H143070   4.753   7.694   3.330
14371TIP3    H243071   4.753   7.552   3.381
14372TIP3   OH243072   6.168   6.292   4.884
14372TIP3    H143073   6.100   6.228   4.863
14372TIP3    H243074   6.121   6.375   4.889
14373TIP3   OH243075   2.247   3.221   3.549
14373TIP3    H143076   2.325   3.275   3.559
14373TIP3    H243077   2.250   3.191   3.458
14374TIP3   OH243078   2.061   6.949   3.972
14374TIP3    H143079   2.034   6.907   3.890
14374TIP3    H243080   2.088   6.877   4.028
14375TIP3   OH243081   7.217   4.446   1.509
14375TIP3    H143082   7.172   4.422   1.428
14375TIP3    H243083   7.155   4.425   1.579
14376TIP3   OH243084   2.863   4.906   6.422
14376TIP3    H143085   2.801   4.864   6.363
14376TIP3    H243086   2.873   4.995   6.387
14377TIP3   OH243087   0.621   7.581   5.823
14377TIP3    H143088   0.527   7.565   5.823
14377TIP3    H243089   0.657   7.509   5.771
14378TIP3   OH243090   4.078   1.049   1.497
14378TIP3    H143091   4.151   0.999   1.532
14378TIP3    H243092   4.111   1.139   1.491
14379TIP3   OH243093   5.917   5.124   0.638
14379TIP3    H143094   5.932   5.034   0.609
14379TIP3    H243095   5.959   5.178   0.572
14380TIP3   OH243096   2.139   0.779   6.505
14380TIP3    H143097   2.068   0.776   6.441
14380TIP3    H243098   2.111   0.719   6.574
14381TIP3   OH243099   5.947   1.617   3.045
14381TIP3    H143100   5.957   1.545   3.107
14381TIP3    H243101   5.930   1.694   3.100
14382TIP3   OH243102   2.967   6.761   2.289
14382TIP3    H143103   2.931   6.692   2.232
14382TIP3    H243104   3.050   6.785   2.249
14383TIP3   OH243105   7.644   5.841   6.712
14383TIP3    H143106   7.735   5.868   6.724
14383TIP3    H243107   7.601   5.918   6.675
14384TIP3   OH243108   2.318   1.920   4.313
14384TIP3    H143109   2.399   1.957   4.348
14384TIP3    H243110   2.323   1.827   4.336
14385TIP3   OH243111   3.122   4.257   5.614
14385TIP3    H143112   3.128   4.352   5.621
14385TIP3    H243113   3.029   4.238   5.624
14386TIP3   OH243114   7.560   5.782   3.953
14386TIP3    H143115   7.553   5.854   3.891
14386TIP3    H243116   7.643   5.740   3.932
14387TIP3   OH243117   8.289   5.287   2.593
14387TIP3    H143118   8.277   5.378   2.619
14387TIP3    H243119   8.239   5.277   2.512
14388TIP3   OH243120   1.127   6.450   0.778
14388TIP3    H143121   1.197   6.385   0.784
14388TIP3    H243122   1.109   6.475   0.869
14389TIP3   OH243123   7.443   2.433   2.124
14389TIP3    H143124   7.495   2.353   2.129
14389TIP3    H243125   7.441   2.466   2.213
14390TIP3   OH243126   1.686   7.124   3.442
14390TIP3    H143127   1.674   7.035   3.474
14390TIP3    H243128   1.597   7.157   3.428
14391TIP3   OH243129   6.716   7.391   2.966
14391TIP3    H143130   6.717   7.376   3.061
14391TIP3    H243131   6.802   7.428   2.947
14392TIP3   OH243132   3.637   4.633   1.636
14392TIP3    H143133   3.600   4.719   1.660
14392TIP3    H243134   3.717   4.654   1.588
14393TIP3   OH243135   0.358   5.470   3.559
14393TIP3    H143136   0.445   5.438   3.537
14393TIP3    H243137   0.373   5.533   3.630
14394TIP3   OH243138   3.997   3.993   4.573
14394TIP3    H143139   4.025   4.007   4.663
14394TIP3    H243140   3.934   4.063   4.556
14395TIP3   OH243141   4.463   4.998   5.170
14395TIP3    H143142   4.393   4.996   5.236
14395TIP3    H243143   4.491   5.090   5.168
14396TIP3   OH243144   5.168   6.517   0.385
14396TIP3    H143145   5.147   6.492   0.475
14396TIP3    H243146   5.237   6.456   0.358
14397TIP3   OH243147   6.401   3.409   1.096
14397TIP3    H143148   6.395   3.461   1.017
14397TIP3    H243149   6.493   3.412   1.121
14398TIP3   OH243150   3.918   4.896   1.216
14398TIP3    H143151   3.885   4.809   1.237
14398TIP3    H243152   4.013   4.886   1.214
14399TIP3   OH243153   7.884   4.297   1.986
14399TIP3    H143154   7.966   4.335   2.019
14399TIP3    H243155   7.889   4.205   2.012
14400TIP3   OH243156   1.280   1.629   5.064
14400TIP3    H143157   1.210   1.655   5.124
14400TIP3    H243158   1.234   1.603   4.984
14401TIP3   OH243159   4.576   6.183   0.908
14401TIP3    H143160   4.481   6.194   0.919
14401TIP3    H243161   4.587   6.094   0.877
14402TIP3   OH243162   6.869   1.097   0.332
14402TIP3    H143163   6.801   1.147   0.376
14402TIP3    H243164   6.933   1.163   0.304
14403TIP3   OH243165   1.865   1.562   1.441
14403TIP3    H143166   1.905   1.478   1.460
14403TIP3    H243167   1.939   1.622   1.430
14404TIP3   OH243168   5.059   3.480   2.045
14404TIP3    H143169   5.118   3.554   2.057
14404TIP3    H243170   5.080   3.446   1.958
14405TIP3   OH243171   6.286   4.214   3.532
14405TIP3    H143172   6.241   4.192   3.614
14405TIP3    H243173   6.369   4.167   3.536
14406TIP3   OH243174   7.513   6.753   2.987
14406TIP3    H143175   7.606   6.767   2.967
14406TIP3    H243176   7.514   6.699   3.066
14407TIP3   OH243177   7.049   5.810   4.603
14407TIP3    H143178   7.040   5.843   4.692
14407TIP3    H243179   7.137   5.838   4.576
14408TIP3   OH243180   3.715   6.068   0.755
14408TIP3    H143181   3.791   6.081   0.811
14408TIP3    H243182   3.642   6.104   0.806
14409TIP3   OH243183   1.215   1.970   1.464
14409TIP3    H143184   1.261   1.945   1.384
14409TIP3    H243185   1.181   1.888   1.499
14410TIP3   OH243186   2.132   5.641   3.823
14410TIP3    H143187   2.061   5.668   3.882
14410TIP3    H243188   2.092   5.572   3.770
14411TIP3   OH243189   0.645   1.048   6.322
14411TIP3    H143190   0.696   1.091   6.253
14411TIP3    H243191   0.701   0.976   6.352
14412TIP3   OH243192   0.897   7.020   1.232
14412TIP3    H143193   0.986   7.007   1.199
14412TIP3    H243194   0.843   7.028   1.153
14413TIP3   OH243195   6.343   7.767   1.916
14413TIP3    H143196   6.422   7.797   1.960
14413TIP3    H243197   6.367   7.682   1.879
14414TIP3   OH243198   6.574   1.188   4.084
14414TIP3    H143199   6.536   1.172   4.171
14414TIP3    H243200   6.561   1.281   4.069
14415TIP3   OH243201   6.461   5.719   2.375
14415TIP3    H143202   6.455   5.635   2.420
14415TIP3    H243203   6.374   5.757   2.384
14416TIP3   OH243204   3.849   7.153   5.260
14416TIP3    H143205   3.940   7.125   5.257
14416TIP3    H243206   3.837   7.204   5.180
14417TIP3   OH243207   7.610   7.412   2.558
14417TIP3    H143208   7.567   7.345   2.505
14417TIP3    H243209   7.587   7.494   2.514
14418TIP3   OH243210   4.924   7.547   2.449
14418TIP3    H143211   4.952   7.530   2.359
14418TIP3    H243212   4.855   7.613   2.440
14419TIP3   OH243213   5.840   3.541   6.122
14419TIP3    H143214   5.818   3.568   6.032
14419TIP3    H243215   5.828   3.446   6.121
14420TIP3   OH243216   2.859   5.424   1.104
14420TIP3    H143217   2.916   5.489   1.061
14420TIP3    H243218   2.773   5.438   1.065
14421TIP3   OH243219   5.678   6.844   4.703
14421TIP3    H143220   5.671   6.818   4.611
14421TIP3    H243221   5.755   6.902   4.706
14422TIP3   OH243222   0.382   2.715   1.690
14422TIP3    H143223   0.415   2.789   1.639
14422TIP3    H243224   0.413   2.732   1.779
14423TIP3   OH243225   1.601   4.891   4.146
14423TIP3    H143226   1.557   4.919   4.226
14423TIP3    H243227   1.555   4.937   4.076
14424TIP3   OH243228   5.379   3.438   5.402
14424TIP3    H143229   5.339   3.522   5.379
14424TIP3    H243230   5.377   3.387   5.321
14425TIP3   OH243231   8.287   3.025   1.536
14425TIP3    H143232   8.197   3.053   1.520
14425TIP3    H243233   8.336   3.106   1.549
14426TIP3   OH243234   5.268   0.720   4.865
14426TIP3    H143235   5.213   0.763   4.931
14426TIP3    H243236   5.210   0.706   4.791
14427TIP3   OH243237   1.548   1.405   3.791
14427TIP3    H143238   1.515   1.332   3.844
14427TIP3    H243239   1.633   1.375   3.760
14428TIP3   OH243240   6.631   2.164   0.525
14428TIP3    H143241   6.569   2.103   0.567
14428TIP3    H243242   6.708   2.162   0.582
14429TIP3   OH243243   0.441   6.168   2.806
14429TIP3    H143244   0.374   6.217   2.759
14429TIP3    H243245   0.448   6.085   2.759
14430TIP3   OH243246   3.248   1.201   3.041
14430TIP3    H143247   3.245   1.105   3.040
14430TIP3    H243248   3.292   1.223   3.123
14431TIP3   OH243249   3.007   7.688   0.408
14431TIP3    H143250   3.003   7.629   0.334
14431TIP3    H243251   2.916   7.696   0.438
14432TIP3   OH243252   7.703   4.017   6.129
14432TIP3    H143253   7.709   3.924   6.105
14432TIP3    H243254   7.632   4.020   6.193
14433TIP3   OH243255   2.179   7.615   5.171
14433TIP3    H143256   2.195   7.529   5.134
14433TIP3    H243257   2.248   7.627   5.236
14434TIP3   OH243258   3.111   7.814   3.071
14434TIP3    H143259   3.137   7.798   3.162
14434TIP3    H243260   3.193   7.836   3.027
14435TIP3   OH243261   6.349   5.335   1.110
14435TIP3    H143262   6.283   5.388   1.155
14435TIP3    H243263   6.334   5.246   1.141
14436TIP3   OH243264   2.435   3.614   4.461
14436TIP3    H143265   2.378   3.600   4.537
14436TIP3    H243266   2.458   3.707   4.465
14437TIP3   OH243267   2.910   1.258   3.359
14437TIP3    H143268   2.894   1.240   3.451
14437TIP3    H243269   2.859   1.193   3.312
14438TIP3   OH243270   0.094   5.081   1.254
14438TIP3    H143271   0.143   5.149   1.302
14438TIP3    H243272   0.155   5.008   1.248
14439TIP3   OH243273   0.861   7.025   2.845
14439TIP3    H143274   0.906   6.990   2.768
14439TIP3    H243275   0.916   6.997   2.918
14440TIP3   OH243276   5.698   7.743   5.191
14440TIP3    H143277   5.791   7.755   5.174
14440TIP3    H243278   5.690   7.747   5.286
14441TIP3   OH243279   0.154   6.989   2.204
14441TIP3    H143280   0.202   7.063   2.242
14441TIP3    H243281   0.135   7.015   2.114
14442TIP3   OH243282   7.675   0.154   5.722
14442TIP3    H143283   7.743   0.221   5.722
14442TIP3    H243284   7.716   0.078   5.762
14443TIP3   OH243285   5.031   1.758   1.354
14443TIP3    H143286   5.007   1.754   1.447
14443TIP3    H243287   5.016   1.849   1.329
14444TIP3   OH243288   7.061   5.717   0.341
14444TIP3    H143289   6.999   5.666   0.289
14444TIP3    H243290   7.010   5.795   0.367
14445TIP3   OH243291   2.608   0.926   6.125
14445TIP3    H143292   2.601   0.865   6.198
14445TIP3    H243293   2.681   0.983   6.149
14446TIP3   OH243294   0.295   3.129   5.590
14446TIP3    H143295   0.334   3.216   5.591
14446TIP3    H243296   0.362   3.074   5.550
14447TIP3   OH243297   0.706   5.296   5.542
14447TIP3    H143298   0.702   5.338   5.457
14447TIP3    H243299   0.666   5.210   5.529
14448TIP3   OH243300   6.533   3.522   5.197
14448TIP3    H143301   6.485   3.517   5.280
14448TIP3    H243302   6.490   3.594   5.149
14449TIP3   OH243303   5.355   1.484   0.860
14449TIP3    H143304   5.398   1.542   0.924
14449TIP3    H243305   5.269   1.523   0.846
14450TIP3   OH243306   3.925   0.296   6.239
14450TIP3    H143307   4.018   0.299   6.217
14450TIP3    H243308   3.888   0.232   6.179
14451TIP3   OH243309   3.344   5.284   2.201
14451TIP3    H143310   3.400   5.240   2.265
14451TIP3    H243311   3.340   5.223   2.127
14452TIP3   OH243312   0.780   4.260   3.376
14452TIP3    H143313   0.713   4.300   3.432
14452TIP3    H243314   0.846   4.328   3.365
14453TIP3   OH243315   2.323   4.602   3.864
14453TIP3    H143316   2.366   4.605   3.778
14453TIP3    H243317   2.233   4.632   3.846
14454TIP3   OH243318   4.365   6.782   5.833
14454TIP3    H143319   4.313   6.704   5.815
14454TIP3    H243320   4.401   6.807   5.748
14455TIP3   OH243321   3.013   4.673   2.152
14455TIP3    H143322   3.045   4.635   2.070
14455TIP3    H243323   2.936   4.724   2.126
14456TIP3   OH243324   0.577   5.285   2.534
14456TIP3    H143325   0.497   5.251   2.494
14456TIP3    H243326   0.571   5.380   2.524
14457TIP3   OH243327   1.829   1.420   3.145
14457TIP3    H143328   1.779   1.358   3.091
14457TIP3    H243329   1.793   1.506   3.123
14458TIP3   OH243330   3.891   3.866   3.868
14458TIP3    H143331   3.967   3.809   3.860
14458TIP3    H243332   3.847   3.858   3.783
14459TIP3   OH243333   6.674   7.851   3.983
14459TIP3    H143334   6.750   7.803   3.950
14459TIP3    H243335   6.601   7.791   3.971
14460TIP3   OH243336   3.065   3.928   1.503
14460TIP3    H143337   2.984   3.877   1.510
14460TIP3    H243338   3.128   3.882   1.558
14461TIP3   OH243339   5.603   1.106   2.461
14461TIP3    H143340   5.586   1.018   2.425
14461TIP3    H243341   5.689   1.099   2.502
14462TIP3   OH243342   2.774   2.832   6.361
14462TIP3    H143343   2.750   2.754   6.412
14462TIP3    H243344   2.826   2.885   6.420
14463TIP3   OH243345   2.068   5.124   4.678
14463TIP3    H143346   1.999   5.060   4.696
14463TIP3    H243347   2.150   5.075   4.691
14464TIP3   OH243348   6.608   5.290   1.004
14464TIP3    H143349   6.529   5.323   1.046
14464TIP3    H243350   6.639   5.363   0.950
14465TIP3   OH243351   0.440   2.959   1.569
14465TIP3    H143352   0.383   2.952   1.492
14465TIP3    H243353   0.528   2.944   1.535
14466TIP3   OH243354   0.077   2.332   4.451
14466TIP3    H143355   0.056   2.239   4.453
14466TIP3    H243356   0.160   2.337   4.405
14467TIP3   OH243357   4.751   2.588   2.698
14467TIP3    H143358   4.685   2.523   2.674
14467TIP3    H243359   4.826   2.567   2.644
14468TIP3   OH243360   2.890   0.280   4.279
14468TIP3    H143361   2.905   0.327   4.197
14468TIP3    H243362   2.945   0.326   4.343
14469TIP3   OH243363   0.987   2.577   0.309
14469TIP3    H143364   0.909   2.620   0.276
14469TIP3    H243365   0.955   2.513   0.372
14470TIP3   OH243366   7.624   5.860   3.235
14470TIP3    H143367   7.582   5.940   3.203
14470TIP3    H243368   7.631   5.804   3.157
14471TIP3   OH243369   3.606   7.674   1.346
14471TIP3    H143370   3.579   7.646   1.259
14471TIP3    H243371   3.557   7.616   1.405
14472TIP3   OH243372   3.337   6.598   6.101
14472TIP3    H143373   3.427   6.610   6.071
14472TIP3    H243374   3.315   6.508   6.077
14473TIP3   OH243375   6.347   4.022   0.470
14473TIP3    H143376   6.296   4.081   0.526
14473TIP3    H243377   6.394   4.080   0.410
14474TIP3   OH243378   4.037   5.447   4.919
14474TIP3    H143379   4.096   5.484   4.986
14474TIP3    H243380   3.979   5.520   4.895
14475TIP3   OH243381   1.560   2.930   2.916
14475TIP3    H143382   1.593   2.847   2.881
14475TIP3    H243383   1.466   2.928   2.900
14476TIP3   OH243384   8.138   0.960   5.493
14476TIP3    H143385   8.159   0.905   5.417
14476TIP3    H243386   8.169   1.047   5.469
14477TIP3   OH243387   2.541   4.456   0.623
14477TIP3    H143388   2.532   4.445   0.529
14477TIP3    H243389   2.546   4.550   0.637
14478TIP3   OH243390   5.460   5.711   6.759
14478TIP3    H143391   5.487   5.620   6.751
14478TIP3    H243392   5.387   5.710   6.821
14479TIP3   OH243393   1.076   3.180   3.432
14479TIP3    H143394   1.089   3.255   3.374
14479TIP3    H243395   1.046   3.110   3.373
14480TIP3   OH243396   3.606   3.020   6.535
14480TIP3    H143397   3.556   3.098   6.511
14480TIP3    H243398   3.668   3.008   6.462
14481TIP3   OH243399   0.776   6.317   2.016
14481TIP3    H143400   0.719   6.381   1.975
14481TIP3    H243401   0.834   6.368   2.071
14482TIP3   OH243402   3.233   7.611   5.116
14482TIP3    H143403   3.270   7.641   5.033
14482TIP3    H243404   3.284   7.533   5.138
14483TIP3   OH243405   1.286   4.258   0.220
14483TIP3    H143406   1.230   4.232   0.148
14483TIP3    H243407   1.350   4.187   0.228
14484TIP3   OH243408   0.092   0.001   6.238
14484TIP3    H143409   0.086  -0.052   6.159
14484TIP3    H243410   0.165   0.061   6.221
14485TIP3   OH243411   4.278   6.336   3.269
14485TIP3    H143412   4.299   6.423   3.303
14485TIP3    H243413   4.301   6.276   3.340
14486TIP3   OH243414   2.738   0.031   4.883
14486TIP3    H143415   2.700   0.119   4.879
14486TIP3    H243416   2.738   0.009   4.977
14487TIP3   OH243417   2.702   4.640   3.518
14487TIP3    H143418   2.645   4.568   3.544
14487TIP3    H243419   2.673   4.664   3.430
14488TIP3   OH243420   6.601   4.269   5.003
14488TIP3    H143421   6.631   4.276   4.912
14488TIP3    H243422   6.614   4.357   5.039
14489TIP3   OH243423   5.500   1.723   5.436
14489TIP3    H143424   5.525   1.795   5.379
14489TIP3    H243425   5.419   1.689   5.399
14490TIP3   OH243426   0.075   7.085   5.208
14490TIP3    H143427   0.108   7.024   5.275
14490TIP3    H243428   0.103   7.171   5.238
14491TIP3   OH243429   6.326  -0.018   4.458
14491TIP3    H143430   6.286  -0.057   4.380
14491TIP3    H243431   6.282   0.067   4.467
14492TIP3   OH243432   7.387   5.634   6.528
14492TIP3    H143433   7.379   5.724   6.559
14492TIP3    H243434   7.482   5.621   6.519
14493TIP3   OH243435   2.424   3.069   1.921
14493TIP3    H143436   2.475   3.132   1.972
14493TIP3    H243437   2.333   3.092   1.939
14494TIP3   OH243438   1.229   6.300   3.309
14494TIP3    H143439   1.252   6.306   3.217
14494TIP3    H243440   1.213   6.206   3.324
14495TIP3   OH243441   2.435   1.955   2.103
14495TIP3    H143442   2.487   1.902   2.164
14495TIP3    H243443   2.496   2.021   2.071
14496TIP3   OH243444   1.280   7.164   3.103
14496TIP3    H143445   1.263   7.220   3.179
14496TIP3    H243446   1.374   7.150   3.103
14497TIP3   OH243447   1.722   3.140   2.971
14497TIP3    H143448   1.809   3.101   2.985
14497TIP3    H243449   1.663   3.065   2.963
14498TIP3   OH243450   6.537   0.785   2.503
14498TIP3    H143451   6.517   0.748   2.589
14498TIP3    H243452   6.592   0.862   2.522
14499TIP3   OH243453   3.431   0.600   0.867
14499TIP3    H143454   3.385   0.661   0.810
14499TIP3    H243455   3.385   0.517   0.855
14500TIP3   OH243456   1.532   6.424   0.007
14500TIP3    H143457   1.622   6.412   0.037
14500TIP3    H243458   1.536   6.501  -0.050
14501TIP3   OH243459   7.781   2.110   5.932
14501TIP3    H143460   7.838   2.093   6.006
14501TIP3    H243461   7.707   2.158   5.969
14502TIP3   OH243462   7.242   7.699   2.937
14502TIP3    H143463   7.149   7.709   2.919
14502TIP3    H243464   7.286   7.753   2.872
14503TIP3   OH243465   6.241   0.934   3.539
14503TIP3    H143466   6.333   0.907   3.529
14503TIP3    H243467   6.225   0.989   3.463
14504TIP3   OH243468   3.189   7.632   6.602
14504TIP3    H143469   3.165   7.539   6.604
14504TIP3    H243470   3.151   7.667   6.683
14505TIP3   OH243471   3.898   3.518   4.522
14505TIP3    H143472   3.811   3.553   4.539
14505TIP3    H243473   3.954   3.560   4.588
14506TIP3   OH243474   1.805   5.277   0.231
14506TIP3    H143475   1.749   5.347   0.266
14506TIP3    H243476   1.820   5.302   0.140
14507TIP3   OH243477   3.547   7.136   0.381
14507TIP3    H143478   3.548   7.073   0.309
14507TIP3    H243479   3.576   7.086   0.457
14508TIP3   OH243480   2.303   2.419   2.119
14508TIP3    H143481   2.396   2.400   2.107
14508TIP3    H243482   2.261   2.387   2.040
14509TIP3   OH243483   7.255   5.297   3.371
14509TIP3    H143484   7.263   5.281   3.277
14509TIP3    H243485   7.161   5.293   3.388
14510TIP3   OH243486   3.656   3.947   5.602
14510TIP3    H143487   3.629   3.860   5.575
14510TIP3    H243488   3.748   3.937   5.627
14511TIP3   OH243489   2.813   3.396   3.040
14511TIP3    H143490   2.732   3.367   2.998
14511TIP3    H243491   2.881   3.382   2.973
14512TIP3   OH243492   5.001   1.260   0.393
14512TIP3    H143493   4.920   1.310   0.378
14512TIP3    H243494   5.068   1.307   0.343
14513TIP3   OH243495   1.410   5.597   3.105
14513TIP3    H143496   1.443   5.558   3.024
14513TIP3    H243497   1.488   5.626   3.152
14514TIP3   OH243498   0.885   6.786   1.082
14514TIP3    H143499   0.958   6.842   1.107
14514TIP3    H243500   0.839   6.767   1.164
14515TIP3   OH243501   4.547   5.332   3.498
14515TIP3    H143502   4.454   5.311   3.505
14515TIP3    H243503   4.586   5.256   3.454
14516TIP3   OH243504   2.455   4.934   4.929
14516TIP3    H143505   2.507   4.854   4.940
14516TIP3    H243506   2.384   4.926   4.992
14517TIP3   OH243507   1.745   7.207   3.827
14517TIP3    H143508   1.767   7.243   3.741
14517TIP3    H243509   1.766   7.277   3.889
14518TIP3   OH243510   7.013   1.190   1.785
14518TIP3    H143511   7.016   1.208   1.879
14518TIP3    H243512   7.100   1.153   1.765
14519TIP3   OH243513   3.592   4.147   0.733
14519TIP3    H143514   3.637   4.083   0.787
14519TIP3    H243515   3.499   4.126   0.742
14520TIP3   OH243516   3.409   1.391   4.284
14520TIP3    H143517   3.468   1.368   4.213
14520TIP3    H243518   3.382   1.308   4.322
14521TIP3   OH243519   6.803   2.351   3.051
14521TIP3    H143520   6.731   2.355   2.987
14521TIP3    H243521   6.870   2.409   3.016
14522TIP3   OH243522   3.175   3.650   5.940
14522TIP3    H143523   3.167   3.742   5.913
14522TIP3    H243524   3.232   3.610   5.874
14523TIP3   OH243525   1.244   0.776   4.944
14523TIP3    H143526   1.191   0.852   4.964
14523TIP3    H243527   1.286   0.796   4.860
14524TIP3   OH243528   0.372   6.235   6.043
14524TIP3    H143529   0.276   6.243   6.043
14524TIP3    H243530   0.399   6.278   5.962
14525TIP3   OH243531   1.411   7.310   1.838
14525TIP3    H143532   1.438   7.402   1.838
14525TIP3    H243533   1.484   7.264   1.879
14526TIP3   OH243534   4.663   1.240   5.987
14526TIP3    H143535   4.732   1.175   5.997
14526TIP3    H243536   4.587   1.190   5.956
14527TIP3   OH243537   2.429   5.229   0.995
14527TIP3    H143538   2.365   5.245   0.927
14527TIP3    H243539   2.490   5.166   0.956
14528TIP3   OH243540   5.323   6.299   0.548
14528TIP3    H143541   5.372   6.258   0.619
14528TIP3    H243542   5.368   6.382   0.532
14529TIP3   OH243543   3.714   6.207   6.173
14529TIP3    H143544   3.795   6.172   6.138
14529TIP3    H243545   3.736   6.235   6.262
14530TIP3   OH243546   5.587   3.039   1.744
14530TIP3    H143547   5.615   2.953   1.711
14530TIP3    H243548   5.555   3.021   1.833
14531TIP3   OH243549   2.421   5.657   1.128
14531TIP3    H143550   2.332   5.666   1.163
14531TIP3    H243551   2.437   5.741   1.083
14532TIP3   OH243552   2.422   5.985   6.585
14532TIP3    H143553   2.344   5.933   6.567
14532TIP3    H243554   2.427   6.047   6.512
14533TIP3   OH243555   4.587  -0.022   0.177
14533TIP3    H143556   4.629   0.025   0.104
14533TIP3    H243557   4.518   0.037   0.206
14534TIP3   OH243558   3.108   2.977   2.709
14534TIP3    H143559   3.114   2.885   2.735
14534TIP3    H243560   3.125   3.026   2.789
14535TIP3   OH243561   3.582   6.590   1.710
14535TIP3    H143562   3.594   6.636   1.793
14535TIP3    H243563   3.547   6.505   1.735
14536TIP3   OH243564   2.606   3.067   3.787
14536TIP3    H143565   2.561   3.152   3.784
14536TIP3    H243566   2.564   3.016   3.718
14537TIP3   OH243567   4.378   7.485   3.685
14537TIP3    H143568   4.341   7.459   3.769
14537TIP3    H243569   4.429   7.409   3.657
14538TIP3   OH243570   8.095   3.610   1.594
14538TIP3    H143571   8.021   3.554   1.619
14538TIP3    H243572   8.148   3.555   1.537
14539TIP3   OH243573   2.573   7.044   1.345
14539TIP3    H143574   2.562   6.984   1.418
14539TIP3    H243575   2.647   7.009   1.296
14540TIP3   OH243576   3.838   7.393   1.223
14540TIP3    H143577   3.859   7.382   1.130
14540TIP3    H243578   3.854   7.485   1.241
14541TIP3   OH243579   0.547   6.551   1.384
14541TIP3    H143580   0.470   6.526   1.333
14541TIP3    H243581   0.600   6.604   1.323
14542TIP3   OH243582   5.845   7.340   0.565
14542TIP3    H143583   5.904   7.266   0.547
14542TIP3    H243584   5.760   7.312   0.531
14543TIP3   OH243585   6.885   5.874   0.138
14543TIP3    H143586   6.920   5.921   0.214
14543TIP3    H243587   6.955   5.877   0.074
14544TIP3   OH243588   3.926   6.344   0.413
14544TIP3    H143589   4.014   6.333   0.377
14544TIP3    H243590   3.911   6.263   0.462
14545TIP3   OH243591   0.297   6.551   6.678
14545TIP3    H143592   0.209   6.545   6.639
14545TIP3    H243593   0.341   6.619   6.627
14546TIP3   OH243594   2.229   4.816   4.188
14546TIP3    H143595   2.233   4.857   4.275
14546TIP3    H243596   2.154   4.857   4.145
14547TIP3   OH243597   3.557   4.043   4.563
14547TIP3    H143598   3.632   3.983   4.558
14547TIP3    H243599   3.561   4.079   4.651
14548TIP3   OH243600   5.691   3.886   5.922
14548TIP3    H143601   5.739   3.913   5.843
14548TIP3    H243602   5.644   3.965   5.949
14549TIP3   OH243603   2.833   6.176   4.413
14549TIP3    H143604   2.905   6.178   4.350
14549TIP3    H243605   2.869   6.217   4.492
14550TIP3   OH243606   4.222   1.809   2.173
14550TIP3    H143607   4.294   1.786   2.231
14550TIP3    H243608   4.203   1.900   2.193
14551TIP3   OH243609   2.203   2.439   3.246
14551TIP3    H143610   2.277   2.382   3.266
14551TIP3    H243611   2.127   2.381   3.249
14552TIP3   OH243612   3.777   5.912   5.741
14552TIP3    H143613   3.808   5.997   5.711
14552TIP3    H243614   3.841   5.850   5.708
14553TIP3   OH243615   0.209   0.925   6.281
14553TIP3    H143616   0.148   0.862   6.243
14553TIP3    H243617   0.190   0.922   6.375
14554TIP3   OH243618   0.854   1.676   1.012
14554TIP3    H143619   0.873   1.591   1.052
14554TIP3    H243620   0.828   1.655   0.922
14555TIP3   OH243621   5.615   5.006   4.990
14555TIP3    H143622   5.537   5.058   5.005
14555TIP3    H243623   5.656   5.044   4.913
14556TIP3   OH243624   6.962   1.016   2.540
14556TIP3    H143625   7.007   0.932   2.547
14556TIP3    H243626   6.960   1.049   2.629
14557TIP3   OH243627   0.823   3.985   5.319
14557TIP3    H143628   0.904   3.948   5.283
14557TIP3    H243629   0.815   4.071   5.278
14558TIP3   OH243630   6.377   6.585   4.937
14558TIP3    H143631   6.333   6.669   4.951
14558TIP3    H243632   6.330   6.544   4.865
14559TIP3   OH243633   6.760   2.469   0.568
14559TIP3    H143634   6.683   2.415   0.552
14559TIP3    H243635   6.825   2.408   0.603
14560TIP3   OH243636   3.227   6.988   2.448
14560TIP3    H143637   3.199   7.079   2.462
14560TIP3    H243638   3.159   6.935   2.491
14561TIP3   OH243639   0.726   1.897   6.672
14561TIP3    H143640   0.730   1.892   6.576
14561TIP3    H243641   0.666   1.827   6.697
14562TIP3   OH243642   0.123   4.439   0.771
14562TIP3    H143643   0.032   4.462   0.754
14562TIP3    H243644   0.156   4.406   0.688
14563TIP3   OH243645   1.144   7.188   1.311
14563TIP3    H143646   1.174   7.277   1.295
14563TIP3    H243647   1.210   7.132   1.269
14564TIP3   OH243648   5.058   6.609   4.030
14564TIP3    H143649   5.068   6.514   4.027
14564TIP3    H243650   5.148   6.642   4.032
14565TIP3   OH243651   0.252   2.807   2.577
14565TIP3    H143652   0.275   2.827   2.668
14565TIP3    H243653   0.167   2.764   2.582
14566TIP3   OH243654   5.711   2.233   2.244
14566TIP3    H143655   5.772   2.289   2.293
14566TIP3    H243656   5.758   2.211   2.164
14567TIP3   OH243657   4.458   6.200   4.295
14567TIP3    H143658   4.379   6.164   4.335
14567TIP3    H243659   4.451   6.295   4.309
14568TIP3   OH243660   2.173   3.199   2.582
14568TIP3    H143661   2.182   3.154   2.498
14568TIP3    H243662   2.086   3.176   2.613
14569TIP3   OH243663   6.168   1.859   0.467
14569TIP3    H143664   6.108   1.934   0.476
14569TIP3    H243665   6.110   1.783   0.459
14570TIP3   OH243666   4.744   3.109   0.424
14570TIP3    H143667   4.810   3.045   0.451
14570TIP3    H243668   4.690   3.121   0.502
14571TIP3   OH243669   5.585   2.958   2.797
14571TIP3    H143670   5.588   2.959   2.892
14571TIP3    H243671   5.513   2.898   2.776
14572TIP3   OH243672   5.395   4.238   2.306
14572TIP3    H143673   5.485   4.228   2.336
14572TIP3    H243674   5.343   4.185   2.367
14573TIP3   OH243675   7.971   7.478   1.922
14573TIP3    H143676   7.930   7.391   1.925
14573TIP3    H243677   7.901   7.539   1.943
14574TIP3   OH243678   8.229   5.525   1.284
14574TIP3    H143679   8.197   5.595   1.341
14574TIP3    H243680   8.170   5.452   1.300
14575TIP3   OH243681   6.930   3.819   1.844
14575TIP3    H143682   6.857   3.759   1.862
14575TIP3    H243683   6.996   3.798   1.909
14576TIP3   OH243684   2.135   3.571   4.441
14576TIP3    H143685   2.208   3.546   4.385
14576TIP3    H243686   2.149   3.664   4.459
14577TIP3   OH243687   2.810   5.182   2.041
14577TIP3    H143688   2.836   5.090   2.035
14577TIP3    H243689   2.889   5.231   2.020
14578TIP3   OH243690   5.267   0.082   2.439
14578TIP3    H143691   5.228   0.024   2.504
14578TIP3    H243692   5.210   0.075   2.362
14579TIP3   OH243693   5.574   0.551   3.816
14579TIP3    H143694   5.582   0.460   3.843
14579TIP3    H243695   5.585   0.550   3.721
14580TIP3   OH243696   2.777   3.225   0.274
14580TIP3    H143697   2.836   3.273   0.215
14580TIP3    H243698   2.822   3.142   0.291
14581TIP3   OH243699   4.233   6.517   5.836
14581TIP3    H143700   4.223   6.465   5.916
14581TIP3    H243701   4.321   6.497   5.805
14582TIP3   OH243702   7.855   6.445   5.530
14582TIP3    H143703   7.856   6.502   5.607
14582TIP3    H243704   7.805   6.494   5.464
14583TIP3   OH243705   5.783   6.347   1.967
14583TIP3    H143706   5.861   6.327   1.915
14583TIP3    H243707   5.714   6.363   1.902
14584TIP3   OH243708   4.225   4.650   4.451
14584TIP3    H143709   4.312   4.691   4.449
14584TIP3    H243710   4.180   4.694   4.524
14585TIP3   OH243711   5.705   6.295   0.393
14585TIP3    H143712   5.757   6.291   0.474
14585TIP3    H243713   5.701   6.204   0.363
14586TIP3   OH243714   5.416   3.748   2.402
14586TIP3    H143715   5.410   3.694   2.323
14586TIP3    H243716   5.479   3.817   2.380
14587TIP3   OH243717   2.478   2.082   6.417
14587TIP3    H143718   2.494   2.024   6.342
14587TIP3    H243719   2.436   2.159   6.380
14588TIP3   OH243720   8.253   5.086   3.198
14588TIP3    H143721   8.335   5.079   3.247
14588TIP3    H243722   8.215   4.998   3.202
14589TIP3   OH243723   2.474   4.047   0.327
14589TIP3    H143724   2.514   4.060   0.240
14589TIP3    H243725   2.485   3.954   0.345
14590TIP3   OH243726   0.070   0.333   4.351
14590TIP3    H143727   0.080   0.427   4.339
14590TIP3    H243728   0.159   0.300   4.366
14591TIP3   OH243729   2.410   5.025   1.703
14591TIP3    H143730   2.434   5.118   1.696
14591TIP3    H243731   2.408   4.994   1.612
14592TIP3   OH243732   3.571   1.692   0.654
14592TIP3    H143733   3.560   1.609   0.701
14592TIP3    H243734   3.483   1.717   0.628
14593TIP3   OH243735   3.737   2.268   0.972
14593TIP3    H143736   3.739   2.348   0.919
14593TIP3    H243737   3.821   2.227   0.956
14594TIP3   OH243738   0.990   3.804   0.260
14594TIP3    H143739   0.947   3.850   0.332
14594TIP3    H243740   0.936   3.823   0.184
14595TIP3   OH243741   7.177   6.302   3.959
14595TIP3    H143742   7.234   6.348   4.021
14595TIP3    H243743   7.235   6.237   3.918
14596TIP3   OH243744   4.477   4.481   6.178
14596TIP3    H143745   4.436   4.522   6.254
14596TIP3    H243746   4.565   4.519   6.175
14597TIP3   OH243747   6.940   5.477   5.841
14597TIP3    H143748   6.897   5.553   5.801
14597TIP3    H243749   6.911   5.403   5.788
14598TIP3   OH243750   6.905   0.594   0.427
14598TIP3    H143751   6.890   0.597   0.332
14598TIP3    H243752   7.001   0.589   0.435
14599TIP3   OH243753   3.048   4.456   2.347
14599TIP3    H143754   3.098   4.533   2.319
14599TIP3    H243755   3.092   4.382   2.305
14600TIP3   OH243756   6.486   2.848   1.811
14600TIP3    H143757   6.525   2.935   1.821
14600TIP3    H243758   6.561   2.790   1.798
14601TIP3   OH243759   0.081   7.045   0.227
14601TIP3    H143760   0.135   6.967   0.239
14601TIP3    H243761   0.033   7.054   0.309
14602TIP3   OH243762   2.260   5.332   0.454
14602TIP3    H143763   2.338   5.383   0.478
14602TIP3    H243764   2.188   5.395   0.459
14603TIP3   OH243765   7.680   0.931   4.986
14603TIP3    H143766   7.723   1.004   5.031
14603TIP3    H243767   7.586   0.950   4.996
14604TIP3   OH243768   6.118   6.628   5.498
14604TIP3    H143769   6.170   6.691   5.548
14604TIP3    H243770   6.173   6.550   5.493
14605TIP3   OH243771   3.470   3.738   5.527
14605TIP3    H143772   3.412   3.670   5.494
14605TIP3    H243773   3.523   3.694   5.595
14606TIP3   OH243774   0.703   3.878   1.287
14606TIP3    H143775   0.654   3.803   1.253
14606TIP3    H243776   0.699   3.869   1.382
14607TIP3   OH243777   2.134   2.404   0.088
14607TIP3    H143778   2.091   2.400   0.173
14607TIP3    H243779   2.228   2.399   0.108
14608TIP3   OH243780   8.166   5.390   0.722
14608TIP3    H143781   8.091   5.333   0.704
14608TIP3    H243782   8.142   5.436   0.802
14609TIP3   OH243783   7.841   4.819   1.764
14609TIP3    H143784   7.865   4.831   1.672
14609TIP3    H243785   7.748   4.844   1.768
14610TIP3   OH243786   7.347   2.001   4.190
14610TIP3    H143787   7.353   1.945   4.113
14610TIP3    H243788   7.339   2.090   4.155
14611TIP3   OH243789   0.696   0.843   2.799
14611TIP3    H143790   0.612   0.796   2.800
14611TIP3    H243791   0.683   0.914   2.737
14612TIP3   OH243792   0.680   7.797   6.349
14612TIP3    H143793   0.649   7.802   6.259
14612TIP3    H243794   0.773   7.776   6.342
14613TIP3   OH243795   0.237   5.228   2.478
14613TIP3    H143796   0.227   5.133   2.479
14613TIP3    H243797   0.149   5.261   2.459
14614TIP3   OH243798   2.295   5.316   3.327
14614TIP3    H143799   2.264   5.243   3.379
14614TIP3    H243800   2.342   5.372   3.390
14615TIP3   OH243801   6.833   5.516   6.116
14615TIP3    H143802   6.905   5.579   6.124
14615TIP3    H243803   6.845   5.476   6.030
14616TIP3   OH243804   5.958   3.882   5.186
14616TIP3    H143805   5.945   3.818   5.116
14616TIP3    H243806   5.994   3.831   5.259
14617TIP3   OH243807   5.538   7.326   6.631
14617TIP3    H143808   5.481   7.389   6.676
14617TIP3    H243809   5.626   7.361   6.642
14618TIP3   OH243810   2.161   0.018   0.073
14618TIP3    H143811   2.071   0.034   0.098
14618TIP3    H243812   2.202  -0.019   0.152
14619TIP3   OH243813   3.718   5.482   2.589
14619TIP3    H143814   3.671   5.449   2.666
14619TIP3    H243815   3.809   5.488   2.618
14620TIP3   OH243816   5.362   3.118   2.438
14620TIP3    H143817   5.418   3.175   2.490
14620TIP3    H243818   5.413   3.037   2.427
14621TIP3   OH243819   3.528   1.224   3.974
14621TIP3    H143820   3.578   1.143   3.988
14621TIP3    H243821   3.441   1.205   4.010
14622TIP3   OH243822   1.240   1.114   4.042
14622TIP3    H143823   1.263   1.197   4.085
14622TIP3    H243824   1.162   1.135   3.992
14623TIP3   OH243825   7.088   7.091   2.605
14623TIP3    H143826   7.183   7.098   2.606
14623TIP3    H243827   7.058   7.147   2.677
14624TIP3   OH243828   3.031   0.311   3.738
14624TIP3    H143829   3.065   0.385   3.688
14624TIP3    H243830   2.987   0.351   3.813
14625TIP3   OH243831   7.317   5.201   3.897
14625TIP3    H143832   7.291   5.116   3.864
14625TIP3    H243833   7.251   5.262   3.865
14626TIP3   OH243834   1.108   2.766   1.850
14626TIP3    H143835   1.182   2.799   1.800
14626TIP3    H243836   1.139   2.762   1.940
14627TIP3   OH243837   0.112   0.500   0.468
14627TIP3    H143838   0.075   0.544   0.545
14627TIP3    H243839   0.063   0.535   0.394
14628TIP3   OH243840   4.716   3.110   4.056
14628TIP3    H143841   4.715   3.077   4.146
14628TIP3    H243842   4.636   3.161   4.048
14629TIP3   OH243843   6.782   2.674   6.565
14629TIP3    H143844   6.845   2.609   6.597
14629TIP3    H243845   6.752   2.639   6.481
14630TIP3   OH243846   5.519   6.514   0.360
14630TIP3    H143847   5.492   6.525   0.451
14630TIP3    H243848   5.583   6.443   0.363
14631TIP3   OH243849   6.682   4.686   0.625
14631TIP3    H143850   6.757   4.744   0.636
14631TIP3    H243851   6.626   4.705   0.701
14632TIP3   OH243852   4.278   3.466   6.085
14632TIP3    H143853   4.223   3.441   6.010
14632TIP3    H243854   4.320   3.384   6.111
14633TIP3   OH243855   2.770   7.837   0.880
14633TIP3    H143856   2.784   7.742   0.879
14633TIP3    H243857   2.768   7.860   0.973
14634TIP3   OH243858   5.758   0.336   1.158
14634TIP3    H143859   5.839   0.309   1.201
14634TIP3    H243860   5.763   0.431   1.154
14635TIP3   OH243861   0.870   4.341   1.861
14635TIP3    H143862   0.904   4.292   1.786
14635TIP3    H243863   0.861   4.431   1.830
14636TIP3   OH243864   4.368   2.581   3.876
14636TIP3    H143865   4.405   2.642   3.812
14636TIP3    H243866   4.402   2.496   3.851
14637TIP3   OH243867   1.482   5.791   0.798
14637TIP3    H143868   1.483   5.885   0.781
14637TIP3    H243869   1.485   5.783   0.893
14638TIP3   OH243870   3.934   0.630   5.673
14638TIP3    H143871   3.872   0.570   5.631
14638TIP3    H243872   4.021   0.598   5.646
14639TIP3   OH243873   5.938   3.562   0.999
14639TIP3    H143874   5.939   3.473   1.036
14639TIP3    H243875   5.847   3.577   0.974
14640TIP3   OH243876   3.725   5.309   4.578
14640TIP3    H143877   3.717   5.287   4.670
14640TIP3    H243878   3.693   5.232   4.531
14641TIP3   OH243879   6.065   2.227   0.114
14641TIP3    H143880   6.086   2.305   0.166
14641TIP3    H243881   5.997   2.256   0.054
14642TIP3   OH243882   7.052   6.481   3.284
14642TIP3    H143883   7.004   6.492   3.202
14642TIP3    H243884   7.014   6.403   3.323
14643TIP3   OH243885   3.334   0.866   3.834
14643TIP3    H143886   3.367   0.836   3.919
14643TIP3    H243887   3.395   0.935   3.808
14644TIP3   OH243888   1.577   6.927   6.238
14644TIP3    H143889   1.495   6.899   6.279
14644TIP3    H243890   1.552   6.945   6.147
14645TIP3   OH243891   7.327   5.208   6.325
14645TIP3    H143892   7.316   5.303   6.334
14645TIP3    H243893   7.251   5.171   6.369
14646TIP3   OH243894   6.251   3.256   0.449
14646TIP3    H143895   6.319   3.306   0.404
14646TIP3    H243896   6.214   3.200   0.381
14647TIP3   OH243897   3.936   2.876   2.852
14647TIP3    H143898   3.976   2.943   2.908
14647TIP3    H243899   3.926   2.800   2.910
14648TIP3   OH243900   2.857   7.424   1.503
14648TIP3    H143901   2.863   7.513   1.467
14648TIP3    H243902   2.829   7.371   1.429
14649TIP3   OH243903   5.602   7.325   4.905
14649TIP3    H143904   5.586   7.237   4.870
14649TIP3    H243905   5.698   7.332   4.909
14650TIP3   OH243906   7.255   3.630   1.313
14650TIP3    H143907   7.262   3.669   1.400
14650TIP3    H243908   7.326   3.565   1.310
14651TIP3   OH243909   5.011   1.065   1.738
14651TIP3    H143910   5.074   1.106   1.678
14651TIP3    H243911   5.025   1.110   1.821
14652TIP3   OH243912   2.931   2.053   2.497
14652TIP3    H143913   2.939   2.093   2.411
14652TIP3    H243914   3.022   2.037   2.524
14653TIP3   OH243915   2.081   4.577   3.467
14653TIP3    H143916   1.991   4.574   3.499
14653TIP3    H243917   2.074   4.602   3.375
14654TIP3   OH243918   0.632   5.691   6.044
14654TIP3    H143919   0.673   5.761   6.094
14654TIP3    H243920   0.543   5.687   6.077
14655TIP3   OH243921   4.596   3.514   1.673
14655TIP3    H143922   4.691   3.509   1.682
14655TIP3    H243923   4.579   3.482   1.584
14656TIP3   OH243924   5.409   5.960   6.205
14656TIP3    H143925   5.487   5.961   6.260
14656TIP3    H243926   5.350   5.898   6.249
14657TIP3   OH243927   5.103   0.573   4.706
14657TIP3    H143928   5.015   0.586   4.671
14657TIP3    H243929   5.105   0.481   4.732
14658TIP3   OH243930   4.596   4.026   0.837
14658TIP3    H143931   4.615   3.942   0.795
14658TIP3    H243932   4.568   4.083   0.765
14659TIP3   OH243933   0.889   5.955   1.336
14659TIP3    H143934   0.856   5.890   1.397
14659TIP3    H243935   0.908   6.032   1.390
14660TIP3   OH243936   7.634   6.115   4.289
14660TIP3    H143937   7.547   6.088   4.318
14660TIP3    H243938   7.694   6.062   4.342
14661TIP3   OH243939   0.413   4.729   6.738
14661TIP3    H143940   0.496   4.746   6.782
14661TIP3    H243941   0.370   4.663   6.792
14662TIP3   OH243942   0.214   6.553   1.688
14662TIP3    H143943   0.281   6.485   1.698
14662TIP3    H243944   0.251   6.630   1.730
14663TIP3   OH243945   2.526   5.761   4.540
14663TIP3    H143946   2.578   5.700   4.591
14663TIP3    H243947   2.520   5.840   4.595
14664TIP3   OH243948   2.783   2.300   3.795
14664TIP3    H143949   2.782   2.206   3.780
14664TIP3    H243950   2.703   2.318   3.845
14665TIP3   OH243951   4.246   2.406   4.258
14665TIP3    H143952   4.288   2.391   4.343
14665TIP3    H243953   4.176   2.341   4.255
14666TIP3   OH243954   7.682   6.105   0.995
14666TIP3    H143955   7.670   6.020   0.952
14666TIP3    H243956   7.686   6.084   1.088
14667TIP3   OH243957   5.364   6.504   6.724
14667TIP3    H143958   5.390   6.529   6.813
14667TIP3    H243959   5.305   6.430   6.737
14668TIP3   OH243960   3.826   3.367   0.770
14668TIP3    H143961   3.866   3.378   0.856
14668TIP3    H243962   3.897   3.386   0.708
14669TIP3   OH243963   3.854   2.352   4.833
14669TIP3    H143964   3.828   2.426   4.779
14669TIP3    H243965   3.872   2.282   4.770
14670TIP3   OH243966   0.110   7.383   2.513
14670TIP3    H143967   0.144   7.414   2.429
14670TIP3    H243968   0.016   7.370   2.497
14671TIP3   OH243969   7.983   6.931   4.431
14671TIP3    H143970   8.048   6.943   4.500
14671TIP3    H243971   7.979   6.837   4.417
14672TIP3   OH243972   3.875   5.602   1.828
14672TIP3    H143973   3.951   5.611   1.771
14672TIP3    H243974   3.802   5.584   1.768
14673TIP3   OH243975   2.695   3.186   3.242
14673TIP3    H143976   2.736   3.200   3.156
14673TIP3    H243977   2.760   3.217   3.305
14674TIP3   OH243978   1.532   4.774   1.748
14674TIP3    H143979   1.436   4.776   1.741
14674TIP3    H243980   1.560   4.861   1.720
14675TIP3   OH243981   1.419   4.500   0.217
14675TIP3    H143982   1.369   4.566   0.169
14675TIP3    H243983   1.369   4.419   0.206
14676TIP3   OH243984   3.444   6.130   3.635
14676TIP3    H143985   3.409   6.062   3.578
14676TIP3    H243986   3.379   6.141   3.704
14677TIP3   OH243987   0.211   4.343   2.136
14677TIP3    H143988   0.248   4.359   2.222
14677TIP3    H243989   0.176   4.254   2.142
14678TIP3   OH243990   1.251   2.478   1.300
14678TIP3    H143991   1.258   2.571   1.277
14678TIP3    H243992   1.194   2.478   1.377
14679TIP3   OH243993   2.709   4.102   5.352
14679TIP3    H143994   2.726   4.050   5.274
14679TIP3    H243995   2.722   4.193   5.325
14680TIP3   OH243996   7.456   1.819   1.715
14680TIP3    H143997   7.532   1.876   1.715
14680TIP3    H243998   7.399   1.854   1.784
14681TIP3   OH243999   4.821   3.571   3.846
14681TIP3    H144000   4.842   3.582   3.753
14681TIP3    H244001   4.748   3.509   3.847
14682TIP3   OH244002   4.528   5.272   2.807
14682TIP3    H144003   4.436   5.288   2.828
14682TIP3    H244004   4.529   5.184   2.770
14683TIP3   OH244005   1.837   0.058   3.434
14683TIP3    H144006   1.793   0.049   3.349
14683TIP3    H244007   1.767   0.086   3.493
14684TIP3   OH244008   7.600   5.153   5.323
14684TIP3    H144009   7.630   5.195   5.404
14684TIP3    H244010   7.602   5.222   5.258
14685TIP3   OH244011   3.439   4.977   4.399
14685TIP3    H144012   3.366   5.021   4.356
14685TIP3    H244013   3.410   4.887   4.412
14686TIP3   OH244014   5.512   6.502   6.502
14686TIP3    H144015   5.602   6.500   6.536
14686TIP3    H244016   5.457   6.496   6.581
14687TIP3   OH244017   1.280   5.661   5.086
14687TIP3    H144018   1.279   5.662   4.991
14687TIP3    H244019   1.372   5.672   5.109
14688TIP3   OH244020   5.072   5.291   4.683
14688TIP3    H144021   5.123   5.299   4.763
14688TIP3    H244022   5.081   5.376   4.640
14689TIP3   OH244023   3.483   4.952   0.984
14689TIP3    H144024   3.568   4.920   0.954
14689TIP3    H244025   3.419   4.899   0.936
14690TIP3   OH244026   4.660   1.713   2.243
14690TIP3    H144027   4.680   1.768   2.167
14690TIP3    H244028   4.706   1.630   2.225
14691TIP3   OH244029   2.710   5.233   1.253
14691TIP3    H144030   2.762   5.309   1.226
14691TIP3    H244031   2.639   5.271   1.305
14692TIP3   OH244032   6.022   5.123   5.443
14692TIP3    H144033   6.019   5.032   5.474
14692TIP3    H244034   6.066   5.171   5.513
14693TIP3   OH244035   2.743   3.747   6.265
14693TIP3    H144036   2.707   3.791   6.342
14693TIP3    H244037   2.668   3.704   6.225
14694TIP3   OH244038   4.700   2.517   4.008
14694TIP3    H144039   4.655   2.469   3.938
14694TIP3    H244040   4.702   2.455   4.082
14695TIP3   OH244041   0.276   0.163   1.176
14695TIP3    H144042   0.248   0.209   1.097
14695TIP3    H244043   0.371   0.169   1.174
14696TIP3   OH244044   4.596   6.854   2.860
14696TIP3    H144045   4.523   6.836   2.920
14696TIP3    H244046   4.572   6.808   2.780
14697TIP3   OH244047   6.590   3.807   1.023
14697TIP3    H144048   6.586   3.782   1.115
14697TIP3    H244049   6.619   3.898   1.024
14698TIP3   OH244050   6.258   1.608   0.924
14698TIP3    H144051   6.283   1.629   1.014
14698TIP3    H244052   6.217   1.688   0.892
14699TIP3   OH244053   6.871   0.783   3.130
14699TIP3    H144054   6.805   0.778   3.061
14699TIP3    H244055   6.922   0.861   3.108
14700TIP3   OH244056   6.799   1.390   5.475
14700TIP3    H144057   6.859   1.438   5.419
14700TIP3    H244058   6.752   1.331   5.416
14701TIP3   OH244059   2.672   7.378   3.765
14701TIP3    H144060   2.713   7.465   3.762
14701TIP3    H244061   2.745   7.318   3.751
14702TIP3   OH244062   0.711   7.186   1.352
14702TIP3    H144063   0.789   7.231   1.386
14702TIP3    H244064   0.746   7.124   1.287
14703TIP3   OH244065   2.070   7.652   4.276
14703TIP3    H144066   2.027   7.566   4.266
14703TIP3    H244067   2.007   7.714   4.240
14704TIP3   OH244068   2.674   1.757   3.610
14704TIP3    H144069   2.723   1.741   3.690
14704TIP3    H244070   2.730   1.815   3.558
14705TIP3   OH244071   5.754   1.760   4.647
14705TIP3    H144072   5.818   1.690   4.660
14705TIP3    H244073   5.749   1.770   4.552
14706TIP3   OH244074   2.772   0.180   3.687
14706TIP3    H144075   2.826   0.102   3.677
14706TIP3    H244076   2.830   0.252   3.664
14707TIP3   OH244077   6.490   6.023   4.716
14707TIP3    H144078   6.450   6.082   4.652
14707TIP3    H244079   6.584   6.028   4.698
14708TIP3   OH244080   7.486   2.662   3.256
14708TIP3    H144081   7.578   2.657   3.284
14708TIP3    H244082   7.436   2.646   3.335
14709TIP3   OH244083   2.084   6.309   3.848
14709TIP3    H144084   2.117   6.248   3.782
14709TIP3    H244085   2.138   6.293   3.925
14710TIP3   OH244086   6.281   6.843   5.672
14710TIP3    H144087   6.325   6.876   5.593
14710TIP3    H244088   6.301   6.908   5.739
14711TIP3   OH244089   4.496   4.867   3.530
14711TIP3    H144090   4.587   4.862   3.556
14711TIP3    H244091   4.447   4.858   3.612
14712TIP3   OH244092   5.099   1.153   3.791
14712TIP3    H144093   5.178   1.119   3.833
14712TIP3    H244094   5.032   1.152   3.859
14713TIP3   OH244095   1.551   3.988   2.514
14713TIP3    H144096   1.620   3.986   2.580
14713TIP3    H244097   1.474   4.021   2.561
14714TIP3   OH244098   5.281   5.906   5.359
14714TIP3    H144099   5.261   5.919   5.266
14714TIP3    H244100   5.288   5.994   5.395
14715TIP3   OH244101   4.327   4.559   5.709
14715TIP3    H144102   4.347   4.652   5.712
14715TIP3    H244103   4.331   4.530   5.800
14716TIP3   OH244104   0.205   2.256   1.269
14716TIP3    H144105   0.180   2.166   1.291
14716TIP3    H244106   0.293   2.266   1.305
14717TIP3   OH244107   1.003   4.601   6.364
14717TIP3    H144108   0.913   4.634   6.358
14717TIP3    H244109   1.033   4.629   6.450
14718TIP3   OH244110   1.664   4.738   6.390
14718TIP3    H144111   1.706   4.818   6.420
14718TIP3    H244112   1.654   4.685   6.470
14719TIP3   OH244113   3.047   4.655   4.711
14719TIP3    H144114   3.116   4.610   4.759
14719TIP3    H244115   3.028   4.597   4.637
14720TIP3   OH244116   5.199   4.259   4.018
14720TIP3    H144117   5.260   4.260   4.092
14720TIP3    H244118   5.120   4.302   4.050
14721TIP3   OH244119   6.222   6.589   0.475
14721TIP3    H144120   6.194   6.673   0.438
14721TIP3    H244121   6.145   6.532   0.465
14722TIP3   OH244122   4.513   2.108   5.186
14722TIP3    H144123   4.436   2.104   5.242
14722TIP3    H244124   4.517   2.022   5.144
14723TIP3   OH244125   5.953   4.886   1.896
14723TIP3    H144126   6.029   4.900   1.839
14723TIP3    H244127   5.972   4.940   1.973
14724TIP3   OH244128   1.936   3.609   0.344
14724TIP3    H144129   1.937   3.688   0.399
14724TIP3    H244130   2.028   3.584   0.336
14725TIP3   OH244131   7.028   7.388   0.575
14725TIP3    H144132   7.059   7.447   0.643
14725TIP3    H244133   6.933   7.394   0.579
14726TIP3   OH244134   1.854   2.194   5.461
14726TIP3    H144135   1.800   2.127   5.420
14726TIP3    H244136   1.826   2.276   5.419
14727TIP3   OH244137   4.987   0.616   5.071
14727TIP3    H144138   4.951   0.653   5.152
14727TIP3    H244139   4.992   0.691   5.011
14728TIP3   OH244140   7.673   3.084   4.629
14728TIP3    H144141   7.611   3.122   4.566
14728TIP3    H244142   7.643   2.995   4.642
14729TIP3   OH244143   3.219   4.729   4.237
14729TIP3    H144144   3.144   4.670   4.234
14729TIP3    H244145   3.196   4.801   4.179
14730TIP3   OH244146   0.523   1.411   3.184
14730TIP3    H144147   0.476   1.404   3.100
14730TIP3    H244148   0.469   1.472   3.235
14731TIP3   OH244149   2.771   4.790   4.995
14731TIP3    H144150   2.727   4.725   4.941
14731TIP3    H244151   2.816   4.847   4.932
14732TIP3   OH244152   2.691   1.001   4.466
14732TIP3    H144153   2.612   0.961   4.503
14732TIP3    H244154   2.742   0.927   4.434
14733TIP3   OH244155   4.714   1.837   1.809
14733TIP3    H144156   4.757   1.759   1.774
14733TIP3    H244157   4.756   1.910   1.765
14734TIP3   OH244158   4.860   2.438   1.396
14734TIP3    H144159   4.856   2.454   1.490
14734TIP3    H244160   4.952   2.453   1.373
14735TIP3   OH244161   0.120   5.776   3.046
14735TIP3    H144162   0.107   5.718   3.122
14735TIP3    H244163   0.032   5.803   3.021
14736TIP3   OH244164   0.094   3.989   4.120
14736TIP3    H144165   0.175   4.019   4.080
14736TIP3    H244166   0.117   3.976   4.212
14737TIP3   OH244167   1.991   7.285   6.464
14737TIP3    H144168   1.969   7.242   6.381
14737TIP3    H244169   1.920   7.347   6.478
14738TIP3   OH244170   2.422   0.949   3.921
14738TIP3    H144171   2.457   0.945   4.010
14738TIP3    H244172   2.390   1.039   3.913
14739TIP3   OH244173   7.799   2.560   0.317
14739TIP3    H144174   7.804   2.533   0.409
14739TIP3    H244175   7.706   2.563   0.297
14740TIP3   OH244176   5.311   6.864   5.103
14740TIP3    H144177   5.243   6.817   5.152
14740TIP3    H244178   5.375   6.889   5.169
14741TIP3   OH244179   2.030   2.878   2.544
14741TIP3    H144180   1.959   2.895   2.605
14741TIP3    H244181   2.110   2.903   2.591
14742TIP3   OH244182   0.271   0.321   2.683
14742TIP3    H144183   0.203   0.335   2.617
14742TIP3    H244184   0.348   0.365   2.647
14743TIP3   OH244185   7.108   4.431   4.368
14743TIP3    H144186   7.193   4.416   4.326
14743TIP3    H244187   7.128   4.433   4.462
14744TIP3   OH244188   7.515   3.170   5.882
14744TIP3    H144189   7.541   3.088   5.840
14744TIP3    H244190   7.505   3.148   5.974
14745TIP3   OH244191   2.926   0.243   2.552
14745TIP3    H144192   2.868   0.190   2.606
14745TIP3    H244193   2.975   0.180   2.499
14746TIP3   OH244194   7.833   6.633   0.397
14746TIP3    H144195   7.740   6.636   0.375
14746TIP3    H244196   7.878   6.629   0.313
14747TIP3   OH244197   6.312   5.270   6.149
14747TIP3    H144198   6.398   5.247   6.184
14747TIP3    H244199   6.331   5.318   6.068
14748TIP3   OH244200   3.040   3.723   2.544
14748TIP3    H144201   3.087   3.806   2.535
14748TIP3    H244202   3.070   3.688   2.628
14749TIP3   OH244203   5.749   1.452   4.772
14749TIP3    H144204   5.824   1.511   4.761
14749TIP3    H244205   5.789   1.366   4.783
14750TIP3   OH244206   4.247   4.220   4.702
14750TIP3    H144207   4.280   4.175   4.780
14750TIP3    H244208   4.238   4.151   4.637
14751TIP3   OH244209   3.415   2.195   0.227
14751TIP3    H144210   3.433   2.129   0.295
14751TIP3    H244211   3.491   2.252   0.228
14752TIP3   OH244212   8.024   0.921   0.965
14752TIP3    H144213   7.942   0.968   0.950
14752TIP3    H244214   8.039   0.872   0.884
14753TIP3   OH244215   0.119   5.555   3.223
14753TIP3    H144216   0.046   5.495   3.221
14753TIP3    H244217   0.139   5.566   3.317
14754TIP3   OH244218   3.397   1.565   3.143
14754TIP3    H144219   3.356   1.583   3.059
14754TIP3    H244220   3.398   1.650   3.188
14755TIP3   OH244221   3.798   6.567   2.398
14755TIP3    H144222   3.827   6.533   2.313
14755TIP3    H244223   3.869   6.624   2.426
14756TIP3   OH244224   6.278   7.745   3.712
14756TIP3    H144225   6.207   7.807   3.724
14756TIP3    H244226   6.270   7.717   3.620
14757TIP3   OH244227   3.991   1.111   2.347
14757TIP3    H144228   4.008   1.150   2.433
14757TIP3    H244229   4.077   1.084   2.315
14758TIP3   OH244230   5.925   6.556   0.490
14758TIP3    H144231   5.843   6.598   0.464
14758TIP3    H244232   5.921   6.553   0.586
14759TIP3   OH244233   4.770   4.283   4.394
14759TIP3    H144234   4.703   4.216   4.403
14759TIP3    H244235   4.722   4.365   4.386
14760TIP3   OH244236   7.868   4.836   3.958
14760TIP3    H144237   7.960   4.833   3.931
14760TIP3    H244238   7.866   4.791   4.043
14761TIP3   OH244239   3.748   4.225   4.487
14761TIP3    H144240   3.662   4.183   4.495
14761TIP3    H244241   3.771   4.214   4.395
14762TIP3   OH244242   0.449   4.582   1.585
14762TIP3    H144243   0.405   4.557   1.504
14762TIP3    H244244   0.506   4.508   1.605
14763TIP3   OH244245   0.986   4.046   4.177
14763TIP3    H144246   0.892   4.029   4.177
14763TIP3    H244247   1.012   4.038   4.269
14764TIP3   OH244248   6.513   2.026   3.110
14764TIP3    H144249   6.608   2.038   3.106
14764TIP3    H244250   6.484   2.092   3.173
14765TIP3   OH244251   5.748   0.463   3.246
14765TIP3    H144252   5.707   0.396   3.191
14765TIP3    H244253   5.806   0.415   3.304
14766TIP3   OH244254   6.399   6.267   5.904
14766TIP3    H144255   6.402   6.326   5.980
14766TIP3    H244256   6.460   6.196   5.927
14767TIP3   OH244257   3.399   4.698   4.450
14767TIP3    H144258   3.339   4.678   4.379
14767TIP3    H244259   3.385   4.628   4.514
14768TIP3   OH244260   6.616   5.623   5.958
14768TIP3    H144261   6.641   5.609   5.867
14768TIP3    H244262   6.677   5.570   6.009
14769TIP3   OH244263   6.268   6.588   2.944
14769TIP3    H144264   6.320   6.510   2.929
14769TIP3    H244265   6.183   6.569   2.904
14770TIP3   OH244266   2.589   0.620   5.328
14770TIP3    H144267   2.560   0.616   5.419
14770TIP3    H244268   2.684   0.625   5.333
14771TIP3   OH244269   5.162   3.809   2.477
14771TIP3    H144270   5.251   3.778   2.489
14771TIP3    H244271   5.116   3.735   2.436
14772TIP3   OH244272   7.083   2.296   2.476
14772TIP3    H144273   7.139   2.237   2.526
14772TIP3    H244274   7.110   2.284   2.385
14773TIP3   OH244275   1.975   6.857   2.389
14773TIP3    H144276   1.927   6.867   2.307
14773TIP3    H244277   1.950   6.933   2.442
14774TIP3   OH244278   5.781   4.002   4.872
14774TIP3    H144279   5.695   3.983   4.909
14774TIP3    H244280   5.809   3.920   4.833
14775TIP3   OH244281   6.091   6.545   1.862
14775TIP3    H144282   6.077   6.451   1.855
14775TIP3    H244283   6.021   6.576   1.920
14776TIP3   OH244284   8.016   7.243   4.179
14776TIP3    H144285   7.995   7.240   4.272
14776TIP3    H244286   8.059   7.159   4.161
14777TIP3   OH244287   1.049   6.965   5.412
14777TIP3    H144288   0.987   7.035   5.391
14777TIP3    H244289   0.994   6.895   5.447
14778TIP3   OH244290   2.646   0.633   6.765
14778TIP3    H144291   2.576   0.636   6.699
14778TIP3    H244292   2.640   0.544   6.800
14779TIP3   OH244293   1.001   6.051   0.323
14779TIP3    H144294   0.907   6.044   0.341
14779TIP3    H244295   1.013   6.141   0.290
14780TIP3   OH244296   2.965   5.114   4.560
14780TIP3    H144297   2.956   5.046   4.493
14780TIP3    H244298   3.000   5.190   4.513
14781TIP3   OH244299   2.036   6.300   6.469
14781TIP3    H144300   2.125   6.312   6.437
14781TIP3    H244301   1.981   6.326   6.395
14782TIP3   OH244302   7.262   0.980   0.039
14782TIP3    H144303   7.215   0.919   0.097
14782TIP3    H244304   7.248   1.066   0.078
14783TIP3   OH244305   0.857   7.333   5.098
14783TIP3    H144306   0.942   7.290   5.109
14783TIP3    H244307   0.866   7.415   5.147
14784TIP3   OH244308   1.751   1.741   1.021
14784TIP3    H144309   1.744   1.822   1.072
14784TIP3    H244310   1.785   1.676   1.083
14785TIP3   OH244311   3.508   7.731  -0.055
14785TIP3    H144312   3.551   7.814  -0.076
14785TIP3    H244313   3.542   7.708   0.032
14786TIP3   OH244314   1.032   7.646   3.148
14786TIP3    H144315   0.992   7.618   3.066
14786TIP3    H244316   0.968   7.707   3.186
14787TIP3   OH244317   5.316   4.852   1.588
14787TIP3    H144318   5.289   4.768   1.550
14787TIP3    H244319   5.284   4.918   1.527
14788TIP3   OH244320   4.596   5.045   1.269
14788TIP3    H144321   4.523   5.055   1.208
14788TIP3    H244322   4.560   4.997   1.343
14789TIP3   OH244323   8.186   3.020   0.408
14789TIP3    H144324   8.137   2.939   0.424
14789TIP3    H244325   8.155   3.081   0.474
14790TIP3   OH244326   4.581   2.374   5.595
14790TIP3    H144327   4.627   2.447   5.637
14790TIP3    H244328   4.494   2.374   5.635
14791TIP3   OH244329   7.828   0.424   0.423
14791TIP3    H144330   7.806   0.404   0.332
14791TIP3    H244331   7.903   0.368   0.443
14792TIP3   OH244332   1.990   2.991   2.909
14792TIP3    H144333   2.076   2.952   2.896
14792TIP3    H244334   1.975   2.987   3.003
14793TIP3   OH244335   8.081   4.288   2.648
14793TIP3    H144336   8.122   4.360   2.696
14793TIP3    H244337   7.993   4.319   2.628
14794TIP3   OH244338   3.321   5.173   6.497
14794TIP3    H144339   3.279   5.095   6.461
14794TIP3    H244340   3.345   5.225   6.420
14795TIP3   OH244341   1.970   3.177   2.208
14795TIP3    H144342   1.976   3.090   2.248
14795TIP3    H244343   1.943   3.160   2.118
14796TIP3   OH244344   6.988   0.568   3.248
14796TIP3    H144345   7.047   0.627   3.295
14796TIP3    H244346   6.910   0.620   3.231
14797TIP3   OH244347   2.445   2.020   3.652
14797TIP3    H144348   2.430   2.079   3.726
14797TIP3    H244349   2.360   2.018   3.607
14798TIP3   OH244350   2.309   2.441   0.913
14798TIP3    H144351   2.404   2.443   0.899
14798TIP3    H244352   2.288   2.348   0.924
14799TIP3   OH244353   4.423   1.067   6.240
14799TIP3    H144354   4.342   1.018   6.259
14799TIP3    H244355   4.436   1.054   6.146
14800TIP3   OH244356   2.761   5.425   3.343
14800TIP3    H144357   2.793   5.350   3.292
14800TIP3    H244358   2.685   5.391   3.390
14801TIP3   OH244359   3.844   6.462   6.024
14801TIP3    H144360   3.825   6.398   6.092
14801TIP3    H244361   3.759   6.502   6.004
14802TIP3   OH244362   7.087   0.566   2.849
14802TIP3    H144363   7.133   0.537   2.771
14802TIP3    H244364   7.002   0.597   2.817
14803TIP3   OH244365   3.602   4.596   5.739
14803TIP3    H144366   3.647   4.640   5.667
14803TIP3    H244367   3.519   4.568   5.701
14804TIP3   OH244368   5.615   1.748   1.132
14804TIP3    H144369   5.635   1.768   1.224
14804TIP3    H244370   5.521   1.735   1.131
14805TIP3   OH244371   5.134   2.656   5.912
14805TIP3    H144372   5.115   2.613   5.828
14805TIP3    H244373   5.104   2.746   5.901
14806TIP3   OH244374   1.837   6.518   4.407
14806TIP3    H144375   1.865   6.602   4.369
14806TIP3    H244376   1.910   6.459   4.392
14807TIP3   OH244377   6.000   7.749   5.173
14807TIP3    H144378   6.075   7.719   5.122
14807TIP3    H244379   5.986   7.681   5.238
14808TIP3   OH244380   5.478   3.376   0.236
14808TIP3    H144381   5.517   3.366   0.149
14808TIP3    H244382   5.553   3.377   0.296
14809TIP3   OH244383   8.225   6.476   1.469
14809TIP3    H144384   8.288   6.419   1.424
14809TIP3    H244385   8.141   6.431   1.459
14810TIP3   OH244386   0.342   3.920   3.513
14810TIP3    H144387   0.339   3.872   3.430
14810TIP3    H244388   0.349   4.012   3.487
14811TIP3   OH244389   5.919   0.891   5.355
14811TIP3    H144390   5.877   0.881   5.269
14811TIP3    H244391   5.866   0.956   5.400
14812TIP3   OH244392   4.265   3.477   5.711
14812TIP3    H144393   4.213   3.550   5.745
14812TIP3    H244394   4.281   3.500   5.620
14813TIP3   OH244395   1.018   6.512   6.263
14813TIP3    H144396   0.941   6.553   6.222
14813TIP3    H244397   0.982   6.457   6.332
14814TIP3   OH244398   6.538   1.482   6.599
14814TIP3    H144399   6.539   1.388   6.614
14814TIP3    H244400   6.604   1.496   6.532
14815TIP3   OH244401   3.826   0.385   4.132
14815TIP3    H144402   3.863   0.297   4.128
14815TIP3    H244403   3.900   0.443   4.114
14816TIP3   OH244404   3.801   0.298   3.777
14816TIP3    H144405   3.780   0.391   3.774
14816TIP3    H244406   3.897   0.295   3.778
14817TIP3   OH244407   5.672   7.653   3.903
14817TIP3    H144408   5.746   7.690   3.950
14817TIP3    H244409   5.700   7.653   3.811
14818TIP3   OH244410   8.288   2.673   0.084
14818TIP3    H144411   8.194   2.665   0.099
14818TIP3    H244412   8.303   2.767   0.079
14819TIP3   OH244413   6.003   6.267   0.871
14819TIP3    H144414   6.051   6.349   0.856
14819TIP3    H244415   6.062   6.215   0.925
14820TIP3   OH244416   1.077   3.675   2.976
14820TIP3    H144417   1.032   3.617   3.038
14820TIP3    H244418   1.156   3.703   3.022
14821TIP3   OH244419   7.984   3.582   3.946
14821TIP3    H144420   8.013   3.668   3.915
14821TIP3    H244421   7.894   3.575   3.914
14822TIP3   OH244422   3.497   6.987   3.334
14822TIP3    H144423   3.526   6.981   3.244
14822TIP3    H244424   3.465   6.899   3.355
14823TIP3   OH244425   2.235   7.297   0.924
14823TIP3    H144426   2.261   7.211   0.955
14823TIP3    H244427   2.286   7.359   0.977
14824TIP3   OH244428   2.166   1.194   5.564
14824TIP3    H144429   2.181   1.181   5.471
14824TIP3    H244430   2.169   1.289   5.576
14825TIP3   OH244431   0.942   2.478   1.392
14825TIP3    H144432   0.905   2.423   1.461
14825TIP3    H244433   0.904   2.443   1.311
14826TIP3   OH244434   5.734   3.801   6.512
14826TIP3    H144435   5.647   3.834   6.538
14826TIP3    H244436   5.719   3.759   6.427
14827TIP3   OH244437   0.632   7.842   5.796
14827TIP3    H144438   0.660   7.758   5.831
14827TIP3    H244439   0.565   7.873   5.857
14828TIP3   OH244440   7.377   0.461   3.322
14828TIP3    H144441   7.348   0.381   3.278
14828TIP3    H244442   7.456   0.487   3.276
14829TIP3   OH244443   0.847   3.485   1.679
14829TIP3    H144444   0.900   3.540   1.621
14829TIP3    H244445   0.893   3.401   1.682
14830TIP3   OH244446   2.648   7.146   1.628
14830TIP3    H144447   2.657   7.052   1.612
14830TIP3    H244448   2.642   7.184   1.540
14831TIP3   OH244449   6.920   7.413   4.357
14831TIP3    H144450   6.855   7.483   4.355
14831TIP3    H244451   6.897   7.361   4.433
14832TIP3   OH244452   2.631   7.470   6.527
14832TIP3    H144453   2.725   7.483   6.535
14832TIP3    H244454   2.593   7.518   6.600
14833TIP3   OH244455   4.491   4.402   1.507
14833TIP3    H144456   4.431   4.333   1.534
14833TIP3    H244457   4.523   4.440   1.589
14834TIP3   OH244458   1.747   5.067   3.739
14834TIP3    H144459   1.733   5.119   3.818
14834TIP3    H244460   1.660   5.052   3.704
14835TIP3   OH244461   4.338   7.003   2.315
14835TIP3    H144462   4.309   7.000   2.406
14835TIP3    H244463   4.287   6.934   2.272
14836TIP3   OH244464   2.072   6.011   6.248
14836TIP3    H144465   2.062   6.019   6.153
14836TIP3    H244466   1.984   5.996   6.281
14837TIP3   OH244467   7.111   5.289   1.228
14837TIP3    H144468   7.099   5.196   1.207
14837TIP3    H244469   7.090   5.335   1.147
   8.30579   7.83077   6.78165   0.00000   0.00000  -2.76859   0.00000  -2.76859  -3.91539
