Title t=  77.00000 step= 38500
46055
    1GLY      N    1   3.020   2.625   1.020
    1GLY    HT1    2   2.986   2.583   0.931
    1GLY    HT2    3   3.050   2.555   1.090
    1GLY    HT3    4   3.100   2.687   0.997
    1GLY     CA    5   2.918   2.716   1.068
    1GLY    HA1    6   2.828   2.666   1.101
    1GLY    HA2    7   2.913   2.787   0.987
    1GLY      C    8   2.970   2.773   1.192
    1GLY      O    9   3.002   2.690   1.274
    2PRO      N   10   2.970   2.905   1.209
    2PRO     CD   11   2.971   3.011   1.105
    2PRO    HD1   12   2.866   3.023   1.070
    2PRO    HD2   13   3.023   2.986   1.011
    2PRO     CA   14   2.991   2.964   1.345
    2PRO     HA   15   3.089   2.924   1.367
    2PRO     CB   16   2.978   3.119   1.327
    2PRO    HB1   17   3.030   3.179   1.405
    2PRO    HB2   18   2.868   3.131   1.338
    2PRO     CG   19   3.009   3.138   1.179
    2PRO    HG1   20   2.972   3.234   1.135
    2PRO    HG2   21   3.120   3.150   1.175
    2PRO      C   22   2.886   2.912   1.447
    2PRO      O   23   2.766   2.894   1.420
    3GLY      N   24   2.933   2.886   1.574
    3GLY     HN   25   3.030   2.888   1.597
    3GLY     CA   26   2.849   2.841   1.683
    3GLY    HA1   27   2.907   2.788   1.757
    3GLY    HA2   28   2.781   2.766   1.644
    3GLY      C   29   2.765   2.946   1.751
    3GLY      O   30   2.775   3.060   1.721
    4ALA      N   31   2.680   2.905   1.854
    4ALA     HN   32   2.666   2.807   1.866
    4ALA     CA   33   2.622   3.000   1.944
    4ALA     HA   34   2.565   3.060   1.876
    4ALA     CB   35   2.526   2.926   2.034
    4ALA    HB1   36   2.590   2.857   2.093
    4ALA    HB2   37   2.446   2.880   1.972
    4ALA    HB3   38   2.480   3.001   2.102
    4ALA      C   39   2.724   3.084   2.022
    4ALA      O   40   2.841   3.046   2.040
    5PRO      N   41   2.680   3.207   2.071
    5PRO     CD   42   2.553   3.266   2.030
    5PRO    HD1   43   2.474   3.207   2.080
    5PRO    HD2   44   2.543   3.267   1.919
    5PRO     CA   45   2.769   3.309   2.127
    5PRO     HA   46   2.836   3.342   2.050
    5PRO     CB   47   2.670   3.419   2.166
    5PRO    HB1   48   2.723   3.517   2.164
    5PRO    HB2   49   2.623   3.403   2.265
    5PRO     CG   50   2.561   3.411   2.058
    5PRO    HG1   51   2.462   3.456   2.082
    5PRO    HG2   52   2.596   3.477   1.976
    5PRO      C   53   2.848   3.257   2.251
    5PRO      O   54   2.802   3.158   2.311
    6GLY      N   55   2.965   3.306   2.286
    6GLY     HN   56   3.011   3.378   2.235
    6GLY     CA   57   3.052   3.261   2.397
    6GLY    HA1   58   3.137   3.328   2.401
    6GLY    HA2   59   3.075   3.157   2.376
    6GLY      C   60   2.993   3.266   2.533
    6GLY      O   61   2.878   3.318   2.555
    7PRO      N   62   3.061   3.217   2.638
    7PRO     CD   63   3.186   3.148   2.630
    7PRO    HD1   64   3.267   3.217   2.598
    7PRO    HD2   65   3.184   3.068   2.553
    7PRO     CA   66   3.033   3.250   2.778
    7PRO     HA   67   2.947   3.188   2.796
    7PRO     CB   68   3.160   3.203   2.856
    7PRO    HB1   69   3.157   3.168   2.961
    7PRO    HB2   70   3.242   3.278   2.857
    7PRO     CG   71   3.211   3.093   2.771
    7PRO    HG1   72   3.317   3.065   2.793
    7PRO    HG2   73   3.153   2.998   2.778
    7PRO      C   74   2.997   3.395   2.815
    7PRO      O   75   3.054   3.484   2.765
    8GLY      N   76   2.904   3.419   2.908
    8GLY     HN   77   2.848   3.346   2.946
    8GLY     CA   78   2.872   3.559   2.954
    8GLY    HA1   79   2.787   3.538   3.016
    8GLY    HA2   80   2.856   3.618   2.864
    8GLY      C   81   2.969   3.641   3.031
    8GLY      O   82   3.065   3.599   3.089
    9ALA      N   83   2.934   3.772   3.036
    9ALA     HN   84   2.842   3.801   3.012
    9ALA     CA   85   3.020   3.871   3.106
    9ALA     HA   86   3.121   3.833   3.117
    9ALA     CB   87   3.025   3.997   3.014
    9ALA    HB1   88   3.086   4.071   3.069
    9ALA    HB2   89   2.922   4.038   3.015
    9ALA    HB3   90   3.074   3.982   2.915
    9ALA      C   91   2.981   3.896   3.255
    9ALA      O   92   2.862   3.874   3.287
   10PRO      N   93   3.074   3.936   3.344
   10PRO     CD   94   3.216   3.965   3.318
   10PRO    HD1   95   3.219   4.060   3.260
   10PRO    HD2   96   3.272   3.890   3.258
   10PRO     CA   97   3.037   3.947   3.486
   10PRO     HA   98   3.018   3.851   3.531
   10PRO     CB   99   3.164   4.022   3.543
   10PRO    HB1  100   3.179   4.007   3.653
   10PRO    HB2  101   3.156   4.130   3.520
   10PRO     CG  102   3.277   3.969   3.453
   10PRO    HG1  103   3.366   4.034   3.469
   10PRO    HG2  104   3.303   3.868   3.491
   10PRO      C  105   2.909   4.022   3.533
   10PRO      O  106   2.859   4.115   3.473
   11GLY      N  107   2.851   3.967   3.643
   11GLY     HN  108   2.913   3.913   3.699
   11GLY     CA  109   2.721   3.999   3.703
   11GLY    HA1  110   2.701   3.922   3.777
   11GLY    HA2  111   2.661   3.983   3.615
   11GLY      C  112   2.716   4.132   3.767
   11GLY      O  113   2.816   4.202   3.775
   12PRO      N  114   2.597   4.174   3.812
   12PRO     CD  115   2.468   4.108   3.780
   12PRO    HD1  116   2.476   4.008   3.828
   12PRO    HD2  117   2.461   4.097   3.670
   12PRO     CA  118   2.562   4.290   3.898
   12PRO     HA  119   2.568   4.382   3.841
   12PRO     CB  120   2.418   4.270   3.953
   12PRO    HB1  121   2.366   4.366   3.977
   12PRO    HB2  122   2.427   4.203   4.040
   12PRO     CG  123   2.355   4.191   3.838
   12PRO    HG1  124   2.272   4.123   3.867
   12PRO    HG2  125   2.334   4.264   3.757
   12PRO      C  126   2.668   4.309   4.008
   12PRO      O  127   2.684   4.222   4.097
   13GLY      N  128   2.725   4.432   4.012
   13GLY     HN  129   2.696   4.496   3.941
   13GLY     CA  130   2.825   4.474   4.112
   13GLY    HA1  131   2.886   4.550   4.066
   13GLY    HA2  132   2.887   4.389   4.135
   13GLY      C  133   2.761   4.523   4.241
   13GLY      O  134   2.637   4.534   4.256
   14ALA      N  135   2.851   4.568   4.332
   14ALA     HN  136   2.947   4.559   4.306
   14ALA     CA  137   2.820   4.638   4.456
   14ALA     HA  138   2.722   4.602   4.483
   14ALA     CB  139   2.928   4.603   4.559
   14ALA    HB1  140   2.920   4.493   4.568
   14ALA    HB2  141   2.920   4.646   4.661
   14ALA    HB3  142   3.030   4.637   4.531
   14ALA      C  143   2.800   4.793   4.425
   14ALA      O  144   2.886   4.846   4.354
   15PRO      N  145   2.687   4.856   4.464
   15PRO     CD  146   2.583   4.796   4.544
   15PRO    HD1  147   2.629   4.747   4.632
   15PRO    HD2  148   2.533   4.735   4.465
   15PRO     CA  149   2.655   4.991   4.420
   15PRO     HA  150   2.683   5.012   4.318
   15PRO     CB  151   2.506   5.003   4.458
   15PRO    HB1  152   2.436   4.979   4.375
   15PRO    HB2  153   2.477   5.109   4.474
   15PRO     CG  154   2.493   4.915   4.577
   15PRO    HG1  155   2.519   4.966   4.672
   15PRO    HG2  156   2.384   4.890   4.577
   15PRO      C  157   2.727   5.108   4.493
   15PRO    OT1  158   2.809   5.090   4.584
   15PRO    OT2  159   2.695   5.227   4.454
   16LIT    LIT  160   5.517   4.826   2.513
   17LIT    LIT  161   3.343   6.347   4.338
   18LIT    LIT  162   5.730   5.186   6.393
   19LIT    LIT  163   5.238   5.467   1.329
   20LIT    LIT  164   3.967   6.075   2.007
   21LIT    LIT  165   0.323   4.675   2.565
   22LIT    LIT  166   2.958   0.272   4.458
   23LIT    LIT  167   7.435   4.856   4.245
   24LIT    LIT  168   5.409   5.887   2.889
   25LIT    LIT  169   4.917   0.275   6.016
   26LIT    LIT  170   6.213   2.048   4.227
   27LIT    LIT  171   7.801   3.657   1.831
   28LIT    LIT  172   1.062   5.796   4.650
   29LIT    LIT  173   4.679   1.285   1.959
   30LIT    LIT  174   4.404   4.398   3.221
   31LIT    LIT  175   6.962   2.880   5.017
   32LIT    LIT  176   1.098   3.501   4.990
   33LIT    LIT  177   5.049   6.629   2.706
   34LIT    LIT  178   0.503   5.411   1.073
   35LIT    LIT  179   0.132   0.251   3.482
   36LIT    LIT  180   7.525   6.390   5.941
   37LIT    LIT  181   1.606   5.300   3.103
   38LIT    LIT  182   1.049   5.569   2.445
   39LIT    LIT  183   3.589   0.924   5.872
   40LIT    LIT  184   0.189   6.058   6.067
   41LIT    LIT  185   2.380   2.061   4.644
   42LIT    LIT  186   7.218   4.651   1.351
   43LIT    LIT  187   0.582   7.588   1.454
   44LIT    LIT  188   6.948   0.256   1.061
   45LIT    LIT  189   7.936   6.479   2.794
   46LIT    LIT  190   0.295   3.793   3.389
   47LIT    LIT  191   1.887   0.745   1.069
   48LIT    LIT  192   1.908   6.771   2.503
   49LIT    LIT  193   5.690   7.486   6.498
   50LIT    LIT  194   4.053   5.634   1.752
   51LIT    LIT  195   0.479   3.565   6.688
   52LIT    LIT  196   8.298   1.228   5.859
   53LIT    LIT  197   4.780   6.187   5.286
   54LIT    LIT  198   5.548   1.695   5.616
   55LIT    LIT  199   2.981   0.997   3.306
   56LIT    LIT  200   6.948   5.918   2.143
   57LIT    LIT  201   0.302   0.211   6.842
   58LIT    LIT  202   2.824   5.284   4.601
   59CLA    CLA  203   3.067   5.923   1.984
   60CLA    CLA  204   3.804   5.928   3.244
   61CLA    CLA  205   5.437   6.743   0.554
   62CLA    CLA  206   2.821   7.469   4.582
   63CLA    CLA  207   1.791   6.645   3.000
   64CLA    CLA  208   4.139   6.765   5.017
   65CLA    CLA  209   0.418   2.746   6.672
   66CLA    CLA  210   1.786   5.964   0.160
   67CLA    CLA  211   6.922   5.284   4.135
   68CLA    CLA  212   6.847   5.084   2.299
   69CLA    CLA  213   5.987   7.882   3.977
   70CLA    CLA  214   6.411   0.403   0.376
   71CLA    CLA  215   8.186   2.392   2.329
   72CLA    CLA  216   7.055   5.856   5.519
   73CLA    CLA  217   0.940   5.903   4.797
   74CLA    CLA  218   4.052   7.508   1.356
   75CLA    CLA  219   5.490   5.519   5.624
   76CLA    CLA  220   0.435   3.040   0.368
   77CLA    CLA  221   4.522   2.749   4.957
   78CLA    CLA  222   7.967   0.924   5.805
   79CLA    CLA  223   6.002   6.294   2.141
   80CLA    CLA  224   7.268   5.974   0.910
   81CLA    CLA  225   2.707   1.687   1.704
   82CLA    CLA  226   4.676   4.395   2.469
   83CLA    CLA  227   0.034   7.214   3.797
   84CLA    CLA  228   0.275   6.695   2.430
   85CLA    CLA  229   1.136   5.798   2.741
   86CLA    CLA  230   7.174   3.757   6.454
   87CLA    CLA  231   1.197   1.037   5.502
   88CLA    CLA  232   5.064   5.169   1.815
   89CLA    CLA  233   5.043   2.590   0.276
   90CLA    CLA  234   3.493   6.330   0.972
   91CLA    CLA  235   8.025   0.663   0.087
   92CLA    CLA  236   5.022   4.794   1.452
   93CLA    CLA  237   3.310   1.089   5.536
   94CLA    CLA  238   5.525   7.152   4.526
   95CLA    CLA  239   3.848   0.927   1.971
   96CLA    CLA  240   7.277   1.421   3.604
   97CLA    CLA  241   1.544   1.723   4.591
   98CLA    CLA  242   6.630   3.558   6.302
   99CLA    CLA  243   0.676   4.480   2.863
  100CLA    CLA  244   8.269   3.988   0.330
  101CLA    CLA  245   1.752   0.605   0.932
  102TIP3   OH2  246   4.778   4.961   4.740
  102TIP3    H1  247   4.737   5.043   4.713
  102TIP3    H2  248   4.768   4.959   4.835
  103TIP3   OH2  249   7.543   5.539   5.033
  103TIP3    H1  250   7.451   5.529   5.060
  103TIP3    H2  251   7.559   5.463   4.977
  104TIP3   OH2  252   3.358   3.664   5.048
  104TIP3    H1  253   3.312   3.582   5.028
  104TIP3    H2  254   3.392   3.651   5.136
  105TIP3   OH2  255   1.348   6.218   6.804
  105TIP3    H1  256   1.362   6.135   6.758
  105TIP3    H2  257   1.352   6.284   6.734
  106TIP3   OH2  258   2.758   6.459   1.369
  106TIP3    H1  259   2.778   6.522   1.299
  106TIP3    H2  260   2.663   6.449   1.365
  107TIP3   OH2  261   3.516   2.914   0.921
  107TIP3    H1  262   3.461   2.842   0.953
  107TIP3    H2  263   3.497   2.987   0.979
  108TIP3   OH2  264   3.211   6.874   0.536
  108TIP3    H1  265   3.246   6.820   0.608
  108TIP3    H2  266   3.288   6.916   0.498
  109TIP3   OH2  267   5.740   6.284   3.605
  109TIP3    H1  268   5.832   6.312   3.612
  109TIP3    H2  269   5.692   6.364   3.586
  110TIP3   OH2  270   5.014   3.201   1.480
  110TIP3    H1  271   4.966   3.208   1.562
  110TIP3    H2  272   5.102   3.175   1.505
  111TIP3   OH2  273   4.869   1.805   6.001
  111TIP3    H1  274   4.885   1.840   6.089
  111TIP3    H2  275   4.773   1.798   5.996
  112TIP3   OH2  276   2.687   5.506   2.964
  112TIP3    H1  277   2.747   5.454   2.911
  112TIP3    H2  278   2.744   5.559   3.020
  113TIP3   OH2  279   0.900   3.290   6.710
  113TIP3    H1  280   0.959   3.293   6.635
  113TIP3    H2  281   0.838   3.220   6.688
  114TIP3   OH2  282   3.916   2.045   2.741
  114TIP3    H1  283   3.843   2.047   2.804
  114TIP3    H2  284   3.874   2.039   2.656
  115TIP3   OH2  285   2.162   5.698   0.742
  115TIP3    H1  286   2.230   5.669   0.681
  115TIP3    H2  287   2.124   5.775   0.701
  116TIP3   OH2  288   2.442   0.569   5.507
  116TIP3    H1  289   2.494   0.579   5.427
  116TIP3    H2  290   2.393   0.651   5.513
  117TIP3   OH2  291   3.223   3.337   6.743
  117TIP3    H1  292   3.274   3.259   6.722
  117TIP3    H2  293   3.134   3.305   6.757
  118TIP3   OH2  294   0.558   2.614   5.571
  118TIP3    H1  295   0.593   2.600   5.483
  118TIP3    H2  296   0.480   2.559   5.575
  119TIP3   OH2  297   3.368   2.430   0.022
  119TIP3    H1  298   3.336   2.367   0.087
  119TIP3    H2  299   3.321   2.511   0.042
  120TIP3   OH2  300   5.615   0.754   2.761
  120TIP3    H1  301   5.678   0.732   2.693
  120TIP3    H2  302   5.531   0.757   2.716
  121TIP3   OH2  303   0.718   5.738   6.047
  121TIP3    H1  304   0.785   5.727   5.980
  121TIP3    H2  305   0.767   5.754   6.128
  122TIP3   OH2  306   8.105   2.114   1.781
  122TIP3    H1  307   8.198   2.091   1.792
  122TIP3    H2  308   8.101   2.162   1.699
  123TIP3   OH2  309   6.323   7.113   2.686
  123TIP3    H1  310   6.262   7.056   2.638
  123TIP3    H2  311   6.320   7.196   2.638
  124TIP3   OH2  312   5.703   3.736   2.753
  124TIP3    H1  313   5.631   3.707   2.810
  124TIP3    H2  314   5.718   3.827   2.778
  125TIP3   OH2  315   2.727   5.391   6.050
  125TIP3    H1  316   2.713   5.373   5.957
  125TIP3    H2  317   2.736   5.486   6.054
  126TIP3   OH2  318   0.830   2.899   1.200
  126TIP3    H1  319   0.848   2.840   1.126
  126TIP3    H2  320   0.788   2.843   1.265
  127TIP3   OH2  321   2.408   1.071   4.585
  127TIP3    H1  322   2.323   1.037   4.558
  127TIP3    H2  323   2.406   1.163   4.560
  128TIP3   OH2  324   7.147   3.243   3.622
  128TIP3    H1  325   7.122   3.326   3.664
  128TIP3    H2  326   7.092   3.177   3.665
  129TIP3   OH2  327   6.183   7.188   1.830
  129TIP3    H1  328   6.147   7.172   1.917
  129TIP3    H2  329   6.278   7.184   1.841
  130TIP3   OH2  330   3.947   0.978   6.720
  130TIP3    H1  331   4.034   0.975   6.761
  130TIP3    H2  332   3.965   1.000   6.629
  131TIP3   OH2  333   5.945   1.015   6.400
  131TIP3    H1  334   6.016   0.951   6.402
  131TIP3    H2  335   5.903   1.003   6.315
  132TIP3   OH2  336   7.546   1.044   6.284
  132TIP3    H1  337   7.615   0.994   6.327
  132TIP3    H2  338   7.506   0.983   6.222
  133TIP3   OH2  339   5.826   0.643   2.591
  133TIP3    H1  340   5.850   0.686   2.509
  133TIP3    H2  341   5.804   0.554   2.566
  134TIP3   OH2  342   6.639   1.588   5.386
  134TIP3    H1  343   6.617   1.496   5.368
  134TIP3    H2  344   6.601   1.604   5.473
  135TIP3   OH2  345   1.197   6.796   6.166
  135TIP3    H1  346   1.127   6.733   6.183
  135TIP3    H2  347   1.266   6.745   6.124
  136TIP3   OH2  348   7.880   2.503   0.791
  136TIP3    H1  349   7.952   2.525   0.850
  136TIP3    H2  350   7.921   2.450   0.723
  137TIP3   OH2  351   5.876   6.127   2.958
  137TIP3    H1  352   5.855   6.049   3.010
  137TIP3    H2  353   5.938   6.095   2.891
  138TIP3   OH2  354   4.619   2.617   6.794
  138TIP3    H1  355   4.542   2.633   6.849
  138TIP3    H2  356   4.643   2.526   6.811
  139TIP3   OH2  357   3.180   5.072   0.562
  139TIP3    H1  358   3.212   5.156   0.528
  139TIP3    H2  359   3.130   5.095   0.640
  140TIP3   OH2  360   4.338   7.407   2.025
  140TIP3    H1  361   4.277   7.334   2.017
  140TIP3    H2  362   4.425   7.368   2.016
  141TIP3   OH2  363   3.976   2.376   6.318
  141TIP3    H1  364   4.031   2.302   6.293
  141TIP3    H2  365   3.893   2.362   6.271
  142TIP3   OH2  366   0.997   6.199   4.941
  142TIP3    H1  367   0.953   6.246   5.011
  142TIP3    H2  368   0.943   6.122   4.926
  143TIP3   OH2  369   6.739   0.142   6.435
  143TIP3    H1  370   6.834   0.138   6.435
  143TIP3    H2  371   6.712   0.085   6.508
  144TIP3   OH2  372   0.634   0.882   5.790
  144TIP3    H1  373   0.591   0.829   5.857
  144TIP3    H2  374   0.727   0.877   5.810
  145TIP3   OH2  375   3.823   5.485   3.729
  145TIP3    H1  376   3.768   5.434   3.788
  145TIP3    H2  377   3.766   5.556   3.698
  146TIP3   OH2  378   1.648   4.878   4.411
  146TIP3    H1  379   1.685   4.792   4.428
  146TIP3    H2  380   1.618   4.874   4.320
  147TIP3   OH2  381   8.216   6.074   6.109
  147TIP3    H1  382   8.217   6.136   6.182
  147TIP3    H2  383   8.134   6.025   6.121
  148TIP3   OH2  384   5.323   6.358   3.049
  148TIP3    H1  385   5.409   6.387   3.080
  148TIP3    H2  386   5.277   6.331   3.129
  149TIP3   OH2  387   4.807   4.588   1.110
  149TIP3    H1  388   4.860   4.666   1.125
  149TIP3    H2  389   4.841   4.522   1.171
  150TIP3   OH2  390   5.223   3.790   4.129
  150TIP3    H1  391   5.275   3.719   4.090
  150TIP3    H2  392   5.287   3.842   4.178
  151TIP3   OH2  393   3.382   4.804   2.242
  151TIP3    H1  394   3.291   4.803   2.215
  151TIP3    H2  395   3.418   4.884   2.203
  152TIP3   OH2  396   7.818   3.438   4.792
  152TIP3    H1  397   7.887   3.383   4.829
  152TIP3    H2  398   7.845   3.452   4.701
  153TIP3   OH2  399   7.210   2.282   1.171
  153TIP3    H1  400   7.194   2.233   1.252
  153TIP3    H2  401   7.166   2.233   1.103
  154TIP3   OH2  402   5.449   4.350   5.023
  154TIP3    H1  403   5.419   4.289   5.091
  154TIP3    H2  404   5.452   4.435   5.067
  155TIP3   OH2  405   2.341   1.906   4.741
  155TIP3    H1  406   2.376   1.900   4.830
  155TIP3    H2  407   2.282   1.832   4.733
  156TIP3   OH2  408   6.060   7.755   4.808
  156TIP3    H1  409   6.049   7.679   4.866
  156TIP3    H2  410   6.068   7.717   4.721
  157TIP3   OH2  411   0.010   1.435   1.529
  157TIP3    H1  412   0.007   1.417   1.435
  157TIP3    H2  413  -0.041   1.364   1.569
  158TIP3   OH2  414   2.997   2.159   1.084
  158TIP3    H1  415   2.908   2.140   1.114
  158TIP3    H2  416   3.045   2.078   1.098
  159TIP3   OH2  417   6.292   6.956   4.431
  159TIP3    H1  418   6.359   7.001   4.482
  159TIP3    H2  419   6.209   6.982   4.472
  160TIP3   OH2  420   0.480   3.810   5.732
  160TIP3    H1  421   0.524   3.726   5.727
  160TIP3    H2  422   0.522   3.855   5.805
  161TIP3   OH2  423   3.356   5.912   3.852
  161TIP3    H1  424   3.446   5.932   3.877
  161TIP3    H2  425   3.325   5.851   3.920
  162TIP3   OH2  426   5.166   2.591   2.915
  162TIP3    H1  427   5.133   2.671   2.875
  162TIP3    H2  428   5.131   2.592   3.004
  163TIP3   OH2  429   0.302   1.651   6.317
  163TIP3    H1  430   0.362   1.634   6.245
  163TIP3    H2  431   0.242   1.577   6.316
  164TIP3   OH2  432   7.671   7.263   0.018
  164TIP3    H1  433   7.613   7.270  -0.059
  164TIP3    H2  434   7.626   7.314   0.086
  165TIP3   OH2  435   1.021   3.433   2.251
  165TIP3    H1  436   1.029   3.488   2.329
  165TIP3    H2  437   0.947   3.375   2.269
  166TIP3   OH2  438   4.133   4.522   5.962
  166TIP3    H1  439   4.040   4.501   5.950
  166TIP3    H2  440   4.175   4.491   5.882
  167TIP3   OH2  441   6.230   4.396   4.285
  167TIP3    H1  442   6.300   4.447   4.242
  167TIP3    H2  443   6.156   4.404   4.225
  168TIP3   OH2  444   4.088   2.291   2.203
  168TIP3    H1  445   4.049   2.368   2.245
  168TIP3    H2  446   4.056   2.295   2.113
  169TIP3   OH2  447   1.000   6.036   2.599
  169TIP3    H1  448   1.039   5.958   2.639
  169TIP3    H2  449   0.937   6.002   2.536
  170TIP3   OH2  450   5.819   0.416   5.334
  170TIP3    H1  451   5.763   0.380   5.403
  170TIP3    H2  452   5.760   0.460   5.274
  171TIP3   OH2  453   6.834   6.643   2.819
  171TIP3    H1  454   6.790   6.558   2.825
  171TIP3    H2  455   6.795   6.685   2.742
  172TIP3   OH2  456   6.138   3.041   2.900
  172TIP3    H1  457   6.136   3.024   2.806
  172TIP3    H2  458   6.124   3.135   2.908
  173TIP3   OH2  459   6.095   1.569   4.242
  173TIP3    H1  460   6.178   1.613   4.220
  173TIP3    H2  461   6.117   1.476   4.242
  174TIP3   OH2  462   2.020   1.086   6.214
  174TIP3    H1  463   2.011   1.061   6.122
  174TIP3    H2  464   2.102   1.046   6.242
  175TIP3   OH2  465   8.162   2.528   0.166
  175TIP3    H1  466   8.122   2.480   0.239
  175TIP3    H2  467   8.149   2.621   0.188
  176TIP3   OH2  468   2.663   2.040   1.757
  176TIP3    H1  469   2.723   2.052   1.684
  176TIP3    H2  470   2.695   1.962   1.802
  177TIP3   OH2  471   1.228   7.161   4.835
  177TIP3    H1  472   1.187   7.241   4.803
  177TIP3    H2  473   1.298   7.143   4.773
  178TIP3   OH2  474   7.000   7.806   0.001
  178TIP3    H1  475   6.910   7.837  -0.006
  178TIP3    H2  476   7.028   7.834   0.089
  179TIP3   OH2  477   2.907   7.835   0.252
  179TIP3    H1  478   2.884   7.926   0.235
  179TIP3    H2  479   2.927   7.833   0.346
  180TIP3   OH2  480   2.716   6.525   1.927
  180TIP3    H1  481   2.797   6.556   1.967
  180TIP3    H2  482   2.745   6.467   1.857
  181TIP3   OH2  483   7.543   2.900   4.199
  181TIP3    H1  484   7.633   2.917   4.169
  181TIP3    H2  485   7.544   2.808   4.226
  182TIP3   OH2  486   5.703   5.118   5.623
  182TIP3    H1  487   5.754   5.059   5.567
  182TIP3    H2  488   5.758   5.133   5.699
  183TIP3   OH2  489   2.601   5.848   1.745
  183TIP3    H1  490   2.695   5.846   1.727
  183TIP3    H2  491   2.576   5.940   1.734
  184TIP3   OH2  492   3.589   5.294   5.625
  184TIP3    H1  493   3.578   5.221   5.564
  184TIP3    H2  494   3.521   5.357   5.600
  185TIP3   OH2  495   4.598   5.328   0.281
  185TIP3    H1  496   4.602   5.235   0.259
  185TIP3    H2  497   4.622   5.373   0.200
  186TIP3   OH2  498   1.498   2.755   2.521
  186TIP3    H1  499   1.540   2.766   2.435
  186TIP3    H2  500   1.408   2.784   2.507
  187TIP3   OH2  501   5.372   3.276   0.209
  187TIP3    H1  502   5.306   3.317   0.153
  187TIP3    H2  503   5.456   3.308   0.175
  188TIP3   OH2  504   1.733   6.831   2.550
  188TIP3    H1  505   1.692   6.898   2.496
  188TIP3    H2  506   1.664   6.805   2.612
  189TIP3   OH2  507   3.935   4.766   2.502
  189TIP3    H1  508   3.878   4.699   2.539
  189TIP3    H2  509   3.897   4.786   2.417
  190TIP3   OH2  510   2.020   0.505   4.837
  190TIP3    H1  511   2.048   0.419   4.806
  190TIP3    H2  512   1.928   0.512   4.810
  191TIP3   OH2  513   1.576   3.145   4.466
  191TIP3    H1  514   1.531   3.088   4.528
  191TIP3    H2  515   1.607   3.085   4.398
  192TIP3   OH2  516   2.207   3.594   3.405
  192TIP3    H1  517   2.140   3.632   3.463
  192TIP3    H2  518   2.226   3.664   3.343
  193TIP3   OH2  519   3.634   7.675   2.498
  193TIP3    H1  520   3.652   7.720   2.415
  193TIP3    H2  521   3.662   7.585   2.483
  194TIP3   OH2  522   7.968   4.453   0.380
  194TIP3    H1  523   8.030   4.427   0.312
  194TIP3    H2  524   7.916   4.523   0.340
  195TIP3   OH2  525   1.166   2.851   3.065
  195TIP3    H1  526   1.159   2.904   3.144
  195TIP3    H2  527   1.087   2.870   3.015
  196TIP3   OH2  528   4.878   5.072   1.222
  196TIP3    H1  529   4.804   5.053   1.164
  196TIP3    H2  530   4.840   5.073   1.310
  197TIP3   OH2  531   4.071   2.700   2.166
  197TIP3    H1  532   4.023   2.759   2.224
  197TIP3    H2  533   4.060   2.613   2.205
  198TIP3   OH2  534   3.534   1.951   0.335
  198TIP3    H1  535   3.584   2.027   0.365
  198TIP3    H2  536   3.443   1.974   0.351
  199TIP3   OH2  537   7.867   3.797   0.709
  199TIP3    H1  538   7.829   3.860   0.770
  199TIP3    H2  539   7.925   3.849   0.654
  200TIP3   OH2  540   3.154   1.386   3.795
  200TIP3    H1  541   3.237   1.379   3.746
  200TIP3    H2  542   3.145   1.480   3.812
  201TIP3   OH2  543   1.487   2.991   6.540
  201TIP3    H1  544   1.442   2.999   6.624
  201TIP3    H2  545   1.427   3.030   6.477
  202TIP3   OH2  546   6.442   6.639   6.394
  202TIP3    H1  547   6.412   6.707   6.334
  202TIP3    H2  548   6.450   6.682   6.478
  203TIP3   OH2  549   7.988   0.454   3.777
  203TIP3    H1  550   7.956   0.478   3.863
  203TIP3    H2  551   8.072   0.412   3.793
  204TIP3   OH2  552   2.386   1.245   3.908
  204TIP3    H1  553   2.459   1.270   3.964
  204TIP3    H2  554   2.321   1.315   3.920
  205TIP3   OH2  555   0.370   5.018   6.033
  205TIP3    H1  556   0.285   5.053   6.007
  205TIP3    H2  557   0.352   4.960   6.107
  206TIP3   OH2  558   6.980   0.817   3.274
  206TIP3    H1  559   7.030   0.766   3.338
  206TIP3    H2  560   7.045   0.845   3.210
  207TIP3   OH2  561   6.442   1.376   5.171
  207TIP3    H1  562   6.444   1.281   5.157
  207TIP3    H2  563   6.365   1.391   5.225
  208TIP3   OH2  564   7.787   2.016   0.109
  208TIP3    H1  565   7.722   2.083   0.091
  208TIP3    H2  566   7.744   1.933   0.086
  209TIP3   OH2  567   1.557   2.002   0.254
  209TIP3    H1  568   1.617   1.938   0.217
  209TIP3    H2  569   1.476   1.989   0.204
  210TIP3   OH2  570   5.928   1.266   1.853
  210TIP3    H1  571   5.836   1.242   1.859
  210TIP3    H2  572   5.973   1.205   1.911
  211TIP3   OH2  573   6.254   6.565   4.199
  211TIP3    H1  574   6.172   6.533   4.236
  211TIP3    H2  575   6.229   6.640   4.145
  212TIP3   OH2  576   0.856   4.348   4.950
  212TIP3    H1  577   0.790   4.402   4.994
  212TIP3    H2  578   0.845   4.368   4.857
  213TIP3   OH2  579   0.782   5.227   6.657
  213TIP3    H1  580   0.845   5.296   6.639
  213TIP3    H2  581   0.774   5.226   6.753
  214TIP3   OH2  582   3.690   5.043   3.247
  214TIP3    H1  583   3.774   5.038   3.201
  214TIP3    H2  584   3.686   5.133   3.279
  215TIP3   OH2  585   7.899   4.445   4.672
  215TIP3    H1  586   7.845   4.427   4.749
  215TIP3    H2  587   7.870   4.380   4.607
  216TIP3   OH2  588   6.665   1.013   5.004
  216TIP3    H1  589   6.698   1.026   5.093
  216TIP3    H2  590   6.628   0.925   5.004
  217TIP3   OH2  591   4.634   4.538   2.195
  217TIP3    H1  592   4.706   4.595   2.167
  217TIP3    H2  593   4.647   4.528   2.289
  218TIP3   OH2  594   4.707   1.168   0.130
  218TIP3    H1  595   4.638   1.145   0.192
  218TIP3    H2  596   4.670   1.240   0.078
  219TIP3   OH2  597   7.354   4.153   4.801
  219TIP3    H1  598   7.260   4.140   4.813
  219TIP3    H2  599   7.366   4.154   4.706
  220TIP3   OH2  600   1.499   0.876   4.101
  220TIP3    H1  601   1.470   0.962   4.073
  220TIP3    H2  602   1.591   0.888   4.124
  221TIP3   OH2  603   4.512   5.081   5.660
  221TIP3    H1  604   4.446   5.021   5.694
  221TIP3    H2  605   4.462   5.151   5.617
  222TIP3   OH2  606   6.877   5.582   3.579
  222TIP3    H1  607   6.840   5.534   3.653
  222TIP3    H2  608   6.927   5.654   3.619
  223TIP3   OH2  609   6.692   6.683   0.719
  223TIP3    H1  610   6.611   6.727   0.692
  223TIP3    H2  611   6.665   6.624   0.789
  224TIP3   OH2  612   4.796   0.832   4.821
  224TIP3    H1  613   4.714   0.847   4.866
  224TIP3    H2  614   4.796   0.738   4.802
  225TIP3   OH2  615   4.432   0.938   5.050
  225TIP3    H1  616   4.474   0.871   4.996
  225TIP3    H2  617   4.502   0.969   5.108
  226TIP3   OH2  618   3.335   7.615   2.855
  226TIP3    H1  619   3.369   7.702   2.834
  226TIP3    H2  620   3.320   7.574   2.769
  227TIP3   OH2  621   4.814   6.652   1.800
  227TIP3    H1  622   4.872   6.588   1.760
  227TIP3    H2  623   4.749   6.600   1.848
  228TIP3   OH2  624   4.170   0.061   2.110
  228TIP3    H1  625   4.175   0.115   2.031
  228TIP3    H2  626   4.259   0.062   2.145
  229TIP3   OH2  627   4.285   3.075   0.722
  229TIP3    H1  628   4.241   3.000   0.682
  229TIP3    H2  629   4.291   3.140   0.651
  230TIP3   OH2  630   5.320   7.387   6.735
  230TIP3    H1  631   5.289   7.466   6.779
  230TIP3    H2  632   5.353   7.331   6.805
  231TIP3   OH2  633   0.887   0.968   4.233
  231TIP3    H1  634   0.884   0.873   4.225
  231TIP3    H2  635   0.835   0.988   4.311
  232TIP3   OH2  636   8.336   6.313   5.499
  232TIP3    H1  637   8.354   6.268   5.416
  232TIP3    H2  638   8.347   6.245   5.565
  233TIP3   OH2  639   6.068   5.921   0.255
  233TIP3    H1  640   6.144   5.880   0.214
  233TIP3    H2  641   6.003   5.929   0.185
  234TIP3   OH2  642   1.221   0.088   5.040
  234TIP3    H1  643   1.133   0.124   5.049
  234TIP3    H2  644   1.223   0.012   5.098
  235TIP3   OH2  645   5.516   1.654   3.826
  235TIP3    H1  646   5.564   1.622   3.750
  235TIP3    H2  647   5.426   1.665   3.795
  236TIP3   OH2  648   4.914   2.442   3.004
  236TIP3    H1  649   4.979   2.408   2.942
  236TIP3    H2  650   4.965   2.487   3.071
  237TIP3   OH2  651   2.864   2.439   4.406
  237TIP3    H1  652   2.905   2.429   4.492
  237TIP3    H2  653   2.771   2.426   4.423
  238TIP3   OH2  654   2.099   7.220   2.214
  238TIP3    H1  655   2.005   7.210   2.229
  238TIP3    H2  656   2.134   7.132   2.229
  239TIP3   OH2  657   3.311   5.639   5.714
  239TIP3    H1  658   3.243   5.705   5.731
  239TIP3    H2  659   3.303   5.621   5.620
  240TIP3   OH2  660   5.382   1.891   5.250
  240TIP3    H1  661   5.323   1.965   5.240
  240TIP3    H2  662   5.455   1.909   5.190
  241TIP3   OH2  663   3.531   6.551   1.321
  241TIP3    H1  664   3.526   6.595   1.236
  241TIP3    H2  665   3.526   6.458   1.300
  242TIP3   OH2  666   5.079   5.127   1.508
  242TIP3    H1  667   5.106   5.165   1.591
  242TIP3    H2  668   5.072   5.033   1.526
  243TIP3   OH2  669   8.298   3.415   5.563
  243TIP3    H1  670   8.254   3.333   5.586
  243TIP3    H2  671   8.329   3.401   5.473
  244TIP3   OH2  672   4.688   2.309   4.880
  244TIP3    H1  673   4.684   2.331   4.787
  244TIP3    H2  674   4.597   2.300   4.906
  245TIP3   OH2  675   7.096   1.611   6.210
  245TIP3    H1  676   7.134   1.606   6.122
  245TIP3    H2  677   7.096   1.704   6.230
  246TIP3   OH2  678   3.255   0.076   5.332
  246TIP3    H1  679   3.270   0.024   5.253
  246TIP3    H2  680   3.322   0.144   5.330
  247TIP3   OH2  681   5.278   4.400   1.599
  247TIP3    H1  682   5.229   4.320   1.579
  247TIP3    H2  683   5.273   4.451   1.518
  248TIP3   OH2  684   2.588   5.127   1.883
  248TIP3    H1  685   2.545   5.205   1.847
  248TIP3    H2  686   2.653   5.162   1.944
  249TIP3   OH2  687   3.664   7.615   5.265
  249TIP3    H1  688   3.624   7.528   5.276
  249TIP3    H2  689   3.598   7.666   5.218
  250TIP3   OH2  690   0.349   6.965   6.751
  250TIP3    H1  691   0.260   6.931   6.759
  250TIP3    H2  692   0.352   7.004   6.664
  251TIP3   OH2  693   3.590   3.060   5.499
  251TIP3    H1  694   3.500   3.073   5.527
  251TIP3    H2  695   3.637   3.137   5.530
  252TIP3   OH2  696   4.929   4.667   4.698
  252TIP3    H1  697   4.850   4.712   4.668
  252TIP3    H2  698   4.912   4.575   4.680
  253TIP3   OH2  699   5.090   0.618   0.134
  253TIP3    H1  700   5.112   0.527   0.155
  253TIP3    H2  701   5.042   0.613   0.052
  254TIP3   OH2  702   0.115   5.478   6.845
  254TIP3    H1  703   0.149   5.395   6.878
  254TIP3    H2  704   0.191   5.536   6.844
  255TIP3   OH2  705   3.554   1.914   3.882
  255TIP3    H1  706   3.575   1.836   3.830
  255TIP3    H2  707   3.479   1.953   3.837
  256TIP3   OH2  708   5.082   7.763   5.161
  256TIP3    H1  709   5.049   7.698   5.099
  256TIP3    H2  710   5.164   7.726   5.192
  257TIP3   OH2  711   6.980   1.741   1.543
  257TIP3    H1  712   6.949   1.703   1.626
  257TIP3    H2  713   6.909   1.800   1.517
  258TIP3   OH2  714   7.860   2.874   5.039
  258TIP3    H1  715   7.894   2.905   4.955
  258TIP3    H2  716   7.917   2.915   5.105
  259TIP3   OH2  717   4.880   4.784   4.388
  259TIP3    H1  718   4.808   4.839   4.357
  259TIP3    H2  719   4.918   4.833   4.460
  260TIP3   OH2  720   4.070   7.440   2.697
  260TIP3    H1  721   3.990   7.414   2.744
  260TIP3    H2  722   4.043   7.515   2.645
  261TIP3   OH2  723   4.013   0.624   6.123
  261TIP3    H1  724   4.094   0.602   6.168
  261TIP3    H2  725   3.944   0.583   6.175
  262TIP3   OH2  726   3.573   7.662   6.182
  262TIP3    H1  727   3.568   7.637   6.090
  262TIP3    H2  728   3.514   7.601   6.227
  263TIP3   OH2  729   5.627   5.138   3.206
  263TIP3    H1  730   5.720   5.159   3.198
  263TIP3    H2  731   5.604   5.101   3.120
  264TIP3   OH2  732   7.969  -0.001   5.474
  264TIP3    H1  733   7.937  -0.084   5.437
  264TIP3    H2  734   7.988   0.053   5.398
  265TIP3   OH2  735   8.164   2.571   1.690
  265TIP3    H1  736   8.115   2.551   1.611
  265TIP3    H2  737   8.219   2.646   1.665
  266TIP3   OH2  738   4.804   5.017   6.223
  266TIP3    H1  739   4.851   4.972   6.152
  266TIP3    H2  740   4.716   4.979   6.221
  267TIP3   OH2  741   1.830   1.694   3.732
  267TIP3    H1  742   1.808   1.719   3.821
  267TIP3    H2  743   1.910   1.742   3.713
  268TIP3   OH2  744   3.010   7.004   4.611
  268TIP3    H1  745   2.921   7.036   4.626
  268TIP3    H2  746   3.061   7.036   4.685
  269TIP3   OH2  747   3.726   4.643   6.733
  269TIP3    H1  748   3.741   4.560   6.687
  269TIP3    H2  749   3.650   4.681   6.689
  270TIP3   OH2  750   4.816   0.814   5.346
  270TIP3    H1  751   4.906   0.831   5.319
  270TIP3    H2  752   4.810   0.718   5.350
  271TIP3   OH2  753   3.311   2.059   3.773
  271TIP3    H1  754   3.223   2.073   3.807
  271TIP3    H2  755   3.350   2.146   3.770
  272TIP3   OH2  756   2.868   2.933   0.775
  272TIP3    H1  757   2.798   2.868   0.780
  272TIP3    H2  758   2.939   2.888   0.730
  273TIP3   OH2  759   7.037   0.422   1.015
  273TIP3    H1  760   7.122   0.436   0.974
  273TIP3    H2  761   6.978   0.481   0.968
  274TIP3   OH2  762   7.518   7.647   1.442
  274TIP3    H1  763   7.544   7.712   1.507
  274TIP3    H2  764   7.599   7.627   1.395
  275TIP3   OH2  765   3.387   0.428   1.913
  275TIP3    H1  766   3.478   0.426   1.942
  275TIP3    H2  767   3.392   0.422   1.817
  276TIP3   OH2  768   4.486   0.667   0.815
  276TIP3    H1  769   4.511   0.595   0.757
  276TIP3    H2  770   4.567   0.716   0.829
  277TIP3   OH2  771   7.232   5.613   3.977
  277TIP3    H1  772   7.250   5.566   3.896
  277TIP3    H2  773   7.232   5.545   4.044
  278TIP3   OH2  774   6.157   5.722   3.726
  278TIP3    H1  775   6.106   5.641   3.736
  278TIP3    H2  776   6.211   5.726   3.804
  279TIP3   OH2  777   2.114   7.166   6.741
  279TIP3    H1  778   2.149   7.190   6.656
  279TIP3    H2  779   2.189   7.172   6.800
  280TIP3   OH2  780   6.222   3.702   4.950
  280TIP3    H1  781   6.276   3.675   5.024
  280TIP3    H2  782   6.171   3.776   4.983
  281TIP3   OH2  783   2.270   2.305   4.354
  281TIP3    H1  784   2.315   2.372   4.303
  281TIP3    H2  785   2.283   2.225   4.303
  282TIP3   OH2  786   5.790   2.627   4.195
  282TIP3    H1  787   5.828   2.567   4.131
  282TIP3    H2  788   5.695   2.618   4.181
  283TIP3   OH2  789   6.521   6.844   6.606
  283TIP3    H1  790   6.564   6.916   6.652
  283TIP3    H2  791   6.444   6.825   6.658
  284TIP3   OH2  792   0.603   0.517   3.755
  284TIP3    H1  793   0.570   0.469   3.831
  284TIP3    H2  794   0.697   0.528   3.773
  285TIP3   OH2  795   8.266   3.929   5.911
  285TIP3    H1  796   8.268   3.856   5.974
  285TIP3    H2  797   8.352   3.926   5.869
  286TIP3   OH2  798   2.170   4.522   6.803
  286TIP3    H1  799   2.191   4.489   6.715
  286TIP3    H2  800   2.255   4.551   6.839
  287TIP3   OH2  801   3.732   1.324   5.086
  287TIP3    H1  802   3.819   1.290   5.067
  287TIP3    H2  803   3.708   1.286   5.170
  288TIP3   OH2  804   7.959   4.800   6.061
  288TIP3    H1  805   8.023   4.791   5.989
  288TIP3    H2  806   7.930   4.710   6.077
  289TIP3   OH2  807   2.610   1.638   2.791
  289TIP3    H1  808   2.654   1.590   2.721
  289TIP3    H2  809   2.659   1.720   2.797
  290TIP3   OH2  810   4.729   2.624   2.883
  290TIP3    H1  811   4.784   2.702   2.870
  290TIP3    H2  812   4.790   2.558   2.918
  291TIP3   OH2  813   6.994   3.451   1.141
  291TIP3    H1  814   6.979   3.418   1.230
  291TIP3    H2  815   7.077   3.412   1.115
  292TIP3   OH2  816   4.480   5.745   0.254
  292TIP3    H1  817   4.444   5.727   0.341
  292TIP3    H2  818   4.449   5.833   0.233
  293TIP3   OH2  819   8.266   6.805   6.659
  293TIP3    H1  820   8.297   6.720   6.691
  293TIP3    H2  821   8.172   6.805   6.677
  294TIP3   OH2  822   1.662   2.753   0.805
  294TIP3    H1  823   1.678   2.727   0.896
  294TIP3    H2  824   1.744   2.732   0.760
  295TIP3   OH2  825   2.887   3.951   1.931
  295TIP3    H1  826   2.859   4.016   1.995
  295TIP3    H2  827   2.809   3.898   1.914
  296TIP3   OH2  828   0.478   1.004   4.298
  296TIP3    H1  829   0.510   0.920   4.332
  296TIP3    H2  830   0.488   1.064   4.372
  297TIP3   OH2  831   0.062   4.565   2.937
  297TIP3    H1  832   0.113   4.634   2.980
  297TIP3    H2  833   0.014   4.523   3.009
  298TIP3   OH2  834   1.244   6.961   0.323
  298TIP3    H1  835   1.272   6.872   0.304
  298TIP3    H2  836   1.283   7.014   0.254
  299TIP3   OH2  837   0.553   7.682   2.641
  299TIP3    H1  838   0.635   7.709   2.682
  299TIP3    H2  839   0.578   7.654   2.553
  300TIP3   OH2  840   7.515   2.856   5.663
  300TIP3    H1  841   7.581   2.812   5.716
  300TIP3    H2  842   7.472   2.917   5.724
  301TIP3   OH2  843   5.733   3.260   4.801
  301TIP3    H1  844   5.726   3.261   4.897
  301TIP3    H2  845   5.796   3.329   4.781
  302TIP3   OH2  846   8.255   0.894   0.087
  302TIP3    H1  847   8.348   0.878   0.071
  302TIP3    H2  848   8.213   0.811   0.068
  303TIP3   OH2  849   4.149   6.932   5.561
  303TIP3    H1  850   4.112   6.900   5.478
  303TIP3    H2  851   4.076   6.927   5.623
  304TIP3   OH2  852   3.090   5.474   2.609
  304TIP3    H1  853   3.050   5.467   2.523
  304TIP3    H2  854   3.035   5.537   2.656
  305TIP3   OH2  855   5.478   6.948   6.233
  305TIP3    H1  856   5.454   7.002   6.157
  305TIP3    H2  857   5.508   7.011   6.299
  306TIP3   OH2  858   4.405   3.307   5.915
  306TIP3    H1  859   4.490   3.296   5.872
  306TIP3    H2  860   4.375   3.218   5.933
  307TIP3   OH2  861   2.273   5.144   2.249
  307TIP3    H1  862   2.257   5.058   2.211
  307TIP3    H2  863   2.254   5.134   2.342
  308TIP3   OH2  864   2.461   1.073   1.473
  308TIP3    H1  865   2.437   0.983   1.494
  308TIP3    H2  866   2.547   1.067   1.433
  309TIP3   OH2  867   4.271   3.257   1.751
  309TIP3    H1  868   4.195   3.293   1.707
  309TIP3    H2  869   4.295   3.323   1.816
  310TIP3   OH2  870   6.805   0.795   3.063
  310TIP3    H1  871   6.858   0.842   3.128
  310TIP3    H2  872   6.848   0.812   2.980
  311TIP3   OH2  873   1.004   4.893   6.316
  311TIP3    H1  874   1.010   4.971   6.260
  311TIP3    H2  875   1.095   4.873   6.339
  312TIP3   OH2  876   5.498   1.150   2.192
  312TIP3    H1  877   5.539   1.084   2.135
  312TIP3    H2  878   5.408   1.119   2.203
  313TIP3   OH2  879   7.622   2.219   1.521
  313TIP3    H1  880   7.638   2.314   1.516
  313TIP3    H2  881   7.694   2.186   1.575
  314TIP3   OH2  882   4.538   0.322   5.839
  314TIP3    H1  883   4.551   0.336   5.745
  314TIP3    H2  884   4.486   0.397   5.868
  315TIP3   OH2  885   3.424   4.833   5.592
  315TIP3    H1  886   3.447   4.916   5.548
  315TIP3    H2  887   3.505   4.782   5.589
  316TIP3   OH2  888   4.637   5.538   4.105
  316TIP3    H1  889   4.704   5.564   4.041
  316TIP3    H2  890   4.612   5.450   4.079
  317TIP3   OH2  891   2.730   1.892   1.487
  317TIP3    H1  892   2.738   1.823   1.553
  317TIP3    H2  893   2.639   1.921   1.494
  318TIP3   OH2  894   0.637   3.056   5.279
  318TIP3    H1  895   0.710   3.029   5.335
  318TIP3    H2  896   0.560   3.016   5.319
  319TIP3   OH2  897   2.139   5.746   2.648
  319TIP3    H1  898   2.092   5.788   2.576
  319TIP3    H2  899   2.100   5.783   2.727
  320TIP3   OH2  900   2.676   6.300   2.064
  320TIP3    H1  901   2.703   6.380   2.021
  320TIP3    H2  902   2.756   6.248   2.073
  321TIP3   OH2  903   7.231   5.455   6.267
  321TIP3    H1  904   7.166   5.386   6.284
  321TIP3    H2  905   7.263   5.479   6.354
  322TIP3   OH2  906   6.049   4.310   1.521
  322TIP3    H1  907   6.028   4.337   1.611
  322TIP3    H2  908   5.970   4.264   1.491
  323TIP3   OH2  909   5.059   3.050   5.352
  323TIP3    H1  910   5.024   3.128   5.395
  323TIP3    H2  911   5.143   3.034   5.395
  324TIP3   OH2  912   2.769   2.015   2.301
  324TIP3    H1  913   2.800   1.959   2.230
  324TIP3    H2  914   2.818   2.097   2.289
  325TIP3   OH2  915   2.186   3.625   1.437
  325TIP3    H1  916   2.160   3.688   1.504
  325TIP3    H2  917   2.138   3.545   1.459
  326TIP3   OH2  918   7.859   7.265   5.578
  326TIP3    H1  919   7.788   7.297   5.633
  326TIP3    H2  920   7.930   7.328   5.593
  327TIP3   OH2  921   3.345   6.799   2.285
  327TIP3    H1  922   3.263   6.838   2.315
  327TIP3    H2  923   3.318   6.733   2.221
  328TIP3   OH2  924   4.238   4.672   6.785
  328TIP3    H1  925   4.321   4.719   6.786
  328TIP3    H2  926   4.173   4.737   6.811
  329TIP3   OH2  927   7.671   0.173   4.325
  329TIP3    H1  928   7.681   0.081   4.351
  329TIP3    H2  929   7.759   0.210   4.332
  330TIP3   OH2  930   7.673   6.983   5.820
  330TIP3    H1  931   7.658   6.888   5.821
  330TIP3    H2  932   7.729   6.997   5.744
  331TIP3   OH2  933   3.383   0.712   3.417
  331TIP3    H1  934   3.473   0.742   3.403
  331TIP3    H2  935   3.375   0.637   3.358
  332TIP3   OH2  936   5.432   0.125   6.791
  332TIP3    H1  937   5.476   0.189   6.847
  332TIP3    H2  938   5.345   0.116   6.828
  333TIP3   OH2  939   4.481   6.879   1.348
  333TIP3    H1  940   4.406   6.859   1.403
  333TIP3    H2  941   4.445   6.886   1.260
  334TIP3   OH2  942   0.919   5.719   2.409
  334TIP3    H1  943   0.855   5.751   2.473
  334TIP3    H2  944   0.889   5.756   2.325
  335TIP3   OH2  945   6.624   1.773   5.704
  335TIP3    H1  946   6.549   1.729   5.663
  335TIP3    H2  947   6.656   1.833   5.637
  336TIP3   OH2  948   5.778   2.193   3.285
  336TIP3    H1  949   5.857   2.196   3.339
  336TIP3    H2  950   5.753   2.101   3.284
  337TIP3   OH2  951   7.271   0.586   3.921
  337TIP3    H1  952   7.335   0.516   3.911
  337TIP3    H2  953   7.302   0.657   3.866
  338TIP3   OH2  954   4.409   2.284   2.773
  338TIP3    H1  955   4.470   2.346   2.812
  338TIP3    H2  956   4.442   2.270   2.685
  339TIP3   OH2  957   4.123   5.996   4.770
  339TIP3    H1  958   4.143   5.935   4.699
  339TIP3    H2  959   4.029   6.014   4.761
  340TIP3   OH2  960   6.048   5.872   6.010
  340TIP3    H1  961   6.053   5.918   5.926
  340TIP3    H2  962   6.100   5.925   6.070
  341TIP3   OH2  963   5.581   7.403   2.046
  341TIP3    H1  964   5.622   7.481   2.007
  341TIP3    H2  965   5.511   7.380   1.985
  342TIP3   OH2  966   4.623   5.206   1.261
  342TIP3    H1  967   4.600   5.132   1.206
  342TIP3    H2  968   4.579   5.190   1.344
  343TIP3   OH2  969   5.011   1.634   6.210
  343TIP3    H1  970   5.012   1.726   6.238
  343TIP3    H2  971   4.918   1.611   6.210
  344TIP3   OH2  972   1.852   3.398   1.713
  344TIP3    H1  973   1.786   3.462   1.740
  344TIP3    H2  974   1.803   3.331   1.667
  345TIP3   OH2  975   7.360   6.733   5.022
  345TIP3    H1  976   7.396   6.670   4.959
  345TIP3    H2  977   7.282   6.767   4.980
  346TIP3   OH2  978   3.435   2.673   0.603
  346TIP3    H1  979   3.470   2.595   0.560
  346TIP3    H2  980   3.394   2.640   0.683
  347TIP3   OH2  981   4.237   0.683   5.517
  347TIP3    H1  982   4.237   0.670   5.422
  347TIP3    H2  983   4.209   0.599   5.552
  348TIP3   OH2  984   5.704   2.409   0.283
  348TIP3    H1  985   5.615   2.404   0.248
  348TIP3    H2  986   5.738   2.320   0.277
  349TIP3   OH2  987   6.868   2.946   5.431
  349TIP3    H1  988   6.887   3.038   5.412
  349TIP3    H2  989   6.922   2.925   5.507
  350TIP3   OH2  990   1.726   4.621   4.741
  350TIP3    H1  991   1.722   4.617   4.645
  350TIP3    H2  992   1.673   4.698   4.763
  351TIP3   OH2  993   7.338   7.543   3.779
  351TIP3    H1  994   7.395   7.540   3.855
  351TIP3    H2  995   7.369   7.618   3.729
  352TIP3   OH2  996   4.276   6.609   2.552
  352TIP3    H1  997   4.261   6.699   2.583
  352TIP3    H2  998   4.369   6.594   2.571
  353TIP3   OH2  999   6.195   7.582   1.073
  353TIP3    H1 1000   6.174   7.519   1.004
  353TIP3    H2 1001   6.187   7.533   1.155
  354TIP3   OH2 1002   7.798   1.203   4.401
  354TIP3    H1 1003   7.721   1.248   4.434
  354TIP3    H2 1004   7.812   1.131   4.463
  355TIP3   OH2 1005   0.059   7.898   5.074
  355TIP3    H1 1006  -0.025   7.890   5.029
  355TIP3    H2 1007   0.038   7.886   5.166
  356TIP3   OH2 1008   4.308   1.899   1.999
  356TIP3    H1 1009   4.330   1.988   1.974
  356TIP3    H2 1010   4.229   1.878   1.950
  357TIP3   OH2 1011   0.868   0.066   5.523
  357TIP3    H1 1012   0.960   0.087   5.543
  357TIP3    H2 1013   0.833   0.147   5.485
  358TIP3   OH2 1014   0.263   6.005   0.967
  358TIP3    H1 1015   0.352   5.970   0.959
  358TIP3    H2 1016   0.219   5.947   1.028
  359TIP3   OH2 1017   3.669   2.195   1.803
  359TIP3    H1 1018   3.618   2.238   1.871
  359TIP3    H2 1019   3.730   2.262   1.773
  360TIP3   OH2 1020   3.924   2.494   4.516
  360TIP3    H1 1021   3.997   2.538   4.559
  360TIP3    H2 1022   3.890   2.558   4.454
  361TIP3   OH2 1023   1.429   7.027   5.971
  361TIP3    H1 1024   1.465   7.001   5.886
  361TIP3    H2 1025   1.340   6.991   5.971
  362TIP3   OH2 1026   5.119   6.054   2.039
  362TIP3    H1 1027   5.171   6.054   1.959
  362TIP3    H2 1028   5.127   6.142   2.074
  363TIP3   OH2 1029   0.671   2.351   4.225
  363TIP3    H1 1030   0.653   2.264   4.261
  363TIP3    H2 1031   0.729   2.336   4.151
  364TIP3   OH2 1032   7.280   0.427   0.877
  364TIP3    H1 1033   7.306   0.437   0.786
  364TIP3    H2 1034   7.356   0.388   0.920
  365TIP3   OH2 1035   2.562   1.403   2.964
  365TIP3    H1 1036   2.503   1.357   3.024
  365TIP3    H2 1037   2.505   1.466   2.920
  366TIP3   OH2 1038   4.920   0.971   3.499
  366TIP3    H1 1039   4.927   1.035   3.428
  366TIP3    H2 1040   5.011   0.952   3.523
  367TIP3   OH2 1041   2.495   6.537   3.364
  367TIP3    H1 1042   2.409   6.529   3.404
  367TIP3    H2 1043   2.542   6.459   3.393
  368TIP3   OH2 1044   2.313   6.327   2.491
  368TIP3    H1 1045   2.370   6.251   2.495
  368TIP3    H2 1046   2.311   6.350   2.398
  369TIP3   OH2 1047   6.936   6.275   2.613
  369TIP3    H1 1048   6.979   6.355   2.585
  369TIP3    H2 1049   6.902   6.295   2.700
  370TIP3   OH2 1050   4.918   6.050  -0.011
  370TIP3    H1 1051   4.869   6.084   0.064
  370TIP3    H2 1052   4.911   5.955  -0.003
  371TIP3   OH2 1053   1.138   6.644   3.767
  371TIP3    H1 1054   1.137   6.635   3.862
  371TIP3    H2 1055   1.214   6.593   3.739
  372TIP3   OH2 1056   4.034   1.838   5.055
  372TIP3    H1 1057   4.072   1.906   4.999
  372TIP3    H2 1058   4.099   1.824   5.123
  373TIP3   OH2 1059   1.727   0.329   0.752
  373TIP3    H1 1060   1.717   0.405   0.808
  373TIP3    H2 1061   1.789   0.356   0.684
  374TIP3   OH2 1062   4.157   7.134   1.237
  374TIP3    H1 1063   4.148   7.039   1.228
  374TIP3    H2 1064   4.152   7.149   1.331
  375TIP3   OH2 1065   3.771   4.839   2.300
  375TIP3    H1 1066   3.791   4.764   2.245
  375TIP3    H2 1067   3.710   4.892   2.247
  376TIP3   OH2 1068   3.348   6.502   0.311
  376TIP3    H1 1069   3.272   6.529   0.363
  376TIP3    H2 1070   3.343   6.555   0.231
  377TIP3   OH2 1071   7.378   6.457   0.493
  377TIP3    H1 1072   7.392   6.432   0.402
  377TIP3    H2 1073   7.283   6.468   0.501
  378TIP3   OH2 1074   2.685   2.131   1.157
  378TIP3    H1 1075   2.611   2.189   1.171
  378TIP3    H2 1076   2.728   2.126   1.243
  379TIP3   OH2 1077   3.107   6.601   1.339
  379TIP3    H1 1078   3.162   6.553   1.400
  379TIP3    H2 1079   3.031   6.628   1.391
  380TIP3   OH2 1080   4.319   5.047   0.327
  380TIP3    H1 1081   4.265   5.115   0.285
  380TIP3    H2 1082   4.399   5.045   0.274
  381TIP3   OH2 1083   6.044   4.841   2.312
  381TIP3    H1 1084   6.120   4.871   2.262
  381TIP3    H2 1085   5.969   4.860   2.255
  382TIP3   OH2 1086   5.608   1.198   5.642
  382TIP3    H1 1087   5.516   1.197   5.667
  382TIP3    H2 1088   5.653   1.232   5.719
  383TIP3   OH2 1089   8.150   4.361   4.736
  383TIP3    H1 1090   8.120   4.276   4.704
  383TIP3    H2 1091   8.075   4.419   4.725
  384TIP3   OH2 1092   3.252   2.752   6.755
  384TIP3    H1 1093   3.180   2.700   6.719
  384TIP3    H2 1094   3.218   2.842   6.756
  385TIP3   OH2 1095   5.148   2.634   3.483
  385TIP3    H1 1096   5.103   2.664   3.562
  385TIP3    H2 1097   5.241   2.644   3.504
  386TIP3   OH2 1098   1.300   3.434   3.561
  386TIP3    H1 1099   1.361   3.361   3.559
  386TIP3    H2 1100   1.323   3.486   3.484
  387TIP3   OH2 1101   2.780   4.968   1.827
  387TIP3    H1 1102   2.766   4.884   1.870
  387TIP3    H2 1103   2.698   5.015   1.838
  388TIP3   OH2 1104   5.881   6.224   0.543
  388TIP3    H1 1105   5.851   6.313   0.525
  388TIP3    H2 1106   5.846   6.204   0.630
  389TIP3   OH2 1107   2.597   6.288   3.219
  389TIP3    H1 1108   2.616   6.207   3.170
  389TIP3    H2 1109   2.666   6.349   3.192
  390TIP3   OH2 1110   7.212   5.521   3.036
  390TIP3    H1 1111   7.145   5.541   3.101
  390TIP3    H2 1112   7.294   5.521   3.085
  391TIP3   OH2 1113   8.130   3.736   0.824
  391TIP3    H1 1114   8.063   3.688   0.776
  391TIP3    H2 1115   8.209   3.681   0.816
  392TIP3   OH2 1116   2.864   5.406   5.318
  392TIP3    H1 1117   2.895   5.327   5.273
  392TIP3    H2 1118   2.866   5.474   5.250
  393TIP3   OH2 1119   3.971   5.960   5.781
  393TIP3    H1 1120   3.893   5.908   5.761
  393TIP3    H2 1121   4.037   5.930   5.717
  394TIP3   OH2 1122   4.088   6.263   5.259
  394TIP3    H1 1123   4.115   6.354   5.244
  394TIP3    H2 1124   4.143   6.233   5.331
  395TIP3   OH2 1125   5.904   1.154   3.216
  395TIP3    H1 1126   5.849   1.226   3.185
  395TIP3    H2 1127   5.916   1.098   3.139
  396TIP3   OH2 1128   1.073   6.250   1.657
  396TIP3    H1 1129   1.107   6.183   1.717
  396TIP3    H2 1130   1.015   6.303   1.712
  397TIP3   OH2 1131   8.293   4.497   1.521
  397TIP3    H1 1132   8.222   4.522   1.580
  397TIP3    H2 1133   8.331   4.419   1.560
  398TIP3   OH2 1134   4.681   2.347   6.805
  398TIP3    H1 1135   4.768   2.371   6.836
  398TIP3    H2 1136   4.696   2.286   6.734
  399TIP3   OH2 1137   2.864   0.888   2.069
  399TIP3    H1 1138   2.922   0.956   2.104
  399TIP3    H2 1139   2.781   0.933   2.054
  400TIP3   OH2 1140   0.437   5.293   1.200
  400TIP3    H1 1141   0.494   5.216   1.200
  400TIP3    H2 1142   0.377   5.279   1.274
  401TIP3   OH2 1143   0.114   5.108   6.064
  401TIP3    H1 1144   0.116   5.166   6.140
  401TIP3    H2 1145   0.023   5.078   6.058
  402TIP3   OH2 1146   3.668   3.372   1.135
  402TIP3    H1 1147   3.692   3.448   1.081
  402TIP3    H2 1148   3.743   3.359   1.192
  403TIP3   OH2 1149   2.815   5.488   4.610
  403TIP3    H1 1150   2.773   5.540   4.541
  403TIP3    H2 1151   2.836   5.552   4.678
  404TIP3   OH2 1152   8.172   1.097   0.232
  404TIP3    H1 1153   8.243   1.142   0.278
  404TIP3    H2 1154   8.216   1.051   0.161
  405TIP3   OH2 1155   1.896   0.748   3.381
  405TIP3    H1 1156   1.859   0.661   3.364
  405TIP3    H2 1157   1.923   0.780   3.295
  406TIP3   OH2 1158   3.785   2.938   1.747
  406TIP3    H1 1159   3.738   2.883   1.810
  406TIP3    H2 1160   3.862   2.887   1.723
  407TIP3   OH2 1161   2.945   2.726   2.655
  407TIP3    H1 1162   2.979   2.738   2.566
  407TIP3    H2 1163   2.939   2.815   2.690
  408TIP3   OH2 1164   5.322   2.456   4.948
  408TIP3    H1 1165   5.238   2.476   4.989
  408TIP3    H2 1166   5.322   2.360   4.940
  409TIP3   OH2 1167   6.478   1.964   0.061
  409TIP3    H1 1168   6.505   1.874   0.041
  409TIP3    H2 1169   6.558   2.007   0.092
  410TIP3   OH2 1170   1.674   6.657   4.923
  410TIP3    H1 1171   1.734   6.602   4.973
  410TIP3    H2 1172   1.590   6.647   4.968
  411TIP3   OH2 1173   4.209   5.500   6.444
  411TIP3    H1 1174   4.221   5.408   6.421
  411TIP3    H2 1175   4.155   5.536   6.374
  412TIP3   OH2 1176   0.586   1.386   2.263
  412TIP3    H1 1177   0.670   1.361   2.302
  412TIP3    H2 1178   0.605   1.467   2.215
  413TIP3   OH2 1179   7.234   6.668   1.591
  413TIP3    H1 1180   7.314   6.620   1.609
  413TIP3    H2 1181   7.165   6.616   1.631
  414TIP3   OH2 1182   6.829   7.731   6.136
  414TIP3    H1 1183   6.735   7.744   6.126
  414TIP3    H2 1184   6.837   7.649   6.184
  415TIP3   OH2 1185   7.750   6.886   3.426
  415TIP3    H1 1186   7.841   6.915   3.415
  415TIP3    H2 1187   7.751   6.837   3.509
  416TIP3   OH2 1188   0.367   1.474   4.063
  416TIP3    H1 1189   0.323   1.541   4.010
  416TIP3    H2 1190   0.460   1.485   4.043
  417TIP3   OH2 1191   6.449   6.406   0.645
  417TIP3    H1 1192   6.492   6.417   0.730
  417TIP3    H2 1193   6.358   6.386   0.666
  418TIP3   OH2 1194   6.596   2.700   3.683
  418TIP3    H1 1195   6.524   2.637   3.690
  418TIP3    H2 1196   6.586   2.757   3.759
  419TIP3   OH2 1197   3.728   3.608   2.623
  419TIP3    H1 1198   3.721   3.604   2.719
  419TIP3    H2 1199   3.681   3.530   2.593
  420TIP3   OH2 1200   0.506   5.925   3.452
  420TIP3    H1 1201   0.561   6.002   3.440
  420TIP3    H2 1202   0.423   5.949   3.410
  421TIP3   OH2 1203   2.206   0.989   0.761
  421TIP3    H1 1204   2.292   0.951   0.776
  421TIP3    H2 1205   2.187   1.038   0.841
  422TIP3   OH2 1206   5.756   2.261   6.489
  422TIP3    H1 1207   5.685   2.299   6.438
  422TIP3    H2 1208   5.713   2.216   6.561
  423TIP3   OH2 1209   1.939   5.688   6.024
  423TIP3    H1 1210   1.871   5.748   6.057
  423TIP3    H2 1211   1.977   5.735   5.950
  424TIP3   OH2 1212   3.013   0.859   1.053
  424TIP3    H1 1213   2.992   0.765   1.048
  424TIP3    H2 1214   3.023   0.876   1.146
  425TIP3   OH2 1215   1.207   3.934   6.634
  425TIP3    H1 1216   1.240   3.943   6.724
  425TIP3    H2 1217   1.121   3.977   6.636
  426TIP3   OH2 1218   1.131   7.874   6.697
  426TIP3    H1 1219   1.177   7.874   6.781
  426TIP3    H2 1220   1.113   7.781   6.680
  427TIP3   OH2 1221   0.551   1.666   0.807
  427TIP3    H1 1222   0.494   1.742   0.797
  427TIP3    H2 1223   0.590   1.653   0.720
  428TIP3   OH2 1224   6.111   0.819   1.686
  428TIP3    H1 1225   6.068   0.848   1.605
  428TIP3    H2 1226   6.177   0.756   1.656
  429TIP3   OH2 1227   4.970   2.016   1.173
  429TIP3    H1 1228   4.908   2.067   1.121
  429TIP3    H2 1229   5.042   1.998   1.114
  430TIP3   OH2 1230   3.727   5.316   4.906
  430TIP3    H1 1231   3.773   5.326   4.989
  430TIP3    H2 1232   3.796   5.300   4.841
  431TIP3   OH2 1233   8.133   6.757   1.104
  431TIP3    H1 1234   8.055   6.709   1.130
  431TIP3    H2 1235   8.206   6.704   1.136
  432TIP3   OH2 1236   0.826   5.155   2.929
  432TIP3    H1 1237   0.801   5.247   2.923
  432TIP3    H2 1238   0.880   5.149   3.008
  433TIP3   OH2 1239   7.231   6.597   5.651
  433TIP3    H1 1240   7.140   6.588   5.622
  433TIP3    H2 1241   7.274   6.642   5.578
  434TIP3   OH2 1242   0.090   3.568   1.302
  434TIP3    H1 1243   0.069   3.592   1.212
  434TIP3    H2 1244   0.186   3.568   1.305
  435TIP3   OH2 1245   2.400   5.972   2.201
  435TIP3    H1 1246   2.313   5.962   2.240
  435TIP3    H2 1247   2.390   6.044   2.139
  436TIP3   OH2 1248   0.953   0.355   2.701
  436TIP3    H1 1249   0.916   0.427   2.651
  436TIP3    H2 1250   0.917   0.366   2.789
  437TIP3   OH2 1251   4.156   1.656   1.521
  437TIP3    H1 1252   4.185   1.731   1.469
  437TIP3    H2 1253   4.166   1.581   1.463
  438TIP3   OH2 1254   4.357   6.006   0.518
  438TIP3    H1 1255   4.315   5.936   0.567
  438TIP3    H2 1256   4.304   6.083   0.536
  439TIP3   OH2 1257   3.826   6.475   3.554
  439TIP3    H1 1258   3.737   6.470   3.520
  439TIP3    H2 1259   3.867   6.394   3.525
  440TIP3   OH2 1260   2.674   7.780   3.521
  440TIP3    H1 1261   2.698   7.710   3.582
  440TIP3    H2 1262   2.617   7.738   3.457
  441TIP3   OH2 1263   5.503   6.729   0.058
  441TIP3    H1 1264   5.564   6.803   0.058
  441TIP3    H2 1265   5.500   6.701  -0.033
  442TIP3   OH2 1266   3.140   4.334   2.558
  442TIP3    H1 1267   3.106   4.321   2.647
  442TIP3    H2 1268   3.193   4.414   2.565
  443TIP3   OH2 1269   3.964   7.406   5.140
  443TIP3    H1 1270   4.031   7.370   5.082
  443TIP3    H2 1271   3.955   7.497   5.113
  444TIP3   OH2 1272   4.406   3.296   3.021
  444TIP3    H1 1273   4.454   3.333   2.947
  444TIP3    H2 1274   4.361   3.370   3.061
  445TIP3   OH2 1275   2.857   7.937   6.000
  445TIP3    H1 1276   2.873   7.909   6.091
  445TIP3    H2 1277   2.888   7.863   5.947
  446TIP3   OH2 1278   3.328   0.068   1.521
  446TIP3    H1 1279   3.277   0.085   1.601
  446TIP3    H2 1280   3.281   0.114   1.452
  447TIP3   OH2 1281   6.645   3.032   1.584
  447TIP3    H1 1282   6.625   3.024   1.491
  447TIP3    H2 1283   6.643   3.126   1.601
  448TIP3   OH2 1284   8.080   1.275   1.505
  448TIP3    H1 1285   8.003   1.322   1.537
  448TIP3    H2 1286   8.139   1.270   1.580
  449TIP3   OH2 1287   8.248   2.654   6.774
  449TIP3    H1 1288   8.250   2.738   6.727
  449TIP3    H2 1289   8.261   2.588   6.706
  450TIP3   OH2 1290   4.471   2.565   5.201
  450TIP3    H1 1291   4.389   2.522   5.175
  450TIP3    H2 1292   4.503   2.606   5.121
  451TIP3   OH2 1293   2.123   3.476   1.675
  451TIP3    H1 1294   2.136   3.570   1.682
  451TIP3    H2 1295   2.029   3.464   1.690
  452TIP3   OH2 1296   7.445   4.925   2.995
  452TIP3    H1 1297   7.455   4.831   2.978
  452TIP3    H2 1298   7.351   4.939   2.996
  453TIP3   OH2 1299   6.880   1.338   0.611
  453TIP3    H1 1300   6.795   1.361   0.649
  453TIP3    H2 1301   6.934   1.416   0.623
  454TIP3   OH2 1302   8.277   0.402   4.459
  454TIP3    H1 1303   8.183   0.403   4.441
  454TIP3    H2 1304   8.295   0.311   4.485
  455TIP3   OH2 1305   7.516   1.195   5.746
  455TIP3    H1 1306   7.464   1.228   5.672
  455TIP3    H2 1307   7.469   1.117   5.776
  456TIP3   OH2 1308   3.664   1.396   3.959
  456TIP3    H1 1309   3.735   1.452   3.927
  456TIP3    H2 1310   3.691   1.307   3.938
  457TIP3   OH2 1311   8.398   2.140   0.864
  457TIP3    H1 1312   8.316   2.161   0.908
  457TIP3    H2 1313   8.455   2.107   0.933
  458TIP3   OH2 1314   7.381   0.984   4.334
  458TIP3    H1 1315   7.420   1.037   4.265
  458TIP3    H2 1316   7.318   1.042   4.376
  459TIP3   OH2 1317   4.669   3.735   3.991
  459TIP3    H1 1318   4.640   3.651   3.955
  459TIP3    H2 1319   4.700   3.714   4.079
  460TIP3   OH2 1320   7.332   3.294   4.598
  460TIP3    H1 1321   7.333   3.203   4.628
  460TIP3    H2 1322   7.413   3.331   4.633
  461TIP3   OH2 1323   5.364   1.359   0.500
  461TIP3    H1 1324   5.445   1.311   0.515
  461TIP3    H2 1325   5.297   1.290   0.493
  462TIP3   OH2 1326   6.611   2.643   1.649
  462TIP3    H1 1327   6.702   2.673   1.658
  462TIP3    H2 1328   6.603   2.571   1.712
  463TIP3   OH2 1329   1.970   0.888   3.127
  463TIP3    H1 1330   2.063   0.875   3.149
  463TIP3    H2 1331   1.953   0.825   3.057
  464TIP3   OH2 1332   0.559   2.689   6.237
  464TIP3    H1 1333   0.585   2.674   6.146
  464TIP3    H2 1334   0.623   2.751   6.270
  465TIP3   OH2 1335   4.342   7.662   2.528
  465TIP3    H1 1336   4.311   7.576   2.500
  465TIP3    H2 1337   4.424   7.674   2.481
  466TIP3   OH2 1338   4.296   0.779   3.686
  466TIP3    H1 1339   4.236   0.728   3.631
  466TIP3    H2 1340   4.362   0.715   3.715
  467TIP3   OH2 1341   6.101   6.962   1.059
  467TIP3    H1 1342   6.166   7.027   1.031
  467TIP3    H2 1343   6.148   6.879   1.058
  468TIP3   OH2 1344   6.737   3.140   2.245
  468TIP3    H1 1345   6.666   3.135   2.309
  468TIP3    H2 1346   6.791   3.063   2.262
  469TIP3   OH2 1347   3.947   4.945   3.619
  469TIP3    H1 1348   3.962   4.914   3.708
  469TIP3    H2 1349   3.903   4.872   3.575
  470TIP3   OH2 1350   0.125   4.156   1.302
  470TIP3    H1 1351   0.033   4.179   1.316
  470TIP3    H2 1352   0.123   4.086   1.236
  471TIP3   OH2 1353   7.620   5.821   1.765
  471TIP3    H1 1354   7.570   5.833   1.684
  471TIP3    H2 1355   7.604   5.901   1.815
  472TIP3   OH2 1356   0.769   1.190   1.946
  472TIP3    H1 1357   0.708   1.133   1.993
  472TIP3    H2 1358   0.854   1.148   1.956
  473TIP3   OH2 1359   6.810   5.431   3.788
  473TIP3    H1 1360   6.788   5.341   3.811
  473TIP3    H2 1361   6.851   5.467   3.866
  474TIP3   OH2 1362   4.273   2.415   1.972
  474TIP3    H1 1363   4.333   2.472   2.019
  474TIP3    H2 1364   4.203   2.396   2.035
  475TIP3   OH2 1365   5.320   0.866   5.629
  475TIP3    H1 1366   5.309   0.912   5.713
  475TIP3    H2 1367   5.361   0.931   5.572
  476TIP3   OH2 1368   3.589   7.815   5.452
  476TIP3    H1 1369   3.632   7.805   5.537
  476TIP3    H2 1370   3.602   7.731   5.408
  477TIP3   OH2 1371   7.507   6.517   4.829
  477TIP3    H1 1372   7.434   6.458   4.849
  477TIP3    H2 1373   7.559   6.518   4.909
  478TIP3   OH2 1374   7.572   0.919   5.062
  478TIP3    H1 1375   7.554   1.012   5.076
  478TIP3    H2 1376   7.486   0.878   5.061
  479TIP3   OH2 1377   6.904   7.701   1.529
  479TIP3    H1 1378   6.879   7.742   1.446
  479TIP3    H2 1379   6.920   7.609   1.507
  480TIP3   OH2 1380   2.015   3.703   3.581
  480TIP3    H1 1381   2.013   3.665   3.669
  480TIP3    H2 1382   1.922   3.715   3.558
  481TIP3   OH2 1383   8.091   5.624   6.458
  481TIP3    H1 1384   8.185   5.641   6.467
  481TIP3    H2 1385   8.073   5.638   6.365
  482TIP3   OH2 1386   3.712   4.983   5.837
  482TIP3    H1 1387   3.788   5.016   5.885
  482TIP3    H2 1388   3.710   5.035   5.757
  483TIP3   OH2 1389   5.837   1.597   4.391
  483TIP3    H1 1390   5.924   1.620   4.359
  483TIP3    H2 1391   5.807   1.676   4.437
  484TIP3   OH2 1392   4.443   4.413   5.197
  484TIP3    H1 1393   4.486   4.466   5.264
  484TIP3    H2 1394   4.457   4.323   5.225
  485TIP3   OH2 1395   1.230   6.257   0.307
  485TIP3    H1 1396   1.287   6.265   0.230
  485TIP3    H2 1397   1.285   6.283   0.380
  486TIP3   OH2 1398   6.196   1.955   0.674
  486TIP3    H1 1399   6.252   1.880   0.696
  486TIP3    H2 1400   6.219   1.976   0.584
  487TIP3   OH2 1401   6.170   7.877   1.995
  487TIP3    H1 1402   6.104   7.809   2.010
  487TIP3    H2 1403   6.126   7.959   2.017
  488TIP3   OH2 1404   0.519   3.930   2.572
  488TIP3    H1 1405   0.534   4.024   2.584
  488TIP3    H2 1406   0.425   3.919   2.586
  489TIP3   OH2 1407   5.948   2.612   0.111
  489TIP3    H1 1408   5.969   2.622   0.018
  489TIP3    H2 1409   5.984   2.527   0.135
  490TIP3   OH2 1410   0.863   4.082   6.012
  490TIP3    H1 1411   0.917   4.110   5.939
  490TIP3    H2 1412   0.832   4.163   6.052
  491TIP3   OH2 1413   1.939   6.949   6.693
  491TIP3    H1 1414   1.968   6.888   6.761
  491TIP3    H2 1415   2.002   7.021   6.696
  492TIP3   OH2 1416   5.234   3.465   4.236
  492TIP3    H1 1417   5.298   3.479   4.167
  492TIP3    H2 1418   5.223   3.370   4.239
  493TIP3   OH2 1419   1.684   6.496   1.108
  493TIP3    H1 1420   1.748   6.430   1.134
  493TIP3    H2 1421   1.713   6.576   1.151
  494TIP3   OH2 1422   1.822   1.800   4.488
  494TIP3    H1 1423   1.734   1.771   4.511
  494TIP3    H2 1424   1.829   1.784   4.394
  495TIP3   OH2 1425   6.412   1.140   6.053
  495TIP3    H1 1426   6.414   1.092   5.970
  495TIP3    H2 1427   6.318   1.145   6.074
  496TIP3   OH2 1428   5.184   0.356   4.683
  496TIP3    H1 1429   5.121   0.296   4.643
  496TIP3    H2 1430   5.183   0.432   4.625
  497TIP3   OH2 1431   6.605   4.246   0.603
  497TIP3    H1 1432   6.520   4.220   0.638
  497TIP3    H2 1433   6.664   4.243   0.678
  498TIP3   OH2 1434   2.439   2.073   2.197
  498TIP3    H1 1435   2.531   2.062   2.222
  498TIP3    H2 1436   2.399   1.988   2.217
  499TIP3   OH2 1437   1.485   2.489   5.669
  499TIP3    H1 1438   1.441   2.528   5.745
  499TIP3    H2 1439   1.436   2.522   5.593
  500TIP3   OH2 1440   0.405   4.648   4.835
  500TIP3    H1 1441   0.393   4.569   4.887
  500TIP3    H2 1442   0.486   4.633   4.787
  501TIP3   OH2 1443   2.283   5.665   4.540
  501TIP3    H1 1444   2.340   5.706   4.475
  501TIP3    H2 1445   2.309   5.573   4.540
  502TIP3   OH2 1446   1.277   1.836   5.146
  502TIP3    H1 1447   1.300   1.877   5.230
  502TIP3    H2 1448   1.223   1.761   5.170
  503TIP3   OH2 1449   4.217   4.894   4.912
  503TIP3    H1 1450   4.208   4.818   4.854
  503TIP3    H2 1451   4.161   4.874   4.987
  504TIP3   OH2 1452   2.517   0.739   3.110
  504TIP3    H1 1453   2.539   0.758   3.201
  504TIP3    H2 1454   2.545   0.817   3.062
  505TIP3   OH2 1455   1.846   3.331   6.563
  505TIP3    H1 1456   1.941   3.340   6.559
  505TIP3    H2 1457   1.830   3.242   6.531
  506TIP3   OH2 1458   3.891   0.311   4.023
  506TIP3    H1 1459   3.857   0.249   4.088
  506TIP3    H2 1460   3.813   0.336   3.972
  507TIP3   OH2 1461   7.135   0.750   0.676
  507TIP3    H1 1462   7.184   0.789   0.604
  507TIP3    H2 1463   7.086   0.823   0.715
  508TIP3   OH2 1464   2.506   5.917   5.786
  508TIP3    H1 1465   2.563   5.989   5.814
  508TIP3    H2 1466   2.546   5.839   5.826
  509TIP3   OH2 1467   2.208   4.049   2.635
  509TIP3    H1 1468   2.278   4.109   2.661
  509TIP3    H2 1469   2.251   3.964   2.627
  510TIP3   OH2 1470   0.687   3.049   6.637
  510TIP3    H1 1471   0.599   3.081   6.619
  510TIP3    H2 1472   0.677   2.955   6.648
  511TIP3   OH2 1473   3.996   7.000   2.628
  511TIP3    H1 1474   3.923   6.940   2.644
  511TIP3    H2 1475   4.024   6.980   2.538
  512TIP3   OH2 1476   0.959   2.160   2.886
  512TIP3    H1 1477   1.055   2.163   2.892
  512TIP3    H2 1478   0.933   2.089   2.945
  513TIP3   OH2 1479   0.956   2.864   5.862
  513TIP3    H1 1480   1.048   2.872   5.837
  513TIP3    H2 1481   0.909   2.919   5.800
  514TIP3   OH2 1482   5.125   0.816   2.047
  514TIP3    H1 1483   5.066   0.829   2.122
  514TIP3    H2 1484   5.082   0.862   1.975
  515TIP3   OH2 1485   6.982   1.221   6.457
  515TIP3    H1 1486   6.899   1.175   6.444
  515TIP3    H2 1487   7.000   1.211   6.550
  516TIP3   OH2 1488   0.328   1.563   3.667
  516TIP3    H1 1489   0.260   1.511   3.711
  516TIP3    H2 1490   0.318   1.651   3.703
  517TIP3   OH2 1491   1.269   7.058   6.636
  517TIP3    H1 1492   1.221   7.137   6.663
  517TIP3    H2 1493   1.250   6.994   6.705
  518TIP3   OH2 1494   3.725   7.068   1.835
  518TIP3    H1 1495   3.657   7.122   1.875
  518TIP3    H2 1496   3.692   6.979   1.840
  519TIP3   OH2 1497   0.276   6.924   0.884
  519TIP3    H1 1498   0.194   6.879   0.865
  519TIP3    H2 1499   0.338   6.892   0.818
  520TIP3   OH2 1500   5.843   6.053   2.264
  520TIP3    H1 1501   5.877   6.132   2.223
  520TIP3    H2 1502   5.791   6.010   2.197
  521TIP3   OH2 1503   5.282   6.141   6.742
  521TIP3    H1 1504   5.359   6.098   6.780
  521TIP3    H2 1505   5.207   6.096   6.781
  522TIP3   OH2 1506   3.479   6.897   1.499
  522TIP3    H1 1507   3.415   6.877   1.431
  522TIP3    H2 1508   3.431   6.947   1.565
  523TIP3   OH2 1509   3.652   4.025   6.457
  523TIP3    H1 1510   3.563   4.053   6.436
  523TIP3    H2 1511   3.687   3.994   6.374
  524TIP3   OH2 1512   3.471   4.439   0.062
  524TIP3    H1 1513   3.503   4.404  -0.021
  524TIP3    H2 1514   3.508   4.381   0.128
  525TIP3   OH2 1515   0.723   2.886   4.850
  525TIP3    H1 1516   0.758   2.933   4.775
  525TIP3    H2 1517   0.699   2.954   4.913
  526TIP3   OH2 1518   7.479   6.389   2.976
  526TIP3    H1 1519   7.552   6.407   3.036
  526TIP3    H2 1520   7.402   6.422   3.022
  527TIP3   OH2 1521   6.476   7.173   4.406
  527TIP3    H1 1522   6.562   7.210   4.389
  527TIP3    H2 1523   6.451   7.131   4.324
  528TIP3   OH2 1524   4.509   0.994   5.634
  528TIP3    H1 1525   4.529   1.056   5.564
  528TIP3    H2 1526   4.594   0.965   5.665
  529TIP3   OH2 1527   7.678   1.674   4.156
  529TIP3    H1 1528   7.743   1.726   4.205
  529TIP3    H2 1529   7.704   1.583   4.171
  530TIP3   OH2 1530   8.367   2.745   1.534
  530TIP3    H1 1531   8.400   2.712   1.451
  530TIP3    H2 1532   8.445   2.767   1.584
  531TIP3   OH2 1533   7.685   4.177   6.208
  531TIP3    H1 1534   7.615   4.171   6.273
  531TIP3    H2 1535   7.760   4.135   6.249
  532TIP3   OH2 1536   7.441   4.162   3.412
  532TIP3    H1 1537   7.470   4.081   3.453
  532TIP3    H2 1538   7.417   4.219   3.485
  533TIP3   OH2 1539   5.589   5.818   5.659
  533TIP3    H1 1540   5.637   5.820   5.742
  533TIP3    H2 1541   5.532   5.742   5.666
  534TIP3   OH2 1542   7.389   4.640   2.201
  534TIP3    H1 1543   7.382   4.715   2.142
  534TIP3    H2 1544   7.340   4.571   2.157
  535TIP3   OH2 1545   8.043   6.983   0.787
  535TIP3    H1 1546   8.049   7.019   0.699
  535TIP3    H2 1547   8.028   6.889   0.773
  536TIP3   OH2 1548   5.164   1.042   4.264
  536TIP3    H1 1549   5.169   0.989   4.344
  536TIP3    H2 1550   5.172   1.132   4.294
  537TIP3   OH2 1551   8.070   2.696   6.047
  537TIP3    H1 1552   8.038   2.609   6.023
  537TIP3    H2 1553   8.011   2.757   6.002
  538TIP3   OH2 1554   5.502   7.386   0.703
  538TIP3    H1 1555   5.503   7.303   0.655
  538TIP3    H2 1556   5.575   7.435   0.667
  539TIP3   OH2 1557   4.643   1.802   2.381
  539TIP3    H1 1558   4.590   1.873   2.416
  539TIP3    H2 1559   4.732   1.821   2.411
  540TIP3   OH2 1560   5.815   7.648   6.456
  540TIP3    H1 1561   5.909   7.633   6.461
  540TIP3    H2 1562   5.806   7.734   6.415
  541TIP3   OH2 1563   5.427   7.336   5.791
  541TIP3    H1 1564   5.388   7.323   5.704
  541TIP3    H2 1565   5.516   7.302   5.783
  542TIP3   OH2 1566   6.692   2.464   6.021
  542TIP3    H1 1567   6.743   2.440   6.099
  542TIP3    H2 1568   6.673   2.381   5.978
  543TIP3   OH2 1569   6.002   5.076   1.621
  543TIP3    H1 1570   6.022   5.098   1.712
  543TIP3    H2 1571   5.907   5.066   1.619
  544TIP3   OH2 1572   0.708   2.630   5.328
  544TIP3    H1 1573   0.760   2.556   5.358
  544TIP3    H2 1574   0.671   2.602   5.244
  545TIP3   OH2 1575   7.170   7.071   4.747
  545TIP3    H1 1576   7.104   7.072   4.677
  545TIP3    H2 1577   7.194   7.163   4.758
  546TIP3   OH2 1578   1.482   5.903   5.033
  546TIP3    H1 1579   1.431   5.952   5.097
  546TIP3    H2 1580   1.461   5.945   4.949
  547TIP3   OH2 1581   3.633   1.868   5.324
  547TIP3    H1 1582   3.618   1.799   5.259
  547TIP3    H2 1583   3.550   1.915   5.329
  548TIP3   OH2 1584   6.651   1.413   5.859
  548TIP3    H1 1585   6.662   1.507   5.873
  548TIP3    H2 1586   6.572   1.406   5.806
  549TIP3   OH2 1587   1.744   4.580   6.475
  549TIP3    H1 1588   1.813   4.557   6.413
  549TIP3    H2 1589   1.788   4.636   6.539
  550TIP3   OH2 1590   2.650   6.682   3.545
  550TIP3    H1 1591   2.689   6.637   3.620
  550TIP3    H2 1592   2.596   6.614   3.504
  551TIP3   OH2 1593   7.696   5.867   5.002
  551TIP3    H1 1594   7.635   5.809   5.047
  551TIP3    H2 1595   7.750   5.903   5.072
  552TIP3   OH2 1596   7.712   1.503   4.434
  552TIP3    H1 1597   7.709   1.451   4.354
  552TIP3    H2 1598   7.644   1.466   4.490
  553TIP3   OH2 1599   1.862   7.598   1.080
  553TIP3    H1 1600   1.866   7.688   1.112
  553TIP3    H2 1601   1.900   7.602   0.992
  554TIP3   OH2 1602   7.689   3.885   3.229
  554TIP3    H1 1603   7.707   3.905   3.320
  554TIP3    H2 1604   7.594   3.895   3.221
  555TIP3   OH2 1605   0.718   1.912   5.706
  555TIP3    H1 1606   0.680   1.994   5.738
  555TIP3    H2 1607   0.698   1.911   5.613
  556TIP3   OH2 1608   6.004   0.859   3.493
  556TIP3    H1 1609   6.060   0.916   3.546
  556TIP3    H2 1610   5.951   0.918   3.441
  557TIP3   OH2 1611   1.923   1.188   2.629
  557TIP3    H1 1612   1.996   1.146   2.585
  557TIP3    H2 1613   1.898   1.126   2.698
  558TIP3   OH2 1614   5.677   5.634   1.042
  558TIP3    H1 1615   5.678   5.618   1.136
  558TIP3    H2 1616   5.701   5.549   1.003
  559TIP3   OH2 1617   2.138   0.102   5.358
  559TIP3    H1 1618   2.091   0.166   5.412
  559TIP3    H2 1619   2.184   0.047   5.421
  560TIP3   OH2 1620   5.013   6.961   1.460
  560TIP3    H1 1621   5.001   6.924   1.547
  560TIP3    H2 1622   4.928   6.949   1.416
  561TIP3   OH2 1623   2.740   1.085   4.397
  561TIP3    H1 1624   2.675   1.120   4.336
  561TIP3    H2 1625   2.757   1.157   4.458
  562TIP3   OH2 1626   4.669   2.286   4.080
  562TIP3    H1 1627   4.717   2.356   4.125
  562TIP3    H2 1628   4.582   2.289   4.119
  563TIP3   OH2 1629   2.666   6.897   6.051
  563TIP3    H1 1630   2.720   6.954   6.105
  563TIP3    H2 1631   2.703   6.904   5.964
  564TIP3   OH2 1632   0.991   6.798   2.524
  564TIP3    H1 1633   0.961   6.823   2.612
  564TIP3    H2 1634   0.992   6.702   2.526
  565TIP3   OH2 1635   2.579   4.544   6.249
  565TIP3    H1 1636   2.507   4.523   6.190
  565TIP3    H2 1637   2.596   4.637   6.235
  566TIP3   OH2 1638   5.797   1.811   3.725
  566TIP3    H1 1639   5.763   1.728   3.692
  566TIP3    H2 1640   5.720   1.854   3.763
  567TIP3   OH2 1641   5.303   2.985   2.695
  567TIP3    H1 1642   5.314   2.919   2.763
  567TIP3    H2 1643   5.229   3.038   2.723
  568TIP3   OH2 1644   6.167   7.863   3.702
  568TIP3    H1 1645   6.085   7.836   3.660
  568TIP3    H2 1646   6.151   7.851   3.796
  569TIP3   OH2 1647   1.652   5.142   6.762
  569TIP3    H1 1648   1.667   5.074   6.697
  569TIP3    H2 1649   1.673   5.224   6.717
  570TIP3   OH2 1650   2.915   2.543   6.392
  570TIP3    H1 1651   2.928   2.488   6.315
  570TIP3    H2 1652   2.986   2.518   6.452
  571TIP3   OH2 1653   0.617   3.473   6.577
  571TIP3    H1 1654   0.602   3.429   6.494
  571TIP3    H2 1655   0.705   3.509   6.570
  572TIP3   OH2 1656   1.775   7.869   6.799
  572TIP3    H1 1657   1.791   7.860   6.706
  572TIP3    H2 1658   1.744   7.959   6.810
  573TIP3   OH2 1659   5.272   1.775   5.811
  573TIP3    H1 1660   5.257   1.869   5.819
  573TIP3    H2 1661   5.184   1.737   5.807
  574TIP3   OH2 1662   7.086   6.834   0.368
  574TIP3    H1 1663   7.048   6.915   0.333
  574TIP3    H2 1664   7.013   6.791   0.412
  575TIP3   OH2 1665   7.234   0.832   3.203
  575TIP3    H1 1666   7.304   0.837   3.138
  575TIP3    H2 1667   7.225   0.739   3.222
  576TIP3   OH2 1668   6.381   6.866   5.698
  576TIP3    H1 1669   6.408   6.836   5.611
  576TIP3    H2 1670   6.460   6.860   5.751
  577TIP3   OH2 1671   1.599   1.290   6.617
  577TIP3    H1 1672   1.601   1.275   6.523
  577TIP3    H2 1673   1.559   1.376   6.628
  578TIP3   OH2 1674   1.670   3.197   3.027
  578TIP3    H1 1675   1.659   3.179   3.121
  578TIP3    H2 1676   1.724   3.125   2.995
  579TIP3   OH2 1677   5.379   1.257   6.652
  579TIP3    H1 1678   5.355   1.338   6.697
  579TIP3    H2 1679   5.394   1.284   6.561
  580TIP3   OH2 1680   6.213   1.712   3.088
  580TIP3    H1 1681   6.272   1.766   3.036
  580TIP3    H2 1682   6.261   1.696   3.170
  581TIP3   OH2 1683   6.330   4.955   2.901
  581TIP3    H1 1684   6.416   4.914   2.910
  581TIP3    H2 1685   6.307   4.942   2.809
  582TIP3   OH2 1686   2.427   3.419   2.813
  582TIP3    H1 1687   2.511   3.443   2.772
  582TIP3    H2 1688   2.361   3.455   2.755
  583TIP3   OH2 1689   0.358   5.149   0.766
  583TIP3    H1 1690   0.318   5.114   0.846
  583TIP3    H2 1691   0.357   5.075   0.705
  584TIP3   OH2 1692   0.698   4.799   6.672
  584TIP3    H1 1693   0.652   4.721   6.702
  584TIP3    H2 1694   0.767   4.813   6.737
  585TIP3   OH2 1695   6.721   6.837   3.417
  585TIP3    H1 1696   6.722   6.771   3.347
  585TIP3    H2 1697   6.789   6.808   3.477
  586TIP3   OH2 1698   2.161   4.362   1.520
  586TIP3    H1 1699   2.230   4.373   1.455
  586TIP3    H2 1700   2.114   4.445   1.520
  587TIP3   OH2 1701   4.122   1.220   1.632
  587TIP3    H1 1702   4.101   1.282   1.562
  587TIP3    H2 1703   4.182   1.268   1.689
  588TIP3   OH2 1704   0.547   2.742   0.505
  588TIP3    H1 1705   0.542   2.741   0.601
  588TIP3    H2 1706   0.506   2.825   0.480
  589TIP3   OH2 1707   1.533   6.959   5.708
  589TIP3    H1 1708   1.598   6.891   5.726
  589TIP3    H2 1709   1.453   6.912   5.690
  590TIP3   OH2 1710   7.419   2.672   1.917
  590TIP3    H1 1711   7.360   2.685   1.843
  590TIP3    H2 1712   7.447   2.581   1.910
  591TIP3   OH2 1713   6.226   3.103   4.417
  591TIP3    H1 1714   6.216   3.107   4.322
  591TIP3    H2 1715   6.188   3.018   4.442
  592TIP3   OH2 1716   1.419   4.051   0.659
  592TIP3    H1 1717   1.433   3.975   0.714
  592TIP3    H2 1718   1.342   4.094   0.697
  593TIP3   OH2 1719   1.185   5.758   0.880
  593TIP3    H1 1720   1.280   5.772   0.871
  593TIP3    H2 1721   1.173   5.731   0.970
  594TIP3   OH2 1722   5.004   2.226   4.512
  594TIP3    H1 1723   5.052   2.152   4.476
  594TIP3    H2 1724   4.931   2.187   4.559
  595TIP3   OH2 1725   3.918   4.024   2.952
  595TIP3    H1 1726   3.876   4.110   2.943
  595TIP3    H2 1727   3.882   3.972   2.880
  596TIP3   OH2 1728   2.854   5.976   1.495
  596TIP3    H1 1729   2.805   6.056   1.514
  596TIP3    H2 1730   2.821   5.947   1.410
  597TIP3   OH2 1731   4.346   2.290   0.922
  597TIP3    H1 1732   4.405   2.359   0.953
  597TIP3    H2 1733   4.295   2.332   0.852
  598TIP3   OH2 1734   0.866   0.563   3.773
  598TIP3    H1 1735   0.955   0.599   3.767
  598TIP3    H2 1736   0.878   0.469   3.758
  599TIP3   OH2 1737   7.007   6.078   5.313
  599TIP3    H1 1738   7.041   5.997   5.352
  599TIP3    H2 1739   7.053   6.148   5.358
  600TIP3   OH2 1740   7.975   3.570   0.296
  600TIP3    H1 1741   8.028   3.649   0.294
  600TIP3    H2 1742   7.885   3.601   0.288
  601TIP3   OH2 1743   1.973   6.616   4.759
  601TIP3    H1 1744   1.962   6.522   4.772
  601TIP3    H2 1745   1.926   6.634   4.678
  602TIP3   OH2 1746   1.075   7.516   0.253
  602TIP3    H1 1747   1.097   7.464   0.176
  602TIP3    H2 1748   0.996   7.564   0.229
  603TIP3   OH2 1749   3.206   2.734   5.811
  603TIP3    H1 1750   3.141   2.804   5.819
  603TIP3    H2 1751   3.234   2.716   5.901
  604TIP3   OH2 1752   4.797   6.294   2.962
  604TIP3    H1 1753   4.834   6.298   3.050
  604TIP3    H2 1754   4.868   6.261   2.907
  605TIP3   OH2 1755   1.244   4.383   4.325
  605TIP3    H1 1756   1.240   4.305   4.270
  605TIP3    H2 1757   1.153   4.413   4.330
  606TIP3   OH2 1758   0.295   7.544   5.313
  606TIP3    H1 1759   0.290   7.636   5.337
  606TIP3    H2 1760   0.207   7.522   5.281
  607TIP3   OH2 1761   6.908   4.471   4.316
  607TIP3    H1 1762   6.898   4.408   4.387
  607TIP3    H2 1763   6.830   4.526   4.320
  608TIP3   OH2 1764   7.957   2.565   3.533
  608TIP3    H1 1765   8.005   2.632   3.582
  608TIP3    H2 1766   7.997   2.482   3.560
  609TIP3   OH2 1767   3.127   7.316   2.598
  609TIP3    H1 1768   3.170   7.244   2.644
  609TIP3    H2 1769   3.068   7.354   2.663
  610TIP3   OH2 1770   5.713   2.774   5.707
  610TIP3    H1 1771   5.797   2.734   5.687
  610TIP3    H2 1772   5.705   2.767   5.803
  611TIP3   OH2 1773   4.969   7.154   6.513
  611TIP3    H1 1774   5.007   7.213   6.449
  611TIP3    H2 1775   4.894   7.201   6.548
  612TIP3   OH2 1776   4.846   1.596   1.802
  612TIP3    H1 1777   4.803   1.634   1.725
  612TIP3    H2 1778   4.870   1.672   1.855
  613TIP3   OH2 1779   3.970   0.757   0.820
  613TIP3    H1 1780   4.018   0.831   0.784
  613TIP3    H2 1781   3.918   0.724   0.747
  614TIP3   OH2 1782   5.175   0.902   3.597
  614TIP3    H1 1783   5.231   0.906   3.675
  614TIP3    H2 1784   5.198   0.819   3.555
  615TIP3   OH2 1785   6.523   6.860   2.070
  615TIP3    H1 1786   6.470   6.816   2.004
  615TIP3    H2 1787   6.599   6.893   2.022
  616TIP3   OH2 1788   5.732   3.027   0.910
  616TIP3    H1 1789   5.717   3.075   0.829
  616TIP3    H2 1790   5.764   2.941   0.882
  617TIP3   OH2 1791   0.110   5.422   1.280
  617TIP3    H1 1792   0.066   5.455   1.358
  617TIP3    H2 1793   0.178   5.487   1.261
  618TIP3   OH2 1794   4.740   0.661   3.544
  618TIP3    H1 1795   4.832   0.638   3.549
  618TIP3    H2 1796   4.739   0.749   3.507
  619TIP3   OH2 1797   2.580   6.276   5.899
  619TIP3    H1 1798   2.605   6.278   5.992
  619TIP3    H2 1799   2.663   6.286   5.853
  620TIP3   OH2 1800   4.419   6.048   3.837
  620TIP3    H1 1801   4.373   6.109   3.895
  620TIP3    H2 1802   4.512   6.061   3.857
  621TIP3   OH2 1803   1.467   1.535   6.693
  621TIP3    H1 1804   1.434   1.606   6.639
  621TIP3    H2 1805   1.447   1.562   6.783
  622TIP3   OH2 1806   4.187   5.468   5.435
  622TIP3    H1 1807   4.125   5.528   5.393
  622TIP3    H2 1808   4.203   5.508   5.521
  623TIP3   OH2 1809   6.084   1.744   6.087
  623TIP3    H1 1810   6.045   1.823   6.051
  623TIP3    H2 1811   6.173   1.743   6.052
  624TIP3   OH2 1812   4.119   2.607   2.515
  624TIP3    H1 1813   4.103   2.647   2.601
  624TIP3    H2 1814   4.185   2.663   2.474
  625TIP3   OH2 1815   8.287   5.461   5.990
  625TIP3    H1 1816   8.255   5.402   6.059
  625TIP3    H2 1817   8.339   5.404   5.933
  626TIP3   OH2 1818   1.548   0.712   5.838
  626TIP3    H1 1819   1.486   0.730   5.767
  626TIP3    H2 1820   1.595   0.634   5.809
  627TIP3   OH2 1821   7.626   3.573   5.197
  627TIP3    H1 1822   7.547   3.580   5.250
  627TIP3    H2 1823   7.670   3.494   5.230
  628TIP3   OH2 1824   1.137   6.901   1.145
  628TIP3    H1 1825   1.201   6.971   1.132
  628TIP3    H2 1826   1.057   6.946   1.172
  629TIP3   OH2 1827   2.339   3.717   6.368
  629TIP3    H1 1828   2.382   3.789   6.321
  629TIP3    H2 1829   2.261   3.697   6.316
  630TIP3   OH2 1830   3.938   2.291   0.064
  630TIP3    H1 1831   3.920   2.283  -0.030
  630TIP3    H2 1832   3.947   2.385   0.079
  631TIP3   OH2 1833   2.994   5.402   5.912
  631TIP3    H1 1834   2.950   5.437   5.834
  631TIP3    H2 1835   3.069   5.353   5.877
  632TIP3   OH2 1836   2.677   1.749   5.046
  632TIP3    H1 1837   2.763   1.793   5.047
  632TIP3    H2 1838   2.698   1.657   5.033
  633TIP3   OH2 1839   4.355   6.428   0.702
  633TIP3    H1 1840   4.324   6.445   0.791
  633TIP3    H2 1841   4.417   6.356   0.712
  634TIP3   OH2 1842   6.759   2.700   2.318
  634TIP3    H1 1843   6.666   2.721   2.311
  634TIP3    H2 1844   6.803   2.785   2.322
  635TIP3   OH2 1845   7.222   0.083   1.281
  635TIP3    H1 1846   7.203  -0.011   1.291
  635TIP3    H2 1847   7.258   0.091   1.193
  636TIP3   OH2 1848   6.324   4.109   5.948
  636TIP3    H1 1849   6.304   4.026   5.905
  636TIP3    H2 1850   6.326   4.173   5.877
  637TIP3   OH2 1851   2.625   6.894   5.388
  637TIP3    H1 1852   2.692   6.912   5.323
  637TIP3    H2 1853   2.663   6.923   5.471
  638TIP3   OH2 1854   2.796   7.303   0.440
  638TIP3    H1 1855   2.752   7.332   0.520
  638TIP3    H2 1856   2.775   7.370   0.375
  639TIP3   OH2 1857   7.681   4.919   3.695
  639TIP3    H1 1858   7.615   4.964   3.747
  639TIP3    H2 1859   7.758   4.916   3.751
  640TIP3   OH2 1860   3.955   1.835   4.735
  640TIP3    H1 1861   3.966   1.759   4.791
  640TIP3    H2 1862   3.939   1.908   4.795
  641TIP3   OH2 1863   5.848   3.915   5.712
  641TIP3    H1 1864   5.928   3.863   5.723
  641TIP3    H2 1865   5.844   3.934   5.618
  642TIP3   OH2 1866   0.170   1.180   2.672
  642TIP3    H1 1867   0.080   1.182   2.704
  642TIP3    H2 1868   0.192   1.272   2.657
  643TIP3   OH2 1869   6.040   6.998   6.257
  643TIP3    H1 1870   6.055   7.060   6.185
  643TIP3    H2 1871   6.090   7.034   6.330
  644TIP3   OH2 1872   1.629   0.877   5.509
  644TIP3    H1 1873   1.682   0.828   5.446
  644TIP3    H2 1874   1.692   0.921   5.566
  645TIP3   OH2 1875   0.528   2.537   1.895
  645TIP3    H1 1876   0.544   2.584   1.976
  645TIP3    H2 1877   0.468   2.467   1.919
  646TIP3   OH2 1878   6.393   1.297   1.322
  646TIP3    H1 1879   6.425   1.213   1.291
  646TIP3    H2 1880   6.298   1.291   1.315
  647TIP3   OH2 1881   7.291   7.698   4.451
  647TIP3    H1 1882   7.298   7.623   4.391
  647TIP3    H2 1883   7.346   7.766   4.411
  648TIP3   OH2 1884   7.059   6.022   0.487
  648TIP3    H1 1885   7.012   6.071   0.555
  648TIP3    H2 1886   7.144   6.065   0.482
  649TIP3   OH2 1887   4.208   7.452   5.816
  649TIP3    H1 1888   4.148   7.381   5.839
  649TIP3    H2 1889   4.190   7.521   5.880
  650TIP3   OH2 1890   1.247   1.268   5.854
  650TIP3    H1 1891   1.179   1.325   5.889
  650TIP3    H2 1892   1.296   1.238   5.930
  651TIP3   OH2 1893   2.519   7.884   4.066
  651TIP3    H1 1894   2.459   7.913   3.998
  651TIP3    H2 1895   2.473   7.814   4.111
  652TIP3   OH2 1896   3.345   2.338   3.796
  652TIP3    H1 1897   3.263   2.384   3.814
  652TIP3    H2 1898   3.414   2.396   3.827
  653TIP3   OH2 1899   0.021   2.767   4.569
  653TIP3    H1 1900   0.107   2.778   4.609
  653TIP3    H2 1901  -0.001   2.675   4.584
  654TIP3   OH2 1902   2.829   6.416   0.346
  654TIP3    H1 1903   2.902   6.381   0.396
  654TIP3    H2 1904   2.861   6.419   0.256
  655TIP3   OH2 1905   6.732   4.255   2.674
  655TIP3    H1 1906   6.675   4.193   2.628
  655TIP3    H2 1907   6.690   4.340   2.662
  656TIP3   OH2 1908   8.143   7.117   3.683
  656TIP3    H1 1909   8.228   7.131   3.723
  656TIP3    H2 1910   8.144   7.171   3.604
  657TIP3   OH2 1911   3.463   2.235   1.988
  657TIP3    H1 1912   3.455   2.147   2.023
  657TIP3    H2 1913   3.462   2.292   2.065
  658TIP3   OH2 1914   5.563   1.009   3.983
  658TIP3    H1 1915   5.651   0.992   3.948
  658TIP3    H2 1916   5.573   1.006   4.078
  659TIP3   OH2 1917   8.204   0.840   4.543
  659TIP3    H1 1918   8.239   0.792   4.468
  659TIP3    H2 1919   8.196   0.930   4.513
  660TIP3   OH2 1920   0.916   2.371   4.730
  660TIP3    H1 1921   0.997   2.415   4.757
  660TIP3    H2 1922   0.882   2.425   4.658
  661TIP3   OH2 1923   8.127   1.304   1.224
  661TIP3    H1 1924   8.143   1.314   1.318
  661TIP3    H2 1925   8.079   1.383   1.199
  662TIP3   OH2 1926   2.568   6.535   3.055
  662TIP3    H1 1927   2.552   6.548   3.149
  662TIP3    H2 1928   2.492   6.485   3.025
  663TIP3   OH2 1929   1.682   6.549   5.577
  663TIP3    H1 1930   1.624   6.615   5.614
  663TIP3    H2 1931   1.767   6.566   5.618
  664TIP3   OH2 1932   3.651   5.335   2.247
  664TIP3    H1 1933   3.560   5.356   2.230
  664TIP3    H2 1934   3.694   5.420   2.256
  665TIP3   OH2 1935   6.346   2.372   2.353
  665TIP3    H1 1936   6.267   2.425   2.345
  665TIP3    H2 1937   6.348   2.345   2.445
  666TIP3   OH2 1938   7.568   0.855   4.787
  666TIP3    H1 1939   7.502   0.791   4.815
  666TIP3    H2 1940   7.585   0.907   4.866
  667TIP3   OH2 1941   6.126   6.007   5.780
  667TIP3    H1 1942   6.166   5.926   5.748
  667TIP3    H2 1943   6.197   6.051   5.827
  668TIP3   OH2 1944   6.815   4.026   3.119
  668TIP3    H1 1945   6.820   3.930   3.126
  668TIP3    H2 1946   6.847   4.046   3.032
  669TIP3   OH2 1947   2.225   5.370   0.035
  669TIP3    H1 1948   2.145   5.412   0.004
  669TIP3    H2 1949   2.235   5.401   0.125
  670TIP3   OH2 1950   3.205   5.390   1.831
  670TIP3    H1 1951   3.208   5.466   1.774
  670TIP3    H2 1952   3.159   5.421   1.910
  671TIP3   OH2 1953   7.164   7.716   0.265
  671TIP3    H1 1954   7.126   7.633   0.236
  671TIP3    H2 1955   7.226   7.740   0.196
  672TIP3   OH2 1956   0.603   4.908   4.318
  672TIP3    H1 1957   0.650   4.907   4.235
  672TIP3    H2 1958   0.557   4.824   4.321
  673TIP3   OH2 1959   5.924   2.495   1.682
  673TIP3    H1 1960   5.863   2.568   1.694
  673TIP3    H2 1961   5.981   2.499   1.759
  674TIP3   OH2 1962   2.918   6.676   1.527
  674TIP3    H1 1963   2.847   6.735   1.553
  674TIP3    H2 1964   2.876   6.590   1.520
  675TIP3   OH2 1965   2.578   1.562   0.765
  675TIP3    H1 1966   2.573   1.629   0.696
  675TIP3    H2 1967   2.517   1.494   0.736
  676TIP3   OH2 1968   0.259   6.663   3.342
  676TIP3    H1 1969   0.191   6.640   3.406
  676TIP3    H2 1970   0.213   6.667   3.258
  677TIP3   OH2 1971   0.923   7.660   6.192
  677TIP3    H1 1972   0.855   7.706   6.142
  677TIP3    H2 1973   0.986   7.728   6.216
  678TIP3   OH2 1974   5.924   1.656   1.765
  678TIP3    H1 1975   5.839   1.667   1.724
  678TIP3    H2 1976   5.983   1.712   1.714
  679TIP3   OH2 1977   1.428   6.629   5.010
  679TIP3    H1 1978   1.364   6.676   4.956
  679TIP3    H2 1979   1.378   6.557   5.049
  680TIP3   OH2 1980   3.230   6.196   5.525
  680TIP3    H1 1981   3.274   6.270   5.567
  680TIP3    H2 1982   3.292   6.167   5.458
  681TIP3   OH2 1983   2.181   7.591   5.448
  681TIP3    H1 1984   2.171   7.680   5.482
  681TIP3    H2 1985   2.093   7.563   5.424
  682TIP3   OH2 1986   5.254   4.152   2.500
  682TIP3    H1 1987   5.167   4.163   2.538
  682TIP3    H2 1988   5.244   4.079   2.438
  683TIP3   OH2 1989   8.369   7.152   5.236
  683TIP3    H1 1990   8.454   7.116   5.259
  683TIP3    H2 1991   8.375   7.170   5.142
  684TIP3   OH2 1992   1.293   1.194   1.516
  684TIP3    H1 1993   1.340   1.273   1.490
  684TIP3    H2 1994   1.241   1.172   1.439
  685TIP3   OH2 1995   5.618   1.695   4.595
  685TIP3    H1 1996   5.676   1.696   4.672
  685TIP3    H2 1997   5.612   1.602   4.572
  686TIP3   OH2 1998   7.051   1.822   2.875
  686TIP3    H1 1999   6.996   1.775   2.937
  686TIP3    H2 2000   7.019   1.912   2.878
  687TIP3   OH2 2001   8.182   3.964   5.083
  687TIP3    H1 2002   8.130   3.884   5.081
  687TIP3    H2 2003   8.117   4.035   5.075
  688TIP3   OH2 2004   1.878   1.682   0.741
  688TIP3    H1 2005   1.893   1.774   0.762
  688TIP3    H2 2006   1.954   1.656   0.689
  689TIP3   OH2 2007   0.748   3.752   5.772
  689TIP3    H1 2008   0.794   3.750   5.688
  689TIP3    H2 2009   0.739   3.845   5.791
  690TIP3   OH2 2010   1.694   0.934   3.630
  690TIP3    H1 2011   1.708   0.890   3.546
  690TIP3    H2 2012   1.657   1.019   3.607
  691TIP3   OH2 2013   5.638   4.340   2.604
  691TIP3    H1 2014   5.582   4.417   2.610
  691TIP3    H2 2015   5.603   4.291   2.529
  692TIP3   OH2 2016   1.146   0.424   4.620
  692TIP3    H1 2017   1.065   0.383   4.650
  692TIP3    H2 2018   1.123   0.461   4.535
  693TIP3   OH2 2019   8.146   2.140   1.044
  693TIP3    H1 2020   8.057   2.139   1.009
  693TIP3    H2 2021   8.137   2.113   1.135
  694TIP3   OH2 2022   4.521   4.046   5.516
  694TIP3    H1 2023   4.446   3.991   5.538
  694TIP3    H2 2024   4.596   4.002   5.555
  695TIP3   OH2 2025   2.457   7.246   2.198
  695TIP3    H1 2026   2.538   7.284   2.234
  695TIP3    H2 2027   2.433   7.178   2.261
  696TIP3   OH2 2028   4.154   3.291   4.250
  696TIP3    H1 2029   4.112   3.374   4.228
  696TIP3    H2 2030   4.095   3.224   4.214
  697TIP3   OH2 2031   1.031   5.525   2.636
  697TIP3    H1 2032   1.068   5.600   2.683
  697TIP3    H2 2033   0.939   5.524   2.661
  698TIP3   OH2 2034   2.078   0.528   1.355
  698TIP3    H1 2035   1.988   0.545   1.383
  698TIP3    H2 2036   2.121   0.613   1.357
  699TIP3   OH2 2037   4.891   5.988   2.149
  699TIP3    H1 2038   4.814   5.994   2.094
  699TIP3    H2 2039   4.961   6.029   2.097
  700TIP3   OH2 2040   7.829   4.607   2.898
  700TIP3    H1 2041   7.846   4.586   2.806
  700TIP3    H2 2042   7.910   4.646   2.929
  701TIP3   OH2 2043   3.625   3.564   3.403
  701TIP3    H1 2044   3.615   3.472   3.377
  701TIP3    H2 2045   3.600   3.614   3.326
  702TIP3   OH2 2046   6.859   3.933   2.027
  702TIP3    H1 2047   6.812   3.874   2.087
  702TIP3    H2 2048   6.951   3.919   2.048
  703TIP3   OH2 2049   2.218   0.248   4.208
  703TIP3    H1 2050   2.203   0.251   4.302
  703TIP3    H2 2051   2.131   0.261   4.170
  704TIP3   OH2 2052   7.507   4.518   6.365
  704TIP3    H1 2053   7.562   4.440   6.354
  704TIP3    H2 2054   7.487   4.521   6.458
  705TIP3   OH2 2055   7.948   4.930   4.343
  705TIP3    H1 2056   7.910   4.883   4.269
  705TIP3    H2 2057   7.873   4.962   4.393
  706TIP3   OH2 2058   4.540   3.195   0.019
  706TIP3    H1 2059   4.511   3.104   0.014
  706TIP3    H2 2060   4.585   3.202   0.103
  707TIP3   OH2 2061   0.878   3.245   2.465
  707TIP3    H1 2062   0.850   3.252   2.374
  707TIP3    H2 2063   0.971   3.222   2.460
  708TIP3   OH2 2064   5.673   3.839   0.414
  708TIP3    H1 2065   5.724   3.769   0.454
  708TIP3    H2 2066   5.589   3.838   0.461
  709TIP3   OH2 2067   2.948   4.268   6.615
  709TIP3    H1 2068   3.029   4.316   6.600
  709TIP3    H2 2069   2.885   4.309   6.555
  710TIP3   OH2 2070   4.095   0.469   0.045
  710TIP3    H1 2071   4.051   0.384   0.040
  710TIP3    H2 2072   4.147   0.463   0.126
  711TIP3   OH2 2073   7.241   1.806   0.531
  711TIP3    H1 2074   7.268   1.891   0.566
  711TIP3    H2 2075   7.151   1.795   0.562
  712TIP3   OH2 2076   4.373   4.722   5.774
  712TIP3    H1 2077   4.374   4.767   5.689
  712TIP3    H2 2078   4.364   4.630   5.752
  713TIP3   OH2 2079   0.194   7.818   5.741
  713TIP3    H1 2080   0.252   7.834   5.667
  713TIP3    H2 2081   0.143   7.899   5.750
  714TIP3   OH2 2082   0.613   1.866   3.912
  714TIP3    H1 2083   0.701   1.903   3.899
  714TIP3    H2 2084   0.566   1.932   3.963
  715TIP3   OH2 2085   2.382   4.932   4.899
  715TIP3    H1 2086   2.320   4.970   4.837
  715TIP3    H2 2087   2.328   4.905   4.973
  716TIP3   OH2 2088   0.440   2.833   3.091
  716TIP3    H1 2089   0.345   2.836   3.080
  716TIP3    H2 2090   0.461   2.740   3.097
  717TIP3   OH2 2091   7.268   6.222   5.276
  717TIP3    H1 2092   7.289   6.286   5.345
  717TIP3    H2 2093   7.340   6.159   5.279
  718TIP3   OH2 2094   0.831   2.874   0.444
  718TIP3    H1 2095   0.831   2.788   0.485
  718TIP3    H2 2096   0.753   2.874   0.388
  719TIP3   OH2 2097   7.859   6.739   5.554
  719TIP3    H1 2098   7.867   6.825   5.595
  719TIP3    H2 2099   7.929   6.737   5.489
  720TIP3   OH2 2100   2.052   7.639   3.377
  720TIP3    H1 2101   2.105   7.719   3.376
  720TIP3    H2 2102   1.963   7.669   3.358
  721TIP3   OH2 2103   3.865   1.558   6.819
  721TIP3    H1 2104   3.898   1.478   6.861
  721TIP3    H2 2105   3.801   1.592   6.880
  722TIP3   OH2 2106   4.787   3.231   2.232
  722TIP3    H1 2107   4.801   3.261   2.142
  722TIP3    H2 2108   4.739   3.149   2.222
  723TIP3   OH2 2109   2.857   4.724   1.378
  723TIP3    H1 2110   2.793   4.785   1.414
  723TIP3    H2 2111   2.844   4.730   1.283
  724TIP3   OH2 2112   8.069   0.209   0.869
  724TIP3    H1 2113   8.009   0.140   0.843
  724TIP3    H2 2114   8.146   0.196   0.814
  725TIP3   OH2 2115   8.236   1.702   5.103
  725TIP3    H1 2116   8.247   1.634   5.037
  725TIP3    H2 2117   8.252   1.657   5.186
  726TIP3   OH2 2118   3.110   2.985   6.657
  726TIP3    H1 2119   3.082   2.965   6.568
  726TIP3    H2 2120   3.029   2.990   6.707
  727TIP3   OH2 2121   4.358   1.188   4.147
  727TIP3    H1 2122   4.450   1.202   4.125
  727TIP3    H2 2123   4.361   1.133   4.226
  728TIP3   OH2 2124   7.895   7.338   1.871
  728TIP3    H1 2125   7.804   7.316   1.890
  728TIP3    H2 2126   7.940   7.254   1.863
  729TIP3   OH2 2127   7.232   1.309   1.256
  729TIP3    H1 2128   7.284   1.381   1.290
  729TIP3    H2 2129   7.233   1.243   1.326
  730TIP3   OH2 2130   2.235   6.420   4.428
  730TIP3    H1 2131   2.320   6.451   4.395
  730TIP3    H2 2132   2.171   6.477   4.386
  731TIP3   OH2 2133   1.824   5.611   3.882
  731TIP3    H1 2134   1.786   5.534   3.924
  731TIP3    H2 2135   1.882   5.649   3.948
  732TIP3   OH2 2136   1.212   3.568  -0.028
  732TIP3    H1 2137   1.173   3.655  -0.016
  732TIP3    H2 2138   1.245   3.545   0.059
  733TIP3   OH2 2139   7.215   0.925   3.993
  733TIP3    H1 2140   7.174   0.850   4.036
  733TIP3    H2 2141   7.194   0.913   3.900
  734TIP3   OH2 2142   4.966   0.920   2.266
  734TIP3    H1 2143   4.943   1.013   2.268
  734TIP3    H2 2144   4.916   0.881   2.337
  735TIP3   OH2 2145   1.622   5.526   0.074
  735TIP3    H1 2146   1.569   5.591   0.120
  735TIP3    H2 2147   1.649   5.465   0.143
  736TIP3   OH2 2148   7.019   5.405   4.947
  736TIP3    H1 2149   7.055   5.494   4.941
  736TIP3    H2 2150   7.083   5.351   4.900
  737TIP3   OH2 2151   6.250   3.891   4.303
  737TIP3    H1 2152   6.246   3.980   4.338
  737TIP3    H2 2153   6.219   3.836   4.374
  738TIP3   OH2 2154   1.915   6.548   0.113
  738TIP3    H1 2155   1.933   6.493   0.037
  738TIP3    H2 2156   1.881   6.629   0.076
  739TIP3   OH2 2157   6.484   0.777   3.442
  739TIP3    H1 2158   6.574   0.753   3.465
  739TIP3    H2 2159   6.492   0.865   3.405
  740TIP3   OH2 2160   0.382   2.435   5.617
  740TIP3    H1 2161   0.361   2.468   5.704
  740TIP3    H2 2162   0.369   2.340   5.623
  741TIP3   OH2 2163   5.945   2.852   4.951
  741TIP3    H1 2164   5.881   2.896   4.895
  741TIP3    H2 2165   5.892   2.795   5.008
  742TIP3   OH2 2166   1.036   6.240   5.944
  742TIP3    H1 2167   1.043   6.144   5.942
  742TIP3    H2 2168   1.119   6.270   5.905
  743TIP3   OH2 2169   0.336   5.004   1.009
  743TIP3    H1 2170   0.336   4.921   0.962
  743TIP3    H2 2171   0.369   4.982   1.097
  744TIP3   OH2 2172   6.653   2.672   2.786
  744TIP3    H1 2173   6.716   2.700   2.719
  744TIP3    H2 2174   6.589   2.620   2.738
  745TIP3   OH2 2175   3.920   1.866   1.820
  745TIP3    H1 2176   3.968   1.932   1.769
  745TIP3    H2 2177   3.864   1.917   1.879
  746TIP3   OH2 2178   7.700   5.149   4.231
  746TIP3    H1 2179   7.782   5.196   4.218
  746TIP3    H2 2180   7.661   5.188   4.309
  747TIP3   OH2 2181   3.645   3.902   3.034
  747TIP3    H1 2182   3.699   3.975   3.065
  747TIP3    H2 2183   3.623   3.926   2.944
  748TIP3   OH2 2184   3.581   7.406   1.740
  748TIP3    H1 2185   3.499   7.386   1.786
  748TIP3    H2 2186   3.581   7.347   1.664
  749TIP3   OH2 2187   2.593   2.808   2.624
  749TIP3    H1 2188   2.668   2.857   2.590
  749TIP3    H2 2189   2.628   2.761   2.700
  750TIP3   OH2 2190   2.715   6.602   5.219
  750TIP3    H1 2191   2.695   6.518   5.261
  750TIP3    H2 2192   2.639   6.657   5.236
  751TIP3   OH2 2193   3.197   7.158   3.406
  751TIP3    H1 2194   3.292   7.174   3.400
  751TIP3    H2 2195   3.190   7.071   3.445
  752TIP3   OH2 2196   5.442   1.386   1.715
  752TIP3    H1 2197   5.380   1.358   1.783
  752TIP3    H2 2198   5.401   1.359   1.633
  753TIP3   OH2 2199   6.448   2.699   3.029
  753TIP3    H1 2200   6.447   2.781   3.077
  753TIP3    H2 2201   6.495   2.638   3.086
  754TIP3   OH2 2202   5.069   1.543   5.941
  754TIP3    H1 2203   5.024   1.591   5.871
  754TIP3    H2 2204   5.062   1.599   6.018
  755TIP3   OH2 2205   0.631   3.333   3.240
  755TIP3    H1 2206   0.616   3.325   3.146
  755TIP3    H2 2207   0.695   3.403   3.248
  756TIP3   OH2 2208   0.624   0.984   2.109
  756TIP3    H1 2209   0.617   1.032   2.192
  756TIP3    H2 2210   0.679   0.909   2.129
  757TIP3   OH2 2211   4.714   6.007   3.941
  757TIP3    H1 2212   4.762   6.079   3.901
  757TIP3    H2 2213   4.701   6.035   4.032
  758TIP3   OH2 2214   0.587   2.045   3.441
  758TIP3    H1 2215   0.568   2.087   3.525
  758TIP3    H2 2216   0.663   1.989   3.459
  759TIP3   OH2 2217   2.032   1.337   2.336
  759TIP3    H1 2218   1.966   1.347   2.267
  759TIP3    H2 2219   2.102   1.398   2.312
  760TIP3   OH2 2220   5.922   6.448   3.087
  760TIP3    H1 2221   6.008   6.451   3.128
  760TIP3    H2 2222   5.938   6.466   2.994
  761TIP3   OH2 2223   4.149   2.499   0.271
  761TIP3    H1 2224   4.130   2.412   0.308
  761TIP3    H2 2225   4.072   2.551   0.293
  762TIP3   OH2 2226   4.072   2.061   5.941
  762TIP3    H1 2227   3.989   2.106   5.929
  762TIP3    H2 2228   4.073   1.993   5.873
  763TIP3   OH2 2229   7.186   0.894   6.613
  763TIP3    H1 2230   7.281   0.909   6.611
  763TIP3    H2 2231   7.149   0.979   6.638
  764TIP3   OH2 2232   1.912   2.163   5.807
  764TIP3    H1 2233   1.828   2.118   5.820
  764TIP3    H2 2234   1.889   2.250   5.775
  765TIP3   OH2 2235   2.360   5.574   5.242
  765TIP3    H1 2236   2.398   5.505   5.188
  765TIP3    H2 2237   2.292   5.612   5.186
  766TIP3   OH2 2238   3.319   6.179   1.836
  766TIP3    H1 2239   3.300   6.165   1.928
  766TIP3    H2 2240   3.384   6.112   1.814
  767TIP3   OH2 2241   7.863   3.787   2.255
  767TIP3    H1 2242   7.857   3.875   2.293
  767TIP3    H2 2243   7.942   3.790   2.200
  768TIP3   OH2 2244   2.556   7.325   3.508
  768TIP3    H1 2245   2.529   7.379   3.582
  768TIP3    H2 2246   2.476   7.307   3.460
  769TIP3   OH2 2247   3.059   1.644   6.716
  769TIP3    H1 2248   3.037   1.561   6.675
  769TIP3    H2 2249   3.150   1.660   6.691
  770TIP3   OH2 2250   3.827   2.770   3.389
  770TIP3    H1 2251   3.750   2.778   3.333
  770TIP3    H2 2252   3.899   2.749   3.328
  771TIP3   OH2 2253   1.124   0.674   6.491
  771TIP3    H1 2254   1.215   0.702   6.481
  771TIP3    H2 2255   1.075   0.730   6.431
  772TIP3   OH2 2256   0.673   1.850   1.134
  772TIP3    H1 2257   0.768   1.860   1.128
  772TIP3    H2 2258   0.647   1.916   1.198
  773TIP3   OH2 2259   0.481   6.514   1.616
  773TIP3    H1 2260   0.420   6.558   1.675
  773TIP3    H2 2261   0.525   6.585   1.568
  774TIP3   OH2 2262   5.777   6.323   6.103
  774TIP3    H1 2263   5.799   6.298   6.013
  774TIP3    H2 2264   5.715   6.395   6.093
  775TIP3   OH2 2265   1.152   6.469   2.830
  775TIP3    H1 2266   1.243   6.495   2.822
  775TIP3    H2 2267   1.143   6.394   2.771
  776TIP3   OH2 2268   7.325   7.667   0.662
  776TIP3    H1 2269   7.408   7.710   0.682
  776TIP3    H2 2270   7.317   7.673   0.567
  777TIP3   OH2 2271   6.632   6.506   0.061
  777TIP3    H1 2272   6.627   6.602   0.053
  777TIP3    H2 2273   6.593   6.487   0.146
  778TIP3   OH2 2274   2.446   6.054   1.584
  778TIP3    H1 2275   2.371   6.016   1.630
  778TIP3    H2 2276   2.418   6.059   1.493
  779TIP3   OH2 2277   0.813   1.622   3.484
  779TIP3    H1 2278   0.903   1.617   3.452
  779TIP3    H2 2279   0.763   1.654   3.409
  780TIP3   OH2 2280   1.480   1.807   6.625
  780TIP3    H1 2281   1.483   1.903   6.629
  780TIP3    H2 2282   1.510   1.785   6.537
  781TIP3   OH2 2283   0.180   0.972   4.920
  781TIP3    H1 2284   0.167   0.931   4.835
  781TIP3    H2 2285   0.170   1.066   4.903
  782TIP3   OH2 2286   0.174   2.919   2.851
  782TIP3    H1 2287   0.089   2.951   2.822
  782TIP3    H2 2288   0.237   2.968   2.800
  783TIP3   OH2 2289   7.511   2.852   6.672
  783TIP3    H1 2290   7.563   2.772   6.681
  783TIP3    H2 2291   7.545   2.911   6.740
  784TIP3   OH2 2292   8.306   6.251   3.493
  784TIP3    H1 2293   8.328   6.328   3.440
  784TIP3    H2 2294   8.216   6.230   3.468
  785TIP3   OH2 2295   7.451   1.398   0.475
  785TIP3    H1 2296   7.406   1.434   0.551
  785TIP3    H2 2297   7.399   1.428   0.400
  786TIP3   OH2 2298   4.083   5.992   2.585
  786TIP3    H1 2299   4.014   6.018   2.525
  786TIP3    H2 2300   4.054   6.024   2.671
  787TIP3   OH2 2301   1.995   1.427   1.585
  787TIP3    H1 2302   1.962   1.353   1.637
  787TIP3    H2 2303   2.090   1.418   1.589
  788TIP3   OH2 2304   6.806   5.689   6.374
  788TIP3    H1 2305   6.876   5.649   6.426
  788TIP3    H2 2306   6.807   5.781   6.399
  789TIP3   OH2 2307   2.179   2.347   6.203
  789TIP3    H1 2308   2.273   2.358   6.219
  789TIP3    H2 2309   2.171   2.333   6.109
  790TIP3   OH2 2310   4.218   4.047   5.886
  790TIP3    H1 2311   4.266   3.966   5.871
  790TIP3    H2 2312   4.285   4.110   5.915
  791TIP3   OH2 2313   5.792   6.405   1.545
  791TIP3    H1 2314   5.738   6.338   1.503
  791TIP3    H2 2315   5.843   6.443   1.473
  792TIP3   OH2 2316   5.805   5.487   1.902
  792TIP3    H1 2317   5.801   5.566   1.956
  792TIP3    H2 2318   5.821   5.416   1.965
  793TIP3   OH2 2319   2.798   2.467   3.071
  793TIP3    H1 2320   2.835   2.544   3.115
  793TIP3    H2 2321   2.741   2.504   3.003
  794TIP3   OH2 2322   2.431   3.071   3.781
  794TIP3    H1 2323   2.405   2.990   3.825
  794TIP3    H2 2324   2.519   3.088   3.813
  795TIP3   OH2 2325   6.618   2.858   1.014
  795TIP3    H1 2326   6.605   2.951   1.034
  795TIP3    H2 2327   6.552   2.812   1.065
  796TIP3   OH2 2328   0.974   2.373   4.267
  796TIP3    H1 2329   0.917   2.341   4.197
  796TIP3    H2 2330   1.053   2.320   4.259
  797TIP3   OH2 2331   4.274   0.633   2.395
  797TIP3    H1 2332   4.216   0.566   2.432
  797TIP3    H2 2333   4.216   0.707   2.374
  798TIP3   OH2 2334   0.322   6.050   4.970
  798TIP3    H1 2335   0.361   6.005   4.894
  798TIP3    H2 2336   0.229   6.026   4.967
  799TIP3   OH2 2337   3.596   6.164   6.824
  799TIP3    H1 2338   3.504   6.188   6.813
  799TIP3    H2 2339   3.629   6.157   6.734
  800TIP3   OH2 2340   4.543   2.064   6.133
  800TIP3    H1 2341   4.591   2.066   6.051
  800TIP3    H2 2342   4.532   1.970   6.152
  801TIP3   OH2 2343   1.231   0.341   0.048
  801TIP3    H1 2344   1.246   0.247   0.059
  801TIP3    H2 2345   1.267   0.361  -0.039
  802TIP3   OH2 2346   4.012   6.236   6.094
  802TIP3    H1 2347   3.958   6.159   6.080
  802TIP3    H2 2348   3.966   6.306   6.046
  803TIP3   OH2 2349   3.104   7.355   1.130
  803TIP3    H1 2350   3.134   7.341   1.219
  803TIP3    H2 2351   3.065   7.442   1.130
  804TIP3   OH2 2352   0.862   6.810   6.478
  804TIP3    H1 2353   0.861   6.788   6.385
  804TIP3    H2 2354   0.950   6.843   6.494
  805TIP3   OH2 2355   3.266   6.829   1.345
  805TIP3    H1 2356   3.196   6.888   1.373
  805TIP3    H2 2357   3.226   6.742   1.347
  806TIP3   OH2 2358   4.686   3.305   6.353
  806TIP3    H1 2359   4.730   3.246   6.413
  806TIP3    H2 2360   4.619   3.250   6.310
  807TIP3   OH2 2361   1.732   0.311   1.663
  807TIP3    H1 2362   1.743   0.279   1.753
  807TIP3    H2 2363   1.656   0.263   1.630
  808TIP3   OH2 2364   7.100   3.468   6.504
  808TIP3    H1 2365   7.145   3.549   6.480
  808TIP3    H2 2366   7.167   3.414   6.544
  809TIP3   OH2 2367   5.466   6.688   2.858
  809TIP3    H1 2368   5.525   6.614   2.875
  809TIP3    H2 2369   5.385   6.664   2.903
  810TIP3   OH2 2370   6.244   4.946   6.322
  810TIP3    H1 2371   6.337   4.924   6.314
  810TIP3    H2 2372   6.239   5.003   6.398
  811TIP3   OH2 2373   8.016   1.358   4.431
  811TIP3    H1 2374   7.938   1.303   4.422
  811TIP3    H2 2375   8.046   1.372   4.341
  812TIP3   OH2 2376   3.754   1.636   6.595
  812TIP3    H1 2377   3.787   1.557   6.552
  812TIP3    H2 2378   3.772   1.622   6.688
  813TIP3   OH2 2379   2.361   2.436   2.455
  813TIP3    H1 2380   2.328   2.387   2.380
  813TIP3    H2 2381   2.309   2.517   2.455
  814TIP3   OH2 2382   6.400   5.537   5.799
  814TIP3    H1 2383   6.393   5.609   5.862
  814TIP3    H2 2384   6.491   5.540   5.769
  815TIP3   OH2 2385   3.010   7.517   4.834
  815TIP3    H1 2386   2.965   7.495   4.753
  815TIP3    H2 2387   3.066   7.591   4.811
  816TIP3   OH2 2388   7.961   6.087   3.091
  816TIP3    H1 2389   7.960   6.006   3.039
  816TIP3    H2 2390   7.984   6.155   3.028
  817TIP3   OH2 2391   4.659   2.329   1.366
  817TIP3    H1 2392   4.652   2.295   1.277
  817TIP3    H2 2393   4.751   2.356   1.374
  818TIP3   OH2 2394   5.322   4.468   3.849
  818TIP3    H1 2395   5.384   4.425   3.790
  818TIP3    H2 2396   5.297   4.548   3.803
  819TIP3   OH2 2397   5.428   1.499   5.226
  819TIP3    H1 2398   5.492   1.563   5.255
  819TIP3    H2 2399   5.350   1.551   5.204
  820TIP3   OH2 2400   5.741   2.732   1.833
  820TIP3    H1 2401   5.662   2.678   1.841
  820TIP3    H2 2402   5.708   2.822   1.828
  821TIP3   OH2 2403   4.950   0.033   0.472
  821TIP3    H1 2404   4.860   0.046   0.499
  821TIP3    H2 2405   5.002   0.087   0.532
  822TIP3   OH2 2406   4.007   6.405   0.695
  822TIP3    H1 2407   4.069   6.434   0.627
  822TIP3    H2 2408   3.955   6.483   0.714
  823TIP3   OH2 2409   6.017   0.771   0.763
  823TIP3    H1 2410   6.075   0.804   0.694
  823TIP3    H2 2411   6.018   0.676   0.753
  824TIP3   OH2 2412   5.115   6.077   5.044
  824TIP3    H1 2413   5.143   6.113   4.960
  824TIP3    H2 2414   5.185   6.017   5.070
  825TIP3   OH2 2415   0.830   7.456   3.640
  825TIP3    H1 2416   0.734   7.460   3.634
  825TIP3    H2 2417   0.854   7.387   3.578
  826TIP3   OH2 2418   0.072   0.337   3.649
  826TIP3    H1 2419   0.024   0.419   3.655
  826TIP3    H2 2420   0.109   0.324   3.736
  827TIP3   OH2 2421   0.086   2.001   4.444
  827TIP3    H1 2422   0.019   1.991   4.511
  827TIP3    H2 2423   0.166   1.969   4.484
  828TIP3   OH2 2424   8.399   7.155   5.537
  828TIP3    H1 2425   8.321   7.181   5.488
  828TIP3    H2 2426   8.427   7.234   5.582
  829TIP3   OH2 2427   5.536   4.271   1.918
  829TIP3    H1 2428   5.574   4.324   1.988
  829TIP3    H2 2429   5.589   4.191   1.917
  830TIP3   OH2 2430   1.918   1.795   3.464
  830TIP3    H1 2431   1.897   1.719   3.518
  830TIP3    H2 2432   2.002   1.773   3.423
  831TIP3   OH2 2433   4.133   6.974   0.886
  831TIP3    H1 2434   4.159   6.899   0.833
  831TIP3    H2 2435   4.129   6.940   0.975
  832TIP3   OH2 2436   6.415   4.005   4.099
  832TIP3    H1 2437   6.381   3.935   4.155
  832TIP3    H2 2438   6.378   3.987   4.012
  833TIP3   OH2 2439   5.645   7.523   0.348
  833TIP3    H1 2440   5.705   7.459   0.310
  833TIP3    H2 2441   5.680   7.539   0.436
  834TIP3   OH2 2442   8.189   7.569   2.818
  834TIP3    H1 2443   8.209   7.647   2.766
  834TIP3    H2 2444   8.095   7.555   2.806
  835TIP3   OH2 2445   3.121   4.563   4.164
  835TIP3    H1 2446   3.160   4.544   4.250
  835TIP3    H2 2447   3.129   4.481   4.116
  836TIP3   OH2 2448   8.318   5.625   1.748
  836TIP3    H1 2449   8.247   5.609   1.685
  836TIP3    H2 2450   8.272   5.637   1.832
  837TIP3   OH2 2451   6.459   4.520   6.584
  837TIP3    H1 2452   6.375   4.544   6.544
  837TIP3    H2 2453   6.435   4.469   6.661
  838TIP3   OH2 2454   4.164   0.973   0.100
  838TIP3    H1 2455   4.077   0.940   0.079
  838TIP3    H2 2456   4.184   0.936   0.186
  839TIP3   OH2 2457   6.980   2.204   0.216
  839TIP3    H1 2458   6.976   2.210   0.121
  839TIP3    H2 2459   7.071   2.223   0.238
  840TIP3   OH2 2460   0.303   5.986   5.924
  840TIP3    H1 2461   0.258   5.923   5.869
  840TIP3    H2 2462   0.390   5.949   5.939
  841TIP3   OH2 2463   7.671   2.429   4.019
  841TIP3    H1 2464   7.689   2.365   4.088
  841TIP3    H2 2465   7.577   2.419   4.001
  842TIP3   OH2 2466   3.762   3.664   4.937
  842TIP3    H1 2467   3.765   3.591   4.998
  842TIP3    H2 2468   3.726   3.737   4.987
  843TIP3   OH2 2469   1.650   5.277   0.402
  843TIP3    H1 2470   1.653   5.226   0.483
  843TIP3    H2 2471   1.575   5.243   0.354
  844TIP3   OH2 2472   3.593   0.656   5.588
  844TIP3    H1 2473   3.670   0.675   5.642
  844TIP3    H2 2474   3.604   0.712   5.511
  845TIP3   OH2 2475   5.180   4.542   1.356
  845TIP3    H1 2476   5.120   4.470   1.338
  845TIP3    H2 2477   5.123   4.616   1.376
  846TIP3   OH2 2478   1.854   7.244   6.577
  846TIP3    H1 2479   1.927   7.182   6.580
  846TIP3    H2 2480   1.817   7.241   6.665
  847TIP3   OH2 2481   0.659   3.179   4.326
  847TIP3    H1 2482   0.671   3.194   4.420
  847TIP3    H2 2483   0.744   3.198   4.287
  848TIP3   OH2 2484   4.026   0.533   4.881
  848TIP3    H1 2485   4.049   0.560   4.792
  848TIP3    H2 2486   3.975   0.607   4.915
  849TIP3   OH2 2487   5.739   1.671   5.260
  849TIP3    H1 2488   5.721   1.760   5.289
  849TIP3    H2 2489   5.757   1.680   5.166
  850TIP3   OH2 2490   0.295   6.214   3.267
  850TIP3    H1 2491   0.381   6.189   3.231
  850TIP3    H2 2492   0.311   6.297   3.311
  851TIP3   OH2 2493   0.680   5.487   4.330
  851TIP3    H1 2494   0.602   5.471   4.383
  851TIP3    H2 2495   0.647   5.528   4.250
  852TIP3   OH2 2496   5.295   5.969   4.842
  852TIP3    H1 2497   5.302   6.048   4.787
  852TIP3    H2 2498   5.307   5.897   4.780
  853TIP3   OH2 2499   2.716   6.780   1.640
  853TIP3    H1 2500   2.656   6.848   1.609
  853TIP3    H2 2501   2.659   6.718   1.686
  854TIP3   OH2 2502   2.534   7.583   3.378
  854TIP3    H1 2503   2.538   7.514   3.444
  854TIP3    H2 2504   2.460   7.560   3.323
  855TIP3   OH2 2505   7.056   1.533   3.783
  855TIP3    H1 2506   6.968   1.496   3.788
  855TIP3    H2 2507   7.102   1.478   3.719
  856TIP3   OH2 2508   6.361   6.423   5.505
  856TIP3    H1 2509   6.446   6.396   5.470
  856TIP3    H2 2510   6.362   6.392   5.596
  857TIP3   OH2 2511   2.381   3.622   0.030
  857TIP3    H1 2512   2.365   3.693  -0.033
  857TIP3    H2 2513   2.294   3.597   0.060
  858TIP3   OH2 2514   0.219   2.089   3.088
  858TIP3    H1 2515   0.292   2.082   3.026
  858TIP3    H2 2516   0.251   2.047   3.168
  859TIP3   OH2 2517   7.843   6.298   2.102
  859TIP3    H1 2518   7.748   6.305   2.107
  859TIP3    H2 2519   7.859   6.251   2.020
  860TIP3   OH2 2520   5.772   4.358   3.066
  860TIP3    H1 2521   5.827   4.289   3.104
  860TIP3    H2 2522   5.813   4.440   3.093
  861TIP3   OH2 2523   0.405   3.318   2.686
  861TIP3    H1 2524   0.485   3.355   2.649
  861TIP3    H2 2525   0.375   3.385   2.748
  862TIP3   OH2 2526   3.181   5.784   4.765
  862TIP3    H1 2527   3.212   5.815   4.679
  862TIP3    H2 2528   3.138   5.701   4.746
  863TIP3   OH2 2529   5.919   5.694   5.282
  863TIP3    H1 2530   5.839   5.651   5.313
  863TIP3    H2 2531   5.889   5.770   5.234
  864TIP3   OH2 2532   8.228   1.321   3.947
  864TIP3    H1 2533   8.234   1.339   3.853
  864TIP3    H2 2534   8.231   1.226   3.953
  865TIP3   OH2 2535   7.230   5.737   5.768
  865TIP3    H1 2536   7.181   5.724   5.849
  865TIP3    H2 2537   7.163   5.751   5.701
  866TIP3   OH2 2538   7.892   0.629   5.856
  866TIP3    H1 2539   7.913   0.720   5.837
  866TIP3    H2 2540   7.914   0.582   5.776
  867TIP3   OH2 2541   4.376   1.009   3.540
  867TIP3    H1 2542   4.472   1.011   3.537
  867TIP3    H2 2543   4.356   0.937   3.600
  868TIP3   OH2 2544   2.239   2.736   4.955
  868TIP3    H1 2545   2.209   2.671   4.892
  868TIP3    H2 2546   2.298   2.792   4.906
  869TIP3   OH2 2547   8.251   5.377   0.229
  869TIP3    H1 2548   8.179   5.440   0.236
  869TIP3    H2 2549   8.314   5.420   0.171
  870TIP3   OH2 2550   0.220   7.637   6.423
  870TIP3    H1 2551   0.281   7.576   6.464
  870TIP3    H2 2552   0.196   7.697   6.493
  871TIP3   OH2 2553   5.913   6.523   3.633
  871TIP3    H1 2554   5.954   6.444   3.668
  871TIP3    H2 2555   5.904   6.580   3.709
  872TIP3   OH2 2556   6.238   4.808   3.390
  872TIP3    H1 2557   6.180   4.880   3.364
  872TIP3    H2 2558   6.193   4.765   3.462
  873TIP3   OH2 2559   6.718   6.261   1.128
  873TIP3    H1 2560   6.755   6.175   1.151
  873TIP3    H2 2561   6.627   6.242   1.105
  874TIP3   OH2 2562   2.971   6.365   2.241
  874TIP3    H1 2563   2.976   6.417   2.161
  874TIP3    H2 2564   2.921   6.287   2.217
  875TIP3   OH2 2565   0.473   7.874   2.866
  875TIP3    H1 2566   0.485   7.964   2.896
  875TIP3    H2 2567   0.414   7.834   2.930
  876TIP3   OH2 2568   6.933   0.314   3.696
  876TIP3    H1 2569   6.999   0.289   3.631
  876TIP3    H2 2570   6.859   0.255   3.680
  877TIP3   OH2 2571   4.180   5.978   5.055
  877TIP3    H1 2572   4.211   5.888   5.054
  877TIP3    H2 2573   4.140   5.991   4.968
  878TIP3   OH2 2574   4.027   1.254   0.423
  878TIP3    H1 2575   4.118   1.252   0.396
  878TIP3    H2 2576   4.030   1.249   0.518
  879TIP3   OH2 2577   2.576   1.045   0.641
  879TIP3    H1 2578   2.630   1.097   0.702
  879TIP3    H2 2579   2.542   0.974   0.694
  880TIP3   OH2 2580   8.127   0.802   0.367
  880TIP3    H1 2581   8.156   0.795   0.276
  880TIP3    H2 2582   8.035   0.776   0.365
  881TIP3   OH2 2583   3.348   6.433   5.533
  881TIP3    H1 2584   3.440   6.429   5.559
  881TIP3    H2 2585   3.351   6.462   5.441
  882TIP3   OH2 2586   0.549   7.542   0.542
  882TIP3    H1 2587   0.613   7.503   0.483
  882TIP3    H2 2588   0.553   7.636   0.524
  883TIP3   OH2 2589   0.145   7.302   2.458
  883TIP3    H1 2590   0.123   7.298   2.551
  883TIP3    H2 2591   0.220   7.245   2.449
  884TIP3   OH2 2592   0.873   2.191   1.640
  884TIP3    H1 2593   0.825   2.272   1.658
  884TIP3    H2 2594   0.805   2.125   1.632
  885TIP3   OH2 2595   6.964   5.796   2.296
  885TIP3    H1 2596   6.989   5.708   2.268
  885TIP3    H2 2597   6.950   5.788   2.390
  886TIP3   OH2 2598   3.147   2.310   1.900
  886TIP3    H1 2599   3.191   2.289   1.818
  886TIP3    H2 2600   3.056   2.284   1.886
  887TIP3   OH2 2601   2.974   0.256   5.030
  887TIP3    H1 2602   2.897   0.303   5.062
  887TIP3    H2 2603   2.941   0.169   5.009
  888TIP3   OH2 2604   2.304   4.711   5.553
  888TIP3    H1 2605   2.303   4.618   5.572
  888TIP3    H2 2606   2.397   4.732   5.539
  889TIP3   OH2 2607   0.990   4.120   6.353
  889TIP3    H1 2608   1.079   4.087   6.335
  889TIP3    H2 2609   0.987   4.206   6.311
  890TIP3   OH2 2610   1.833   5.725   5.370
  890TIP3    H1 2611   1.775   5.659   5.407
  890TIP3    H2 2612   1.921   5.698   5.398
  891TIP3   OH2 2613   1.416   1.076   1.266
  891TIP3    H1 2614   1.404   0.994   1.315
  891TIP3    H2 2615   1.331   1.093   1.227
  892TIP3   OH2 2616   2.446   4.753   3.819
  892TIP3    H1 2617   2.472   4.835   3.777
  892TIP3    H2 2618   2.352   4.762   3.835
  893TIP3   OH2 2619   3.078   0.520   2.876
  893TIP3    H1 2620   3.007   0.474   2.922
  893TIP3    H2 2621   3.037   0.552   2.795
  894TIP3   OH2 2622   7.504   3.109   1.867
  894TIP3    H1 2623   7.588   3.083   1.905
  894TIP3    H2 2624   7.514   3.095   1.773
  895TIP3   OH2 2625   5.149   4.696   5.204
  895TIP3    H1 2626   5.227   4.740   5.169
  895TIP3    H2 2627   5.117   4.643   5.132
  896TIP3   OH2 2628   8.172   6.314   1.094
  896TIP3    H1 2629   8.250   6.366   1.078
  896TIP3    H2 2630   8.133   6.352   1.173
  897TIP3   OH2 2631   6.248   6.316   1.911
  897TIP3    H1 2632   6.161   6.319   1.872
  897TIP3    H2 2633   6.232   6.308   2.005
  898TIP3   OH2 2634   0.184   2.170   5.236
  898TIP3    H1 2635   0.135   2.089   5.227
  898TIP3    H2 2636   0.236   2.158   5.316
  899TIP3   OH2 2637   0.858   2.908   1.608
  899TIP3    H1 2638   0.868   2.963   1.685
  899TIP3    H2 2639   0.942   2.863   1.599
  900TIP3   OH2 2640   4.960   1.754   3.722
  900TIP3    H1 2641   4.929   1.673   3.762
  900TIP3    H2 2642   4.895   1.773   3.654
  901TIP3   OH2 2643   4.563   0.409   2.533
  901TIP3    H1 2644   4.544   0.493   2.491
  901TIP3    H2 2645   4.482   0.359   2.524
  902TIP3   OH2 2646   4.600   3.262   5.739
  902TIP3    H1 2647   4.602   3.312   5.657
  902TIP3    H2 2648   4.692   3.247   5.760
  903TIP3   OH2 2649   7.463   7.798   2.382
  903TIP3    H1 2650   7.507   7.813   2.466
  903TIP3    H2 2651   7.516   7.846   2.318
  904TIP3   OH2 2652   7.564   3.854   5.146
  904TIP3    H1 2653   7.591   3.780   5.092
  904TIP3    H2 2654   7.548   3.817   5.232
  905TIP3   OH2 2655   6.070   6.699   3.456
  905TIP3    H1 2656   6.128   6.634   3.418
  905TIP3    H2 2657   6.011   6.649   3.513
  906TIP3   OH2 2658   0.615   4.344   0.668
  906TIP3    H1 2659   0.662   4.371   0.590
  906TIP3    H2 2660   0.675   4.286   0.715
  907TIP3   OH2 2661   2.215   6.607   2.079
  907TIP3    H1 2662   2.194   6.700   2.069
  907TIP3    H2 2663   2.138   6.561   2.045
  908TIP3   OH2 2664   5.635   6.153   0.231
  908TIP3    H1 2665   5.568   6.159   0.163
  908TIP3    H2 2666   5.711   6.198   0.195
  909TIP3   OH2 2667   2.939   5.601   1.714
  909TIP3    H1 2668   2.892   5.660   1.774
  909TIP3    H2 2669   2.928   5.514   1.752
  910TIP3   OH2 2670   3.694   3.516   3.942
  910TIP3    H1 2671   3.691   3.421   3.958
  910TIP3    H2 2672   3.691   3.524   3.846
  911TIP3   OH2 2673   2.394   3.515   5.979
  911TIP3    H1 2674   2.414   3.531   6.071
  911TIP3    H2 2675   2.456   3.447   5.952
  912TIP3   OH2 2676   2.485   1.553   1.238
  912TIP3    H1 2677   2.540   1.544   1.160
  912TIP3    H2 2678   2.487   1.646   1.259
  913TIP3   OH2 2679   1.260   2.633   0.893
  913TIP3    H1 2680   1.321   2.678   0.952
  913TIP3    H2 2681   1.263   2.683   0.812
  914TIP3   OH2 2682   6.390   6.716   5.474
  914TIP3    H1 2683   6.363   6.624   5.486
  914TIP3    H2 2684   6.408   6.723   5.380
  915TIP3   OH2 2685   3.945   3.087   1.011
  915TIP3    H1 2686   3.919   3.008   1.057
  915TIP3    H2 2687   3.999   3.056   0.938
  916TIP3   OH2 2688   6.215   5.068   4.747
  916TIP3    H1 2689   6.310   5.056   4.754
  916TIP3    H2 2690   6.182   4.980   4.730
  917TIP3   OH2 2691   7.928   1.196   6.781
  917TIP3    H1 2692   7.886   1.275   6.816
  917TIP3    H2 2693   8.011   1.190   6.827
  918TIP3   OH2 2694   3.648   7.846   3.560
  918TIP3    H1 2695   3.656   7.822   3.467
  918TIP3    H2 2696   3.558   7.822   3.583
  919TIP3   OH2 2697   8.303   0.621   6.474
  919TIP3    H1 2698   8.242   0.683   6.513
  919TIP3    H2 2699   8.370   0.607   6.541
  920TIP3   OH2 2700   8.271   0.556   4.814
  920TIP3    H1 2701   8.350   0.577   4.763
  920TIP3    H2 2702   8.230   0.485   4.766
  921TIP3   OH2 2703   2.929   7.307   1.823
  921TIP3    H1 2704   2.880   7.378   1.781
  921TIP3    H2 2705   2.863   7.241   1.843
  922TIP3   OH2 2706   0.860   1.648   4.556
  922TIP3    H1 2707   0.788   1.608   4.604
  922TIP3    H2 2708   0.926   1.666   4.623
  923TIP3   OH2 2709   4.320   0.898   0.351
  923TIP3    H1 2710   4.294   0.901   0.443
  923TIP3    H2 2711   4.372   0.977   0.338
  924TIP3   OH2 2712   3.518   4.352   2.741
  924TIP3    H1 2713   3.454   4.329   2.674
  924TIP3    H2 2714   3.524   4.447   2.737
  925TIP3   OH2 2715   3.246   7.040   4.208
  925TIP3    H1 2716   3.323   7.052   4.153
  925TIP3    H2 2717   3.174   7.023   4.147
  926TIP3   OH2 2718   4.031   0.599   2.035
  926TIP3    H1 2719   4.011   0.692   2.046
  926TIP3    H2 2720   3.949   0.561   2.004
  927TIP3   OH2 2721   6.319   0.032   3.856
  927TIP3    H1 2722   6.404   0.004   3.891
  927TIP3    H2 2723   6.339   0.109   3.803
  928TIP3   OH2 2724   4.943   1.600   4.514
  928TIP3    H1 2725   4.966   1.510   4.490
  928TIP3    H2 2726   4.938   1.646   4.430
  929TIP3   OH2 2727   0.628   4.695   4.524
  929TIP3    H1 2728   0.634   4.790   4.517
  929TIP3    H2 2729   0.586   4.667   4.442
  930TIP3   OH2 2730   5.431   4.950   4.598
  930TIP3    H1 2731   5.354   5.004   4.614
  930TIP3    H2 2732   5.505   5.008   4.617
  931TIP3   OH2 2733   8.350   5.468   1.007
  931TIP3    H1 2734   8.413   5.460   0.935
  931TIP3    H2 2735   8.380   5.405   1.072
  932TIP3   OH2 2736   2.202   6.452   6.772
  932TIP3    H1 2737   2.294   6.428   6.780
  932TIP3    H2 2738   2.198   6.502   6.690
  933TIP3   OH2 2739   4.481   4.181   4.407
  933TIP3    H1 2740   4.460   4.133   4.487
  933TIP3    H2 2741   4.548   4.128   4.364
  934TIP3   OH2 2742   2.555   4.741   2.702
  934TIP3    H1 2743   2.485   4.686   2.667
  934TIP3    H2 2744   2.563   4.714   2.793
  935TIP3   OH2 2745   0.330   4.439   4.534
  935TIP3    H1 2746   0.409   4.493   4.541
  935TIP3    H2 2747   0.363   4.352   4.513
  936TIP3   OH2 2748   3.140   2.485   3.909
  936TIP3    H1 2749   3.057   2.468   3.865
  936TIP3    H2 2750   3.118   2.543   3.982
  937TIP3   OH2 2751   7.522   0.258   0.227
  937TIP3    H1 2752   7.476   0.339   0.247
  937TIP3    H2 2753   7.464   0.213   0.165
  938TIP3   OH2 2754   8.246   1.424   3.705
  938TIP3    H1 2755   8.189   1.483   3.654
  938TIP3    H2 2756   8.321   1.409   3.649
  939TIP3   OH2 2757   2.051   5.413   3.343
  939TIP3    H1 2758   1.991   5.366   3.400
  939TIP3    H2 2759   1.995   5.463   3.283
  940TIP3   OH2 2760   5.525   2.969   5.965
  940TIP3    H1 2761   5.461   3.023   5.918
  940TIP3    H2 2762   5.596   3.029   5.987
  941TIP3   OH2 2763   1.746   7.908   1.854
  941TIP3    H1 2764   1.798   7.921   1.933
  941TIP3    H2 2765   1.777   7.976   1.794
  942TIP3   OH2 2766   0.944   6.862   3.274
  942TIP3    H1 2767   0.892   6.870   3.194
  942TIP3    H2 2768   0.892   6.909   3.340
  943TIP3   OH2 2769   1.043   7.090   3.842
  943TIP3    H1 2770   1.022   7.068   3.751
  943TIP3    H2 2771   0.960   7.119   3.880
  944TIP3   OH2 2772   5.669   4.613   3.382
  944TIP3    H1 2773   5.696   4.525   3.409
  944TIP3    H2 2774   5.734   4.639   3.317
  945TIP3   OH2 2775   4.814   6.048   5.886
  945TIP3    H1 2776   4.750   6.091   5.943
  945TIP3    H2 2777   4.761   6.000   5.822
  946TIP3   OH2 2778   2.588   0.573   6.841
  946TIP3    H1 2779   2.513   0.624   6.872
  946TIP3    H2 2780   2.564   0.482   6.855
  947TIP3   OH2 2781   2.007   0.299   2.584
  947TIP3    H1 2782   2.003   0.288   2.489
  947TIP3    H2 2783   1.988   0.212   2.619
  948TIP3   OH2 2784   7.125   6.611   0.748
  948TIP3    H1 2785   7.094   6.673   0.814
  948TIP3    H2 2786   7.107   6.525   0.787
  949TIP3   OH2 2787   8.267   1.037   5.881
  949TIP3    H1 2788   8.312   0.953   5.893
  949TIP3    H2 2789   8.187   1.015   5.834
  950TIP3   OH2 2790   3.284   7.923   1.967
  950TIP3    H1 2791   3.277   7.985   2.039
  950TIP3    H2 2792   3.347   7.858   1.997
  951TIP3   OH2 2793   2.941   4.624   6.544
  951TIP3    H1 2794   2.956   4.694   6.480
  951TIP3    H2 2795   3.029   4.605   6.578
  952TIP3   OH2 2796   7.267   5.897   2.724
  952TIP3    H1 2797   7.305   5.928   2.807
  952TIP3    H2 2798   7.179   5.936   2.723
  953TIP3   OH2 2799   7.751   2.484   1.062
  953TIP3    H1 2800   7.816   2.534   1.012
  953TIP3    H2 2801   7.720   2.418   1.000
  954TIP3   OH2 2802   5.701   3.500   4.003
  954TIP3    H1 2803   5.673   3.454   3.924
  954TIP3    H2 2804   5.789   3.467   4.020
  955TIP3   OH2 2805   6.339   6.436   1.675
  955TIP3    H1 2806   6.314   6.528   1.678
  955TIP3    H2 2807   6.321   6.404   1.763
  956TIP3   OH2 2808   5.873   5.912   4.320
  956TIP3    H1 2809   5.851   6.005   4.323
  956TIP3    H2 2810   5.821   5.877   4.248
  957TIP3   OH2 2811   5.631   7.845   6.310
  957TIP3    H1 2812   5.642   7.910   6.241
  957TIP3    H2 2813   5.617   7.763   6.263
  958TIP3   OH2 2814   7.028   5.876   5.006
  958TIP3    H1 2815   7.077   5.935   4.948
  958TIP3    H2 2816   6.962   5.932   5.046
  959TIP3   OH2 2817   4.841   3.636   2.710
  959TIP3    H1 2818   4.806   3.651   2.621
  959TIP3    H2 2819   4.856   3.724   2.744
  960TIP3   OH2 2820   3.621   7.671   5.759
  960TIP3    H1 2821   3.696   7.687   5.818
  960TIP3    H2 2822   3.572   7.601   5.802
  961TIP3   OH2 2823   0.170   6.779   4.980
  961TIP3    H1 2824   0.104   6.785   4.911
  961TIP3    H2 2825   0.240   6.838   4.952
  962TIP3   OH2 2826   5.344   1.243   5.565
  962TIP3    H1 2827   5.290   1.302   5.617
  962TIP3    H2 2828   5.284   1.205   5.501
  963TIP3   OH2 2829   2.141   3.386   5.917
  963TIP3    H1 2830   2.059   3.432   5.898
  963TIP3    H2 2831   2.209   3.452   5.903
  964TIP3   OH2 2832   7.498   3.556   4.418
  964TIP3    H1 2833   7.484   3.526   4.508
  964TIP3    H2 2834   7.495   3.476   4.366
  965TIP3   OH2 2835   4.132   1.533   5.153
  965TIP3    H1 2836   4.183   1.606   5.189
  965TIP3    H2 2837   4.198   1.470   5.123
  966TIP3   OH2 2838   0.117   6.515   2.268
  966TIP3    H1 2839   0.152   6.594   2.310
  966TIP3    H2 2840   0.194   6.466   2.240
  967TIP3   OH2 2841   3.158   0.949   3.261
  967TIP3    H1 2842   3.240   0.979   3.223
  967TIP3    H2 2843   3.177   0.862   3.296
  968TIP3   OH2 2844   5.663   7.328   1.606
  968TIP3    H1 2845   5.612   7.400   1.642
  968TIP3    H2 2846   5.607   7.291   1.538
  969TIP3   OH2 2847   3.450   1.554   4.820
  969TIP3    H1 2848   3.544   1.533   4.823
  969TIP3    H2 2849   3.427   1.567   4.912
  970TIP3   OH2 2850   2.909   7.444   2.725
  970TIP3    H1 2851   2.925   7.527   2.770
  970TIP3    H2 2852   2.859   7.392   2.788
  971TIP3   OH2 2853   4.234   6.904   4.565
  971TIP3    H1 2854   4.220   6.884   4.472
  971TIP3    H2 2855   4.318   6.949   4.567
  972TIP3   OH2 2856   8.388   3.304   5.890
  972TIP3    H1 2857   8.312   3.327   5.838
  972TIP3    H2 2858   8.371   3.214   5.920
  973TIP3   OH2 2859   1.349   6.595   3.544
  973TIP3    H1 2860   1.290   6.635   3.480
  973TIP3    H2 2861   1.427   6.651   3.543
  974TIP3   OH2 2862   0.718   6.231   2.497
  974TIP3    H1 2863   0.717   6.140   2.468
  974TIP3    H2 2864   0.808   6.245   2.527
  975TIP3   OH2 2865   0.314   7.760   3.097
  975TIP3    H1 2866   0.225   7.781   3.126
  975TIP3    H2 2867   0.305   7.675   3.054
  976TIP3   OH2 2868   2.903   1.229   4.985
  976TIP3    H1 2869   2.981   1.203   4.936
  976TIP3    H2 2870   2.890   1.159   5.049
  977TIP3   OH2 2871   1.303   3.670   3.963
  977TIP3    H1 2872   1.257   3.617   3.898
  977TIP3    H2 2873   1.286   3.626   4.046
  978TIP3   OH2 2874   2.522   1.667   6.327
  978TIP3    H1 2875   2.517   1.613   6.406
  978TIP3    H2 2876   2.566   1.747   6.356
  979TIP3   OH2 2877   4.697   2.805   6.621
  979TIP3    H1 2878   4.628   2.788   6.557
  979TIP3    H2 2879   4.688   2.736   6.686
  980TIP3   OH2 2880   8.386   6.816   2.065
  980TIP3    H1 2881   8.306   6.783   2.024
  980TIP3    H2 2882   8.370   6.807   2.159
  981TIP3   OH2 2883   4.266   2.944   1.085
  981TIP3    H1 2884   4.344   2.922   1.035
  981TIP3    H2 2885   4.193   2.904   1.037
  982TIP3   OH2 2886   0.618   2.766   3.961
  982TIP3    H1 2887   0.672   2.798   4.032
  982TIP3    H2 2888   0.539   2.733   4.004
  983TIP3   OH2 2889   4.463   2.219   4.976
  983TIP3    H1 2890   4.410   2.173   4.911
  983TIP3    H2 2891   4.459   2.163   5.054
  984TIP3   OH2 2892   1.069   6.294   0.077
  984TIP3    H1 2893   1.149   6.303   0.025
  984TIP3    H2 2894   1.100   6.282   0.166
  985TIP3   OH2 2895   7.778   7.690   3.691
  985TIP3    H1 2896   7.724   7.629   3.741
  985TIP3    H2 2897   7.854   7.706   3.747
  986TIP3   OH2 2898   6.016   3.714   2.793
  986TIP3    H1 2899   5.940   3.700   2.736
  986TIP3    H2 2900   6.057   3.627   2.800
  987TIP3   OH2 2901   0.044   4.581   5.661
  987TIP3    H1 2902  -0.008   4.508   5.696
  987TIP3    H2 2903   0.110   4.599   5.728
  988TIP3   OH2 2904   3.514   2.548   0.930
  988TIP3    H1 2905   3.596   2.598   0.932
  988TIP3    H2 2906   3.532   2.476   0.869
  989TIP3   OH2 2907   4.719   3.436   1.816
  989TIP3    H1 2908   4.686   3.350   1.842
  989TIP3    H2 2909   4.653   3.470   1.756
  990TIP3   OH2 2910   3.972   1.728   5.997
  990TIP3    H1 2911   4.014   1.659   5.946
  990TIP3    H2 2912   3.921   1.682   6.063
  991TIP3   OH2 2913   7.615   2.023   5.922
  991TIP3    H1 2914   7.546   2.085   5.898
  991TIP3    H2 2915   7.629   1.971   5.843
  992TIP3   OH2 2916   6.529   2.552   2.240
  992TIP3    H1 2917   6.616   2.532   2.272
  992TIP3    H2 2918   6.470   2.498   2.293
  993TIP3   OH2 2919   3.698   3.527   4.517
  993TIP3    H1 2920   3.696   3.437   4.549
  993TIP3    H2 2921   3.676   3.580   4.594
  994TIP3   OH2 2922   7.442   3.727   6.810
  994TIP3    H1 2923   7.357   3.692   6.838
  994TIP3    H2 2924   7.496   3.725   6.890
  995TIP3   OH2 2925   2.859   6.555   3.708
  995TIP3    H1 2926   2.785   6.555   3.769
  995TIP3    H2 2927   2.850   6.473   3.659
  996TIP3   OH2 2928   0.166   0.151   4.131
  996TIP3    H1 2929   0.227   0.076   4.137
  996TIP3    H2 2930   0.191   0.195   4.050
  997TIP3   OH2 2931   4.592   7.098   6.252
  997TIP3    H1 2932   4.654   7.038   6.292
  997TIP3    H2 2933   4.584   7.170   6.315
  998TIP3   OH2 2934   6.843   2.829   1.599
  998TIP3    H1 2935   6.830   2.763   1.531
  998TIP3    H2 2936   6.769   2.890   1.588
  999TIP3   OH2 2937   7.997   6.501   3.380
  999TIP3    H1 2938   8.047   6.435   3.331
  999TIP3    H2 2939   7.939   6.540   3.315
 1000TIP3   OH2 2940   0.037   5.257   5.858
 1000TIP3    H1 2941   0.058   5.244   5.765
 1000TIP3    H2 2942   0.078   5.183   5.902
 1001TIP3   OH2 2943   0.936   1.451   2.720
 1001TIP3    H1 2944   0.985   1.429   2.641
 1001TIP3    H2 2945   0.845   1.461   2.690
 1002TIP3   OH2 2946   4.371   3.120   5.368
 1002TIP3    H1 2947   4.375   3.107   5.463
 1002TIP3    H2 2948   4.363   3.032   5.332
 1003TIP3   OH2 2949   5.924   7.863   6.193
 1003TIP3    H1 2950   5.910   7.917   6.115
 1003TIP3    H2 2951   5.924   7.773   6.161
 1004TIP3   OH2 2952   6.705   3.503   3.749
 1004TIP3    H1 2953   6.673   3.568   3.687
 1004TIP3    H2 2954   6.680   3.537   3.835
 1005TIP3   OH2 2955   1.381   5.238   5.414
 1005TIP3    H1 2956   1.321   5.183   5.465
 1005TIP3    H2 2957   1.349   5.231   5.324
 1006TIP3   OH2 2958   1.513   4.554   0.278
 1006TIP3    H1 2959   1.535   4.627   0.335
 1006TIP3    H2 2960   1.518   4.477   0.334
 1007TIP3   OH2 2961   4.110   6.676   0.966
 1007TIP3    H1 2962   4.127   6.595   1.015
 1007TIP3    H2 2963   4.026   6.706   0.999
 1008TIP3   OH2 2964   7.012   3.764   0.460
 1008TIP3    H1 2965   7.099   3.801   0.447
 1008TIP3    H2 2966   6.953   3.823   0.413
 1009TIP3   OH2 2967   2.102   3.122   0.088
 1009TIP3    H1 2968   2.168   3.168   0.139
 1009TIP3    H2 2969   2.020   3.137   0.136
 1010TIP3   OH2 2970   7.061   7.502   5.905
 1010TIP3    H1 2971   7.049   7.490   6.000
 1010TIP3    H2 2972   7.156   7.510   5.894
 1011TIP3   OH2 2973   3.692   4.451   2.373
 1011TIP3    H1 2974   3.639   4.508   2.317
 1011TIP3    H2 2975   3.730   4.387   2.312
 1012TIP3   OH2 2976   1.367   1.303   4.407
 1012TIP3    H1 2977   1.307   1.344   4.469
 1012TIP3    H2 2978   1.427   1.373   4.381
 1013TIP3   OH2 2979   7.298   4.200   4.536
 1013TIP3    H1 2980   7.222   4.178   4.482
 1013TIP3    H2 2981   7.332   4.281   4.498
 1014TIP3   OH2 2982   5.159   0.633   5.944
 1014TIP3    H1 2983   5.090   0.674   5.892
 1014TIP3    H2 2984   5.194   0.704   5.997
 1015TIP3   OH2 2985   2.824   4.547   6.849
 1015TIP3    H1 2986   2.880   4.472   6.826
 1015TIP3    H2 2987   2.742   4.508   6.878
 1016TIP3   OH2 2988   0.432   2.952   0.886
 1016TIP3    H1 2989   0.353   2.986   0.929
 1016TIP3    H2 2990   0.503   2.978   0.944
 1017TIP3   OH2 2991   5.802   2.525   6.038
 1017TIP3    H1 2992   5.892   2.553   6.025
 1017TIP3    H2 2993   5.780   2.474   5.959
 1018TIP3   OH2 2994   4.290   4.137   6.233
 1018TIP3    H1 2995   4.201   4.103   6.231
 1018TIP3    H2 2996   4.302   4.178   6.148
 1019TIP3   OH2 2997   7.772   4.223   2.772
 1019TIP3    H1 2998   7.676   4.228   2.775
 1019TIP3    H2 2999   7.801   4.290   2.834
 1020TIP3   OH2 3000   8.135   7.255   3.069
 1020TIP3    H1 3001   8.186   7.174   3.057
 1020TIP3    H2 3002   8.051   7.237   3.028
 1021TIP3   OH2 3003   4.059   6.527   5.497
 1021TIP3    H1 3004   4.015   6.609   5.473
 1021TIP3    H2 3005   4.149   6.538   5.466
 1022TIP3   OH2 3006   5.529   2.569   0.593
 1022TIP3    H1 3007   5.439   2.565   0.624
 1022TIP3    H2 3008   5.539   2.658   0.558
 1023TIP3   OH2 3009   2.652   6.062   4.911
 1023TIP3    H1 3010   2.665   6.125   4.981
 1023TIP3    H2 3011   2.608   6.111   4.841
 1024TIP3   OH2 3012   6.230   2.353   4.447
 1024TIP3    H1 3013   6.313   2.306   4.445
 1024TIP3    H2 3014   6.236   2.415   4.374
 1025TIP3   OH2 3015   6.100   4.575   2.212
 1025TIP3    H1 3016   6.129   4.503   2.268
 1025TIP3    H2 3017   6.112   4.653   2.266
 1026TIP3   OH2 3018   7.512   2.441   2.146
 1026TIP3    H1 3019   7.555   2.526   2.157
 1026TIP3    H2 3020   7.427   2.452   2.190
 1027TIP3   OH2 3021   0.218   3.330   2.208
 1027TIP3    H1 3022   0.220   3.421   2.238
 1027TIP3    H2 3023   0.132   3.321   2.165
 1028TIP3   OH2 3024   2.326   1.886   6.550
 1028TIP3    H1 3025   2.355   1.883   6.642
 1028TIP3    H2 3026   2.252   1.825   6.547
 1029TIP3   OH2 3027   7.731   0.676   1.180
 1029TIP3    H1 3028   7.768   0.705   1.263
 1029TIP3    H2 3029   7.716   0.757   1.131
 1030TIP3   OH2 3030   7.929   5.545   4.318
 1030TIP3    H1 3031   7.868   5.478   4.288
 1030TIP3    H2 3032   7.882   5.627   4.308
 1031TIP3   OH2 3033   6.689   4.218   2.300
 1031TIP3    H1 3034   6.713   4.198   2.210
 1031TIP3    H2 3035   6.622   4.153   2.323
 1032TIP3   OH2 3036   2.663   3.023   5.711
 1032TIP3    H1 3037   2.746   3.053   5.748
 1032TIP3    H2 3038   2.634   2.954   5.771
 1033TIP3   OH2 3039   4.662   6.781   6.237
 1033TIP3    H1 3040   4.639   6.692   6.211
 1033TIP3    H2 3041   4.578   6.827   6.243
 1034TIP3   OH2 3042   7.258   3.501   2.210
 1034TIP3    H1 3043   7.253   3.500   2.114
 1034TIP3    H2 3044   7.293   3.415   2.233
 1035TIP3   OH2 3045   0.437   1.729   1.096
 1035TIP3    H1 3046   0.523   1.769   1.109
 1035TIP3    H2 3047   0.437   1.653   1.154
 1036TIP3   OH2 3048   6.419   0.315   5.495
 1036TIP3    H1 3049   6.396   0.352   5.409
 1036TIP3    H2 3050   6.340   0.328   5.548
 1037TIP3   OH2 3051   3.254   3.407   3.544
 1037TIP3    H1 3052   3.203   3.488   3.556
 1037TIP3    H2 3053   3.191   3.345   3.508
 1038TIP3   OH2 3054   4.106   0.491   0.517
 1038TIP3    H1 3055   4.157   0.533   0.586
 1038TIP3    H2 3056   4.019   0.532   0.524
 1039TIP3   OH2 3057   2.070   4.934   2.173
 1039TIP3    H1 3058   2.096   4.883   2.249
 1039TIP3    H2 3059   2.094   4.879   2.098
 1040TIP3   OH2 3060   4.105   1.850   2.736
 1040TIP3    H1 3061   4.169   1.911   2.700
 1040TIP3    H2 3062   4.023   1.900   2.741
 1041TIP3   OH2 3063   4.734   7.612   5.294
 1041TIP3    H1 3064   4.808   7.560   5.327
 1041TIP3    H2 3065   4.719   7.678   5.361
 1042TIP3   OH2 3066   5.439   2.824   5.283
 1042TIP3    H1 3067   5.473   2.743   5.322
 1042TIP3    H2 3068   5.409   2.798   5.196
 1043TIP3   OH2 3069   1.082   3.739   5.869
 1043TIP3    H1 3070   1.047   3.773   5.951
 1043TIP3    H2 3071   1.110   3.816   5.821
 1044TIP3   OH2 3072   8.168   1.582   2.255
 1044TIP3    H1 3073   8.169   1.525   2.178
 1044TIP3    H2 3074   8.076   1.586   2.280
 1045TIP3   OH2 3075   4.230   1.080   1.426
 1045TIP3    H1 3076   4.221   1.102   1.519
 1045TIP3    H2 3077   4.277   1.154   1.388
 1046TIP3   OH2 3078   1.828   5.995   2.982
 1046TIP3    H1 3079   1.889   5.962   2.916
 1046TIP3    H2 3080   1.772   5.920   3.001
 1047TIP3   OH2 3081   7.568   0.718   3.330
 1047TIP3    H1 3082   7.482   0.688   3.302
 1047TIP3    H2 3083   7.584   0.673   3.413
 1048TIP3   OH2 3084   2.927   0.164   1.965
 1048TIP3    H1 3085   3.022   0.172   1.960
 1048TIP3    H2 3086   2.912   0.100   2.035
 1049TIP3   OH2 3087   4.146   5.443   1.406
 1049TIP3    H1 3088   4.217   5.387   1.437
 1049TIP3    H2 3089   4.110   5.482   1.485
 1050TIP3   OH2 3090   2.370   0.596   1.633
 1050TIP3    H1 3091   2.332   0.552   1.709
 1050TIP3    H2 3092   2.355   0.536   1.560
 1051TIP3   OH2 3093   2.891   1.389   6.130
 1051TIP3    H1 3094   2.830   1.462   6.145
 1051TIP3    H2 3095   2.920   1.402   6.040
 1052TIP3   OH2 3096   0.705   3.669   3.302
 1052TIP3    H1 3097   0.757   3.590   3.290
 1052TIP3    H2 3098   0.669   3.688   3.216
 1053TIP3   OH2 3099   4.750   4.573   1.416
 1053TIP3    H1 3100   4.695   4.646   1.389
 1053TIP3    H2 3101   4.837   4.611   1.428
 1054TIP3   OH2 3102   0.300   6.875   6.367
 1054TIP3    H1 3103   0.306   6.809   6.436
 1054TIP3    H2 3104   0.312   6.959   6.413
 1055TIP3   OH2 3105   7.824   0.400   0.815
 1055TIP3    H1 3106   7.903   0.346   0.818
 1055TIP3    H2 3107   7.796   0.406   0.906
 1056TIP3   OH2 3108   7.921   4.511   1.997
 1056TIP3    H1 3109   7.846   4.468   2.039
 1056TIP3    H2 3110   7.983   4.440   1.981
 1057TIP3   OH2 3111   7.445   2.217   3.793
 1057TIP3    H1 3112   7.394   2.176   3.723
 1057TIP3    H2 3113   7.414   2.307   3.796
 1058TIP3   OH2 3114   4.751   1.807   0.942
 1058TIP3    H1 3115   4.798   1.784   1.022
 1058TIP3    H2 3116   4.685   1.738   0.932
 1059TIP3   OH2 3117   5.024   2.803   4.519
 1059TIP3    H1 3118   4.994   2.744   4.588
 1059TIP3    H2 3119   5.075   2.870   4.565
 1060TIP3   OH2 3120   3.780   0.160   6.536
 1060TIP3    H1 3121   3.780   0.236   6.594
 1060TIP3    H2 3122   3.870   0.127   6.540
 1061TIP3   OH2 3123   0.688   4.992   3.861
 1061TIP3    H1 3124   0.726   5.058   3.919
 1061TIP3    H2 3125   0.599   5.024   3.844
 1062TIP3   OH2 3126   4.411   0.753   6.627
 1062TIP3    H1 3127   4.384   0.722   6.713
 1062TIP3    H2 3128   4.504   0.732   6.622
 1063TIP3   OH2 3129   4.434   5.105   4.746
 1063TIP3    H1 3130   4.507   5.166   4.739
 1063TIP3    H2 3131   4.362   5.156   4.783
 1064TIP3   OH2 3132   7.538   0.530   5.255
 1064TIP3    H1 3133   7.576   0.618   5.256
 1064TIP3    H2 3134   7.511   0.514   5.345
 1065TIP3   OH2 3135   6.089   4.437   6.432
 1065TIP3    H1 3136   6.010   4.384   6.444
 1065TIP3    H2 3137   6.092   4.455   6.338
 1066TIP3   OH2 3138   3.635   4.664   4.341
 1066TIP3    H1 3139   3.594   4.619   4.267
 1066TIP3    H2 3140   3.723   4.683   4.311
 1067TIP3   OH2 3141   0.891   7.137   6.485
 1067TIP3    H1 3142   0.949   7.168   6.415
 1067TIP3    H2 3143   0.919   7.047   6.501
 1068TIP3   OH2 3144   1.791   4.455   6.170
 1068TIP3    H1 3145   1.854   4.477   6.239
 1068TIP3    H2 3146   1.789   4.533   6.114
 1069TIP3   OH2 3147   6.267   0.813   4.704
 1069TIP3    H1 3148   6.239   0.903   4.719
 1069TIP3    H2 3149   6.353   0.822   4.663
 1070TIP3   OH2 3150   3.294   5.716   1.424
 1070TIP3    H1 3151   3.299   5.741   1.331
 1070TIP3    H2 3152   3.200   5.715   1.443
 1071TIP3   OH2 3153   2.031   4.893   4.623
 1071TIP3    H1 3154   2.114   4.941   4.635
 1071TIP3    H2 3155   1.995   4.929   4.542
 1072TIP3   OH2 3156   3.207   3.524   3.929
 1072TIP3    H1 3157   3.130   3.469   3.915
 1072TIP3    H2 3158   3.177   3.591   3.991
 1073TIP3   OH2 3159   1.336   3.464   4.162
 1073TIP3    H1 3160   1.256   3.443   4.115
 1073TIP3    H2 3161   1.342   3.397   4.230
 1074TIP3   OH2 3162   5.372   4.923   2.976
 1074TIP3    H1 3163   5.312   4.990   2.942
 1074TIP3    H2 3164   5.323   4.841   2.966
 1075TIP3   OH2 3165   1.223   4.592   5.564
 1075TIP3    H1 3166   1.253   4.639   5.642
 1075TIP3    H2 3167   1.128   4.601   5.566
 1076TIP3   OH2 3168   7.479   6.400   2.701
 1076TIP3    H1 3169   7.493   6.414   2.794
 1076TIP3    H2 3170   7.397   6.446   2.682
 1077TIP3   OH2 3171   1.688   5.438   1.868
 1077TIP3    H1 3172   1.713   5.419   1.959
 1077TIP3    H2 3173   1.769   5.466   1.826
 1078TIP3   OH2 3174   4.990   4.812   0.256
 1078TIP3    H1 3175   5.076   4.829   0.296
 1078TIP3    H2 3176   4.961   4.730   0.296
 1079TIP3   OH2 3177   7.484   4.622   0.132
 1079TIP3    H1 3178   7.536   4.593   0.056
 1079TIP3    H2 3179   7.463   4.541   0.178
 1080TIP3   OH2 3180   1.452   5.738   6.135
 1080TIP3    H1 3181   1.486   5.802   6.198
 1080TIP3    H2 3182   1.461   5.654   6.178
 1081TIP3   OH2 3183   8.283   1.172   2.380
 1081TIP3    H1 3184   8.256   1.237   2.445
 1081TIP3    H2 3185   8.312   1.097   2.432
 1082TIP3   OH2 3186   1.776   4.712   6.038
 1082TIP3    H1 3187   1.784   4.741   5.947
 1082TIP3    H2 3188   1.714   4.774   6.077
 1083TIP3   OH2 3189   7.240   3.263   3.377
 1083TIP3    H1 3190   7.173   3.207   3.339
 1083TIP3    H2 3191   7.207   3.284   3.464
 1084TIP3   OH2 3192   4.450   7.331   1.211
 1084TIP3    H1 3193   4.376   7.272   1.223
 1084TIP3    H2 3194   4.521   7.274   1.181
 1085TIP3   OH2 3195   1.076   7.263   6.317
 1085TIP3    H1 3196   1.167   7.234   6.322
 1085TIP3    H2 3197   1.058   7.270   6.223
 1086TIP3   OH2 3198   4.880   3.272   3.619
 1086TIP3    H1 3199   4.828   3.260   3.540
 1086TIP3    H2 3200   4.931   3.191   3.626
 1087TIP3   OH2 3201   0.534   1.691   0.226
 1087TIP3    H1 3202   0.511   1.728   0.141
 1087TIP3    H2 3203   0.487   1.745   0.289
 1088TIP3   OH2 3204   7.366   2.068   0.543
 1088TIP3    H1 3205   7.454   2.096   0.515
 1088TIP3    H2 3206   7.309   2.141   0.517
 1089TIP3   OH2 3207   4.473   4.715   3.637
 1089TIP3    H1 3208   4.431   4.641   3.681
 1089TIP3    H2 3209   4.544   4.740   3.696
 1090TIP3   OH2 3210   3.780   4.236   4.491
 1090TIP3    H1 3211   3.760   4.148   4.524
 1090TIP3    H2 3212   3.757   4.294   4.563
 1091TIP3   OH2 3213   7.415   5.227   6.070
 1091TIP3    H1 3214   7.331   5.271   6.061
 1091TIP3    H2 3215   7.422   5.170   5.993
 1092TIP3   OH2 3216   1.891   3.291   0.396
 1092TIP3    H1 3217   1.889   3.251   0.309
 1092TIP3    H2 3218   1.912   3.383   0.380
 1093TIP3   OH2 3219   2.052   1.450   4.716
 1093TIP3    H1 3220   1.971   1.496   4.696
 1093TIP3    H2 3221   2.064   1.389   4.643
 1094TIP3   OH2 3222   0.283   7.779   5.401
 1094TIP3    H1 3223   0.201   7.819   5.373
 1094TIP3    H2 3224   0.346   7.851   5.402
 1095TIP3   OH2 3225   2.990   1.464   5.452
 1095TIP3    H1 3226   2.991   1.434   5.361
 1095TIP3    H2 3227   2.983   1.559   5.445
 1096TIP3   OH2 3228   1.996   2.498   5.676
 1096TIP3    H1 3229   1.947   2.541   5.606
 1096TIP3    H2 3230   1.930   2.479   5.743
 1097TIP3   OH2 3231   8.289   0.222   4.836
 1097TIP3    H1 3232   8.310   0.142   4.788
 1097TIP3    H2 3233   8.227   0.268   4.780
 1098TIP3   OH2 3234   1.729   0.085   4.461
 1098TIP3    H1 3235   1.775   0.152   4.411
 1098TIP3    H2 3236   1.664   0.050   4.401
 1099TIP3   OH2 3237   6.609   7.585   3.180
 1099TIP3    H1 3238   6.696   7.624   3.182
 1099TIP3    H2 3239   6.566   7.626   3.105
 1100TIP3   OH2 3240   6.508   1.024   2.149
 1100TIP3    H1 3241   6.595   0.983   2.147
 1100TIP3    H2 3242   6.515   1.093   2.215
 1101TIP3   OH2 3243   5.546   5.853   0.796
 1101TIP3    H1 3244   5.641   5.863   0.792
 1101TIP3    H2 3245   5.532   5.758   0.790
 1102TIP3   OH2 3246   0.851   5.119   3.549
 1102TIP3    H1 3247   0.939   5.085   3.534
 1102TIP3    H2 3248   0.859   5.171   3.629
 1103TIP3   OH2 3249   1.010   2.542   6.648
 1103TIP3    H1 3250   1.015   2.533   6.553
 1103TIP3    H2 3251   1.097   2.570   6.675
 1104TIP3   OH2 3252   2.200   3.236   2.691
 1104TIP3    H1 3253   2.118   3.210   2.649
 1104TIP3    H2 3254   2.222   3.319   2.650
 1105TIP3   OH2 3255   2.895   1.648   4.102
 1105TIP3    H1 3256   2.942   1.566   4.085
 1105TIP3    H2 3257   2.851   1.634   4.185
 1106TIP3   OH2 3258   0.571   2.834   2.270
 1106TIP3    H1 3259   0.483   2.868   2.251
 1106TIP3    H2 3260   0.568   2.812   2.364
 1107TIP3   OH2 3261   1.954   7.013   0.816
 1107TIP3    H1 3262   1.908   7.043   0.738
 1107TIP3    H2 3263   1.903   6.939   0.848
 1108TIP3   OH2 3264   2.802   5.049   6.234
 1108TIP3    H1 3265   2.738   5.118   6.215
 1108TIP3    H2 3266   2.885   5.084   6.201
 1109TIP3   OH2 3267   1.983   0.972   0.430
 1109TIP3    H1 3268   2.043   0.957   0.358
 1109TIP3    H2 3269   1.983   0.889   0.479
 1110TIP3   OH2 3270   0.603   0.764   3.293
 1110TIP3    H1 3271   0.571   0.674   3.299
 1110TIP3    H2 3272   0.663   0.774   3.366
 1111TIP3   OH2 3273   4.048   3.241   2.692
 1111TIP3    H1 3274   4.093   3.164   2.727
 1111TIP3    H2 3275   4.102   3.315   2.721
 1112TIP3   OH2 3276   2.626   3.712   0.174
 1112TIP3    H1 3277   2.591   3.792   0.213
 1112TIP3    H2 3278   2.555   3.678   0.119
 1113TIP3   OH2 3279   2.809   3.678   3.932
 1113TIP3    H1 3280   2.831   3.588   3.956
 1113TIP3    H2 3281   2.855   3.732   3.995
 1114TIP3   OH2 3282   3.599   6.541   6.197
 1114TIP3    H1 3283   3.631   6.456   6.168
 1114TIP3    H2 3284   3.526   6.522   6.255
 1115TIP3   OH2 3285   6.143   3.309   2.972
 1115TIP3    H1 3286   6.095   3.354   3.041
 1115TIP3    H2 3287   6.188   3.378   2.923
 1116TIP3   OH2 3288   7.855   6.609   1.140
 1116TIP3    H1 3289   7.858   6.520   1.176
 1116TIP3    H2 3290   7.862   6.596   1.045
 1117TIP3   OH2 3291   3.298   3.137   2.046
 1117TIP3    H1 3292   3.206   3.140   2.019
 1117TIP3    H2 3293   3.341   3.201   1.989
 1118TIP3   OH2 3294   3.204   1.037   6.287
 1118TIP3    H1 3295   3.217   0.949   6.253
 1118TIP3    H2 3296   3.109   1.048   6.290
 1119TIP3   OH2 3297   1.885   3.552   4.180
 1119TIP3    H1 3298   1.851   3.479   4.231
 1119TIP3    H2 3299   1.907   3.619   4.245
 1120TIP3   OH2 3300   3.229   0.912   3.947
 1120TIP3    H1 3301   3.319   0.938   3.928
 1120TIP3    H2 3302   3.175   0.973   3.896
 1121TIP3   OH2 3303   4.171   3.739   6.215
 1121TIP3    H1 3304   4.089   3.716   6.257
 1121TIP3    H2 3305   4.156   3.826   6.178
 1122TIP3   OH2 3306   6.506   0.925   0.628
 1122TIP3    H1 3307   6.501   0.914   0.723
 1122TIP3    H2 3308   6.545   0.843   0.596
 1123TIP3   OH2 3309   4.739   0.159   2.592
 1123TIP3    H1 3310   4.661   0.214   2.597
 1123TIP3    H2 3311   4.717   0.092   2.527
 1124TIP3   OH2 3312  -0.001   6.112   5.700
 1124TIP3    H1 3313   0.080   6.090   5.655
 1124TIP3    H2 3314  -0.035   6.028   5.731
 1125TIP3   OH2 3315   2.132   1.247   1.990
 1125TIP3    H1 3316   2.218   1.284   2.008
 1125TIP3    H2 3317   2.137   1.157   2.021
 1126TIP3   OH2 3318   2.867   1.679   4.405
 1126TIP3    H1 3319   2.958   1.649   4.405
 1126TIP3    H2 3320   2.863   1.744   4.476
 1127TIP3   OH2 3321   3.823   4.962   5.583
 1127TIP3    H1 3322   3.821   4.958   5.488
 1127TIP3    H2 3323   3.914   4.944   5.606
 1128TIP3   OH2 3324   5.530   3.952   1.940
 1128TIP3    H1 3325   5.579   3.879   1.901
 1128TIP3    H2 3326   5.440   3.919   1.947
 1129TIP3   OH2 3327   2.253   7.357   0.465
 1129TIP3    H1 3328   2.224   7.322   0.381
 1129TIP3    H2 3329   2.339   7.319   0.479
 1130TIP3   OH2 3330   3.167   1.818   6.171
 1130TIP3    H1 3331   3.187   1.730   6.137
 1130TIP3    H2 3332   3.082   1.840   6.131
 1131TIP3   OH2 3333   8.249   5.305   5.127
 1131TIP3    H1 3334   8.304   5.355   5.187
 1131TIP3    H2 3335   8.160   5.338   5.144
 1132TIP3   OH2 3336   2.238   1.608   1.984
 1132TIP3    H1 3337   2.148   1.625   1.955
 1132TIP3    H2 3338   2.287   1.598   1.902
 1133TIP3   OH2 3339   5.660   2.341   6.756
 1133TIP3    H1 3340   5.634   2.391   6.833
 1133TIP3    H2 3341   5.754   2.354   6.749
 1134TIP3   OH2 3342   6.414   2.914   3.224
 1134TIP3    H1 3343   6.351   2.982   3.201
 1134TIP3    H2 3344   6.487   2.960   3.264
 1135TIP3   OH2 3345   3.640   0.401   5.500
 1135TIP3    H1 3346   3.592   0.474   5.538
 1135TIP3    H2 3347   3.725   0.402   5.544
 1136TIP3   OH2 3348   6.430   6.999   0.924
 1136TIP3    H1 3349   6.394   7.015   0.837
 1136TIP3    H2 3350   6.384   7.059   0.981
 1137TIP3   OH2 3351   5.735   7.518   0.628
 1137TIP3    H1 3352   5.790   7.488   0.700
 1137TIP3    H2 3353   5.749   7.613   0.625
 1138TIP3   OH2 3354   4.683   1.715   5.504
 1138TIP3    H1 3355   4.719   1.633   5.538
 1138TIP3    H2 3356   4.630   1.688   5.428
 1139TIP3   OH2 3357   6.958   4.915   0.901
 1139TIP3    H1 3358   6.885   4.904   0.841
 1139TIP3    H2 3359   6.996   5.000   0.878
 1140TIP3   OH2 3360   6.720   3.131   5.818
 1140TIP3    H1 3361   6.742   3.217   5.783
 1140TIP3    H2 3362   6.723   3.143   5.913
 1141TIP3   OH2 3363   1.207   2.972   6.423
 1141TIP3    H1 3364   1.244   3.030   6.357
 1141TIP3    H2 3365   1.157   2.907   6.374
 1142TIP3   OH2 3366   3.554   5.718   3.166
 1142TIP3    H1 3367   3.613   5.793   3.167
 1142TIP3    H2 3368   3.550   5.688   3.256
 1143TIP3   OH2 3369   4.274   4.732   1.458
 1143TIP3    H1 3370   4.254   4.783   1.380
 1143TIP3    H2 3371   4.196   4.739   1.513
 1144TIP3   OH2 3372   4.534   0.349   5.572
 1144TIP3    H1 3373   4.529   0.297   5.492
 1144TIP3    H2 3374   4.564   0.435   5.543
 1145TIP3   OH2 3375   8.189   5.898   2.907
 1145TIP3    H1 3376   8.166   5.822   2.853
 1145TIP3    H2 3377   8.117   5.960   2.893
 1146TIP3   OH2 3378   5.846   6.704   1.309
 1146TIP3    H1 3379   5.751   6.706   1.306
 1146TIP3    H2 3380   5.873   6.740   1.225
 1147TIP3   OH2 3381   3.048   5.452   1.476
 1147TIP3    H1 3382   2.953   5.458   1.483
 1147TIP3    H2 3383   3.080   5.495   1.556
 1148TIP3   OH2 3384   3.738   2.674   5.753
 1148TIP3    H1 3385   3.757   2.712   5.667
 1148TIP3    H2 3386   3.785   2.590   5.752
 1149TIP3   OH2 3387   0.102   3.034   0.006
 1149TIP3    H1 3388   0.102   3.103   0.072
 1149TIP3    H2 3389   0.188   2.993   0.013
 1150TIP3   OH2 3390   8.188   5.881   4.483
 1150TIP3    H1 3391   8.173   5.973   4.505
 1150TIP3    H2 3392   8.141   5.832   4.550
 1151TIP3   OH2 3393   2.571   0.027   4.975
 1151TIP3    H1 3394   2.526   0.101   5.016
 1151TIP3    H2 3395   2.591  -0.032   5.048
 1152TIP3   OH2 3396   1.221   4.964   1.564
 1152TIP3    H1 3397   1.137   4.920   1.577
 1152TIP3    H2 3398   1.286   4.899   1.588
 1153TIP3   OH2 3399   6.564   0.125   5.371
 1153TIP3    H1 3400   6.565   0.058   5.440
 1153TIP3    H2 3401   6.513   0.197   5.409
 1154TIP3   OH2 3402   4.560   2.076   0.094
 1154TIP3    H1 3403   4.565   2.159   0.141
 1154TIP3    H2 3404   4.649   2.060   0.063
 1155TIP3   OH2 3405   5.451   6.667   6.310
 1155TIP3    H1 3406   5.458   6.762   6.297
 1155TIP3    H2 3407   5.489   6.629   6.231
 1156TIP3   OH2 3408   4.514   7.237   6.807
 1156TIP3    H1 3409   4.472   7.312   6.848
 1156TIP3    H2 3410   4.442   7.186   6.770
 1157TIP3   OH2 3411   4.856   5.744  -0.046
 1157TIP3    H1 3412   4.777   5.788  -0.012
 1157TIP3    H2 3413   4.910   5.729   0.031
 1158TIP3   OH2 3414   8.248   1.275   5.673
 1158TIP3    H1 3415   8.163   1.237   5.653
 1158TIP3    H2 3416   8.298   1.267   5.592
 1159TIP3   OH2 3417   0.607   2.193   2.732
 1159TIP3    H1 3418   0.545   2.170   2.801
 1159TIP3    H2 3419   0.677   2.240   2.776
 1160TIP3   OH2 3420   6.947   3.422   3.020
 1160TIP3    H1 3421   6.894   3.394   3.095
 1160TIP3    H2 3422   7.037   3.415   3.051
 1161TIP3   OH2 3423   3.695   2.573   2.326
 1161TIP3    H1 3424   3.706   2.667   2.310
 1161TIP3    H2 3425   3.672   2.567   2.418
 1162TIP3   OH2 3426   2.762   0.845   6.819
 1162TIP3    H1 3427   2.695   0.790   6.779
 1162TIP3    H2 3428   2.842   0.794   6.812
 1163TIP3   OH2 3429   7.451   5.784   6.537
 1163TIP3    H1 3430   7.518   5.716   6.532
 1163TIP3    H2 3431   7.458   5.832   6.455
 1164TIP3   OH2 3432   0.513   4.135   3.745
 1164TIP3    H1 3433   0.568   4.066   3.783
 1164TIP3    H2 3434   0.434   4.090   3.718
 1165TIP3   OH2 3435   3.856   6.010   4.090
 1165TIP3    H1 3436   3.940   6.054   4.072
 1165TIP3    H2 3437   3.795   6.082   4.108
 1166TIP3   OH2 3438   2.186   2.877   2.084
 1166TIP3    H1 3439   2.265   2.826   2.065
 1166TIP3    H2 3440   2.120   2.812   2.108
 1167TIP3   OH2 3441   3.976   2.833   0.136
 1167TIP3    H1 3442   3.949   2.747   0.104
 1167TIP3    H2 3443   4.067   2.820   0.163
 1168TIP3   OH2 3444   2.238   3.814   2.972
 1168TIP3    H1 3445   2.301   3.742   2.982
 1168TIP3    H2 3446   2.236   3.831   2.877
 1169TIP3   OH2 3447   4.532   1.631   5.295
 1169TIP3    H1 3448   4.511   1.559   5.235
 1169TIP3    H2 3449   4.454   1.641   5.348
 1170TIP3   OH2 3450   7.709   1.646   1.992
 1170TIP3    H1 3451   7.704   1.673   1.901
 1170TIP3    H2 3452   7.772   1.707   2.032
 1171TIP3   OH2 3453   0.297   4.288   2.674
 1171TIP3    H1 3454   0.249   4.275   2.592
 1171TIP3    H2 3455   0.364   4.220   2.674
 1172TIP3   OH2 3456   0.786   2.658   1.377
 1172TIP3    H1 3457   0.800   2.718   1.450
 1172TIP3    H2 3458   0.830   2.577   1.404
 1173TIP3   OH2 3459   3.240   6.276   4.188
 1173TIP3    H1 3460   3.153   6.279   4.148
 1173TIP3    H2 3461   3.297   6.242   4.120
 1174TIP3   OH2 3462   4.704   2.875   4.266
 1174TIP3    H1 3463   4.619   2.877   4.222
 1174TIP3    H2 3464   4.733   2.966   4.266
 1175TIP3   OH2 3465   2.001   7.617   2.010
 1175TIP3    H1 3466   2.040   7.682   1.952
 1175TIP3    H2 3467   2.065   7.606   2.081
 1176TIP3   OH2 3468   0.302   2.960   1.900
 1176TIP3    H1 3469   0.236   2.999   1.843
 1176TIP3    H2 3470   0.383   2.963   1.848
 1177TIP3   OH2 3471   7.131   3.874   2.080
 1177TIP3    H1 3472   7.098   3.790   2.112
 1177TIP3    H2 3473   7.180   3.853   2.000
 1178TIP3   OH2 3474   0.288   4.199   1.521
 1178TIP3    H1 3475   0.373   4.226   1.486
 1178TIP3    H2 3476   0.229   4.201   1.445
 1179TIP3   OH2 3477   7.447   2.925   6.110
 1179TIP3    H1 3478   7.503   2.848   6.099
 1179TIP3    H2 3479   7.427   2.926   6.203
 1180TIP3   OH2 3480   4.637   1.784   3.098
 1180TIP3    H1 3481   4.625   1.863   3.151
 1180TIP3    H2 3482   4.563   1.728   3.121
 1181TIP3   OH2 3483   3.039   3.967   5.734
 1181TIP3    H1 3484   3.000   3.963   5.646
 1181TIP3    H2 3485   3.020   3.882   5.773
 1182TIP3   OH2 3486   3.868   0.615   0.550
 1182TIP3    H1 3487   3.857   0.537   0.605
 1182TIP3    H2 3488   3.803   0.605   0.481
 1183TIP3   OH2 3489   3.248   2.877   0.242
 1183TIP3    H1 3490   3.216   2.909   0.326
 1183TIP3    H2 3491   3.343   2.881   0.249
 1184TIP3   OH2 3492   3.548   6.180   5.659
 1184TIP3    H1 3493   3.539   6.088   5.682
 1184TIP3    H2 3494   3.531   6.227   5.740
 1185TIP3   OH2 3495   7.647   5.789   4.064
 1185TIP3    H1 3496   7.563   5.774   4.108
 1185TIP3    H2 3497   7.627   5.776   3.971
 1186TIP3   OH2 3498   4.494   1.439   6.759
 1186TIP3    H1 3499   4.482   1.507   6.692
 1186TIP3    H2 3500   4.427   1.459   6.825
 1187TIP3   OH2 3501   5.078   0.973   2.992
 1187TIP3    H1 3502   5.117   1.020   2.918
 1187TIP3    H2 3503   5.091   0.881   2.972
 1188TIP3   OH2 3504   2.861   5.615   3.157
 1188TIP3    H1 3505   2.921   5.688   3.143
 1188TIP3    H2 3506   2.862   5.600   3.251
 1189TIP3   OH2 3507   0.983   0.398   2.007
 1189TIP3    H1 3508   0.993   0.435   2.094
 1189TIP3    H2 3509   1.001   0.305   2.018
 1190TIP3   OH2 3510   0.494   3.127   0.650
 1190TIP3    H1 3511   0.512   3.096   0.562
 1190TIP3    H2 3512   0.530   3.059   0.707
 1191TIP3   OH2 3513   0.760   6.863   0.255
 1191TIP3    H1 3514   0.688   6.812   0.218
 1191TIP3    H2 3515   0.839   6.819   0.224
 1192TIP3   OH2 3516   2.310   2.842   2.837
 1192TIP3    H1 3517   2.356   2.777   2.890
 1192TIP3    H2 3518   2.363   2.850   2.758
 1193TIP3   OH2 3519   5.443   3.292   5.319
 1193TIP3    H1 3520   5.360   3.258   5.352
 1193TIP3    H2 3521   5.498   3.215   5.307
 1194TIP3   OH2 3522   2.203   6.015   4.519
 1194TIP3    H1 3523   2.241   5.954   4.456
 1194TIP3    H2 3524   2.194   6.097   4.470
 1195TIP3   OH2 3525   1.266   5.646   3.258
 1195TIP3    H1 3526   1.188   5.598   3.284
 1195TIP3    H2 3527   1.238   5.702   3.186
 1196TIP3   OH2 3528   5.780   6.219   1.896
 1196TIP3    H1 3529   5.801   6.266   1.978
 1196TIP3    H2 3530   5.800   6.128   1.916
 1197TIP3   OH2 3531   1.553   4.985   5.357
 1197TIP3    H1 3532   1.644   5.010   5.341
 1197TIP3    H2 3533   1.512   4.986   5.270
 1198TIP3   OH2 3534   2.872   3.433   3.260
 1198TIP3    H1 3535   2.820   3.355   3.279
 1198TIP3    H2 3536   2.814   3.489   3.209
 1199TIP3   OH2 3537   6.234   1.380   6.349
 1199TIP3    H1 3538   6.193   1.420   6.426
 1199TIP3    H2 3539   6.228   1.286   6.365
 1200TIP3   OH2 3540   5.069   4.080   3.257
 1200TIP3    H1 3541   5.002   4.022   3.221
 1200TIP3    H2 3542   5.027   4.123   3.331
 1201TIP3   OH2 3543   6.752   5.719   4.890
 1201TIP3    H1 3544   6.770   5.718   4.796
 1201TIP3    H2 3545   6.759   5.811   4.915
 1202TIP3   OH2 3546   6.540   6.435   0.309
 1202TIP3    H1 3547   6.540   6.363   0.372
 1202TIP3    H2 3548   6.493   6.506   0.354
 1203TIP3   OH2 3549   6.735   3.943   4.989
 1203TIP3    H1 3550   6.689   3.860   4.999
 1203TIP3    H2 3551   6.715   3.992   5.069
 1204TIP3   OH2 3552   5.568   3.274   4.412
 1204TIP3    H1 3553   5.489   3.288   4.465
 1204TIP3    H2 3554   5.635   3.326   4.456
 1205TIP3   OH2 3555   5.113   2.398   5.657
 1205TIP3    H1 3556   5.087   2.481   5.697
 1205TIP3    H2 3557   5.087   2.331   5.721
 1206TIP3   OH2 3558   0.915   5.507   6.611
 1206TIP3    H1 3559   0.949   5.592   6.585
 1206TIP3    H2 3560   0.966   5.443   6.561
 1207TIP3   OH2 3561   2.969   0.835   2.395
 1207TIP3    H1 3562   3.048   0.833   2.340
 1207TIP3    H2 3563   2.985   0.909   2.454
 1208TIP3   OH2 3564   4.744   5.753   1.411
 1208TIP3    H1 3565   4.755   5.737   1.317
 1208TIP3    H2 3566   4.763   5.668   1.451
 1209TIP3   OH2 3567   0.735   1.299   3.884
 1209TIP3    H1 3568   0.694   1.348   3.812
 1209TIP3    H2 3569   0.823   1.336   3.890
 1210TIP3   OH2 3570   2.967   7.739   5.202
 1210TIP3    H1 3571   2.972   7.790   5.121
 1210TIP3    H2 3572   3.032   7.779   5.259
 1211TIP3   OH2 3573   0.662   5.896   3.794
 1211TIP3    H1 3574   0.577   5.936   3.813
 1211TIP3    H2 3575   0.697   5.947   3.722
 1212TIP3   OH2 3576   3.720   0.656   6.184
 1212TIP3    H1 3577   3.687   0.607   6.109
 1212TIP3    H2 3578   3.691   0.606   6.260
 1213TIP3   OH2 3579   1.837   0.972   5.721
 1213TIP3    H1 3580   1.778   1.048   5.722
 1213TIP3    H2 3581   1.922   1.008   5.695
 1214TIP3   OH2 3582   0.882   7.091   3.595
 1214TIP3    H1 3583   0.811   7.040   3.556
 1214TIP3    H2 3584   0.880   7.174   3.547
 1215TIP3   OH2 3585   0.358   1.814   3.743
 1215TIP3    H1 3586   0.442   1.820   3.788
 1215TIP3    H2 3587   0.380   1.821   3.650
 1216TIP3   OH2 3588   1.251   7.161   2.099
 1216TIP3    H1 3589   1.242   7.239   2.045
 1216TIP3    H2 3590   1.170   7.157   2.150
 1217TIP3   OH2 3591   5.076   1.074   5.752
 1217TIP3    H1 3592   5.040   1.163   5.757
 1217TIP3    H2 3593   5.150   1.075   5.813
 1218TIP3   OH2 3594   3.299   1.060   1.245
 1218TIP3    H1 3595   3.346   1.042   1.164
 1218TIP3    H2 3596   3.323   0.987   1.303
 1219TIP3   OH2 3597   3.060   4.508   5.186
 1219TIP3    H1 3598   3.057   4.416   5.210
 1219TIP3    H2 3599   3.125   4.512   5.116
 1220TIP3   OH2 3600   0.937   6.289   6.271
 1220TIP3    H1 3601   0.968   6.328   6.352
 1220TIP3    H2 3602   0.905   6.362   6.219
 1221TIP3   OH2 3603   6.010   7.911   2.608
 1221TIP3    H1 3604   6.084   7.854   2.586
 1221TIP3    H2 3605   5.947   7.853   2.651
 1222TIP3   OH2 3606   3.157   6.401   3.071
 1222TIP3    H1 3607   3.177   6.399   2.977
 1222TIP3    H2 3608   3.129   6.491   3.087
 1223TIP3   OH2 3609   4.159   7.015   5.264
 1223TIP3    H1 3610   4.206   6.934   5.283
 1223TIP3    H2 3611   4.222   7.085   5.283
 1224TIP3   OH2 3612   2.166   2.326   4.001
 1224TIP3    H1 3613   2.248   2.352   4.042
 1224TIP3    H2 3614   2.135   2.405   3.957
 1225TIP3   OH2 3615   7.284   0.039   5.756
 1225TIP3    H1 3616   7.219   0.109   5.757
 1225TIP3    H2 3617   7.354   0.070   5.814
 1226TIP3   OH2 3618   3.931   2.702   1.697
 1226TIP3    H1 3619   3.847   2.679   1.735
 1226TIP3    H2 3620   3.989   2.630   1.721
 1227TIP3   OH2 3621   5.390   3.206   6.136
 1227TIP3    H1 3622   5.479   3.203   6.100
 1227TIP3    H2 3623   5.336   3.165   6.068
 1228TIP3   OH2 3624   2.302   4.840   2.378
 1228TIP3    H1 3625   2.306   4.799   2.464
 1228TIP3    H2 3626   2.382   4.810   2.333
 1229TIP3   OH2 3627   3.918   4.802   6.829
 1229TIP3    H1 3628   3.837   4.766   6.795
 1229TIP3    H2 3629   3.955   4.732   6.882
 1230TIP3   OH2 3630   0.549   3.076   5.019
 1230TIP3    H1 3631   0.561   3.169   5.000
 1230TIP3    H2 3632   0.566   3.068   5.113
 1231TIP3   OH2 3633   5.721   4.768   5.052
 1231TIP3    H1 3634   5.704   4.816   5.133
 1231TIP3    H2 3635   5.700   4.830   4.982
 1232TIP3   OH2 3636   8.359   5.735   6.013
 1232TIP3    H1 3637   8.315   5.650   6.006
 1232TIP3    H2 3638   8.420   5.725   6.086
 1233TIP3   OH2 3639   0.152   0.892   1.124
 1233TIP3    H1 3640   0.164   0.923   1.213
 1233TIP3    H2 3641   0.100   0.812   1.132
 1234TIP3   OH2 3642   1.033   1.380   1.804
 1234TIP3    H1 3643   0.955   1.327   1.790
 1234TIP3    H2 3644   1.007   1.445   1.870
 1235TIP3   OH2 3645   2.035   5.951   3.820
 1235TIP3    H1 3646   1.994   5.945   3.734
 1235TIP3    H2 3647   2.107   5.888   3.818
 1236TIP3   OH2 3648   7.439   1.909   4.003
 1236TIP3    H1 3649   7.503   1.841   3.979
 1236TIP3    H2 3650   7.451   1.977   3.937
 1237TIP3   OH2 3651   1.442   0.990   2.403
 1237TIP3    H1 3652   1.527   1.013   2.442
 1237TIP3    H2 3653   1.404   1.074   2.378
 1238TIP3   OH2 3654   0.649   2.751   0.787
 1238TIP3    H1 3655   0.683   2.840   0.797
 1238TIP3    H2 3656   0.634   2.720   0.876
 1239TIP3   OH2 3657   2.353   0.948   3.778
 1239TIP3    H1 3658   2.268   0.941   3.821
 1239TIP3    H2 3659   2.383   1.036   3.800
 1240TIP3   OH2 3660   6.246   5.634   5.458
 1240TIP3    H1 3661   6.222   5.636   5.365
 1240TIP3    H2 3662   6.341   5.641   5.458
 1241TIP3   OH2 3663   6.619   7.233   5.892
 1241TIP3    H1 3664   6.544   7.174   5.887
 1241TIP3    H2 3665   6.665   7.221   5.809
 1242TIP3   OH2 3666   7.060   5.557   0.807
 1242TIP3    H1 3667   7.105   5.490   0.860
 1242TIP3    H2 3668   6.991   5.590   0.864
 1243TIP3   OH2 3669   3.759   5.599   6.766
 1243TIP3    H1 3670   3.674   5.633   6.740
 1243TIP3    H2 3671   3.819   5.673   6.754
 1244TIP3   OH2 3672   7.994   0.416   4.428
 1244TIP3    H1 3673   7.999   0.366   4.347
 1244TIP3    H2 3674   7.911   0.389   4.468
 1245TIP3   OH2 3675   5.310   4.624   3.253
 1245TIP3    H1 3676   5.404   4.640   3.251
 1245TIP3    H2 3677   5.303   4.531   3.276
 1246TIP3   OH2 3678   5.770   7.405   6.159
 1246TIP3    H1 3679   5.696   7.363   6.203
 1246TIP3    H2 3680   5.759   7.381   6.066
 1247TIP3   OH2 3681   6.201   6.884   4.105
 1247TIP3    H1 3682   6.128   6.864   4.164
 1247TIP3    H2 3683   6.160   6.925   4.029
 1248TIP3   OH2 3684   6.894   0.057   6.142
 1248TIP3    H1 3685   6.859   0.139   6.107
 1248TIP3    H2 3686   6.989   0.067   6.135
 1249TIP3   OH2 3687   7.060   6.038   3.836
 1249TIP3    H1 3688   7.127   5.983   3.875
 1249TIP3    H2 3689   6.978   6.004   3.871
 1250TIP3   OH2 3690   1.142   2.094   1.676
 1250TIP3    H1 3691   1.142   2.003   1.705
 1250TIP3    H2 3692   1.050   2.117   1.669
 1251TIP3   OH2 3693   3.571   3.232   4.562
 1251TIP3    H1 3694   3.660   3.201   4.577
 1251TIP3    H2 3695   3.528   3.158   4.517
 1252TIP3   OH2 3696   6.131   5.940   6.749
 1252TIP3    H1 3697   6.053   5.948   6.804
 1252TIP3    H2 3698   6.187   6.013   6.775
 1253TIP3   OH2 3699   6.282   0.750   5.886
 1253TIP3    H1 3700   6.222   0.675   5.886
 1253TIP3    H2 3701   6.366   0.713   5.858
 1254TIP3   OH2 3702   7.775   2.672   1.652
 1254TIP3    H1 3703   7.858   2.697   1.691
 1254TIP3    H2 3704   7.711   2.733   1.690
 1255TIP3   OH2 3705   4.464   6.257   2.508
 1255TIP3    H1 3706   4.480   6.349   2.529
 1255TIP3    H2 3707   4.506   6.208   2.578
 1256TIP3   OH2 3708   3.525   0.752   2.428
 1256TIP3    H1 3709   3.442   0.717   2.396
 1256TIP3    H2 3710   3.577   0.767   2.349
 1257TIP3   OH2 3711   6.582   5.203   6.510
 1257TIP3    H1 3712   6.500   5.153   6.512
 1257TIP3    H2 3713   6.554   5.294   6.513
 1258TIP3   OH2 3714   4.846   6.904   2.965
 1258TIP3    H1 3715   4.757   6.894   2.999
 1258TIP3    H2 3716   4.853   6.997   2.943
 1259TIP3   OH2 3717   7.530   3.632   1.110
 1259TIP3    H1 3718   7.478   3.567   1.157
 1259TIP3    H2 3719   7.478   3.654   1.033
 1260TIP3   OH2 3720   4.069   4.834   2.104
 1260TIP3    H1 3721   4.152   4.793   2.129
 1260TIP3    H2 3722   4.006   4.762   2.104
 1261TIP3   OH2 3723   6.673   5.556   5.627
 1261TIP3    H1 3724   6.723   5.551   5.709
 1261TIP3    H2 3725   6.714   5.491   5.570
 1262TIP3   OH2 3726   2.950   0.892   0.763
 1262TIP3    H1 3727   2.974   0.912   0.854
 1262TIP3    H2 3728   3.033   0.884   0.718
 1263TIP3   OH2 3729   0.056   7.300   4.479
 1263TIP3    H1 3730   0.028   7.227   4.534
 1263TIP3    H2 3731   0.049   7.377   4.535
 1264TIP3   OH2 3732   0.725   5.060   1.893
 1264TIP3    H1 3733   0.650   5.092   1.842
 1264TIP3    H2 3734   0.690   5.045   1.981
 1265TIP3   OH2 3735   4.699   5.523   2.901
 1265TIP3    H1 3736   4.763   5.477   2.956
 1265TIP3    H2 3737   4.703   5.614   2.932
 1266TIP3   OH2 3738   2.112   4.448   5.372
 1266TIP3    H1 3739   2.097   4.541   5.390
 1266TIP3    H2 3740   2.194   4.428   5.417
 1267TIP3   OH2 3741   5.218   2.147   2.836
 1267TIP3    H1 3742   5.191   2.055   2.842
 1267TIP3    H2 3743   5.313   2.145   2.849
 1268TIP3   OH2 3744   3.810   3.205   2.849
 1268TIP3    H1 3745   3.826   3.145   2.776
 1268TIP3    H2 3746   3.874   3.275   2.836
 1269TIP3   OH2 3747   1.699   1.216   5.748
 1269TIP3    H1 3748   1.611   1.240   5.719
 1269TIP3    H2 3749   1.729   1.290   5.799
 1270TIP3   OH2 3750   6.926   1.675   2.684
 1270TIP3    H1 3751   6.940   1.587   2.720
 1270TIP3    H2 3752   6.988   1.730   2.732
 1271TIP3   OH2 3753   2.156   6.575   5.128
 1271TIP3    H1 3754   2.191   6.606   5.211
 1271TIP3    H2 3755   2.170   6.647   5.067
 1272TIP3   OH2 3756   1.840   3.241   5.226
 1272TIP3    H1 3757   1.799   3.156   5.211
 1272TIP3    H2 3758   1.931   3.221   5.247
 1273TIP3   OH2 3759   1.406   6.027   6.634
 1273TIP3    H1 3760   1.475   6.082   6.597
 1273TIP3    H2 3761   1.416   5.942   6.591
 1274TIP3   OH2 3762   1.634   2.235   3.483
 1274TIP3    H1 3763   1.569   2.267   3.546
 1274TIP3    H2 3764   1.599   2.259   3.397
 1275TIP3   OH2 3765   1.439   5.232   0.222
 1275TIP3    H1 3766   1.391   5.150   0.212
 1275TIP3    H2 3767   1.376   5.293   0.260
 1276TIP3   OH2 3768   7.990   2.075   0.835
 1276TIP3    H1 3769   8.052   2.004   0.817
 1276TIP3    H2 3770   7.920   2.063   0.772
 1277TIP3   OH2 3771   5.074   7.106   5.540
 1277TIP3    H1 3772   5.091   7.012   5.535
 1277TIP3    H2 3773   5.064   7.134   5.450
 1278TIP3   OH2 3774   0.801   0.129   0.021
 1278TIP3    H1 3775   0.773   0.210   0.063
 1278TIP3    H2 3776   0.855   0.158  -0.053
 1279TIP3   OH2 3777   6.432   6.259   1.489
 1279TIP3    H1 3778   6.455   6.322   1.421
 1279TIP3    H2 3779   6.413   6.312   1.566
 1280TIP3   OH2 3780   0.216   1.170   3.621
 1280TIP3    H1 3781   0.310   1.170   3.640
 1280TIP3    H2 3782   0.179   1.233   3.683
 1281TIP3   OH2 3783   1.064   7.224   6.706
 1281TIP3    H1 3784   1.041   7.316   6.719
 1281TIP3    H2 3785   0.990   7.187   6.657
 1282TIP3   OH2 3786   5.533   4.302   0.411
 1282TIP3    H1 3787   5.466   4.346   0.359
 1282TIP3    H2 3788   5.591   4.372   0.440
 1283TIP3   OH2 3789   2.095   0.167   0.684
 1283TIP3    H1 3790   2.162   0.121   0.735
 1283TIP3    H2 3791   2.144   0.230   0.631
 1284TIP3   OH2 3792   1.496   6.911   5.170
 1284TIP3    H1 3793   1.403   6.905   5.147
 1284TIP3    H2 3794   1.541   6.863   5.101
 1285TIP3   OH2 3795   2.904   1.440   5.868
 1285TIP3    H1 3796   2.957   1.411   5.794
 1285TIP3    H2 3797   2.823   1.473   5.830
 1286TIP3   OH2 3798   6.757   2.302   3.423
 1286TIP3    H1 3799   6.811   2.314   3.345
 1286TIP3    H2 3800   6.724   2.389   3.443
 1287TIP3   OH2 3801   7.749   2.984   1.983
 1287TIP3    H1 3802   7.743   2.893   1.951
 1287TIP3    H2 3803   7.841   2.993   2.009
 1288TIP3   OH2 3804   3.440   3.749   3.164
 1288TIP3    H1 3805   3.432   3.663   3.122
 1288TIP3    H2 3806   3.506   3.795   3.112
 1289TIP3   OH2 3807   7.332   7.251   6.459
 1289TIP3    H1 3808   7.325   7.337   6.500
 1289TIP3    H2 3809   7.420   7.250   6.419
 1290TIP3   OH2 3810   3.168   3.717   1.343
 1290TIP3    H1 3811   3.181   3.705   1.249
 1290TIP3    H2 3812   3.231   3.786   1.367
 1291TIP3   OH2 3813   3.983   3.152   1.368
 1291TIP3    H1 3814   4.017   3.063   1.378
 1291TIP3    H2 3815   4.061   3.208   1.368
 1292TIP3   OH2 3816   5.977   1.504   0.103
 1292TIP3    H1 3817   5.932   1.490   0.187
 1292TIP3    H2 3818   6.042   1.571   0.121
 1293TIP3   OH2 3819   3.631   3.313   3.257
 1293TIP3    H1 3820   3.685   3.249   3.210
 1293TIP3    H2 3821   3.541   3.284   3.243
 1294TIP3   OH2 3822   3.987   5.605   0.616
 1294TIP3    H1 3823   3.976   5.694   0.584
 1294TIP3    H2 3824   3.973   5.549   0.539
 1295TIP3   OH2 3825   5.062   2.386   2.771
 1295TIP3    H1 3826   5.111   2.304   2.771
 1295TIP3    H2 3827   5.119   2.448   2.817
 1296TIP3   OH2 3828   8.379   5.851   4.276
 1296TIP3    H1 3829   8.457   5.808   4.310
 1296TIP3    H2 3830   8.320   5.856   4.351
 1297TIP3   OH2 3831   3.378   1.268   2.511
 1297TIP3    H1 3832   3.383   1.310   2.425
 1297TIP3    H2 3833   3.465   1.234   2.527
 1298TIP3   OH2 3834   5.214   5.161   5.516
 1298TIP3    H1 3835   5.201   5.090   5.579
 1298TIP3    H2 3836   5.183   5.126   5.433
 1299TIP3   OH2 3837   0.930   0.501   0.823
 1299TIP3    H1 3838   0.934   0.541   0.910
 1299TIP3    H2 3839   0.839   0.511   0.796
 1300TIP3   OH2 3840   0.537   2.850   2.549
 1300TIP3    H1 3841   0.543   2.803   2.633
 1300TIP3    H2 3842   0.569   2.938   2.569
 1301TIP3   OH2 3843   0.613   4.298   4.717
 1301TIP3    H1 3844   0.629   4.386   4.751
 1301TIP3    H2 3845   0.620   4.307   4.622
 1302TIP3   OH2 3846   3.391   3.696   3.768
 1302TIP3    H1 3847   3.342   3.655   3.839
 1302TIP3    H2 3848   3.440   3.624   3.728
 1303TIP3   OH2 3849   0.292   5.882   4.382
 1303TIP3    H1 3850   0.333   5.795   4.382
 1303TIP3    H2 3851   0.328   5.924   4.303
 1304TIP3   OH2 3852   0.909   1.719   3.247
 1304TIP3    H1 3853   1.005   1.717   3.250
 1304TIP3    H2 3854   0.888   1.721   3.154
 1305TIP3   OH2 3855   5.497   3.457   3.587
 1305TIP3    H1 3856   5.559   3.448   3.659
 1305TIP3    H2 3857   5.501   3.549   3.562
 1306TIP3   OH2 3858   8.308   6.316   4.699
 1306TIP3    H1 3859   8.343   6.255   4.763
 1306TIP3    H2 3860   8.341   6.286   4.614
 1307TIP3   OH2 3861   4.291   5.000   3.479
 1307TIP3    H1 3862   4.386   5.007   3.486
 1307TIP3    H2 3863   4.260   5.091   3.485
 1308TIP3   OH2 3864   5.198   1.686   5.229
 1308TIP3    H1 3865   5.180   1.648   5.315
 1308TIP3    H2 3866   5.212   1.779   5.247
 1309TIP3   OH2 3867   4.227   7.210   2.737
 1309TIP3    H1 3868   4.175   7.290   2.747
 1309TIP3    H2 3869   4.188   7.165   2.662
 1310TIP3   OH2 3870   4.218   1.410   3.952
 1310TIP3    H1 3871   4.147   1.462   3.915
 1310TIP3    H2 3872   4.210   1.422   4.047
 1311TIP3   OH2 3873   7.900   2.083   2.232
 1311TIP3    H1 3874   7.915   2.176   2.244
 1311TIP3    H2 3875   7.814   2.078   2.191
 1312TIP3   OH2 3876   5.635   7.474   2.592
 1312TIP3    H1 3877   5.594   7.544   2.642
 1312TIP3    H2 3878   5.705   7.517   2.543
 1313TIP3   OH2 3879   7.854   0.927   0.123
 1313TIP3    H1 3880   7.807   0.912   0.205
 1313TIP3    H2 3881   7.909   0.850   0.112
 1314TIP3   OH2 3882   3.535   5.254   6.329
 1314TIP3    H1 3883   3.484   5.322   6.374
 1314TIP3    H2 3884   3.626   5.281   6.338
 1315TIP3   OH2 3885   5.639   4.986   2.985
 1315TIP3    H1 3886   5.551   4.959   2.959
 1315TIP3    H2 3887   5.695   4.912   2.963
 1316TIP3   OH2 3888   2.970   5.166   0.766
 1316TIP3    H1 3889   2.994   5.257   0.783
 1316TIP3    H2 3890   2.875   5.167   0.756
 1317TIP3   OH2 3891   1.830   3.540   5.133
 1317TIP3    H1 3892   1.817   3.461   5.185
 1317TIP3    H2 3893   1.839   3.611   5.197
 1318TIP3   OH2 3894   4.754   5.699   0.863
 1318TIP3    H1 3895   4.823   5.654   0.911
 1318TIP3    H2 3896   4.783   5.790   0.858
 1319TIP3   OH2 3897   1.680   2.633   4.618
 1319TIP3    H1 3898   1.755   2.573   4.607
 1319TIP3    H2 3899   1.645   2.643   4.530
 1320TIP3   OH2 3900   7.254   6.185   0.410
 1320TIP3    H1 3901   7.347   6.203   0.421
 1320TIP3    H2 3902   7.233   6.224   0.324
 1321TIP3   OH2 3903   6.946   1.295   4.307
 1321TIP3    H1 3904   6.917   1.204   4.307
 1321TIP3    H2 3905   6.953   1.318   4.215
 1322TIP3   OH2 3906   2.732   5.299   0.385
 1322TIP3    H1 3907   2.824   5.292   0.359
 1322TIP3    H2 3908   2.697   5.211   0.373
 1323TIP3   OH2 3909   2.947   2.515   1.500
 1323TIP3    H1 3910   2.929   2.569   1.423
 1323TIP3    H2 3911   3.033   2.476   1.483
 1324TIP3   OH2 3912   0.147   0.845   0.049
 1324TIP3    H1 3913   0.238   0.873   0.034
 1324TIP3    H2 3914   0.146   0.753   0.021
 1325TIP3   OH2 3915   4.221   3.630   1.666
 1325TIP3    H1 3916   4.147   3.664   1.717
 1325TIP3    H2 3917   4.210   3.535   1.670
 1326TIP3   OH2 3918   5.086   4.600   1.671
 1326TIP3    H1 3919   5.065   4.639   1.586
 1326TIP3    H2 3920   5.166   4.550   1.655
 1327TIP3   OH2 3921   7.675   6.812   4.369
 1327TIP3    H1 3922   7.741   6.772   4.312
 1327TIP3    H2 3923   7.635   6.738   4.414
 1328TIP3   OH2 3924   1.686   2.038   3.649
 1328TIP3    H1 3925   1.778   2.016   3.666
 1328TIP3    H2 3926   1.689   2.121   3.601
 1329TIP3   OH2 3927   6.058   3.111   5.754
 1329TIP3    H1 3928   6.058   3.084   5.846
 1329TIP3    H2 3929   6.147   3.141   5.737
 1330TIP3   OH2 3930   4.394   2.869   5.244
 1330TIP3    H1 3931   4.435   2.833   5.165
 1330TIP3    H2 3932   4.363   2.793   5.292
 1331TIP3   OH2 3933   7.765   0.667   4.465
 1331TIP3    H1 3934   7.719   0.583   4.454
 1331TIP3    H2 3935   7.697   0.728   4.493
 1332TIP3   OH2 3936   3.392   6.012   0.965
 1332TIP3    H1 3937   3.311   5.987   0.922
 1332TIP3    H2 3938   3.387   6.107   0.972
 1333TIP3   OH2 3939   5.720   5.829   4.059
 1333TIP3    H1 3940   5.649   5.851   3.999
 1333TIP3    H2 3941   5.798   5.822   4.003
 1334TIP3   OH2 3942   2.275   3.041   0.608
 1334TIP3    H1 3943   2.238   2.965   0.652
 1334TIP3    H2 3944   2.211   3.111   0.622
 1335TIP3   OH2 3945   6.100   1.474   2.709
 1335TIP3    H1 3946   6.034   1.429   2.655
 1335TIP3    H2 3947   6.075   1.567   2.704
 1336TIP3   OH2 3948   0.991   5.315   1.766
 1336TIP3    H1 3949   0.900   5.341   1.750
 1336TIP3    H2 3950   1.014   5.261   1.690
 1337TIP3   OH2 3951   4.451   6.822   4.370
 1337TIP3    H1 3952   4.405   6.740   4.383
 1337TIP3    H2 3953   4.536   6.797   4.334
 1338TIP3   OH2 3954   2.202   3.471   6.764
 1338TIP3    H1 3955   2.192   3.454   6.671
 1338TIP3    H2 3956   2.177   3.388   6.806
 1339TIP3   OH2 3957   2.344   0.732   5.195
 1339TIP3    H1 3958   2.268   0.686   5.158
 1339TIP3    H2 3959   2.412   0.723   5.128
 1340TIP3   OH2 3960   6.443   3.434   4.225
 1340TIP3    H1 3961   6.396   3.424   4.308
 1340TIP3    H2 3962   6.531   3.463   4.251
 1341TIP3   OH2 3963   7.111   6.732   3.746
 1341TIP3    H1 3964   7.085   6.682   3.823
 1341TIP3    H2 3965   7.185   6.784   3.775
 1342TIP3   OH2 3966   1.978   4.727   5.535
 1342TIP3    H1 3967   1.894   4.682   5.524
 1342TIP3    H2 3968   1.956   4.809   5.580
 1343TIP3   OH2 3969   3.575   5.758   5.364
 1343TIP3    H1 3970   3.527   5.803   5.294
 1343TIP3    H2 3971   3.647   5.818   5.385
 1344TIP3   OH2 3972   0.565   4.511   6.705
 1344TIP3    H1 3973   0.592   4.419   6.712
 1344TIP3    H2 3974   0.522   4.529   6.788
 1345TIP3   OH2 3975   2.095   3.242   0.580
 1345TIP3    H1 3976   2.155   3.309   0.548
 1345TIP3    H2 3977   2.031   3.231   0.510
 1346TIP3   OH2 3978   2.066   1.169   3.010
 1346TIP3    H1 3979   2.089   1.145   3.100
 1346TIP3    H2 3980   2.113   1.105   2.956
 1347TIP3   OH2 3981   6.843   6.187   0.293
 1347TIP3    H1 3982   6.837   6.280   0.271
 1347TIP3    H2 3983   6.910   6.182   0.361
 1348TIP3   OH2 3984   2.021   7.336   1.969
 1348TIP3    H1 3985   2.029   7.301   2.058
 1348TIP3    H2 3986   2.022   7.431   1.980
 1349TIP3   OH2 3987   2.510   4.040   2.170
 1349TIP3    H1 3988   2.481   4.083   2.090
 1349TIP3    H2 3989   2.541   3.954   2.141
 1350TIP3   OH2 3990   5.755   4.760   3.819
 1350TIP3    H1 3991   5.831   4.815   3.805
 1350TIP3    H2 3992   5.693   4.816   3.865
 1351TIP3   OH2 3993   4.478   7.431   5.771
 1351TIP3    H1 3994   4.384   7.444   5.768
 1351TIP3    H2 3995   4.510   7.498   5.832
 1352TIP3   OH2 3996   2.120   6.817   0.279
 1352TIP3    H1 3997   2.210   6.837   0.305
 1352TIP3    H2 3998   2.086   6.761   0.349
 1353TIP3   OH2 3999   7.932   1.300   2.753
 1353TIP3    H1 4000   7.891   1.242   2.816
 1353TIP3    H2 4001   7.929   1.387   2.794
 1354TIP3   OH2 4002   2.559   0.815   4.480
 1354TIP3    H1 4003   2.565   0.909   4.495
 1354TIP3    H2 4004   2.534   0.807   4.388
 1355TIP3   OH2 4005   3.624   5.918   3.879
 1355TIP3    H1 4006   3.634   5.979   3.805
 1355TIP3    H2 4007   3.705   5.927   3.929
 1356TIP3   OH2 4008   2.363   3.833   6.069
 1356TIP3    H1 4009   2.372   3.862   6.160
 1356TIP3    H2 4010   2.342   3.913   6.021
 1357TIP3   OH2 4011   1.454   7.374   6.668
 1357TIP3    H1 4012   1.494   7.458   6.690
 1357TIP3    H2 4013   1.433   7.334   6.752
 1358TIP3   OH2 4014   1.161   4.363   6.603
 1358TIP3    H1 4015   1.244   4.338   6.564
 1358TIP3    H2 4016   1.153   4.456   6.585
 1359TIP3   OH2 4017   5.161   2.447   1.807
 1359TIP3    H1 4018   5.177   2.542   1.811
 1359TIP3    H2 4019   5.223   2.415   1.741
 1360TIP3   OH2 4020   6.013   2.014   5.317
 1360TIP3    H1 4021   5.992   2.051   5.231
 1360TIP3    H2 4022   6.033   2.090   5.372
 1361TIP3   OH2 4023   5.537   7.081   4.230
 1361TIP3    H1 4024   5.532   6.989   4.202
 1361TIP3    H2 4025   5.522   7.077   4.324
 1362TIP3   OH2 4026   7.284   5.986   1.227
 1362TIP3    H1 4027   7.269   6.005   1.134
 1362TIP3    H2 4028   7.345   6.054   1.256
 1363TIP3   OH2 4029   1.468   4.591   6.362
 1363TIP3    H1 4030   1.473   4.551   6.449
 1363TIP3    H2 4031   1.557   4.581   6.327
 1364TIP3   OH2 4032   7.451   4.723   6.709
 1364TIP3    H1 4033   7.476   4.633   6.730
 1364TIP3    H2 4034   7.528   4.775   6.733
 1365TIP3   OH2 4035   4.755   3.141   4.508
 1365TIP3    H1 4036   4.767   3.169   4.599
 1365TIP3    H2 4037   4.703   3.212   4.469
 1366TIP3   OH2 4038   2.657   5.504   5.466
 1366TIP3    H1 4039   2.574   5.480   5.425
 1366TIP3    H2 4040   2.723   5.486   5.400
 1367TIP3   OH2 4041   1.107   6.949   5.299
 1367TIP3    H1 4042   1.033   6.990   5.255
 1367TIP3    H2 4043   1.165   6.922   5.228
 1368TIP3   OH2 4044   1.176   1.046   3.769
 1368TIP3    H1 4045   1.265   1.034   3.735
 1368TIP3    H2 4046   1.145   1.126   3.727
 1369TIP3   OH2 4047   3.193   5.238   6.496
 1369TIP3    H1 4048   3.263   5.174   6.508
 1369TIP3    H2 4049   3.196   5.260   6.403
 1370TIP3   OH2 4050   4.082   2.485   1.762
 1370TIP3    H1 4051   4.156   2.453   1.814
 1370TIP3    H2 4052   4.116   2.490   1.673
 1371TIP3   OH2 4053   6.800   5.029   5.236
 1371TIP3    H1 4054   6.751   4.989   5.164
 1371TIP3    H2 4055   6.850   4.956   5.274
 1372TIP3   OH2 4056   2.885   0.204   1.166
 1372TIP3    H1 4057   2.805   0.256   1.174
 1372TIP3    H2 4058   2.858   0.125   1.119
 1373TIP3   OH2 4059   0.758   1.320   6.644
 1373TIP3    H1 4060   0.718   1.362   6.568
 1373TIP3    H2 4061   0.685   1.302   6.703
 1374TIP3   OH2 4062   6.396   3.618   5.170
 1374TIP3    H1 4063   6.397   3.639   5.263
 1374TIP3    H2 4064   6.396   3.523   5.166
 1375TIP3   OH2 4065   6.104   2.248   3.909
 1375TIP3    H1 4066   6.161   2.174   3.890
 1375TIP3    H2 4067   6.073   2.278   3.824
 1376TIP3   OH2 4068   2.056   0.364   1.639
 1376TIP3    H1 4069   2.020   0.412   1.564
 1376TIP3    H2 4070   2.001   0.286   1.647
 1377TIP3   OH2 4071   0.605   3.190   3.946
 1377TIP3    H1 4072   0.669   3.218   4.011
 1377TIP3    H2 4073   0.654   3.138   3.883
 1378TIP3   OH2 4074   0.591   6.420   1.322
 1378TIP3    H1 4075   0.621   6.364   1.394
 1378TIP3    H2 4076   0.506   6.384   1.297
 1379TIP3   OH2 4077   7.812   1.839   0.387
 1379TIP3    H1 4078   7.764   1.777   0.442
 1379TIP3    H2 4079   7.755   1.855   0.313
 1380TIP3   OH2 4080   1.069   2.509   2.568
 1380TIP3    H1 4081   1.053   2.415   2.557
 1380TIP3    H2 4082   1.134   2.530   2.501
 1381TIP3   OH2 4083   0.656   6.840   3.759
 1381TIP3    H1 4084   0.636   6.784   3.684
 1381TIP3    H2 4085   0.750   6.829   3.772
 1382TIP3   OH2 4086   1.325   2.310   5.267
 1382TIP3    H1 4087   1.272   2.234   5.239
 1382TIP3    H2 4088   1.398   2.311   5.205
 1383TIP3   OH2 4089   6.944   5.185   1.258
 1383TIP3    H1 4090   6.981   5.142   1.335
 1383TIP3    H2 4091   6.983   5.273   1.258
 1384TIP3   OH2 4092   0.349   4.604   5.712
 1384TIP3    H1 4093   0.402   4.539   5.758
 1384TIP3    H2 4094   0.367   4.686   5.758
 1385TIP3   OH2 4095   2.089   5.105   5.332
 1385TIP3    H1 4096   2.106   5.012   5.342
 1385TIP3    H2 4097   2.137   5.131   5.253
 1386TIP3   OH2 4098   1.136   3.850   0.882
 1386TIP3    H1 4099   1.226   3.880   0.889
 1386TIP3    H2 4100   1.100   3.862   0.970
 1387TIP3   OH2 4101   2.766   6.958   0.935
 1387TIP3    H1 4102   2.812   6.887   0.980
 1387TIP3    H2 4103   2.819   7.035   0.952
 1388TIP3   OH2 4104   7.869   3.114   5.813
 1388TIP3    H1 4105   7.856   3.120   5.718
 1388TIP3    H2 4106   7.781   3.120   5.850
 1389TIP3   OH2 4107   7.643   0.292   3.611
 1389TIP3    H1 4108   7.626   0.239   3.689
 1389TIP3    H2 4109   7.732   0.267   3.584
 1390TIP3   OH2 4110   1.743   4.750   2.440
 1390TIP3    H1 4111   1.810   4.732   2.506
 1390TIP3    H2 4112   1.764   4.837   2.407
 1391TIP3   OH2 4113   4.084  -0.012   1.055
 1391TIP3    H1 4114   4.019  -0.005   0.985
 1391TIP3    H2 4115   4.064   0.060   1.114
 1392TIP3   OH2 4116   3.514   7.778   0.289
 1392TIP3    H1 4117   3.440   7.736   0.334
 1392TIP3    H2 4118   3.524   7.863   0.332
 1393TIP3   OH2 4119   7.783   3.780   3.767
 1393TIP3    H1 4120   7.720   3.805   3.834
 1393TIP3    H2 4121   7.866   3.819   3.796
 1394TIP3   OH2 4122   7.615   0.206   1.454
 1394TIP3    H1 4123   7.703   0.174   1.437
 1394TIP3    H2 4124   7.578   0.145   1.518
 1395TIP3   OH2 4125   1.925   0.433   2.820
 1395TIP3    H1 4126   1.954   0.407   2.733
 1395TIP3    H2 4127   1.836   0.398   2.828
 1396TIP3   OH2 4128   8.113   3.405   0.137
 1396TIP3    H1 4129   8.177   3.361   0.193
 1396TIP3    H2 4130   8.062   3.459   0.197
 1397TIP3   OH2 4131   6.919   1.439   5.992
 1397TIP3    H1 4132   6.862   1.438   6.069
 1397TIP3    H2 4133   6.885   1.510   5.937
 1398TIP3   OH2 4134   2.832   7.050   5.843
 1398TIP3    H1 4135   2.920   7.033   5.809
 1398TIP3    H2 4136   2.845   7.118   5.909
 1399TIP3   OH2 4137   6.356   1.046   3.549
 1399TIP3    H1 4138   6.290   1.058   3.481
 1399TIP3    H2 4139   6.308   1.005   3.622
 1400TIP3   OH2 4140   7.950   2.846   5.845
 1400TIP3    H1 4141   8.037   2.845   5.805
 1400TIP3    H2 4142   7.921   2.937   5.838
 1401TIP3   OH2 4143   4.839   4.278   2.232
 1401TIP3    H1 4144   4.793   4.255   2.151
 1401TIP3    H2 4145   4.769   4.304   2.292
 1402TIP3   OH2 4146   1.295   6.996   0.050
 1402TIP3    H1 4147   1.258   7.082   0.070
 1402TIP3    H2 4148   1.220   6.945   0.020
 1403TIP3   OH2 4149   1.971   7.601   6.821
 1403TIP3    H1 4150   2.053   7.557   6.843
 1403TIP3    H2 4151   1.997   7.686   6.786
 1404TIP3   OH2 4152   2.040   0.154   3.284
 1404TIP3    H1 4153   2.110   0.132   3.345
 1404TIP3    H2 4154   2.066   0.113   3.201
 1405TIP3   OH2 4155   0.226   5.111   1.692
 1405TIP3    H1 4156   0.156   5.140   1.634
 1405TIP3    H2 4157   0.180   5.067   1.764
 1406TIP3   OH2 4158   1.763   5.881   6.100
 1406TIP3    H1 4159   1.832   5.941   6.130
 1406TIP3    H2 4160   1.700   5.879   6.172
 1407TIP3   OH2 4161   8.041   0.749   6.106
 1407TIP3    H1 4162   7.989   0.803   6.046
 1407TIP3    H2 4163   8.130   0.782   6.098
 1408TIP3   OH2 4164   2.732   2.807   3.047
 1408TIP3    H1 4165   2.810   2.821   3.101
 1408TIP3    H2 4166   2.705   2.896   3.021
 1409TIP3   OH2 4167   5.860   5.057   2.601
 1409TIP3    H1 4168   5.937   5.035   2.653
 1409TIP3    H2 4169   5.892   5.063   2.511
 1410TIP3   OH2 4170   4.746   5.303   0.715
 1410TIP3    H1 4171   4.728   5.210   0.702
 1410TIP3    H2 4172   4.688   5.328   0.787
 1411TIP3   OH2 4173   4.839   5.958   1.584
 1411TIP3    H1 4174   4.932   5.940   1.590
 1411TIP3    H2 4175   4.805   5.891   1.525
 1412TIP3   OH2 4176   2.060   3.787   4.539
 1412TIP3    H1 4177   1.988   3.740   4.497
 1412TIP3    H2 4178   2.092   3.727   4.605
 1413TIP3   OH2 4179   8.033   5.642   3.519
 1413TIP3    H1 4180   7.948   5.683   3.503
 1413TIP3    H2 4181   8.096   5.702   3.479
 1414TIP3   OH2 4182   6.953   4.786   3.125
 1414TIP3    H1 4183   6.908   4.802   3.042
 1414TIP3    H2 4184   6.884   4.791   3.191
 1415TIP3   OH2 4185   7.265   1.651   0.822
 1415TIP3    H1 4186   7.331   1.720   0.820
 1415TIP3    H2 4187   7.196   1.685   0.880
 1416TIP3   OH2 4188   1.467   6.827   4.539
 1416TIP3    H1 4189   1.510   6.869   4.465
 1416TIP3    H2 4190   1.375   6.819   4.512
 1417TIP3   OH2 4191   4.395   5.407   0.444
 1417TIP3    H1 4192   4.346   5.460   0.382
 1417TIP3    H2 4193   4.470   5.375   0.394
 1418TIP3   OH2 4194   2.447   6.038   2.817
 1418TIP3    H1 4195   2.370   6.039   2.760
 1418TIP3    H2 4196   2.416   5.996   2.897
 1419TIP3   OH2 4197   6.794   0.947   1.360
 1419TIP3    H1 4198   6.766   0.861   1.329
 1419TIP3    H2 4199   6.725   0.975   1.420
 1420TIP3   OH2 4200   2.979   7.038   6.251
 1420TIP3    H1 4201   3.070   7.059   6.270
 1420TIP3    H2 4202   2.979   7.012   6.159
 1421TIP3   OH2 4203   5.671   0.613   4.495
 1421TIP3    H1 4204   5.672   0.709   4.498
 1421TIP3    H2 4205   5.593   0.591   4.444
 1422TIP3   OH2 4206   2.104   5.320   6.217
 1422TIP3    H1 4207   2.168   5.308   6.287
 1422TIP3    H2 4208   2.128   5.255   6.151
 1423TIP3   OH2 4209   3.246   3.946   5.477
 1423TIP3    H1 4210   3.306   4.020   5.481
 1423TIP3    H2 4211   3.245   3.920   5.385
 1424TIP3   OH2 4212   4.252   2.095   6.804
 1424TIP3    H1 4213   4.284   2.179   6.837
 1424TIP3    H2 4214   4.240   2.042   6.883
 1425TIP3   OH2 4215   3.302   5.616   3.738
 1425TIP3    H1 4216   3.381   5.656   3.774
 1425TIP3    H2 4217   3.325   5.524   3.725
 1426TIP3   OH2 4218   6.146   0.980   3.730
 1426TIP3    H1 4219   6.164   0.910   3.793
 1426TIP3    H2 4220   6.096   1.045   3.781
 1427TIP3   OH2 4221   4.988   2.511   2.110
 1427TIP3    H1 4222   4.911   2.565   2.128
 1427TIP3    H2 4223   4.976   2.433   2.163
 1428TIP3   OH2 4224   5.333   4.952   3.495
 1428TIP3    H1 4225   5.380   4.882   3.542
 1428TIP3    H2 4226   5.354   4.937   3.403
 1429TIP3   OH2 4227   7.077   5.727   6.008
 1429TIP3    H1 4228   7.001   5.762   5.961
 1429TIP3    H2 4229   7.041   5.662   6.068
 1430TIP3   OH2 4230   3.984   7.431   6.164
 1430TIP3    H1 4231   4.015   7.410   6.252
 1430TIP3    H2 4232   3.968   7.526   6.166
 1431TIP3   OH2 4233   2.115   3.214   5.251
 1431TIP3    H1 4234   2.148   3.124   5.242
 1431TIP3    H2 4235   2.186   3.269   5.216
 1432TIP3   OH2 4236   0.393   1.483   1.264
 1432TIP3    H1 4237   0.409   1.460   1.173
 1432TIP3    H2 4238   0.428   1.409   1.314
 1433TIP3   OH2 4239   4.572   5.799   2.072
 1433TIP3    H1 4240   4.612   5.878   2.035
 1433TIP3    H2 4241   4.487   5.792   2.028
 1434TIP3   OH2 4242   3.233   3.149   1.726
 1434TIP3    H1 4243   3.231   3.086   1.797
 1434TIP3    H2 4244   3.246   3.096   1.647
 1435TIP3   OH2 4245   6.682   6.974   4.198
 1435TIP3    H1 4246   6.592   7.005   4.192
 1435TIP3    H2 4247   6.686   6.901   4.136
 1436TIP3   OH2 4248   0.727   2.760   6.579
 1436TIP3    H1 4249   0.780   2.712   6.643
 1436TIP3    H2 4250   0.636   2.742   6.605
 1437TIP3   OH2 4251   0.397   3.944   5.522
 1437TIP3    H1 4252   0.417   3.881   5.591
 1437TIP3    H2 4253   0.385   4.027   5.569
 1438TIP3   OH2 4254   0.690   6.037   3.203
 1438TIP3    H1 4255   0.709   5.961   3.147
 1438TIP3    H2 4256   0.748   6.027   3.278
 1439TIP3   OH2 4257   6.386   4.230   1.570
 1439TIP3    H1 4258   6.405   4.282   1.492
 1439TIP3    H2 4259   6.363   4.144   1.537
 1440TIP3   OH2 4260   5.649   1.942   2.288
 1440TIP3    H1 4261   5.660   1.853   2.255
 1440TIP3    H2 4262   5.578   1.979   2.235
 1441TIP3   OH2 4263   6.712   4.986   3.720
 1441TIP3    H1 4264   6.743   4.982   3.630
 1441TIP3    H2 4265   6.756   5.061   3.758
 1442TIP3   OH2 4266   0.537   3.448   6.092
 1442TIP3    H1 4267   0.465   3.476   6.035
 1442TIP3    H2 4268   0.608   3.509   6.073
 1443TIP3   OH2 4269   6.171   1.009   6.115
 1443TIP3    H1 4270   6.220   0.948   6.170
 1443TIP3    H2 4271   6.120   0.953   6.057
 1444TIP3   OH2 4272   7.851   6.510   2.958
 1444TIP3    H1 4273   7.794   6.458   3.013
 1444TIP3    H2 4274   7.820   6.600   2.968
 1445TIP3   OH2 4275   3.300   7.696   5.966
 1445TIP3    H1 4276   3.359   7.620   5.969
 1445TIP3    H2 4277   3.227   7.672   6.023
 1446TIP3   OH2 4278   1.315   5.714   3.517
 1446TIP3    H1 4279   1.266   5.685   3.440
 1446TIP3    H2 4280   1.282   5.803   3.534
 1447TIP3   OH2 4281   7.302   4.533   1.922
 1447TIP3    H1 4282   7.396   4.519   1.935
 1447TIP3    H2 4283   7.296   4.603   1.857
 1448TIP3   OH2 4284   4.598   0.561   3.293
 1448TIP3    H1 4285   4.508   0.534   3.313
 1448TIP3    H2 4286   4.624   0.614   3.368
 1449TIP3   OH2 4287   5.668   6.652   3.844
 1449TIP3    H1 4288   5.577   6.641   3.872
 1449TIP3    H2 4289   5.713   6.574   3.876
 1450TIP3   OH2 4290   2.265   2.661   5.301
 1450TIP3    H1 4291   2.308   2.702   5.376
 1450TIP3    H2 4292   2.224   2.734   5.254
 1451TIP3   OH2 4293   6.255   4.911   2.142
 1451TIP3    H1 4294   6.328   4.930   2.201
 1451TIP3    H2 4295   6.285   4.940   2.056
 1452TIP3   OH2 4296   4.524   4.792   0.079
 1452TIP3    H1 4297   4.495   4.782  -0.012
 1452TIP3    H2 4298   4.528   4.887   0.092
 1453TIP3   OH2 4299   6.985   1.000   0.724
 1453TIP3    H1 4300   6.894   0.996   0.694
 1453TIP3    H2 4301   7.029   1.059   0.663
 1454TIP3   OH2 4302   3.329   2.973   1.203
 1454TIP3    H1 4303   3.331   3.052   1.149
 1454TIP3    H2 4304   3.318   3.006   1.293
 1455TIP3   OH2 4305   4.114   6.212   4.191
 1455TIP3    H1 4306   4.162   6.178   4.116
 1455TIP3    H2 4307   4.108   6.137   4.251
 1456TIP3   OH2 4308   5.761   4.476   6.636
 1456TIP3    H1 4309   5.801   4.394   6.607
 1456TIP3    H2 4310   5.707   4.503   6.562
 1457TIP3   OH2 4311   7.438   6.183   6.419
 1457TIP3    H1 4312   7.523   6.169   6.376
 1457TIP3    H2 4313   7.426   6.107   6.475
 1458TIP3   OH2 4314   7.133   2.097   1.345
 1458TIP3    H1 4315   7.106   2.103   1.436
 1458TIP3    H2 4316   7.197   2.025   1.344
 1459TIP3   OH2 4317   0.292   0.897   3.077
 1459TIP3    H1 4318   0.387   0.895   3.089
 1459TIP3    H2 4319   0.271   0.990   3.067
 1460TIP3   OH2 4320   7.546   6.995   3.308
 1460TIP3    H1 4321   7.468   6.940   3.310
 1460TIP3    H2 4322   7.610   6.946   3.361
 1461TIP3   OH2 4323   5.862   3.704   4.684
 1461TIP3    H1 4324   5.808   3.687   4.607
 1461TIP3    H2 4325   5.816   3.773   4.731
 1462TIP3   OH2 4326   6.195   3.504   4.067
 1462TIP3    H1 4327   6.161   3.586   4.105
 1462TIP3    H2 4328   6.287   3.501   4.094
 1463TIP3   OH2 4329   2.550   2.802   6.286
 1463TIP3    H1 4330   2.561   2.708   6.299
 1463TIP3    H2 4331   2.461   2.811   6.250
 1464TIP3   OH2 4332   5.448   0.064   2.773
 1464TIP3    H1 4333   5.543   0.051   2.771
 1464TIP3    H2 4334   5.425   0.092   2.685
 1465TIP3   OH2 4335   6.978   1.428   3.073
 1465TIP3    H1 4336   6.945   1.517   3.066
 1465TIP3    H2 4337   7.017   1.423   3.160
 1466TIP3   OH2 4338   6.967   3.462   4.556
 1466TIP3    H1 4339   6.899   3.526   4.578
 1466TIP3    H2 4340   6.920   3.386   4.523
 1467TIP3   OH2 4341   1.816   3.515   0.191
 1467TIP3    H1 4342   1.769   3.549   0.267
 1467TIP3    H2 4343   1.752   3.459   0.146
 1468TIP3   OH2 4344   7.064   2.773   0.703
 1468TIP3    H1 4345   7.037   2.717   0.776
 1468TIP3    H2 4346   6.984   2.792   0.655
 1469TIP3   OH2 4347   0.103   4.843   1.842
 1469TIP3    H1 4348   0.022   4.798   1.863
 1469TIP3    H2 4349   0.127   4.809   1.755
 1470TIP3   OH2 4350   7.361   2.822   2.166
 1470TIP3    H1 4351   7.337   2.776   2.246
 1470TIP3    H2 4352   7.378   2.752   2.103
 1471TIP3   OH2 4353   7.011   6.329   5.163
 1471TIP3    H1 4354   7.087   6.270   5.160
 1471TIP3    H2 4355   6.941   6.280   5.120
 1472TIP3   OH2 4356   5.950   5.654   0.390
 1472TIP3    H1 4357   5.889   5.727   0.378
 1472TIP3    H2 4358   6.035   5.688   0.364
 1473TIP3   OH2 4359   0.647   2.721   1.720
 1473TIP3    H1 4360   0.728   2.689   1.680
 1473TIP3    H2 4361   0.615   2.648   1.773
 1474TIP3   OH2 4362   0.120   3.777   6.711
 1474TIP3    H1 4363   0.026   3.781   6.692
 1474TIP3    H2 4364   0.146   3.868   6.725
 1475TIP3   OH2 4365   5.595   0.490   1.153
 1475TIP3    H1 4366   5.619   0.421   1.092
 1475TIP3    H2 4367   5.564   0.444   1.231
 1476TIP3   OH2 4368   1.780   2.713   6.217
 1476TIP3    H1 4369   1.818   2.729   6.303
 1476TIP3    H2 4370   1.821   2.632   6.187
 1477TIP3   OH2 4371   5.311   6.072   4.508
 1477TIP3    H1 4372   5.244   6.089   4.574
 1477TIP3    H2 4373   5.268   6.012   4.446
 1478TIP3   OH2 4374   0.735   2.411   0.750
 1478TIP3    H1 4375   0.701   2.365   0.828
 1478TIP3    H2 4376   0.656   2.431   0.699
 1479TIP3   OH2 4377   4.428   2.036   0.812
 1479TIP3    H1 4378   4.377   1.973   0.862
 1479TIP3    H2 4379   4.418   2.118   0.861
 1480TIP3   OH2 4380   6.771   5.997   2.165
 1480TIP3    H1 4381   6.775   6.059   2.238
 1480TIP3    H2 4382   6.682   6.005   2.131
 1481TIP3   OH2 4383   1.145   1.099   4.987
 1481TIP3    H1 4384   1.115   1.130   5.072
 1481TIP3    H2 4385   1.206   1.028   5.007
 1482TIP3   OH2 4386   2.565   6.670   2.118
 1482TIP3    H1 4387   2.609   6.627   2.044
 1482TIP3    H2 4388   2.537   6.598   2.174
 1483TIP3   OH2 4389   5.750   4.206   3.734
 1483TIP3    H1 4390   5.773   4.115   3.755
 1483TIP3    H2 4391   5.814   4.259   3.782
 1484TIP3   OH2 4392   0.196   5.660   1.837
 1484TIP3    H1 4393   0.226   5.726   1.776
 1484TIP3    H2 4394   0.100   5.660   1.828
 1485TIP3   OH2 4395   7.945   2.654   6.787
 1485TIP3    H1 4396   8.010   2.587   6.765
 1485TIP3    H2 4397   7.993   2.737   6.780
 1486TIP3   OH2 4398   3.286   1.632   6.029
 1486TIP3    H1 4399   3.284   1.671   5.942
 1486TIP3    H2 4400   3.377   1.606   6.042
 1487TIP3   OH2 4401   1.142   7.407   0.885
 1487TIP3    H1 4402   1.224   7.387   0.839
 1487TIP3    H2 4403   1.148   7.500   0.905
 1488TIP3   OH2 4404   4.003   6.148   2.186
 1488TIP3    H1 4405   3.971   6.115   2.270
 1488TIP3    H2 4406   4.042   6.233   2.207
 1489TIP3   OH2 4407   2.816   1.915   5.524
 1489TIP3    H1 4408   2.759   1.919   5.601
 1489TIP3    H2 4409   2.905   1.923   5.559
 1490TIP3   OH2 4410   1.838   5.393   2.103
 1490TIP3    H1 4411   1.815   5.300   2.113
 1490TIP3    H2 4412   1.912   5.406   2.162
 1491TIP3   OH2 4413  -0.011   3.608   0.857
 1491TIP3    H1 4414   0.007   3.516   0.877
 1491TIP3    H2 4415   0.071   3.641   0.820
 1492TIP3   OH2 4416   1.054   5.036   4.442
 1492TIP3    H1 4417   1.012   5.038   4.528
 1492TIP3    H2 4418   1.020   4.956   4.401
 1493TIP3   OH2 4419   2.120   2.606   2.440
 1493TIP3    H1 4420   2.076   2.555   2.508
 1493TIP3    H2 4421   2.057   2.608   2.367
 1494TIP3   OH2 4422   6.877   3.416   4.899
 1494TIP3    H1 4423   6.843   3.434   4.987
 1494TIP3    H2 4424   6.965   3.381   4.914
 1495TIP3   OH2 4425   4.498   6.422   6.341
 1495TIP3    H1 4426   4.509   6.477   6.264
 1495TIP3    H2 4427   4.577   6.369   6.344
 1496TIP3   OH2 4428   0.033   6.388   1.028
 1496TIP3    H1 4429   0.066   6.318   0.972
 1496TIP3    H2 4430   0.112   6.434   1.057
 1497TIP3   OH2 4431   6.959   6.539   2.520
 1497TIP3    H1 4432   6.894   6.504   2.459
 1497TIP3    H2 4433   6.939   6.633   2.524
 1498TIP3   OH2 4434   6.733   5.838   3.524
 1498TIP3    H1 4435   6.789   5.869   3.452
 1498TIP3    H2 4436   6.650   5.814   3.482
 1499TIP3   OH2 4437   6.485   0.561   2.786
 1499TIP3    H1 4438   6.536   0.548   2.866
 1499TIP3    H2 4439   6.398   0.526   2.807
 1500TIP3   OH2 4440   6.167   5.289   4.067
 1500TIP3    H1 4441   6.127   5.299   4.153
 1500TIP3    H2 4442   6.163   5.377   4.029
 1501TIP3   OH2 4443   8.098   3.315   5.827
 1501TIP3    H1 4444   8.055   3.241   5.785
 1501TIP3    H2 4445   8.029   3.379   5.840
 1502TIP3   OH2 4446   7.863   4.876   6.315
 1502TIP3    H1 4447   7.903   4.852   6.232
 1502TIP3    H2 4448   7.910   4.954   6.343
 1503TIP3   OH2 4449   5.976   0.529   3.559
 1503TIP3    H1 4450   5.884   0.531   3.587
 1503TIP3    H2 4451   6.006   0.619   3.568
 1504TIP3   OH2 4452   8.149   7.829   0.379
 1504TIP3    H1 4453   8.234   7.800   0.412
 1504TIP3    H2 4454   8.113   7.884   0.449
 1505TIP3   OH2 4455   7.453   5.037   2.725
 1505TIP3    H1 4456   7.458   5.131   2.738
 1505TIP3    H2 4457   7.505   5.000   2.796
 1506TIP3   OH2 4458   3.609   3.500   6.571
 1506TIP3    H1 4459   3.667   3.570   6.541
 1506TIP3    H2 4460   3.545   3.489   6.500
 1507TIP3   OH2 4461   2.456   7.594   0.192
 1507TIP3    H1 4462   2.440   7.646   0.271
 1507TIP3    H2 4463   2.436   7.654   0.120
 1508TIP3   OH2 4464   5.006   0.953   6.184
 1508TIP3    H1 4465   5.037   0.881   6.130
 1508TIP3    H2 4466   5.079   1.016   6.185
 1509TIP3   OH2 4467   7.095   0.968   1.409
 1509TIP3    H1 4468   7.146   0.987   1.330
 1509TIP3    H2 4469   7.044   0.890   1.386
 1510TIP3   OH2 4470   4.696   1.148   2.125
 1510TIP3    H1 4471   4.656   1.061   2.133
 1510TIP3    H2 4472   4.760   1.151   2.197
 1511TIP3   OH2 4473   3.864   3.483   4.297
 1511TIP3    H1 4474   3.939   3.541   4.310
 1511TIP3    H2 4475   3.804   3.505   4.369
 1512TIP3   OH2 4476   4.123   2.895   2.389
 1512TIP3    H1 4477   4.197   2.951   2.415
 1512TIP3    H2 4478   4.079   2.875   2.472
 1513TIP3   OH2 4479   5.508   5.277   5.799
 1513TIP3    H1 4480   5.497   5.209   5.732
 1513TIP3    H2 4481   5.509   5.359   5.749
 1514TIP3   OH2 4482   0.195   7.755   3.742
 1514TIP3    H1 4483   0.226   7.834   3.699
 1514TIP3    H2 4484   0.100   7.760   3.737
 1515TIP3   OH2 4485   4.417   2.600   0.223
 1515TIP3    H1 4486   4.432   2.614   0.130
 1515TIP3    H2 4487   4.321   2.594   0.232
 1516TIP3   OH2 4488   1.855   4.031   2.895
 1516TIP3    H1 4489   1.920   4.095   2.921
 1516TIP3    H2 4490   1.837   3.981   2.975
 1517TIP3   OH2 4491   7.383   7.816   5.041
 1517TIP3    H1 4492   7.308   7.774   4.998
 1517TIP3    H2 4493   7.350   7.901   5.070
 1518TIP3   OH2 4494   4.542   3.829   2.774
 1518TIP3    H1 4495   4.513   3.805   2.686
 1518TIP3    H2 4496   4.510   3.918   2.786
 1519TIP3   OH2 4497   7.335   5.382   2.407
 1519TIP3    H1 4498   7.431   5.386   2.403
 1519TIP3    H2 4499   7.307   5.386   2.315
 1520TIP3   OH2 4500   4.946   3.929   5.469
 1520TIP3    H1 4501   5.001   3.994   5.423
 1520TIP3    H2 4502   4.879   3.905   5.405
 1521TIP3   OH2 4503   3.553   0.825   6.760
 1521TIP3    H1 4504   3.646   0.813   6.742
 1521TIP3    H2 4505   3.516   0.860   6.678
 1522TIP3   OH2 4506   6.782   1.796   4.558
 1522TIP3    H1 4507   6.871   1.805   4.593
 1522TIP3    H2 4508   6.789   1.725   4.494
 1523TIP3   OH2 4509   2.487   4.194   0.410
 1523TIP3    H1 4510   2.404   4.236   0.434
 1523TIP3    H2 4511   2.552   4.239   0.464
 1524TIP3   OH2 4512   7.186   3.495   2.510
 1524TIP3    H1 4513   7.186   3.466   2.602
 1524TIP3    H2 4514   7.113   3.557   2.505
 1525TIP3   OH2 4515   2.971   0.879   6.063
 1525TIP3    H1 4516   2.917   0.866   5.985
 1525TIP3    H2 4517   2.980   0.973   6.071
 1526TIP3   OH2 4518   0.147   4.601   5.933
 1526TIP3    H1 4519   0.095   4.681   5.937
 1526TIP3    H2 4520   0.225   4.625   5.885
 1527TIP3   OH2 4521   5.325   6.364   3.850
 1527TIP3    H1 4522   5.341   6.270   3.854
 1527TIP3    H2 4523   5.265   6.374   3.775
 1528TIP3   OH2 4524   6.948   6.329   3.491
 1528TIP3    H1 4525   6.896   6.379   3.428
 1528TIP3    H2 4526   6.901   6.246   3.500
 1529TIP3   OH2 4527   4.752   5.597   0.612
 1529TIP3    H1 4528   4.695   5.522   0.631
 1529TIP3    H2 4529   4.767   5.638   0.698
 1530TIP3   OH2 4530   4.530   7.391   0.865
 1530TIP3    H1 4531   4.621   7.367   0.880
 1530TIP3    H2 4532   4.499   7.330   0.798
 1531TIP3   OH2 4533   0.280   7.121   6.168
 1531TIP3    H1 4534   0.260   7.029   6.186
 1531TIP3    H2 4535   0.317   7.121   6.080
 1532TIP3   OH2 4536   6.548   3.207   5.030
 1532TIP3    H1 4537   6.529   3.116   5.049
 1532TIP3    H2 4538   6.629   3.226   5.078
 1533TIP3   OH2 4539   2.836   7.679   4.079
 1533TIP3    H1 4540   2.765   7.628   4.041
 1533TIP3    H2 4541   2.853   7.638   4.164
 1534TIP3   OH2 4542   7.793   7.649   1.008
 1534TIP3    H1 4543   7.717   7.637   0.951
 1534TIP3    H2 4544   7.853   7.702   0.957
 1535TIP3   OH2 4545   0.943   0.102   4.481
 1535TIP3    H1 4546   0.858   0.074   4.515
 1535TIP3    H2 4547   0.986   0.145   4.555
 1536TIP3   OH2 4548   1.352   3.805   3.269
 1536TIP3    H1 4549   1.414   3.862   3.224
 1536TIP3    H2 4550   1.342   3.843   3.356
 1537TIP3   OH2 4551   1.866   0.723   4.639
 1537TIP3    H1 4552   1.842   0.756   4.726
 1537TIP3    H2 4553   1.798   0.661   4.616
 1538TIP3   OH2 4554   0.490   5.953   2.318
 1538TIP3    H1 4555   0.505   5.871   2.365
 1538TIP3    H2 4556   0.407   5.939   2.272
 1539TIP3   OH2 4557   4.483   0.083   5.977
 1539TIP3    H1 4558   4.421   0.098   6.049
 1539TIP3    H2 4559   4.488   0.166   5.931
 1540TIP3   OH2 4560   0.195   1.392   4.274
 1540TIP3    H1 4561   0.200   1.297   4.270
 1540TIP3    H2 4562   0.248   1.422   4.201
 1541TIP3   OH2 4563   5.195   7.684   2.827
 1541TIP3    H1 4564   5.191   7.610   2.888
 1541TIP3    H2 4565   5.199   7.644   2.741
 1542TIP3   OH2 4566   5.397   5.470   1.207
 1542TIP3    H1 4567   5.435   5.390   1.173
 1542TIP3    H2 4568   5.472   5.522   1.237
 1543TIP3   OH2 4569   1.884   0.004   0.622
 1543TIP3    H1 4570   1.950   0.072   0.631
 1543TIP3    H2 4571   1.921  -0.057   0.558
 1544TIP3   OH2 4572   1.287   3.542   4.611
 1544TIP3    H1 4573   1.296   3.590   4.529
 1544TIP3    H2 4574   1.354   3.474   4.607
 1545TIP3   OH2 4575   6.609   4.202   3.037
 1545TIP3    H1 4576   6.643   4.169   2.955
 1545TIP3    H2 4577   6.680   4.186   3.101
 1546TIP3   OH2 4578   3.258   6.132   0.052
 1546TIP3    H1 4579   3.311   6.155   0.129
 1546TIP3    H2 4580   3.171   6.167   0.072
 1547TIP3   OH2 4581   6.147   2.564   1.504
 1547TIP3    H1 4582   6.187   2.596   1.585
 1547TIP3    H2 4583   6.057   2.543   1.527
 1548TIP3   OH2 4584   4.758   4.778   2.799
 1548TIP3    H1 4585   4.838   4.827   2.777
 1548TIP3    H2 4586   4.695   4.805   2.733
 1549TIP3   OH2 4587   6.286   7.136   1.323
 1549TIP3    H1 4588   6.335   7.058   1.349
 1549TIP3    H2 4589   6.312   7.203   1.385
 1550TIP3   OH2 4590   6.729   2.741   6.009
 1550TIP3    H1 4591   6.716   2.652   5.976
 1550TIP3    H2 4592   6.815   2.738   6.052
 1551TIP3   OH2 4593   4.409   2.422   2.310
 1551TIP3    H1 4594   4.455   2.416   2.225
 1551TIP3    H2 4595   4.411   2.516   2.331
 1552TIP3   OH2 4596   7.749   1.122   2.570
 1552TIP3    H1 4597   7.747   1.217   2.565
 1552TIP3    H2 4598   7.840   1.098   2.551
 1553TIP3   OH2 4599   7.845   3.883   5.144
 1553TIP3    H1 4600   7.750   3.874   5.155
 1553TIP3    H2 4601   7.862   3.848   5.056
 1554TIP3   OH2 4602   4.564   7.727   4.134
 1554TIP3    H1 4603   4.483   7.751   4.180
 1554TIP3    H2 4604   4.604   7.660   4.189
 1555TIP3   OH2 4605   4.938   4.833  -0.016
 1555TIP3    H1 4606   4.936   4.804   0.075
 1555TIP3    H2 4607   4.977   4.920  -0.013
 1556TIP3   OH2 4608   5.582   6.970   1.654
 1556TIP3    H1 4609   5.656   7.010   1.608
 1556TIP3    H2 4610   5.534   6.924   1.585
 1557TIP3   OH2 4611   5.689   6.701   3.270
 1557TIP3    H1 4612   5.784   6.712   3.263
 1557TIP3    H2 4613   5.670   6.722   3.361
 1558TIP3   OH2 4614   3.760   0.119   1.311
 1558TIP3    H1 4615   3.703   0.194   1.329
 1558TIP3    H2 4616   3.718   0.074   1.237
 1559TIP3   OH2 4617   2.736   1.077   1.364
 1559TIP3    H1 4618   2.674   1.131   1.315
 1559TIP3    H2 4619   2.822   1.103   1.330
 1560TIP3   OH2 4620   8.039   3.817   2.049
 1560TIP3    H1 4621   8.055   3.724   2.040
 1560TIP3    H2 4622   8.050   3.853   1.961
 1561TIP3   OH2 4623   0.847   4.825   2.743
 1561TIP3    H1 4624   0.878   4.913   2.762
 1561TIP3    H2 4625   0.758   4.822   2.778
 1562TIP3   OH2 4626   2.491   3.099   2.704
 1562TIP3    H1 4627   2.502   3.192   2.721
 1562TIP3    H2 4628   2.447   3.094   2.619
 1563TIP3   OH2 4629   1.220   4.418   5.940
 1563TIP3    H1 4630   1.310   4.406   5.910
 1563TIP3    H2 4631   1.227   4.478   6.014
 1564TIP3   OH2 4632   5.972   3.414   2.320
 1564TIP3    H1 4633   5.957   3.508   2.313
 1564TIP3    H2 4634   5.950   3.380   2.234
 1565TIP3   OH2 4635   0.540   0.374   3.974
 1565TIP3    H1 4636   0.583   0.288   3.972
 1565TIP3    H2 4637   0.502   0.380   4.061
 1566TIP3   OH2 4638   6.549   4.865   6.049
 1566TIP3    H1 4639   6.631   4.860   6.098
 1566TIP3    H2 4640   6.482   4.834   6.110
 1567TIP3   OH2 4641   1.714   3.069   1.141
 1567TIP3    H1 4642   1.758   3.109   1.067
 1567TIP3    H2 4643   1.748   3.116   1.218
 1568TIP3   OH2 4644   0.533   1.381   6.779
 1568TIP3    H1 4645   0.479   1.316   6.825
 1568TIP3    H2 4646   0.472   1.423   6.718
 1569TIP3   OH2 4647   4.264   1.429   1.764
 1569TIP3    H1 4648   4.336   1.462   1.712
 1569TIP3    H2 4649   4.284   1.455   1.854
 1570TIP3   OH2 4650   7.719   7.380   2.442
 1570TIP3    H1 4651   7.692   7.398   2.352
 1570TIP3    H2 4652   7.644   7.335   2.481
 1571TIP3   OH2 4653   1.711   5.040   1.677
 1571TIP3    H1 4654   1.639   5.031   1.614
 1571TIP3    H2 4655   1.770   5.103   1.636
 1572TIP3   OH2 4656   2.035   6.068  -0.019
 1572TIP3    H1 4657   2.070   6.139   0.036
 1572TIP3    H2 4658   1.971   6.025   0.037
 1573TIP3   OH2 4659   1.858   6.772   3.414
 1573TIP3    H1 4660   1.885   6.695   3.465
 1573TIP3    H2 4661   1.778   6.743   3.369
 1574TIP3   OH2 4662   3.867   6.169   3.053
 1574TIP3    H1 4663   3.775   6.192   3.069
 1574TIP3    H2 4664   3.889   6.111   3.127
 1575TIP3   OH2 4665   4.339   5.847   1.900
 1575TIP3    H1 4666   4.319   5.922   1.955
 1575TIP3    H2 4667   4.367   5.885   1.817
 1576TIP3   OH2 4668   4.849   7.905   3.409
 1576TIP3    H1 4669   4.894   7.981   3.445
 1576TIP3    H2 4670   4.913   7.865   3.350
 1577TIP3   OH2 4671   7.997   3.071   1.667
 1577TIP3    H1 4672   7.922   3.061   1.609
 1577TIP3    H2 4673   8.038   2.985   1.669
 1578TIP3   OH2 4674   0.402   6.949   0.076
 1578TIP3    H1 4675   0.329   6.946   0.014
 1578TIP3    H2 4676   0.472   6.899   0.035
 1579TIP3   OH2 4677   4.693   4.299   4.013
 1579TIP3    H1 4678   4.644   4.314   3.933
 1579TIP3    H2 4679   4.723   4.386   4.039
 1580TIP3   OH2 4680   8.153   7.243   5.384
 1580TIP3    H1 4681   8.194   7.194   5.313
 1580TIP3    H2 4682   8.080   7.289   5.343
 1581TIP3   OH2 4683   3.664   7.437   0.048
 1581TIP3    H1 4684   3.708   7.518   0.023
 1581TIP3    H2 4685   3.677   7.378  -0.026
 1582TIP3   OH2 4686   7.425   3.715   0.435
 1582TIP3    H1 4687   7.451   3.634   0.389
 1582TIP3    H2 4688   7.486   3.781   0.402
 1583TIP3   OH2 4689   3.288   7.250   0.409
 1583TIP3    H1 4690   3.215   7.250   0.471
 1583TIP3    H2 4691   3.341   7.326   0.436
 1584TIP3   OH2 4692   3.405   2.652   3.872
 1584TIP3    H1 4693   3.402   2.666   3.967
 1584TIP3    H2 4694   3.461   2.575   3.861
 1585TIP3   OH2 4695   1.808   7.441   1.506
 1585TIP3    H1 4696   1.866   7.412   1.436
 1585TIP3    H2 4697   1.738   7.376   1.509
 1586TIP3   OH2 4698   0.577   1.808   2.336
 1586TIP3    H1 4699   0.563   1.736   2.274
 1586TIP3    H2 4700   0.490   1.846   2.349
 1587TIP3   OH2 4701   0.867   3.591   0.376
 1587TIP3    H1 4702   0.788   3.636   0.347
 1587TIP3    H2 4703   0.903   3.550   0.297
 1588TIP3   OH2 4704   5.825   0.172   2.083
 1588TIP3    H1 4705   5.794   0.126   2.005
 1588TIP3    H2 4706   5.846   0.260   2.053
 1589TIP3   OH2 4707   5.072   5.924   5.925
 1589TIP3    H1 4708   4.980   5.949   5.934
 1589TIP3    H2 4709   5.095   5.885   6.010
 1590TIP3   OH2 4710   7.728   5.103   1.076
 1590TIP3    H1 4711   7.805   5.093   1.132
 1590TIP3    H2 4712   7.702   5.013   1.055
 1591TIP3   OH2 4713   6.690   7.330   4.305
 1591TIP3    H1 4714   6.696   7.415   4.262
 1591TIP3    H2 4715   6.781   7.302   4.315
 1592TIP3   OH2 4716   5.934   3.087   0.686
 1592TIP3    H1 4717   5.872   3.145   0.641
 1592TIP3    H2 4718   5.915   3.000   0.651
 1593TIP3   OH2 4719   5.205   6.052   0.338
 1593TIP3    H1 4720   5.298   6.065   0.359
 1593TIP3    H2 4721   5.178   6.136   0.300
 1594TIP3   OH2 4722   7.411   0.498   4.229
 1594TIP3    H1 4723   7.404   0.579   4.178
 1594TIP3    H2 4724   7.406   0.527   4.320
 1595TIP3   OH2 4725   1.384   6.722   0.350
 1595TIP3    H1 4726   1.429   6.799   0.385
 1595TIP3    H2 4727   1.419   6.648   0.400
 1596TIP3   OH2 4728   3.318   4.019   2.417
 1596TIP3    H1 4729   3.340   4.111   2.403
 1596TIP3    H2 4730   3.256   3.998   2.347
 1597TIP3   OH2 4731   1.363   1.004   6.274
 1597TIP3    H1 4732   1.400   0.945   6.208
 1597TIP3    H2 4733   1.350   0.948   6.351
 1598TIP3   OH2 4734   7.393   1.503   4.958
 1598TIP3    H1 4735   7.345   1.424   4.985
 1598TIP3    H2 4736   7.383   1.505   4.863
 1599TIP3   OH2 4737   5.944   4.115   6.185
 1599TIP3    H1 4738   5.848   4.107   6.192
 1599TIP3    H2 4739   5.967   4.060   6.110
 1600TIP3   OH2 4740   4.513   5.082   2.328
 1600TIP3    H1 4741   4.566   5.089   2.408
 1600TIP3    H2 4742   4.502   5.172   2.300
 1601TIP3   OH2 4743   4.270   0.937   5.490
 1601TIP3    H1 4744   4.346   0.962   5.543
 1601TIP3    H2 4745   4.258   0.844   5.508
 1602TIP3   OH2 4746   5.916   1.934   4.564
 1602TIP3    H1 4747   5.981   1.866   4.582
 1602TIP3    H2 4748   5.967   2.014   4.549
 1603TIP3   OH2 4749   7.870   0.080   3.173
 1603TIP3    H1 4750   7.783   0.101   3.139
 1603TIP3    H2 4751   7.855   0.008   3.235
 1604TIP3   OH2 4752   6.928   3.817   0.717
 1604TIP3    H1 4753   6.969   3.800   0.632
 1604TIP3    H2 4754   6.849   3.866   0.696
 1605TIP3   OH2 4755   2.659   6.135   3.562
 1605TIP3    H1 4756   2.686   6.095   3.479
 1605TIP3    H2 4757   2.692   6.076   3.630
 1606TIP3   OH2 4758   8.216   3.657   1.841
 1606TIP3    H1 4759   8.293   3.688   1.793
 1606TIP3    H2 4760   8.243   3.573   1.878
 1607TIP3   OH2 4761   6.558   6.755   2.893
 1607TIP3    H1 4762   6.496   6.751   2.820
 1607TIP3    H2 4763   6.514   6.810   2.958
 1608TIP3   OH2 4764   6.586   0.257   4.261
 1608TIP3    H1 4765   6.650   0.186   4.276
 1608TIP3    H2 4766   6.519   0.217   4.206
 1609TIP3   OH2 4767   2.907   3.342   3.765
 1609TIP3    H1 4768   2.913   3.391   3.847
 1609TIP3    H2 4769   2.896   3.409   3.698
 1610TIP3   OH2 4770   7.125   4.752   2.756
 1610TIP3    H1 4771   7.081   4.817   2.701
 1610TIP3    H2 4772   7.216   4.754   2.727
 1611TIP3   OH2 4773   5.946   4.362   0.573
 1611TIP3    H1 4774   6.000   4.438   0.597
 1611TIP3    H2 4775   5.858   4.398   0.562
 1612TIP3   OH2 4776   4.910   1.531   5.616
 1612TIP3    H1 4777   4.953   1.499   5.537
 1612TIP3    H2 4778   4.923   1.461   5.680
 1613TIP3   OH2 4779   2.280   5.976   5.030
 1613TIP3    H1 4780   2.220   6.033   5.077
 1613TIP3    H2 4781   2.261   5.992   4.938
 1614TIP3   OH2 4782   1.238   7.858   5.650
 1614TIP3    H1 4783   1.231   7.779   5.596
 1614TIP3    H2 4784   1.289   7.830   5.726
 1615TIP3   OH2 4785   5.573   4.655   1.166
 1615TIP3    H1 4786   5.494   4.603   1.182
 1615TIP3    H2 4787   5.551   4.711   1.092
 1616TIP3   OH2 4788   6.007   3.011   0.169
 1616TIP3    H1 4789   5.979   2.998   0.079
 1616TIP3    H2 4790   5.926   3.016   0.220
 1617TIP3   OH2 4791   6.882   2.981   3.104
 1617TIP3    H1 4792   6.911   3.044   3.039
 1617TIP3    H2 4793   6.790   2.965   3.083
 1618TIP3   OH2 4794   3.526   1.602   5.524
 1618TIP3    H1 4795   3.519   1.585   5.430
 1618TIP3    H2 4796   3.492   1.522   5.565
 1619TIP3   OH2 4797   0.786   2.555   3.889
 1619TIP3    H1 4798   0.841   2.616   3.839
 1619TIP3    H2 4799   0.708   2.606   3.911
 1620TIP3   OH2 4800   7.045   3.155   2.531
 1620TIP3    H1 4801   7.102   3.209   2.586
 1620TIP3    H2 4802   6.957   3.190   2.545
 1621TIP3   OH2 4803   7.738   6.082   2.862
 1621TIP3    H1 4804   7.719   5.993   2.834
 1621TIP3    H2 4805   7.688   6.093   2.943
 1622TIP3   OH2 4806   4.765   5.199   3.817
 1622TIP3    H1 4807   4.789   5.171   3.905
 1622TIP3    H2 4808   4.836   5.258   3.791
 1623TIP3   OH2 4809   6.634   0.224   1.615
 1623TIP3    H1 4810   6.658   0.132   1.606
 1623TIP3    H2 4811   6.541   0.222   1.638
 1624TIP3   OH2 4812   2.250   0.822   5.437
 1624TIP3    H1 4813   2.281   0.850   5.351
 1624TIP3    H2 4814   2.300   0.874   5.499
 1625TIP3   OH2 4815   0.414   1.490   5.313
 1625TIP3    H1 4816   0.437   1.493   5.221
 1625TIP3    H2 4817   0.473   1.424   5.351
 1626TIP3   OH2 4818   0.039   5.434   0.042
 1626TIP3    H1 4819  -0.003   5.495  -0.020
 1626TIP3    H2 4820   0.121   5.476   0.064
 1627TIP3   OH2 4821   3.984   6.912   5.774
 1627TIP3    H1 4822   3.968   7.005   5.757
 1627TIP3    H2 4823   3.899   6.877   5.800
 1628TIP3   OH2 4824   7.486   1.166   5.142
 1628TIP3    H1 4825   7.553   1.228   5.172
 1628TIP3    H2 4826   7.430   1.154   5.218
 1629TIP3   OH2 4827   0.194   0.289   6.376
 1629TIP3    H1 4828   0.182   0.269   6.283
 1629TIP3    H2 4829   0.288   0.281   6.391
 1630TIP3   OH2 4830   0.796   4.433   3.996
 1630TIP3    H1 4831   0.776   4.407   3.907
 1630TIP3    H2 4832   0.892   4.425   4.002
 1631TIP3   OH2 4833   6.684   7.864   5.822
 1631TIP3    H1 4834   6.743   7.869   5.746
 1631TIP3    H2 4835   6.735   7.904   5.893
 1632TIP3   OH2 4836   4.461   2.536   1.202
 1632TIP3    H1 4837   4.497   2.463   1.252
 1632TIP3    H2 4838   4.418   2.591   1.267
 1633TIP3   OH2 4839   7.387   1.571   0.077
 1633TIP3    H1 4840   7.357   1.529   0.158
 1633TIP3    H2 4841   7.339   1.654   0.073
 1634TIP3   OH2 4842   5.215   5.119   4.609
 1634TIP3    H1 4843   5.286   5.162   4.658
 1634TIP3    H2 4844   5.170   5.191   4.565
 1635TIP3   OH2 4845   3.428   3.443   6.371
 1635TIP3    H1 4846   3.414   3.349   6.381
 1635TIP3    H2 4847   3.346   3.476   6.335
 1636TIP3   OH2 4848   4.016   4.573   6.263
 1636TIP3    H1 4849   4.041   4.545   6.174
 1636TIP3    H2 4850   4.009   4.491   6.312
 1637TIP3   OH2 4851   7.895   7.214   2.944
 1637TIP3    H1 4852   7.917   7.202   2.852
 1637TIP3    H2 4853   7.813   7.264   2.942
 1638TIP3   OH2 4854   5.708   5.208   5.016
 1638TIP3    H1 4855   5.803   5.220   5.014
 1638TIP3    H2 4856   5.673   5.296   5.003
 1639TIP3   OH2 4857   3.885   6.842   3.307
 1639TIP3    H1 4858   3.819   6.803   3.364
 1639TIP3    H2 4859   3.923   6.912   3.359
 1640TIP3   OH2 4860   3.362   5.334   2.459
 1640TIP3    H1 4861   3.405   5.296   2.536
 1640TIP3    H2 4862   3.345   5.425   2.483
 1641TIP3   OH2 4863   4.648   7.600   4.765
 1641TIP3    H1 4864   4.621   7.530   4.706
 1641TIP3    H2 4865   4.624   7.569   4.853
 1642TIP3   OH2 4866   2.839   3.646   1.941
 1642TIP3    H1 4867   2.804   3.568   1.897
 1642TIP3    H2 4868   2.905   3.680   1.880
 1643TIP3   OH2 4869   1.845   1.551   0.010
 1643TIP3    H1 4870   1.752   1.562  -0.007
 1643TIP3    H2 4871   1.853   1.461   0.040
 1644TIP3   OH2 4872   6.285   6.088   4.073
 1644TIP3    H1 4873   6.343   6.090   4.149
 1644TIP3    H2 4874   6.344   6.083   3.998
 1645TIP3   OH2 4875   7.150   2.852   3.443
 1645TIP3    H1 4876   7.168   2.814   3.357
 1645TIP3    H2 4877   7.237   2.875   3.477
 1646TIP3   OH2 4878   1.615   3.063   2.160
 1646TIP3    H1 4879   1.567   3.104   2.089
 1646TIP3    H2 4880   1.705   3.058   2.129
 1647TIP3   OH2 4881   2.668   6.312   6.825
 1647TIP3    H1 4882   2.646   6.376   6.893
 1647TIP3    H2 4883   2.590   6.307   6.770
 1648TIP3   OH2 4884   0.147   2.515   3.559
 1648TIP3    H1 4885   0.111   2.482   3.641
 1648TIP3    H2 4886   0.136   2.444   3.496
 1649TIP3   OH2 4887   0.984   5.284   0.230
 1649TIP3    H1 4888   0.985   5.355   0.166
 1649TIP3    H2 4889   1.077   5.265   0.246
 1650TIP3   OH2 4890   5.865   5.147   3.040
 1650TIP3    H1 4891   5.786   5.097   3.019
 1650TIP3    H2 4892   5.935   5.100   2.997
 1651TIP3   OH2 4893   0.948   5.039   0.846
 1651TIP3    H1 4894   0.899   5.113   0.810
 1651TIP3    H2 4895   0.932   4.967   0.784
 1652TIP3   OH2 4896   2.060   3.603   0.580
 1652TIP3    H1 4897   1.971   3.571   0.590
 1652TIP3    H2 4898   2.109   3.530   0.544
 1653TIP3   OH2 4899   3.270   5.931   6.613
 1653TIP3    H1 4900   3.221   6.012   6.626
 1653TIP3    H2 4901   3.221   5.865   6.663
 1654TIP3   OH2 4902   3.501   0.695   1.812
 1654TIP3    H1 4903   3.414   0.657   1.823
 1654TIP3    H2 4904   3.486   0.773   1.758
 1655TIP3   OH2 4905   2.011   0.741   5.352
 1655TIP3    H1 4906   2.053   0.796   5.418
 1655TIP3    H2 4907   2.075   0.672   5.333
 1656TIP3   OH2 4908   7.978   2.660   1.854
 1656TIP3    H1 4909   8.056   2.621   1.815
 1656TIP3    H2 4910   8.011   2.736   1.902
 1657TIP3   OH2 4911   2.453   7.117   1.946
 1657TIP3    H1 4912   2.457   7.163   2.030
 1657TIP3    H2 4913   2.429   7.027   1.968
 1658TIP3   OH2 4914   7.458   2.448   3.384
 1658TIP3    H1 4915   7.448   2.450   3.479
 1658TIP3    H2 4916   7.510   2.370   3.366
 1659TIP3   OH2 4917   4.697   4.776   5.190
 1659TIP3    H1 4918   4.755   4.757   5.116
 1659TIP3    H2 4919   4.612   4.742   5.162
 1660TIP3   OH2 4920   3.607   3.946   3.350
 1660TIP3    H1 4921   3.550   3.916   3.279
 1660TIP3    H2 4922   3.695   3.921   3.322
 1661TIP3   OH2 4923   3.843   4.424   5.940
 1661TIP3    H1 4924   3.785   4.488   5.981
 1661TIP3    H2 4925   3.856   4.458   5.851
 1662TIP3   OH2 4926   3.922   2.229   4.957
 1662TIP3    H1 4927   3.956   2.169   5.023
 1662TIP3    H2 4928   3.885   2.172   4.889
 1663TIP3   OH2 4929   5.612   7.582   4.574
 1663TIP3    H1 4930   5.529   7.536   4.589
 1663TIP3    H2 4931   5.672   7.545   4.639
 1664TIP3   OH2 4932   7.176   4.218   0.195
 1664TIP3    H1 4933   7.102   4.254   0.243
 1664TIP3    H2 4934   7.252   4.238   0.250
 1665TIP3   OH2 4935   1.740   0.740   0.205
 1665TIP3    H1 4936   1.740   0.817   0.262
 1665TIP3    H2 4937   1.689   0.675   0.253
 1666TIP3   OH2 4938   7.314   2.449   3.158
 1666TIP3    H1 4939   7.381   2.451   3.227
 1666TIP3    H2 4940   7.297   2.356   3.144
 1667TIP3   OH2 4941   4.259   5.731   5.155
 1667TIP3    H1 4942   4.315   5.724   5.232
 1667TIP3    H2 4943   4.179   5.686   5.179
 1668TIP3   OH2 4944   6.738   0.748   1.630
 1668TIP3    H1 4945   6.745   0.654   1.647
 1668TIP3    H2 4946   6.821   0.771   1.588
 1669TIP3   OH2 4947   7.378   2.928   4.977
 1669TIP3    H1 4948   7.448   2.866   4.999
 1669TIP3    H2 4949   7.417   3.014   4.988
 1670TIP3   OH2 4950   7.113   0.705   6.356
 1670TIP3    H1 4951   7.079   0.659   6.432
 1670TIP3    H2 4952   7.185   0.757   6.390
 1671TIP3   OH2 4953   2.421   2.390   4.142
 1671TIP3    H1 4954   2.450   2.306   4.105
 1671TIP3    H2 4955   2.500   2.444   4.144
 1672TIP3   OH2 4956   4.803   1.658   4.788
 1672TIP3    H1 4957   4.845   1.605   4.720
 1672TIP3    H2 4958   4.784   1.741   4.745
 1673TIP3   OH2 4959   8.251   1.257   0.999
 1673TIP3    H1 4960   8.244   1.338   0.948
 1673TIP3    H2 4961   8.192   1.271   1.073
 1674TIP3   OH2 4962   1.241   1.936   3.829
 1674TIP3    H1 4963   1.242   1.973   3.917
 1674TIP3    H2 4964   1.302   1.862   3.834
 1675TIP3   OH2 4965   2.798   1.961   0.573
 1675TIP3    H1 4966   2.712   1.974   0.534
 1675TIP3    H2 4967   2.834   2.050   0.581
 1676TIP3   OH2 4968   5.852   2.197   5.600
 1676TIP3    H1 4969   5.908   2.272   5.621
 1676TIP3    H2 4970   5.794   2.229   5.530
 1677TIP3   OH2 4971   0.257   1.781   0.904
 1677TIP3    H1 4972   0.344   1.749   0.926
 1677TIP3    H2 4973   0.215   1.795   0.989
 1678TIP3   OH2 4974   7.751   4.932   4.576
 1678TIP3    H1 4975   7.813   4.861   4.594
 1678TIP3    H2 4976   7.807   5.007   4.556
 1679TIP3   OH2 4977   2.821   5.316   4.210
 1679TIP3    H1 4978   2.760   5.305   4.283
 1679TIP3    H2 4979   2.784   5.262   4.140
 1680TIP3   OH2 4980   5.825   5.562   6.171
 1680TIP3    H1 4981   5.757   5.623   6.201
 1680TIP3    H2 4982   5.905   5.615   6.166
 1681TIP3   OH2 4983   1.132   2.565   3.477
 1681TIP3    H1 4984   1.167   2.605   3.556
 1681TIP3    H2 4985   1.048   2.610   3.463
 1682TIP3   OH2 4986   7.286   0.456   3.570
 1682TIP3    H1 4987   7.288   0.392   3.641
 1682TIP3    H2 4988   7.264   0.404   3.492
 1683TIP3   OH2 4989   2.686   6.195   1.539
 1683TIP3    H1 4990   2.600   6.154   1.534
 1683TIP3    H2 4991   2.673   6.284   1.506
 1684TIP3   OH2 4992   6.759   3.361   1.053
 1684TIP3    H1 4993   6.756   3.380   0.959
 1684TIP3    H2 4994   6.847   3.387   1.080
 1685TIP3   OH2 4995   3.948   2.826   2.609
 1685TIP3    H1 4996   3.906   2.740   2.608
 1685TIP3    H2 4997   3.876   2.889   2.602
 1686TIP3   OH2 4998   7.301   5.249   4.443
 1686TIP3    H1 4999   7.379   5.304   4.452
 1686TIP3    H2 5000   7.312   5.181   4.510
 1687TIP3   OH2 5001   1.881   3.730   6.677
 1687TIP3    H1 5002   1.962   3.712   6.724
 1687TIP3    H2 5003   1.892   3.688   6.592
 1688TIP3   OH2 5004   5.460   3.997   3.172
 1688TIP3    H1 5005   5.380   4.038   3.140
 1688TIP3    H2 5006   5.518   3.996   3.097
 1689TIP3   OH2 5007   1.942   6.881   1.886
 1689TIP3    H1 5008   1.984   6.955   1.842
 1689TIP3    H2 5009   1.936   6.814   1.818
 1690TIP3   OH2 5010   2.072   4.368   6.508
 1690TIP3    H1 5011   2.037   4.388   6.595
 1690TIP3    H2 5012   2.108   4.280   6.516
 1691TIP3   OH2 5013   3.452   3.273   1.876
 1691TIP3    H1 5014   3.372   3.254   1.828
 1691TIP3    H2 5015   3.498   3.338   1.823
 1692TIP3   OH2 5016   7.502   0.317   4.756
 1692TIP3    H1 5017   7.555   0.240   4.737
 1692TIP3    H2 5018   7.434   0.285   4.817
 1693TIP3   OH2 5019   2.330   4.530   3.647
 1693TIP3    H1 5020   2.382   4.574   3.714
 1693TIP3    H2 5021   2.245   4.575   3.649
 1694TIP3   OH2 5022   4.674   1.036   6.161
 1694TIP3    H1 5023   4.749   1.093   6.177
 1694TIP3    H2 5024   4.691   0.959   6.215
 1695TIP3   OH2 5025   1.964   2.419   2.680
 1695TIP3    H1 5026   1.906   2.487   2.645
 1695TIP3    H2 5027   1.913   2.339   2.674
 1696TIP3   OH2 5028   2.533   6.632   0.973
 1696TIP3    H1 5029   2.462   6.695   0.960
 1696TIP3    H2 5030   2.489   6.552   1.002
 1697TIP3   OH2 5031   5.531   4.345   1.675
 1697TIP3    H1 5032   5.538   4.310   1.763
 1697TIP3    H2 5033   5.440   4.374   1.667
 1698TIP3   OH2 5034   4.002   4.300   1.171
 1698TIP3    H1 5035   3.964   4.273   1.254
 1698TIP3    H2 5036   4.028   4.218   1.128
 1699TIP3   OH2 5037   0.956   0.880   6.758
 1699TIP3    H1 5038   1.004   0.812   6.804
 1699TIP3    H2 5039   0.996   0.962   6.786
 1700TIP3   OH2 5040   5.006   1.310   4.602
 1700TIP3    H1 5041   4.999   1.219   4.574
 1700TIP3    H2 5042   5.097   1.334   4.585
 1701TIP3   OH2 5043   4.120   5.979   0.238
 1701TIP3    H1 5044   4.042   5.970   0.183
 1701TIP3    H2 5045   4.137   6.073   0.239
 1702TIP3   OH2 5046   3.759   4.564   2.619
 1702TIP3    H1 5047   3.845   4.529   2.640
 1702TIP3    H2 5048   3.733   4.517   2.540
 1703TIP3   OH2 5049   1.580   3.145   1.882
 1703TIP3    H1 5050   1.630   3.083   1.828
 1703TIP3    H2 5051   1.616   3.231   1.859
 1704TIP3   OH2 5052   7.008   7.004   3.943
 1704TIP3    H1 5053   6.942   6.935   3.941
 1704TIP3    H2 5054   7.027   7.017   4.036
 1705TIP3   OH2 5055   6.306   2.845   2.404
 1705TIP3    H1 5056   6.229   2.797   2.374
 1705TIP3    H2 5057   6.311   2.921   2.345
 1706TIP3   OH2 5058   5.254   6.243   5.281
 1706TIP3    H1 5059   5.182   6.184   5.304
 1706TIP3    H2 5060   5.303   6.195   5.214
 1707TIP3   OH2 5061   1.090   1.291   4.821
 1707TIP3    H1 5062   1.129   1.357   4.879
 1707TIP3    H2 5063   1.113   1.207   4.862
 1708TIP3   OH2 5064   5.693   5.718   0.044
 1708TIP3    H1 5065   5.639   5.646   0.078
 1708TIP3    H2 5066   5.752   5.676  -0.019
 1709TIP3   OH2 5067   0.728   0.279   5.028
 1709TIP3    H1 5068   0.689   0.331   5.099
 1709TIP3    H2 5069   0.653   0.243   4.981
 1710TIP3   OH2 5070   7.417   3.445   5.013
 1710TIP3    H1 5071   7.374   3.530   5.013
 1710TIP3    H2 5072   7.502   3.460   5.054
 1711TIP3   OH2 5073   6.539   6.534   5.018
 1711TIP3    H1 5074   6.527   6.583   4.936
 1711TIP3    H2 5075   6.567   6.447   4.990
 1712TIP3   OH2 5076   0.734   6.530   6.314
 1712TIP3    H1 5077   0.699   6.616   6.289
 1712TIP3    H2 5078   0.692   6.511   6.398
 1713TIP3   OH2 5079   7.511   6.708   4.620
 1713TIP3    H1 5080   7.521   6.620   4.656
 1713TIP3    H2 5081   7.430   6.741   4.660
 1714TIP3   OH2 5082   4.370   3.337   4.077
 1714TIP3    H1 5083   4.299   3.400   4.071
 1714TIP3    H2 5084   4.360   3.298   4.164
 1715TIP3   OH2 5085   5.494   0.344   0.438
 1715TIP3    H1 5086   5.541   0.312   0.515
 1715TIP3    H2 5087   5.439   0.271   0.411
 1716TIP3   OH2 5088   4.283   7.724   6.797
 1716TIP3    H1 5089   4.339   7.720   6.719
 1716TIP3    H2 5090   4.200   7.687   6.768
 1717TIP3   OH2 5091   4.043   2.041   3.620
 1717TIP3    H1 5092   4.052   1.994   3.537
 1717TIP3    H2 5093   4.131   2.074   3.639
 1718TIP3   OH2 5094   5.839   5.450   3.169
 1718TIP3    H1 5095   5.854   5.534   3.126
 1718TIP3    H2 5096   5.747   5.455   3.198
 1719TIP3   OH2 5097   5.655   6.610   5.517
 1719TIP3    H1 5098   5.725   6.563   5.563
 1719TIP3    H2 5099   5.577   6.555   5.529
 1720TIP3   OH2 5100   4.616   4.894   4.365
 1720TIP3    H1 5101   4.541   4.836   4.378
 1720TIP3    H2 5102   4.609   4.924   4.275
 1721TIP3   OH2 5103   3.117   1.954   6.869
 1721TIP3    H1 5104   3.057   1.883   6.847
 1721TIP3    H2 5105   3.204   1.916   6.856
 1722TIP3   OH2 5106   5.577   5.299   4.013
 1722TIP3    H1 5107   5.549   5.336   3.929
 1722TIP3    H2 5108   5.645   5.358   4.044
 1723TIP3   OH2 5109   6.451   4.894   1.432
 1723TIP3    H1 5110   6.365   4.914   1.395
 1723TIP3    H2 5111   6.473   4.971   1.485
 1724TIP3   OH2 5112   0.240   7.094   3.052
 1724TIP3    H1 5113   0.272   7.179   3.021
 1724TIP3    H2 5114   0.293   7.075   3.129
 1725TIP3   OH2 5115   7.936   0.403   2.462
 1725TIP3    H1 5116   7.952   0.317   2.502
 1725TIP3    H2 5117   7.863   0.387   2.401
 1726TIP3   OH2 5118   1.952   1.957   0.785
 1726TIP3    H1 5119   1.958   1.934   0.878
 1726TIP3    H2 5120   2.041   1.982   0.760
 1727TIP3   OH2 5121   5.862   2.802   4.401
 1727TIP3    H1 5122   5.804   2.796   4.477
 1727TIP3    H2 5123   5.831   2.734   4.341
 1728TIP3   OH2 5124   6.431   3.677   3.308
 1728TIP3    H1 5125   6.377   3.756   3.296
 1728TIP3    H2 5126   6.500   3.685   3.243
 1729TIP3   OH2 5127   2.736   3.517   0.684
 1729TIP3    H1 5128   2.825   3.490   0.662
 1729TIP3    H2 5129   2.736   3.612   0.672
 1730TIP3   OH2 5130   2.251   4.145   3.493
 1730TIP3    H1 5131   2.334   4.176   3.458
 1730TIP3    H2 5132   2.272   4.060   3.532
 1731TIP3   OH2 5133   5.342   0.890   0.589
 1731TIP3    H1 5134   5.393   0.957   0.636
 1731TIP3    H2 5135   5.406   0.824   0.565
 1732TIP3   OH2 5136   5.313   0.218   3.826
 1732TIP3    H1 5137   5.342   0.257   3.909
 1732TIP3    H2 5138   5.294   0.292   3.769
 1733TIP3   OH2 5139   3.107   6.708   5.283
 1733TIP3    H1 5140   3.091   6.800   5.262
 1733TIP3    H2 5141   3.022   6.666   5.271
 1734TIP3   OH2 5142   2.289   7.194   2.965
 1734TIP3    H1 5143   2.321   7.144   3.040
 1734TIP3    H2 5144   2.350   7.266   2.955
 1735TIP3   OH2 5145   0.191   0.241   4.613
 1735TIP3    H1 5146   0.209   0.177   4.682
 1735TIP3    H2 5147   0.117   0.205   4.564
 1736TIP3   OH2 5148   7.449   1.459   6.724
 1736TIP3    H1 5149   7.470   1.551   6.742
 1736TIP3    H2 5150   7.482   1.411   6.799
 1737TIP3   OH2 5151   7.437   1.451   6.449
 1737TIP3    H1 5152   7.438   1.451   6.545
 1737TIP3    H2 5153   7.346   1.435   6.426
 1738TIP3   OH2 5154   1.942   1.495   0.358
 1738TIP3    H1 5155   1.977   1.551   0.428
 1738TIP3    H2 5156   1.942   1.551   0.280
 1739TIP3   OH2 5157   1.296   3.973   2.460
 1739TIP3    H1 5158   1.314   3.879   2.472
 1739TIP3    H2 5159   1.239   3.977   2.384
 1740TIP3   OH2 5160   3.137   6.573   4.071
 1740TIP3    H1 5161   3.044   6.596   4.071
 1740TIP3    H2 5162   3.168   6.595   4.159
 1741TIP3   OH2 5163   0.386   5.541   1.469
 1741TIP3    H1 5164   0.428   5.627   1.473
 1741TIP3    H2 5165   0.321   5.543   1.539
 1742TIP3   OH2 5166   6.301   3.075   1.208
 1742TIP3    H1 5167   6.353   3.039   1.136
 1742TIP3    H2 5168   6.276   2.999   1.260
 1743TIP3   OH2 5169   0.278   4.486   6.724
 1743TIP3    H1 5170   0.330   4.565   6.740
 1743TIP3    H2 5171   0.290   4.467   6.631
 1744TIP3   OH2 5172   3.335   2.312   6.267
 1744TIP3    H1 5173   3.268   2.246   6.285
 1744TIP3    H2 5174   3.417   2.263   6.268
 1745TIP3   OH2 5175   3.107   0.423   0.134
 1745TIP3    H1 5176   3.143   0.335   0.149
 1745TIP3    H2 5177   3.014   0.409   0.117
 1746TIP3   OH2 5178   1.048   1.141   5.237
 1746TIP3    H1 5179   0.981   1.074   5.242
 1746TIP3    H2 5180   1.105   1.124   5.311
 1747TIP3   OH2 5181   6.137   0.073   5.998
 1747TIP3    H1 5182   6.101  -0.014   6.014
 1747TIP3    H2 5183   6.232   0.061   5.997
 1748TIP3   OH2 5184   6.292   3.405   6.822
 1748TIP3    H1 5185   6.215   3.448   6.862
 1748TIP3    H2 5186   6.345   3.477   6.790
 1749TIP3   OH2 5187   4.255   7.684   1.519
 1749TIP3    H1 5188   4.204   7.736   1.581
 1749TIP3    H2 5189   4.223   7.594   1.530
 1750TIP3   OH2 5190   5.128   7.210   1.767
 1750TIP3    H1 5191   5.106   7.183   1.677
 1750TIP3    H2 5192   5.202   7.155   1.791
 1751TIP3   OH2 5193   6.444   5.860   4.260
 1751TIP3    H1 5194   6.351   5.838   4.269
 1751TIP3    H2 5195   6.451   5.948   4.298
 1752TIP3   OH2 5196   4.104   7.481   3.570
 1752TIP3    H1 5197   4.141   7.548   3.513
 1752TIP3    H2 5198   4.173   7.465   3.635
 1753TIP3   OH2 5199   2.847   2.251   4.047
 1753TIP3    H1 5200   2.916   2.294   4.097
 1753TIP3    H2 5201   2.775   2.315   4.044
 1754TIP3   OH2 5202   1.878   2.437   1.562
 1754TIP3    H1 5203   1.853   2.352   1.526
 1754TIP3    H2 5204   1.913   2.486   1.487
 1755TIP3   OH2 5205   6.302   7.601   5.299
 1755TIP3    H1 5206   6.387   7.569   5.330
 1755TIP3    H2 5207   6.237   7.548   5.346
 1756TIP3   OH2 5208   7.682   0.591   0.215
 1756TIP3    H1 5209   7.676   0.601   0.120
 1756TIP3    H2 5210   7.771   0.561   0.231
 1757TIP3   OH2 5211   7.859   3.420   2.536
 1757TIP3    H1 5212   7.808   3.479   2.592
 1757TIP3    H2 5213   7.837   3.448   2.447
 1758TIP3   OH2 5214   4.063   0.529   3.295
 1758TIP3    H1 5215   4.026   0.618   3.290
 1758TIP3    H2 5216   4.084   0.507   3.205
 1759TIP3   OH2 5217   2.536   5.770   4.642
 1759TIP3    H1 5218   2.507   5.809   4.724
 1759TIP3    H2 5219   2.512   5.835   4.575
 1760TIP3   OH2 5220   1.467   0.883   0.696
 1760TIP3    H1 5221   1.537   0.829   0.660
 1760TIP3    H2 5222   1.483   0.884   0.790
 1761TIP3   OH2 5223   1.904   4.847   3.890
 1761TIP3    H1 5224   1.884   4.886   3.805
 1761TIP3    H2 5225   1.836   4.881   3.948
 1762TIP3   OH2 5226   2.810   0.276   6.204
 1762TIP3    H1 5227   2.863   0.197   6.209
 1762TIP3    H2 5228   2.873   0.346   6.187
 1763TIP3   OH2 5229   6.388   7.481   0.247
 1763TIP3    H1 5230   6.447   7.556   0.243
 1763TIP3    H2 5231   6.382   7.449   0.157
 1764TIP3   OH2 5232   7.688   5.804   3.726
 1764TIP3    H1 5233   7.625   5.874   3.707
 1764TIP3    H2 5234   7.772   5.839   3.697
 1765TIP3   OH2 5235   6.769   7.092   3.453
 1765TIP3    H1 5236   6.733   7.007   3.426
 1765TIP3    H2 5237   6.833   7.070   3.521
 1766TIP3   OH2 5238   3.055   5.698   5.394
 1766TIP3    H1 5239   3.018   5.722   5.309
 1766TIP3    H2 5240   3.110   5.773   5.418
 1767TIP3   OH2 5241   4.040   4.874   0.245
 1767TIP3    H1 5242   4.021   4.956   0.200
 1767TIP3    H2 5243   4.135   4.878   0.262
 1768TIP3   OH2 5244   4.538   1.817   0.249
 1768TIP3    H1 5245   4.502   1.897   0.210
 1768TIP3    H2 5246   4.522   1.749   0.183
 1769TIP3   OH2 5247   7.126   6.579   4.642
 1769TIP3    H1 5248   7.135   6.550   4.732
 1769TIP3    H2 5249   7.159   6.669   4.641
 1770TIP3   OH2 5250   5.091   6.397   5.862
 1770TIP3    H1 5251   5.123   6.329   5.921
 1770TIP3    H2 5252   5.043   6.349   5.795
 1771TIP3   OH2 5253   2.601   3.200   1.382
 1771TIP3    H1 5254   2.611   3.255   1.304
 1771TIP3    H2 5255   2.583   3.262   1.453
 1772TIP3   OH2 5256   3.532   5.206   0.416
 1772TIP3    H1 5257   3.512   5.176   0.505
 1772TIP3    H2 5258   3.625   5.185   0.404
 1773TIP3   OH2 5259   2.619   5.527   0.847
 1773TIP3    H1 5260   2.566   5.584   0.902
 1773TIP3    H2 5261   2.700   5.514   0.896
 1774TIP3   OH2 5262   6.681   2.029   5.918
 1774TIP3    H1 5263   6.692   2.124   5.919
 1774TIP3    H2 5264   6.623   2.012   5.844
 1775TIP3   OH2 5265   7.310   7.380   3.182
 1775TIP3    H1 5266   7.247   7.387   3.253
 1775TIP3    H2 5267   7.301   7.290   3.150
 1776TIP3   OH2 5268   6.364   0.274   1.755
 1776TIP3    H1 5269   6.307   0.330   1.702
 1776TIP3    H2 5270   6.326   0.186   1.746
 1777TIP3   OH2 5271   0.671   7.859   4.448
 1777TIP3    H1 5272   0.624   7.942   4.463
 1777TIP3    H2 5273   0.739   7.882   4.385
 1778TIP3   OH2 5274   2.997   6.349   0.761
 1778TIP3    H1 5275   3.082   6.385   0.784
 1778TIP3    H2 5276   2.935   6.420   0.780
 1779TIP3   OH2 5277   1.755   7.351   1.902
 1779TIP3    H1 5278   1.765   7.444   1.885
 1779TIP3    H2 5279   1.844   7.316   1.899
 1780TIP3   OH2 5280   4.446   4.198   2.372
 1780TIP3    H1 5281   4.510   4.242   2.428
 1780TIP3    H2 5282   4.490   4.118   2.343
 1781TIP3   OH2 5283   2.716   7.460   5.422
 1781TIP3    H1 5284   2.673   7.381   5.388
 1781TIP3    H2 5285   2.674   7.477   5.506
 1782TIP3   OH2 5286   4.818   2.108   4.693
 1782TIP3    H1 5287   4.861   2.055   4.760
 1782TIP3    H2 5288   4.762   2.168   4.742
 1783TIP3   OH2 5289   0.111   6.797   1.156
 1783TIP3    H1 5290   0.062   6.844   1.088
 1783TIP3    H2 5291   0.159   6.864   1.203
 1784TIP3   OH2 5292   5.873   7.465   3.828
 1784TIP3    H1 5293   5.898   7.409   3.902
 1784TIP3    H2 5294   5.930   7.541   3.835
 1785TIP3   OH2 5295   0.633   4.722   1.603
 1785TIP3    H1 5296   0.580   4.748   1.678
 1785TIP3    H2 5297   0.621   4.793   1.539
 1786TIP3   OH2 5298   5.319   3.945   2.362
 1786TIP3    H1 5299   5.368   3.912   2.438
 1786TIP3    H2 5300   5.261   3.873   2.338
 1787TIP3   OH2 5301   0.488   1.439   0.993
 1787TIP3    H1 5302   0.466   1.520   0.948
 1787TIP3    H2 5303   0.445   1.370   0.943
 1788TIP3   OH2 5304   1.838   3.903   5.490
 1788TIP3    H1 5305   1.767   3.963   5.514
 1788TIP3    H2 5306   1.908   3.925   5.551
 1789TIP3   OH2 5307   5.896   4.337   5.020
 1789TIP3    H1 5308   5.831   4.275   5.053
 1789TIP3    H2 5309   5.854   4.423   5.032
 1790TIP3   OH2 5310   1.788   3.916   3.134
 1790TIP3    H1 5311   1.695   3.901   3.116
 1790TIP3    H2 5312   1.805   3.866   3.213
 1791TIP3   OH2 5313   3.707   3.226   0.173
 1791TIP3    H1 5314   3.613   3.223   0.156
 1791TIP3    H2 5315   3.744   3.157   0.116
 1792TIP3   OH2 5316   5.846   3.797   3.456
 1792TIP3    H1 5317   5.924   3.815   3.509
 1792TIP3    H2 5318   5.816   3.884   3.429
 1793TIP3   OH2 5319   2.945   3.557   6.083
 1793TIP3    H1 5320   2.874   3.554   6.147
 1793TIP3    H2 5321   3.024   3.535   6.133
 1794TIP3   OH2 5322   2.569   3.847   0.921
 1794TIP3    H1 5323   2.489   3.797   0.904
 1794TIP3    H2 5324   2.589   3.830   1.013
 1795TIP3   OH2 5325   2.840   5.932   0.227
 1795TIP3    H1 5326   2.861   5.936   0.134
 1795TIP3    H2 5327   2.782   6.006   0.242
 1796TIP3   OH2 5328   2.365   1.228   1.684
 1796TIP3    H1 5329   2.414   1.181   1.617
 1796TIP3    H2 5330   2.293   1.169   1.706
 1797TIP3   OH2 5331   1.191   7.462   1.726
 1797TIP3    H1 5332   1.107   7.458   1.682
 1797TIP3    H2 5333   1.250   7.504   1.663
 1798TIP3   OH2 5334   4.672   3.171   1.906
 1798TIP3    H1 5335   4.590   3.130   1.934
 1798TIP3    H2 5336   4.741   3.112   1.939
 1799TIP3   OH2 5337   1.714   7.626   2.990
 1799TIP3    H1 5338   1.802   7.634   2.953
 1799TIP3    H2 5339   1.727   7.586   3.076
 1800TIP3   OH2 5340   5.298   5.614   3.781
 1800TIP3    H1 5341   5.325   5.630   3.872
 1800TIP3    H2 5342   5.301   5.700   3.740
 1801TIP3   OH2 5343   7.147   7.124   5.969
 1801TIP3    H1 5344   7.145   7.172   6.051
 1801TIP3    H2 5345   7.226   7.070   5.975
 1802TIP3   OH2 5346   2.751   2.512   2.651
 1802TIP3    H1 5347   2.692   2.542   2.720
 1802TIP3    H2 5348   2.816   2.583   2.643
 1803TIP3   OH2 5349   6.457   4.690   5.847
 1803TIP3    H1 5350   6.518   4.744   5.898
 1803TIP3    H2 5351   6.504   4.609   5.831
 1804TIP3   OH2 5352   1.957   2.199   4.288
 1804TIP3    H1 5353   2.048   2.171   4.291
 1804TIP3    H2 5354   1.919   2.166   4.369
 1805TIP3   OH2 5355   5.472   7.321   0.270
 1805TIP3    H1 5356   5.536   7.382   0.307
 1805TIP3    H2 5357   5.389   7.349   0.307
 1806TIP3   OH2 5358   5.538   4.773   3.639
 1806TIP3    H1 5359   5.601   4.712   3.676
 1806TIP3    H2 5360   5.561   4.858   3.677
 1807TIP3   OH2 5361   3.233   7.743   0.617
 1807TIP3    H1 5362   3.275   7.738   0.702
 1807TIP3    H2 5363   3.261   7.828   0.582
 1808TIP3   OH2 5364   0.154   3.141   5.289
 1808TIP3    H1 5365   0.158   3.045   5.291
 1808TIP3    H2 5366   0.180   3.167   5.378
 1809TIP3   OH2 5367   4.440   6.744   1.896
 1809TIP3    H1 5368   4.423   6.827   1.940
 1809TIP3    H2 5369   4.409   6.677   1.956
 1810TIP3   OH2 5370   8.104   0.479   6.099
 1810TIP3    H1 5371   8.175   0.472   6.035
 1810TIP3    H2 5372   8.068   0.567   6.085
 1811TIP3   OH2 5373   5.378   2.469   6.806
 1811TIP3    H1 5374   5.451   2.412   6.780
 1811TIP3    H2 5375   5.397   2.553   6.763
 1812TIP3   OH2 5376   1.213   3.193   2.719
 1812TIP3    H1 5377   1.276   3.129   2.749
 1812TIP3    H2 5378   1.162   3.216   2.797
 1813TIP3   OH2 5379   0.631   3.101   1.510
 1813TIP3    H1 5380   0.599   3.035   1.447
 1813TIP3    H2 5381   0.706   3.141   1.467
 1814TIP3   OH2 5382   0.617   4.934   5.925
 1814TIP3    H1 5383   0.629   4.855   5.978
 1814TIP3    H2 5384   0.534   4.971   5.956
 1815TIP3   OH2 5385   4.527   1.956   5.620
 1815TIP3    H1 5386   4.521   2.034   5.565
 1815TIP3    H2 5387   4.587   1.898   5.572
 1816TIP3   OH2 5388   7.041   0.848   2.951
 1816TIP3    H1 5389   7.029   0.793   2.874
 1816TIP3    H2 5390   7.108   0.911   2.926
 1817TIP3   OH2 5391   0.956   6.970   6.753
 1817TIP3    H1 5392   0.873   7.016   6.762
 1817TIP3    H2 5393   1.020   7.028   6.794
 1818TIP3   OH2 5394   7.829   6.579   4.522
 1818TIP3    H1 5395   7.856   6.636   4.450
 1818TIP3    H2 5396   7.743   6.547   4.496
 1819TIP3   OH2 5397   3.444   7.283   3.355
 1819TIP3    H1 5398   3.535   7.258   3.374
 1819TIP3    H2 5399   3.441   7.377   3.370
 1820TIP3   OH2 5400   0.240   3.103   6.766
 1820TIP3    H1 5401   0.200   3.039   6.824
 1820TIP3    H2 5402   0.296   3.050   6.708
 1821TIP3   OH2 5403   1.986   4.920   3.071
 1821TIP3    H1 5404   2.032   4.926   3.155
 1821TIP3    H2 5405   2.012   5.000   3.025
 1822TIP3   OH2 5406   6.408   3.503   3.030
 1822TIP3    H1 5407   6.339   3.510   2.963
 1822TIP3    H2 5408   6.371   3.447   3.097
 1823TIP3   OH2 5409   0.620   4.196   2.957
 1823TIP3    H1 5410   0.541   4.230   2.998
 1823TIP3    H2 5411   0.654   4.268   2.905
 1824TIP3   OH2 5412   4.970   7.248   5.749
 1824TIP3    H1 5413   5.009   7.194   5.680
 1824TIP3    H2 5414   4.986   7.338   5.721
 1825TIP3   OH2 5415   6.597   5.577   1.695
 1825TIP3    H1 5416   6.597   5.504   1.757
 1825TIP3    H2 5417   6.602   5.536   1.609
 1826TIP3   OH2 5418   2.545   3.375   4.671
 1826TIP3    H1 5419   2.551   3.333   4.757
 1826TIP3    H2 5420   2.511   3.463   4.689
 1827TIP3   OH2 5421   6.097   0.059   0.454
 1827TIP3    H1 5422   6.186   0.075   0.485
 1827TIP3    H2 5423   6.081   0.128   0.389
 1828TIP3   OH2 5424   1.687   1.796   1.668
 1828TIP3    H1 5425   1.767   1.764   1.628
 1828TIP3    H2 5426   1.668   1.733   1.737
 1829TIP3   OH2 5427   7.181   0.420   0.580
 1829TIP3    H1 5428   7.110   0.459   0.631
 1829TIP3    H2 5429   7.252   0.483   0.585
 1830TIP3   OH2 5430   0.696   6.846   0.521
 1830TIP3    H1 5431   0.727   6.861   0.432
 1830TIP3    H2 5432   0.769   6.801   0.564
 1831TIP3   OH2 5433   4.514   7.012   0.859
 1831TIP3    H1 5434   4.513   7.064   0.778
 1831TIP3    H2 5435   4.555   6.929   0.833
 1832TIP3   OH2 5436   3.392   1.801   1.340
 1832TIP3    H1 5437   3.346   1.833   1.418
 1832TIP3    H2 5438   3.477   1.845   1.342
 1833TIP3   OH2 5439   2.216   5.319   4.227
 1833TIP3    H1 5440   2.301   5.286   4.256
 1833TIP3    H2 5441   2.172   5.243   4.190
 1834TIP3   OH2 5442   3.066   5.574   6.090
 1834TIP3    H1 5443   2.981   5.609   6.116
 1834TIP3    H2 5444   3.049   5.527   6.008
 1835TIP3   OH2 5445   1.991   0.322   4.102
 1835TIP3    H1 5446   1.943   0.355   4.178
 1835TIP3    H2 5447   1.926   0.322   4.032
 1836TIP3   OH2 5448   6.411   1.944   6.172
 1836TIP3    H1 5449   6.466   2.020   6.189
 1836TIP3    H2 5450   6.392   1.948   6.079
 1837TIP3   OH2 5451   1.319   2.631   5.836
 1837TIP3    H1 5452   1.267   2.551   5.848
 1837TIP3    H2 5453   1.275   2.696   5.890
 1838TIP3   OH2 5454   6.600   7.365   4.888
 1838TIP3    H1 5455   6.654   7.444   4.884
 1838TIP3    H2 5456   6.618   7.319   4.806
 1839TIP3   OH2 5457   4.325   3.347   4.467
 1839TIP3    H1 5458   4.266   3.389   4.404
 1839TIP3    H2 5459   4.381   3.291   4.414
 1840TIP3   OH2 5460   1.911   2.795   1.981
 1840TIP3    H1 5461   1.906   2.885   2.011
 1840TIP3    H2 5462   1.963   2.799   1.900
 1841TIP3   OH2 5463   7.393   5.897   5.597
 1841TIP3    H1 5464   7.419   5.859   5.513
 1841TIP3    H2 5465   7.352   5.826   5.644
 1842TIP3   OH2 5466   5.737   2.233   1.760
 1842TIP3    H1 5467   5.806   2.288   1.799
 1842TIP3    H2 5468   5.728   2.160   1.820
 1843TIP3   OH2 5469   0.424   1.010   4.789
 1843TIP3    H1 5470   0.363   0.978   4.855
 1843TIP3    H2 5471   0.510   0.991   4.825
 1844TIP3   OH2 5472   1.693   6.243   5.405
 1844TIP3    H1 5473   1.638   6.246   5.326
 1844TIP3    H2 5474   1.738   6.327   5.406
 1845TIP3   OH2 5475   3.855   5.768   1.302
 1845TIP3    H1 5476   3.876   5.687   1.255
 1845TIP3    H2 5477   3.764   5.759   1.328
 1846TIP3   OH2 5478   6.571   0.671   0.576
 1846TIP3    H1 5479   6.582   0.603   0.510
 1846TIP3    H2 5480   6.484   0.655   0.613
 1847TIP3   OH2 5481   3.029   2.047   4.308
 1847TIP3    H1 5482   3.087   2.034   4.383
 1847TIP3    H2 5483   3.053   1.977   4.248
 1848TIP3   OH2 5484   0.816   7.381   2.793
 1848TIP3    H1 5485   0.875   7.383   2.718
 1848TIP3    H2 5486   0.873   7.363   2.868
 1849TIP3   OH2 5487   1.884   2.673   0.653
 1849TIP3    H1 5488   1.923   2.650   0.737
 1849TIP3    H2 5489   1.866   2.589   0.611
 1850TIP3   OH2 5490   1.970   7.485   3.067
 1850TIP3    H1 5491   1.932   7.476   3.154
 1850TIP3    H2 5492   1.992   7.578   3.059
 1851TIP3   OH2 5493   4.024   0.823   3.575
 1851TIP3    H1 5494   4.029   0.892   3.641
 1851TIP3    H2 5495   3.986   0.748   3.621
 1852TIP3   OH2 5496   6.477   0.538   6.162
 1852TIP3    H1 5497   6.385   0.548   6.186
 1852TIP3    H2 5498   6.520   0.511   6.244
 1853TIP3   OH2 5499   6.684   5.276   4.500
 1853TIP3    H1 5500   6.633   5.295   4.579
 1853TIP3    H2 5501   6.734   5.356   4.484
 1854TIP3   OH2 5502   2.818   6.232   6.598
 1854TIP3    H1 5503   2.780   6.309   6.557
 1854TIP3    H2 5504   2.793   6.239   6.690
 1855TIP3   OH2 5505   5.413   3.574   4.031
 1855TIP3    H1 5506   5.383   3.560   3.942
 1855TIP3    H2 5507   5.508   3.564   4.026
 1856TIP3   OH2 5508   0.144   1.814   1.879
 1856TIP3    H1 5509   0.123   1.724   1.853
 1856TIP3    H2 5510   0.172   1.856   1.797
 1857TIP3   OH2 5511   1.517   5.908   3.963
 1857TIP3    H1 5512   1.537   5.859   4.042
 1857TIP3    H2 5513   1.564   5.991   3.974
 1858TIP3   OH2 5514   0.159   7.513   2.882
 1858TIP3    H1 5515   0.112   7.577   2.829
 1858TIP3    H2 5516   0.251   7.527   2.859
 1859TIP3   OH2 5517   1.848   3.044   0.727
 1859TIP3    H1 5518   1.824   3.119   0.673
 1859TIP3    H2 5519   1.840   2.969   0.669
 1860TIP3   OH2 5520   7.292   6.472   4.443
 1860TIP3    H1 5521   7.270   6.504   4.355
 1860TIP3    H2 5522   7.216   6.494   4.496
 1861TIP3   OH2 5523   0.121   6.193   0.867
 1861TIP3    H1 5524   0.168   6.124   0.913
 1861TIP3    H2 5525   0.051   6.147   0.820
 1862TIP3   OH2 5526   2.706   5.249   5.640
 1862TIP3    H1 5527   2.641   5.292   5.695
 1862TIP3    H2 5528   2.768   5.318   5.617
 1863TIP3   OH2 5529   4.429   4.556   0.385
 1863TIP3    H1 5530   4.383   4.638   0.402
 1863TIP3    H2 5531   4.422   4.507   0.467
 1864TIP3   OH2 5532   1.682   6.914   4.780
 1864TIP3    H1 5533   1.766   6.930   4.824
 1864TIP3    H2 5534   1.656   6.827   4.808
 1865TIP3   OH2 5535   3.721   2.919   4.566
 1865TIP3    H1 5536   3.772   2.870   4.500
 1865TIP3    H2 5537   3.787   2.969   4.614
 1866TIP3   OH2 5538   2.526   7.065   0.849
 1866TIP3    H1 5539   2.483   6.980   0.843
 1866TIP3    H2 5540   2.619   7.045   0.849
 1867TIP3   OH2 5541   1.730   4.020   0.701
 1867TIP3    H1 5542   1.685   4.104   0.712
 1867TIP3    H2 5543   1.777   4.008   0.783
 1868TIP3   OH2 5544   7.724   1.859   0.823
 1868TIP3    H1 5545   7.781   1.788   0.793
 1868TIP3    H2 5546   7.660   1.869   0.753
 1869TIP3   OH2 5547   5.015   6.823   5.524
 1869TIP3    H1 5548   4.961   6.839   5.601
 1869TIP3    H2 5549   5.010   6.728   5.510
 1870TIP3   OH2 5550   2.126   3.827   1.169
 1870TIP3    H1 5551   2.079   3.761   1.119
 1870TIP3    H2 5552   2.216   3.796   1.171
 1871TIP3   OH2 5553   1.617   7.670   3.543
 1871TIP3    H1 5554   1.530   7.690   3.576
 1871TIP3    H2 5555   1.621   7.574   3.541
 1872TIP3   OH2 5556   1.918   7.028   4.141
 1872TIP3    H1 5557   1.859   7.008   4.068
 1872TIP3    H2 5558   1.937   7.121   4.131
 1873TIP3   OH2 5559   2.443   1.854   1.164
 1873TIP3    H1 5560   2.481   1.855   1.076
 1873TIP3    H2 5561   2.366   1.911   1.157
 1874TIP3   OH2 5562   4.273   0.359   3.074
 1874TIP3    H1 5563   4.334   0.286   3.073
 1874TIP3    H2 5564   4.307   0.417   3.142
 1875TIP3   OH2 5565   2.674   5.235   3.961
 1875TIP3    H1 5566   2.579   5.220   3.957
 1875TIP3    H2 5567   2.700   5.245   3.869
 1876TIP3   OH2 5568   5.651   5.843   1.292
 1876TIP3    H1 5569   5.665   5.933   1.323
 1876TIP3    H2 5570   5.704   5.789   1.351
 1877TIP3   OH2 5571   7.908   4.766   5.304
 1877TIP3    H1 5572   7.896   4.733   5.393
 1877TIP3    H2 5573   7.842   4.835   5.295
 1878TIP3   OH2 5574   0.396   0.321   5.766
 1878TIP3    H1 5575   0.322   0.358   5.719
 1878TIP3    H2 5576   0.461   0.392   5.769
 1879TIP3   OH2 5577   4.443   7.125   1.748
 1879TIP3    H1 5578   4.523   7.095   1.706
 1879TIP3    H2 5579   4.454   7.220   1.756
 1880TIP3   OH2 5580   0.017   1.376   1.251
 1880TIP3    H1 5581   0.056   1.457   1.217
 1880TIP3    H2 5582  -0.036   1.343   1.179
 1881TIP3   OH2 5583   0.358   5.436   4.210
 1881TIP3    H1 5584   0.281   5.444   4.154
 1881TIP3    H2 5585   0.363   5.343   4.231
 1882TIP3   OH2 5586   4.377   5.290   6.643
 1882TIP3    H1 5587   4.323   5.266   6.567
 1882TIP3    H2 5588   4.422   5.209   6.667
 1883TIP3   OH2 5589   1.964   2.121   0.195
 1883TIP3    H1 5590   1.904   2.139   0.123
 1883TIP3    H2 5591   1.912   2.133   0.274
 1884TIP3   OH2 5592   3.511   5.815   0.654
 1884TIP3    H1 5593   3.457   5.891   0.631
 1884TIP3    H2 5594   3.599   5.839   0.625
 1885TIP3   OH2 5595   6.212   1.275   2.539
 1885TIP3    H1 5596   6.290   1.293   2.487
 1885TIP3    H2 5597   6.207   1.348   2.601
 1886TIP3   OH2 5598   8.126   5.871   3.854
 1886TIP3    H1 5599   8.048   5.890   3.907
 1886TIP3    H2 5600   8.198   5.869   3.917
 1887TIP3   OH2 5601   5.114   2.135   6.546
 1887TIP3    H1 5602   5.108   2.086   6.628
 1887TIP3    H2 5603   5.042   2.198   6.550
 1888TIP3   OH2 5604   0.841   2.498   1.914
 1888TIP3    H1 5605   0.870   2.409   1.936
 1888TIP3    H2 5606   0.775   2.518   1.981
 1889TIP3   OH2 5607   6.874   4.340   4.839
 1889TIP3    H1 5608   6.824   4.273   4.791
 1889TIP3    H2 5609   6.835   4.342   4.926
 1890TIP3   OH2 5610   3.523   1.792   4.993
 1890TIP3    H1 5611   3.510   1.803   4.899
 1890TIP3    H2 5612   3.610   1.828   5.010
 1891TIP3   OH2 5613   4.520   3.343   1.599
 1891TIP3    H1 5614   4.562   3.263   1.567
 1891TIP3    H2 5615   4.448   3.313   1.654
 1892TIP3   OH2 5616   2.060   0.618   6.059
 1892TIP3    H1 5617   2.006   0.560   6.005
 1892TIP3    H2 5618   2.024   0.705   6.044
 1893TIP3   OH2 5619   3.662   4.685   1.196
 1893TIP3    H1 5620   3.706   4.761   1.233
 1893TIP3    H2 5621   3.704   4.670   1.112
 1894TIP3   OH2 5622   5.080   6.969   4.630
 1894TIP3    H1 5623   5.079   6.873   4.631
 1894TIP3    H2 5624   5.128   6.993   4.709
 1895TIP3   OH2 5625   1.739   6.208   4.821
 1895TIP3    H1 5626   1.644   6.203   4.820
 1895TIP3    H2 5627   1.764   6.211   4.728
 1896TIP3   OH2 5628   1.417   4.425   1.952
 1896TIP3    H1 5629   1.343   4.439   1.893
 1896TIP3    H2 5630   1.392   4.468   2.033
 1897TIP3   OH2 5631   5.394   0.684   3.514
 1897TIP3    H1 5632   5.412   0.613   3.452
 1897TIP3    H2 5633   5.419   0.648   3.599
 1898TIP3   OH2 5634   6.015   4.916   6.136
 1898TIP3    H1 5635   6.075   4.941   6.207
 1898TIP3    H2 5636   6.042   4.827   6.112
 1899TIP3   OH2 5637   6.257   2.077   3.757
 1899TIP3    H1 5638   6.340   2.085   3.805
 1899TIP3    H2 5639   6.282   2.092   3.665
 1900TIP3   OH2 5640   0.489   1.119   1.282
 1900TIP3    H1 5641   0.490   1.187   1.350
 1900TIP3    H2 5642   0.396   1.104   1.264
 1901TIP3   OH2 5643   4.337   3.464   3.681
 1901TIP3    H1 5644   4.374   3.440   3.596
 1901TIP3    H2 5645   4.315   3.381   3.722
 1902TIP3   OH2 5646   1.218   5.850   4.560
 1902TIP3    H1 5647   1.296   5.830   4.611
 1902TIP3    H2 5648   1.251   5.890   4.480
 1903TIP3   OH2 5649   1.972   1.288   4.500
 1903TIP3    H1 5650   2.032   1.251   4.435
 1903TIP3    H2 5651   1.942   1.212   4.550
 1904TIP3   OH2 5652   2.346   5.420   3.314
 1904TIP3    H1 5653   2.370   5.420   3.221
 1904TIP3    H2 5654   2.253   5.441   3.315
 1905TIP3   OH2 5655   3.267   5.622   1.733
 1905TIP3    H1 5656   3.330   5.692   1.718
 1905TIP3    H2 5657   3.211   5.655   1.804
 1906TIP3   OH2 5658   5.545   7.695   2.765
 1906TIP3    H1 5659   5.496   7.738   2.836
 1906TIP3    H2 5660   5.484   7.694   2.692
 1907TIP3   OH2 5661   6.575   5.954   0.983
 1907TIP3    H1 5662   6.632   5.972   1.058
 1907TIP3    H2 5663   6.565   5.859   0.983
 1908TIP3   OH2 5664   7.848   1.877   3.168
 1908TIP3    H1 5665   7.837   1.785   3.191
 1908TIP3    H2 5666   7.809   1.925   3.241
 1909TIP3   OH2 5667   4.734   1.344   4.631
 1909TIP3    H1 5668   4.827   1.321   4.619
 1909TIP3    H2 5669   4.732   1.390   4.715
 1910TIP3   OH2 5670   3.751   3.508   5.152
 1910TIP3    H1 5671   3.805   3.431   5.171
 1910TIP3    H2 5672   3.771   3.570   5.222
 1911TIP3   OH2 5673   6.602   4.723   0.167
 1911TIP3    H1 5674   6.538   4.730   0.096
 1911TIP3    H2 5675   6.564   4.659   0.227
 1912TIP3   OH2 5676   2.591   2.065   5.652
 1912TIP3    H1 5677   2.584   2.121   5.575
 1912TIP3    H2 5678   2.546   1.984   5.626
 1913TIP3   OH2 5679   4.785   3.309   2.695
 1913TIP3    H1 5680   4.800   3.236   2.635
 1913TIP3    H2 5681   4.836   3.381   2.658
 1914TIP3   OH2 5682   7.502   0.627   6.560
 1914TIP3    H1 5683   7.472   0.708   6.602
 1914TIP3    H2 5684   7.497   0.645   6.466
 1915TIP3   OH2 5685   4.014   3.681   4.513
 1915TIP3    H1 5686   3.920   3.665   4.504
 1915TIP3    H2 5687   4.021   3.776   4.528
 1916TIP3   OH2 5688   3.384   7.542   0.015
 1916TIP3    H1 5689   3.323   7.572   0.083
 1916TIP3    H2 5690   3.468   7.535   0.060
 1917TIP3   OH2 5691   5.414   1.584   3.477
 1917TIP3    H1 5692   5.343   1.635   3.515
 1917TIP3    H2 5693   5.395   1.583   3.383
 1918TIP3   OH2 5694   0.520   4.963   2.041
 1918TIP3    H1 5695   0.429   4.991   2.034
 1918TIP3    H2 5696   0.531   4.940   2.133
 1919TIP3   OH2 5697   7.431   6.207   1.660
 1919TIP3    H1 5698   7.348   6.163   1.639
 1919TIP3    H2 5699   7.468   6.228   1.574
 1920TIP3   OH2 5700   1.472   6.330   2.199
 1920TIP3    H1 5701   1.469   6.386   2.277
 1920TIP3    H2 5702   1.543   6.268   2.216
 1921TIP3   OH2 5703   3.548   6.886   3.273
 1921TIP3    H1 5704   3.568   6.967   3.320
 1921TIP3    H2 5705   3.568   6.906   3.181
 1922TIP3   OH2 5706   7.641   4.576   5.933
 1922TIP3    H1 5707   7.640   4.485   5.962
 1922TIP3    H2 5708   7.669   4.626   6.010
 1923TIP3   OH2 5709   0.068   6.489   0.103
 1923TIP3    H1 5710   0.098   6.451   0.186
 1923TIP3    H2 5711   0.145   6.532   0.067
 1924TIP3   OH2 5712   6.960   3.158   2.926
 1924TIP3    H1 5713   6.968   3.253   2.930
 1924TIP3    H2 5714   7.037   3.130   2.876
 1925TIP3   OH2 5715   5.817   0.332   2.748
 1925TIP3    H1 5716   5.812   0.362   2.838
 1925TIP3    H2 5717   5.908   0.343   2.723
 1926TIP3   OH2 5718   4.139   6.003   6.188
 1926TIP3    H1 5719   4.162   6.018   6.280
 1926TIP3    H2 5720   4.102   6.085   6.159
 1927TIP3   OH2 5721   3.269   1.066   0.906
 1927TIP3    H1 5722   3.204   1.006   0.944
 1927TIP3    H2 5723   3.291   1.027   0.822
 1928TIP3   OH2 5724   4.996   5.766   2.247
 1928TIP3    H1 5725   5.088   5.775   2.273
 1928TIP3    H2 5726   4.974   5.850   2.209
 1929TIP3   OH2 5727   7.759   0.429   1.076
 1929TIP3    H1 5728   7.776   0.517   1.109
 1929TIP3    H2 5729   7.738   0.378   1.154
 1930TIP3   OH2 5730   5.235   4.014   6.344
 1930TIP3    H1 5731   5.175   3.964   6.289
 1930TIP3    H2 5732   5.322   3.989   6.314
 1931TIP3   OH2 5733   5.022   3.532   2.912
 1931TIP3    H1 5734   4.956   3.564   2.850
 1931TIP3    H2 5735   5.103   3.532   2.862
 1932TIP3   OH2 5736   7.717   4.386   2.118
 1932TIP3    H1 5737   7.669   4.404   2.199
 1932TIP3    H2 5738   7.677   4.306   2.084
 1933TIP3   OH2 5739   3.620   2.884   3.885
 1933TIP3    H1 5740   3.530   2.918   3.882
 1933TIP3    H2 5741   3.619   2.822   3.958
 1934TIP3   OH2 5742   1.578   3.894   5.629
 1934TIP3    H1 5743   1.553   3.925   5.542
 1934TIP3    H2 5744   1.516   3.823   5.648
 1935TIP3   OH2 5745   0.723   3.903   0.520
 1935TIP3    H1 5746   0.675   3.863   0.592
 1935TIP3    H2 5747   0.799   3.943   0.562
 1936TIP3   OH2 5748   5.191   0.797   0.799
 1936TIP3    H1 5749   5.258   0.763   0.858
 1936TIP3    H2 5750   5.235   0.804   0.715
 1937TIP3   OH2 5751   5.466   3.822   2.569
 1937TIP3    H1 5752   5.482   3.733   2.537
 1937TIP3    H2 5753   5.443   3.811   2.661
 1938TIP3   OH2 5754   6.078   6.055   5.263
 1938TIP3    H1 5755   6.087   6.073   5.357
 1938TIP3    H2 5756   5.985   6.034   5.252
 1939TIP3   OH2 5757   0.237   2.043   2.121
 1939TIP3    H1 5758   0.174   2.112   2.101
 1939TIP3    H2 5759   0.322   2.088   2.122
 1940TIP3   OH2 5760   5.544   3.471   6.727
 1940TIP3    H1 5761   5.613   3.493   6.789
 1940TIP3    H2 5762   5.520   3.381   6.748
 1941TIP3   OH2 5763   2.810   4.300   1.309
 1941TIP3    H1 5764   2.895   4.274   1.342
 1941TIP3    H2 5765   2.782   4.371   1.368
 1942TIP3   OH2 5766   4.941   1.194   2.245
 1942TIP3    H1 5767   4.973   1.192   2.155
 1942TIP3    H2 5768   4.999   1.256   2.290
 1943TIP3   OH2 5769   6.378   1.781   1.236
 1943TIP3    H1 5770   6.448   1.820   1.288
 1943TIP3    H2 5771   6.370   1.837   1.159
 1944TIP3   OH2 5772   0.550   2.442   5.191
 1944TIP3    H1 5773   0.614   2.436   5.120
 1944TIP3    H2 5774   0.553   2.356   5.233
 1945TIP3   OH2 5775   5.743   3.391   5.539
 1945TIP3    H1 5776   5.830   3.390   5.579
 1945TIP3    H2 5777   5.738   3.308   5.492
 1946TIP3   OH2 5778   2.859   0.147   5.775
 1946TIP3    H1 5779   2.945   0.176   5.806
 1946TIP3    H2 5780   2.808   0.228   5.768
 1947TIP3   OH2 5781   1.458   4.842   0.913
 1947TIP3    H1 5782   1.494   4.784   0.846
 1947TIP3    H2 5783   1.418   4.782   0.977
 1948TIP3   OH2 5784   8.133   1.798   1.931
 1948TIP3    H1 5785   8.192   1.827   1.862
 1948TIP3    H2 5786   8.186   1.798   2.010
 1949TIP3   OH2 5787   7.028   6.438   1.927
 1949TIP3    H1 5788   7.046   6.528   1.956
 1949TIP3    H2 5789   7.109   6.391   1.945
 1950TIP3   OH2 5790   1.716   5.839   4.677
 1950TIP3    H1 5791   1.678   5.927   4.674
 1950TIP3    H2 5792   1.738   5.825   4.769
 1951TIP3   OH2 5793   2.532   3.022   0.454
 1951TIP3    H1 5794   2.498   2.977   0.377
 1951TIP3    H2 5795   2.460   3.019   0.518
 1952TIP3   OH2 5796   4.485   1.443   1.591
 1952TIP3    H1 5797   4.559   1.382   1.589
 1952TIP3    H2 5798   4.524   1.530   1.583
 1953TIP3   OH2 5799  -0.018   5.964   0.766
 1953TIP3    H1 5800   0.041   5.944   0.693
 1953TIP3    H2 5801  -0.010   5.888   0.824
 1954TIP3   OH2 5802   6.237   5.346   4.662
 1954TIP3    H1 5803   6.227   5.427   4.712
 1954TIP3    H2 5804   6.166   5.289   4.692
 1955TIP3   OH2 5805   0.645   1.616   4.827
 1955TIP3    H1 5806   0.714   1.550   4.822
 1955TIP3    H2 5807   0.599   1.610   4.743
 1956TIP3   OH2 5808   2.130   6.258   3.843
 1956TIP3    H1 5809   2.116   6.174   3.886
 1956TIP3    H2 5810   2.170   6.236   3.759
 1957TIP3   OH2 5811   4.511   0.542   4.132
 1957TIP3    H1 5812   4.604   0.520   4.140
 1957TIP3    H2 5813   4.475   0.525   4.219
 1958TIP3   OH2 5814   5.766   1.104   0.386
 1958TIP3    H1 5815   5.749   1.010   0.386
 1958TIP3    H2 5816   5.680   1.144   0.369
 1959TIP3   OH2 5817   7.210   7.586   2.882
 1959TIP3    H1 5818   7.190   7.523   2.812
 1959TIP3    H2 5819   7.144   7.569   2.949
 1960TIP3   OH2 5820   7.768   4.022   4.346
 1960TIP3    H1 5821   7.844   3.979   4.307
 1960TIP3    H2 5822   7.693   3.987   4.296
 1961TIP3   OH2 5823   6.562   0.717   5.808
 1961TIP3    H1 5824   6.565   0.783   5.739
 1961TIP3    H2 5825   6.652   0.711   5.840
 1962TIP3   OH2 5826   3.640   2.795   4.820
 1962TIP3    H1 5827   3.654   2.850   4.743
 1962TIP3    H2 5828   3.629   2.857   4.892
 1963TIP3   OH2 5829   0.244   0.875   0.548
 1963TIP3    H1 5830   0.273   0.820   0.475
 1963TIP3    H2 5831   0.158   0.908   0.521
 1964TIP3   OH2 5832   1.548   4.405   3.564
 1964TIP3    H1 5833   1.640   4.380   3.552
 1964TIP3    H2 5834   1.509   4.391   3.478
 1965TIP3   OH2 5835   8.327   6.059   1.105
 1965TIP3    H1 5836   8.286   6.129   1.053
 1965TIP3    H2 5837   8.340   5.988   1.043
 1966TIP3   OH2 5838   7.122   0.365   6.559
 1966TIP3    H1 5839   7.215   0.375   6.582
 1966TIP3    H2 5840   7.082   0.449   6.584
 1967TIP3   OH2 5841   6.294   2.827   1.379
 1967TIP3    H1 5842   6.332   2.850   1.463
 1967TIP3    H2 5843   6.244   2.747   1.396
 1968TIP3   OH2 5844   4.065   7.327   6.639
 1968TIP3    H1 5845   4.060   7.379   6.559
 1968TIP3    H2 5846   4.016   7.377   6.704
 1969TIP3   OH2 5847   4.089   2.836   6.241
 1969TIP3    H1 5848   4.125   2.748   6.254
 1969TIP3    H2 5849   4.004   2.822   6.200
 1970TIP3   OH2 5850   4.888   2.121   2.552
 1970TIP3    H1 5851   4.796   2.109   2.575
 1970TIP3    H2 5852   4.933   2.047   2.594
 1971TIP3   OH2 5853   1.960   0.048   1.402
 1971TIP3    H1 5854   1.879  -0.001   1.417
 1971TIP3    H2 5855   1.938   0.110   1.333
 1972TIP3   OH2 5856   1.697   7.476   3.960
 1972TIP3    H1 5857   1.770   7.484   3.898
 1972TIP3    H2 5858   1.738   7.489   4.046
 1973TIP3   OH2 5859   4.609   1.204   4.042
 1973TIP3    H1 5860   4.665   1.252   3.981
 1973TIP3    H2 5861   4.663   1.196   4.121
 1974TIP3   OH2 5862   6.445   1.873   3.364
 1974TIP3    H1 5863   6.404   1.791   3.338
 1974TIP3    H2 5864   6.506   1.849   3.434
 1975TIP3   OH2 5865   1.471   6.792   2.910
 1975TIP3    H1 5866   1.550   6.845   2.918
 1975TIP3    H2 5867   1.498   6.704   2.938
 1976TIP3   OH2 5868   4.583   3.876   1.566
 1976TIP3    H1 5869   4.544   3.868   1.479
 1976TIP3    H2 5870   4.596   3.970   1.578
 1977TIP3   OH2 5871   0.763   5.615   3.611
 1977TIP3    H1 5872   0.749   5.548   3.545
 1977TIP3    H2 5873   0.757   5.698   3.563
 1978TIP3   OH2 5874   3.560   1.578   6.056
 1978TIP3    H1 5875   3.561   1.630   6.136
 1978TIP3    H2 5876   3.603   1.633   5.991
 1979TIP3   OH2 5877   4.980   0.506   1.017
 1979TIP3    H1 5878   5.062   0.463   1.041
 1979TIP3    H2 5879   5.007   0.593   0.987
 1980TIP3   OH2 5880   8.125   0.612   2.301
 1980TIP3    H1 5881   8.067   0.571   2.365
 1980TIP3    H2 5882   8.066   0.660   2.243
 1981TIP3   OH2 5883   0.275   4.424   5.457
 1981TIP3    H1 5884   0.248   4.481   5.529
 1981TIP3    H2 5885   0.336   4.477   5.406
 1982TIP3   OH2 5886   0.791   2.301   2.419
 1982TIP3    H1 5887   0.719   2.238   2.414
 1982TIP3    H2 5888   0.862   2.253   2.461
 1983TIP3   OH2 5889   2.685   4.087   0.670
 1983TIP3    H1 5890   2.687   4.157   0.606
 1983TIP3    H2 5891   2.596   4.052   0.665
 1984TIP3   OH2 5892   7.627   1.072   4.003
 1984TIP3    H1 5893   7.538   1.087   4.037
 1984TIP3    H2 5894   7.613   1.052   3.910
 1985TIP3   OH2 5895   0.760   4.686   1.940
 1985TIP3    H1 5896   0.751   4.781   1.929
 1985TIP3    H2 5897   0.742   4.650   1.853
 1986TIP3   OH2 5898   6.536   7.377   2.591
 1986TIP3    H1 5899   6.559   7.465   2.561
 1986TIP3    H2 5900   6.465   7.350   2.533
 1987TIP3   OH2 5901   2.074   2.031   1.609
 1987TIP3    H1 5902   1.986   2.031   1.647
 1987TIP3    H2 5903   2.086   1.941   1.578
 1988TIP3   OH2 5904   7.821   1.711   4.957
 1988TIP3    H1 5905   7.873   1.631   4.941
 1988TIP3    H2 5906   7.741   1.679   4.999
 1989TIP3   OH2 5907   2.802   5.722   4.832
 1989TIP3    H1 5908   2.720   5.747   4.789
 1989TIP3    H2 5909   2.832   5.802   4.875
 1990TIP3   OH2 5910   8.197   5.236   6.154
 1990TIP3    H1 5911   8.199   5.268   6.245
 1990TIP3    H2 5912   8.109   5.257   6.123
 1991TIP3   OH2 5913   0.916   3.332   1.722
 1991TIP3    H1 5914   0.850   3.351   1.655
 1991TIP3    H2 5915   0.912   3.237   1.733
 1992TIP3   OH2 5916   7.372   7.124   3.129
 1992TIP3    H1 5917   7.449   7.131   3.184
 1992TIP3    H2 5918   7.354   7.031   3.123
 1993TIP3   OH2 5919   6.527   3.917   2.859
 1993TIP3    H1 5920   6.615   3.881   2.867
 1993TIP3    H2 5921   6.497   3.888   2.772
 1994TIP3   OH2 5922   5.748   0.818   1.881
 1994TIP3    H1 5923   5.715   0.885   1.820
 1994TIP3    H2 5924   5.786   0.751   1.824
 1995TIP3   OH2 5925   0.932   4.855   0.620
 1995TIP3    H1 5926   0.973   4.773   0.594
 1995TIP3    H2 5927   0.839   4.842   0.603
 1996TIP3   OH2 5928   0.850   0.555   2.520
 1996TIP3    H1 5929   0.877   0.646   2.532
 1996TIP3    H2 5930   0.772   0.546   2.574
 1997TIP3   OH2 5931   5.092   7.571   4.886
 1997TIP3    H1 5932   5.113   7.484   4.919
 1997TIP3    H2 5933   5.019   7.601   4.941
 1998TIP3   OH2 5934   2.459   1.371   0.595
 1998TIP3    H1 5935   2.521   1.320   0.544
 1998TIP3    H2 5936   2.382   1.316   0.602
 1999TIP3   OH2 5937   7.343   5.481   0.668
 1999TIP3    H1 5938   7.403   5.419   0.710
 1999TIP3    H2 5939   7.266   5.428   0.645
 2000TIP3   OH2 5940   3.624   5.920   1.635
 2000TIP3    H1 5941   3.661   6.008   1.641
 2000TIP3    H2 5942   3.530   5.933   1.630
 2001TIP3   OH2 5943   2.907   5.770   3.639
 2001TIP3    H1 5944   2.998   5.740   3.638
 2001TIP3    H2 5945   2.913   5.866   3.639
 2002TIP3   OH2 5946   2.351   5.104   5.488
 2002TIP3    H1 5947   2.273   5.117   5.433
 2002TIP3    H2 5948   2.422   5.092   5.426
 2003TIP3   OH2 5949   7.083   1.671   4.883
 2003TIP3    H1 5950   6.988   1.670   4.896
 2003TIP3    H2 5951   7.098   1.608   4.812
 2004TIP3   OH2 5952   6.796   0.813   6.362
 2004TIP3    H1 5953   6.849   0.844   6.435
 2004TIP3    H2 5954   6.820   0.871   6.289
 2005TIP3   OH2 5955   6.053   1.742   5.730
 2005TIP3    H1 5956   6.115   1.713   5.663
 2005TIP3    H2 5957   6.006   1.815   5.689
 2006TIP3   OH2 5958   2.272   1.477   2.746
 2006TIP3    H1 5959   2.260   1.386   2.717
 2006TIP3    H2 5960   2.253   1.475   2.840
 2007TIP3   OH2 5961   6.146   0.512   4.573
 2007TIP3    H1 5962   6.102   0.462   4.641
 2007TIP3    H2 5963   6.237   0.519   4.603
 2008TIP3   OH2 5964   4.737   1.122   1.562
 2008TIP3    H1 5965   4.729   1.031   1.534
 2008TIP3    H2 5966   4.712   1.174   1.486
 2009TIP3   OH2 5967   5.178   0.667   0.500
 2009TIP3    H1 5968   5.261   0.699   0.464
 2009TIP3    H2 5969   5.200   0.640   0.589
 2010TIP3   OH2 5970   3.739   3.749   1.513
 2010TIP3    H1 5971   3.701   3.836   1.499
 2010TIP3    H2 5972   3.826   3.754   1.474
 2011TIP3   OH2 5973   8.085   0.242   2.804
 2011TIP3    H1 5974   8.103   0.333   2.828
 2011TIP3    H2 5975   8.171   0.203   2.791
 2012TIP3   OH2 5976   4.382   6.812   3.031
 2012TIP3    H1 5977   4.336   6.886   2.990
 2012TIP3    H2 5978   4.317   6.743   3.036
 2013TIP3   OH2 5979   4.529   6.528   2.624
 2013TIP3    H1 5980   4.603   6.564   2.576
 2013TIP3    H2 5981   4.536   6.566   2.712
 2014TIP3   OH2 5982   3.880   0.397   6.290
 2014TIP3    H1 5983   3.872   0.361   6.202
 2014TIP3    H2 5984   3.910   0.323   6.343
 2015TIP3   OH2 5985   0.354   7.136   4.639
 2015TIP3    H1 5986   0.305   7.057   4.660
 2015TIP3    H2 5987   0.300   7.183   4.576
 2016TIP3   OH2 5988   4.930   5.012   6.548
 2016TIP3    H1 5989   4.993   4.953   6.507
 2016TIP3    H2 5990   4.845   4.983   6.514
 2017TIP3   OH2 5991   3.086   6.384   6.120
 2017TIP3    H1 5992   3.126   6.407   6.204
 2017TIP3    H2 5993   3.107   6.292   6.107
 2018TIP3   OH2 5994   1.555   5.195   2.174
 2018TIP3    H1 5995   1.464   5.175   2.196
 2018TIP3    H2 5996   1.569   5.149   2.091
 2019TIP3   OH2 5997   1.421   0.847   1.387
 2019TIP3    H1 5998   1.451   0.799   1.465
 2019TIP3    H2 5999   1.402   0.778   1.323
 2020TIP3   OH2 6000   2.389   4.697   6.605
 2020TIP3    H1 6001   2.385   4.618   6.552
 2020TIP3    H2 6002   2.406   4.666   6.694
 2021TIP3   OH2 6003   4.811   3.670   0.439
 2021TIP3    H1 6004   4.802   3.758   0.476
 2021TIP3    H2 6005   4.864   3.622   0.502
 2022TIP3   OH2 6006   0.239   2.492   1.845
 2022TIP3    H1 6007   0.190   2.559   1.892
 2022TIP3    H2 6008   0.174   2.445   1.794
 2023TIP3   OH2 6009   0.325   2.193   5.009
 2023TIP3    H1 6010   0.267   2.192   5.085
 2023TIP3    H2 6011   0.393   2.129   5.030
 2024TIP3   OH2 6012   4.195   7.674   3.383
 2024TIP3    H1 6013   4.181   7.660   3.289
 2024TIP3    H2 6014   4.287   7.652   3.397
 2025TIP3   OH2 6015   0.403   0.122   0.393
 2025TIP3    H1 6016   0.496   0.102   0.396
 2025TIP3    H2 6017   0.397   0.216   0.407
 2026TIP3   OH2 6018   7.273   4.438   6.523
 2026TIP3    H1 6019   7.218   4.431   6.445
 2026TIP3    H2 6020   7.219   4.405   6.594
 2027TIP3   OH2 6021   6.251   0.176   5.095
 2027TIP3    H1 6022   6.245   0.260   5.140
 2027TIP3    H2 6023   6.171   0.130   5.120
 2028TIP3   OH2 6024   7.594   2.227   0.417
 2028TIP3    H1 6025   7.682   2.218   0.381
 2028TIP3    H2 6026   7.538   2.234   0.340
 2029TIP3   OH2 6027   0.987   6.309   2.579
 2029TIP3    H1 6028   1.014   6.256   2.653
 2029TIP3    H2 6029   1.046   6.284   2.508
 2030TIP3   OH2 6030   3.953   3.367   0.792
 2030TIP3    H1 6031   3.985   3.341   0.878
 2030TIP3    H2 6032   4.016   3.431   0.761
 2031TIP3   OH2 6033   8.118   4.436   2.878
 2031TIP3    H1 6034   8.124   4.504   2.946
 2031TIP3    H2 6035   8.081   4.482   2.802
 2032TIP3   OH2 6036   3.782   5.166   0.291
 2032TIP3    H1 6037   3.754   5.216   0.214
 2032TIP3    H2 6038   3.853   5.110   0.259
 2033TIP3   OH2 6039   6.534   3.732   4.763
 2033TIP3    H1 6040   6.452   3.776   4.740
 2033TIP3    H2 6041   6.539   3.740   4.858
 2034TIP3   OH2 6042   0.133   1.965   3.515
 2034TIP3    H1 6043   0.124   1.892   3.576
 2034TIP3    H2 6044   0.125   2.043   3.570
 2035TIP3   OH2 6045   3.557   7.142   0.864
 2035TIP3    H1 6046   3.465   7.120   0.879
 2035TIP3    H2 6047   3.601   7.119   0.946
 2036TIP3   OH2 6048   0.575   2.072   3.708
 2036TIP3    H1 6049   0.628   2.048   3.784
 2036TIP3    H2 6050   0.542   2.159   3.729
 2037TIP3   OH2 6051   3.757   1.795   2.124
 2037TIP3    H1 6052   3.753   1.881   2.082
 2037TIP3    H2 6053   3.811   1.809   2.201
 2038TIP3   OH2 6054   1.088   0.238   5.622
 2038TIP3    H1 6055   1.174   0.276   5.603
 2038TIP3    H2 6056   1.062   0.279   5.704
 2039TIP3   OH2 6057   2.976   6.831   1.038
 2039TIP3    H1 6058   2.975   6.756   1.097
 2039TIP3    H2 6059   3.038   6.892   1.078
 2040TIP3   OH2 6060   0.633   5.916   1.978
 2040TIP3    H1 6061   0.652   5.908   1.885
 2040TIP3    H2 6062   0.543   5.949   1.982
 2041TIP3   OH2 6063   8.068   0.351   4.740
 2041TIP3    H1 6064   7.996   0.363   4.802
 2041TIP3    H2 6065   8.037   0.393   4.659
 2042TIP3   OH2 6066   5.204   7.640   6.040
 2042TIP3    H1 6067   5.201   7.726   6.082
 2042TIP3    H2 6068   5.278   7.647   5.978
 2043TIP3   OH2 6069   6.332   2.199   4.164
 2043TIP3    H1 6070   6.309   2.287   4.132
 2043TIP3    H2 6071   6.428   2.198   4.165
 2044TIP3   OH2 6072   7.497   5.142   5.235
 2044TIP3    H1 6073   7.451   5.151   5.318
 2044TIP3    H2 6074   7.429   5.158   5.169
 2045TIP3   OH2 6075   3.188   5.690   2.969
 2045TIP3    H1 6076   3.187   5.782   2.996
 2045TIP3    H2 6077   3.206   5.693   2.875
 2046TIP3   OH2 6078   7.272   5.918   3.945
 2046TIP3    H1 6079   7.258   5.929   4.039
 2046TIP3    H2 6080   7.281   5.823   3.933
 2047TIP3   OH2 6081   7.570   6.811   1.646
 2047TIP3    H1 6082   7.582   6.781   1.736
 2047TIP3    H2 6083   7.534   6.899   1.654
 2048TIP3   OH2 6084   7.636   2.087   2.180
 2048TIP3    H1 6085   7.594   2.093   2.094
 2048TIP3    H2 6086   7.598   2.158   2.231
 2049TIP3   OH2 6087   1.032   2.457   6.391
 2049TIP3    H1 6088   1.124   2.432   6.392
 2049TIP3    H2 6089   1.018   2.494   6.304
 2050TIP3   OH2 6090   0.259   3.974   3.370
 2050TIP3    H1 6091   0.351   4.000   3.365
 2050TIP3    H2 6092   0.218   4.015   3.294
 2051TIP3   OH2 6093   1.206   0.114   5.351
 2051TIP3    H1 6094   1.113   0.116   5.326
 2051TIP3    H2 6095   1.236   0.204   5.337
 2052TIP3   OH2 6096   3.869   0.595   4.045
 2052TIP3    H1 6097   3.880   0.518   4.101
 2052TIP3    H2 6098   3.775   0.596   4.023
 2053TIP3   OH2 6099   1.057   1.343   2.507
 2053TIP3    H1 6100   1.153   1.342   2.506
 2053TIP3    H2 6101   1.033   1.263   2.555
 2054TIP3   OH2 6102   3.399   3.217   0.202
 2054TIP3    H1 6103   3.393   3.177   0.289
 2054TIP3    H2 6104   3.361   3.304   0.214
 2055TIP3   OH2 6105   0.059   1.751   2.604
 2055TIP3    H1 6106   0.032   1.843   2.607
 2055TIP3    H2 6107  -0.022   1.702   2.589
 2056TIP3   OH2 6108   1.485   5.051   1.096
 2056TIP3    H1 6109   1.522   4.991   1.031
 2056TIP3    H2 6110   1.441   4.995   1.160
 2057TIP3   OH2 6111   7.892   5.576   3.858
 2057TIP3    H1 6112   7.849   5.570   3.943
 2057TIP3    H2 6113   7.870   5.665   3.827
 2058TIP3   OH2 6114   8.162   5.494   4.481
 2058TIP3    H1 6115   8.231   5.502   4.415
 2058TIP3    H2 6116   8.085   5.533   4.439
 2059TIP3   OH2 6117   7.859   0.662   6.310
 2059TIP3    H1 6118   7.795   0.632   6.246
 2059TIP3    H2 6119   7.926   0.707   6.259
 2060TIP3   OH2 6120   5.660   4.543   1.532
 2060TIP3    H1 6121   5.749   4.539   1.499
 2060TIP3    H2 6122   5.628   4.453   1.529
 2061TIP3   OH2 6123   6.779   4.632   1.242
 2061TIP3    H1 6124   6.837   4.695   1.285
 2061TIP3    H2 6125   6.696   4.640   1.289
 2062TIP3   OH2 6126   4.351   6.164   4.876
 2062TIP3    H1 6127   4.354   6.183   4.970
 2062TIP3    H2 6128   4.294   6.088   4.869
 2063TIP3   OH2 6129   5.280   5.628   6.407
 2063TIP3    H1 6130   5.188   5.601   6.401
 2063TIP3    H2 6131   5.278   5.707   6.461
 2064TIP3   OH2 6132   4.617   4.118   3.087
 2064TIP3    H1 6133   4.668   4.189   3.048
 2064TIP3    H2 6134   4.629   4.128   3.181
 2065TIP3   OH2 6135   4.330   3.877   2.275
 2065TIP3    H1 6136   4.343   3.801   2.219
 2065TIP3    H2 6137   4.408   3.930   2.263
 2066TIP3   OH2 6138   0.720   6.402   1.053
 2066TIP3    H1 6139   0.683   6.417   1.140
 2066TIP3    H2 6140   0.807   6.365   1.071
 2067TIP3   OH2 6141   0.809   6.632   6.696
 2067TIP3    H1 6142   0.792   6.710   6.643
 2067TIP3    H2 6143   0.904   6.626   6.701
 2068TIP3   OH2 6144   0.288   4.838   6.214
 2068TIP3    H1 6145   0.290   4.870   6.304
 2068TIP3    H2 6146   0.207   4.786   6.209
 2069TIP3   OH2 6147   7.769   5.334   6.385
 2069TIP3    H1 6148   7.673   5.330   6.385
 2069TIP3    H2 6149   7.789   5.428   6.380
 2070TIP3   OH2 6150   4.511   5.069   3.823
 2070TIP3    H1 6151   4.578   5.120   3.777
 2070TIP3    H2 6152   4.446   5.133   3.850
 2071TIP3   OH2 6153   4.210   0.924   4.501
 2071TIP3    H1 6154   4.276   0.984   4.466
 2071TIP3    H2 6155   4.214   0.848   4.442
 2072TIP3   OH2 6156   4.597   7.392   2.593
 2072TIP3    H1 6157   4.599   7.425   2.682
 2072TIP3    H2 6158   4.689   7.387   2.567
 2073TIP3   OH2 6159   1.505   1.520   5.819
 2073TIP3    H1 6160   1.424   1.545   5.774
 2073TIP3    H2 6161   1.570   1.580   5.783
 2074TIP3   OH2 6162   4.395   3.296   6.190
 2074TIP3    H1 6163   4.413   3.204   6.207
 2074TIP3    H2 6164   4.444   3.317   6.111
 2075TIP3   OH2 6165   6.325   3.130  -0.017
 2075TIP3    H1 6166   6.336   3.135   0.078
 2075TIP3    H2 6167   6.255   3.192  -0.037
 2076TIP3   OH2 6168   1.287   1.063   3.051
 2076TIP3    H1 6169   1.314   0.972   3.035
 2076TIP3    H2 6170   1.305   1.109   2.969
 2077TIP3   OH2 6171   0.710   6.714   3.483
 2077TIP3    H1 6172   0.792   6.742   3.443
 2077TIP3    H2 6173   0.643   6.765   3.437
 2078TIP3   OH2 6174   7.818   2.069   0.582
 2078TIP3    H1 6175   7.729   2.089   0.553
 2078TIP3    H2 6176   7.846   1.998   0.525
 2079TIP3   OH2 6177   7.393   7.561   5.235
 2079TIP3    H1 6178   7.448   7.623   5.186
 2079TIP3    H2 6179   7.448   7.531   5.307
 2080TIP3   OH2 6180   7.414   0.672   4.897
 2080TIP3    H1 6181   7.331   0.674   4.851
 2080TIP3    H2 6182   7.391   0.661   4.989
 2081TIP3   OH2 6183   5.854   6.732   4.099
 2081TIP3    H1 6184   5.762   6.742   4.124
 2081TIP3    H2 6185   5.895   6.814   4.127
 2082TIP3   OH2 6186   6.609   0.882   5.599
 2082TIP3    H1 6187   6.536   0.895   5.538
 2082TIP3    H2 6188   6.683   0.862   5.542
 2083TIP3   OH2 6189   3.102   5.211   2.684
 2083TIP3    H1 6190   3.120   5.291   2.635
 2083TIP3    H2 6191   3.057   5.154   2.622
 2084TIP3   OH2 6192   3.204   0.587   2.028
 2084TIP3    H1 6193   3.124   0.593   1.974
 2084TIP3    H2 6194   3.252   0.513   1.991
 2085TIP3   OH2 6195   5.827   5.708   2.774
 2085TIP3    H1 6196   5.769   5.674   2.705
 2085TIP3    H2 6197   5.886   5.767   2.728
 2086TIP3   OH2 6198   3.603   4.308   0.285
 2086TIP3    H1 6199   3.607   4.264   0.370
 2086TIP3    H2 6200   3.656   4.254   0.227
 2087TIP3   OH2 6201   3.393   1.166   4.682
 2087TIP3    H1 6202   3.397   1.182   4.588
 2087TIP3    H2 6203   3.476   1.200   4.715
 2088TIP3   OH2 6204   1.020   3.230   2.901
 2088TIP3    H1 6205   1.064   3.303   2.945
 2088TIP3    H2 6206   0.947   3.271   2.854
 2089TIP3   OH2 6207   1.560   5.471   3.207
 2089TIP3    H1 6208   1.612   5.552   3.203
 2089TIP3    H2 6209   1.481   5.496   3.255
 2090TIP3   OH2 6210   8.370   0.938   0.469
 2090TIP3    H1 6211   8.339   1.029   0.470
 2090TIP3    H2 6212   8.294   0.887   0.442
 2091TIP3   OH2 6213   0.737   0.347   6.232
 2091TIP3    H1 6214   0.805   0.411   6.255
 2091TIP3    H2 6215   0.699   0.380   6.151
 2092TIP3   OH2 6216   0.614   3.995   5.899
 2092TIP3    H1 6217   0.600   4.067   5.838
 2092TIP3    H2 6218   0.700   4.012   5.937
 2093TIP3   OH2 6219   0.263   3.423   2.983
 2093TIP3    H1 6220   0.295   3.431   3.073
 2093TIP3    H2 6221   0.169   3.440   2.989
 2094TIP3   OH2 6222   6.217   2.622   3.809
 2094TIP3    H1 6223   6.245   2.694   3.753
 2094TIP3    H2 6224   6.274   2.548   3.784
 2095TIP3   OH2 6225   6.761   0.725   3.441
 2095TIP3    H1 6226   6.822   0.790   3.407
 2095TIP3    H2 6227   6.805   0.641   3.426
 2096TIP3   OH2 6228   6.867   6.444   4.049
 2096TIP3    H1 6229   6.785   6.435   4.000
 2096TIP3    H2 6230   6.878   6.359   4.093
 2097TIP3   OH2 6231   0.838   2.417   5.439
 2097TIP3    H1 6232   0.828   2.324   5.458
 2097TIP3    H2 6233   0.876   2.454   5.518
 2098TIP3   OH2 6234   4.520   2.303   2.522
 2098TIP3    H1 6235   4.458   2.359   2.476
 2098TIP3    H2 6236   4.599   2.303   2.468
 2099TIP3   OH2 6237   4.638   5.057   0.729
 2099TIP3    H1 6238   4.595   4.990   0.676
 2099TIP3    H2 6239   4.731   5.036   0.723
 2100TIP3   OH2 6240   5.384   3.399   5.038
 2100TIP3    H1 6241   5.340   3.320   5.006
 2100TIP3    H2 6242   5.404   3.379   5.130
 2101TIP3   OH2 6243   2.966   1.109   4.133
 2101TIP3    H1 6244   2.915   1.064   4.200
 2101TIP3    H2 6245   2.972   1.200   4.163
 2102TIP3   OH2 6246   1.656   4.592   2.993
 2102TIP3    H1 6247   1.647   4.589   3.089
 2102TIP3    H2 6248   1.699   4.510   2.970
 2103TIP3   OH2 6249   3.918   5.047   3.061
 2103TIP3    H1 6250   3.890   5.025   2.972
 2103TIP3    H2 6251   3.943   4.964   3.100
 2104TIP3   OH2 6252   1.050   4.017   3.284
 2104TIP3    H1 6253   0.964   3.992   3.319
 2104TIP3    H2 6254   1.051   3.981   3.195
 2105TIP3   OH2 6255   7.168   7.737   4.860
 2105TIP3    H1 6256   7.148   7.812   4.803
 2105TIP3    H2 6257   7.232   7.686   4.810
 2106TIP3   OH2 6258   0.496   4.520   2.183
 2106TIP3    H1 6259   0.415   4.563   2.153
 2106TIP3    H2 6260   0.489   4.430   2.150
 2107TIP3   OH2 6261   2.758   5.515   0.153
 2107TIP3    H1 6262   2.755   5.527   0.248
 2107TIP3    H2 6263   2.706   5.588   0.119
 2108TIP3   OH2 6264   3.362   3.148   6.391
 2108TIP3    H1 6265   3.360   3.174   6.483
 2108TIP3    H2 6266   3.271   3.133   6.368
 2109TIP3   OH2 6267   8.210   1.762   6.840
 2109TIP3    H1 6268   8.256   1.730   6.762
 2109TIP3    H2 6269   8.227   1.856   6.841
 2110TIP3   OH2 6270   5.918   7.840   0.210
 2110TIP3    H1 6271   5.986   7.776   0.232
 2110TIP3    H2 6272   5.945   7.920   0.254
 2111TIP3   OH2 6273   3.686   5.240   3.933
 2111TIP3    H1 6274   3.695   5.163   3.877
 2111TIP3    H2 6275   3.597   5.271   3.917
 2112TIP3   OH2 6276   5.231   6.243   2.613
 2112TIP3    H1 6277   5.270   6.199   2.537
 2112TIP3    H2 6278   5.304   6.288   2.654
 2113TIP3   OH2 6279   7.452   5.773   3.045
 2113TIP3    H1 6280   7.507   5.847   3.072
 2113TIP3    H2 6281   7.374   5.779   3.101
 2114TIP3   OH2 6282   5.584   0.444   6.623
 2114TIP3    H1 6283   5.582   0.516   6.560
 2114TIP3    H2 6284   5.497   0.445   6.664
 2115TIP3   OH2 6285   8.342   3.971   3.950
 2115TIP3    H1 6286   8.311   3.934   4.033
 2115TIP3    H2 6287   8.361   4.063   3.971
 2116TIP3   OH2 6288   6.329   0.796   6.188
 2116TIP3    H1 6289   6.324   0.777   6.094
 2116TIP3    H2 6290   6.415   0.764   6.214
 2117TIP3   OH2 6291   0.561   7.757   6.594
 2117TIP3    H1 6292   0.627   7.825   6.608
 2117TIP3    H2 6293   0.557   7.747   6.499
 2118TIP3   OH2 6294   3.106   2.830   3.781
 2118TIP3    H1 6295   3.060   2.798   3.704
 2118TIP3    H2 6296   3.160   2.756   3.809
 2119TIP3   OH2 6297   2.587   2.400   4.433
 2119TIP3    H1 6298   2.541   2.399   4.517
 2119TIP3    H2 6299   2.551   2.476   4.388
 2120TIP3   OH2 6300   4.371   7.707   4.320
 2120TIP3    H1 6301   4.439   7.673   4.379
 2120TIP3    H2 6302   4.334   7.782   4.368
 2121TIP3   OH2 6303   0.250   2.102   6.668
 2121TIP3    H1 6304   0.338   2.098   6.631
 2121TIP3    H2 6305   0.234   2.195   6.682
 2122TIP3   OH2 6306   1.371   0.510   4.761
 2122TIP3    H1 6307   1.292   0.499   4.708
 2122TIP3    H2 6308   1.386   0.424   4.800
 2123TIP3   OH2 6309   5.505   6.062   6.001
 2123TIP3    H1 6310   5.433   6.123   6.020
 2123TIP3    H2 6311   5.561   6.110   5.941
 2124TIP3   OH2 6312   0.140   7.243   4.100
 2124TIP3    H1 6313   0.117   7.236   4.008
 2124TIP3    H2 6314   0.057   7.235   4.147
 2125TIP3   OH2 6315   4.234   3.824   2.904
 2125TIP3    H1 6316   4.239   3.792   2.994
 2125TIP3    H2 6317   4.296   3.769   2.856
 2126TIP3   OH2 6318   0.073   3.729   1.675
 2126TIP3    H1 6319   0.091   3.787   1.601
 2126TIP3    H2 6320   0.084   3.641   1.640
 2127TIP3   OH2 6321   7.064   6.899   4.220
 2127TIP3    H1 6322   7.012   6.821   4.205
 2127TIP3    H2 6323   7.026   6.938   4.299
 2128TIP3   OH2 6324   4.218   6.778   0.710
 2128TIP3    H1 6325   4.313   6.772   0.720
 2128TIP3    H2 6326   4.183   6.713   0.771
 2129TIP3   OH2 6327   4.331   5.526   1.079
 2129TIP3    H1 6328   4.284   5.541   0.997
 2129TIP3    H2 6329   4.316   5.434   1.099
 2130TIP3   OH2 6330   8.082   7.103   1.847
 2130TIP3    H1 6331   8.110   7.115   1.937
 2130TIP3    H2 6332   8.152   7.052   1.806
 2131TIP3   OH2 6333   7.374   3.299   3.973
 2131TIP3    H1 6334   7.309   3.361   4.005
 2131TIP3    H2 6335   7.377   3.231   4.040
 2132TIP3   OH2 6336   1.046   4.628   0.490
 2132TIP3    H1 6337   1.124   4.572   0.486
 2132TIP3    H2 6338   1.066   4.700   0.430
 2133TIP3   OH2 6339   1.278   0.372   5.386
 2133TIP3    H1 6340   1.252   0.446   5.440
 2133TIP3    H2 6341   1.348   0.329   5.436
 2134TIP3   OH2 6342   6.536   7.687   2.550
 2134TIP3    H1 6343   6.469   7.696   2.617
 2134TIP3    H2 6344   6.491   7.706   2.468
 2135TIP3   OH2 6345   3.033   5.444   3.036
 2135TIP3    H1 6346   3.117   5.467   3.076
 2135TIP3    H2 6347   2.976   5.520   3.053
 2136TIP3   OH2 6348   5.723   3.104   4.232
 2136TIP3    H1 6349   5.806   3.093   4.277
 2136TIP3    H2 6350   5.665   3.143   4.297
 2137TIP3   OH2 6351   7.157   6.931   1.601
 2137TIP3    H1 6352   7.172   6.839   1.580
 2137TIP3    H2 6353   7.133   6.931   1.694
 2138TIP3   OH2 6354   5.620   4.753   2.372
 2138TIP3    H1 6355   5.620   4.813   2.297
 2138TIP3    H2 6356   5.677   4.681   2.345
 2139TIP3   OH2 6357   3.063   6.052   4.751
 2139TIP3    H1 6358   2.993   6.118   4.755
 2139TIP3    H2 6359   3.037   5.986   4.815
 2140TIP3   OH2 6360   3.570   7.033   5.385
 2140TIP3    H1 6361   3.539   7.114   5.425
 2140TIP3    H2 6362   3.624   7.061   5.311
 2141TIP3   OH2 6363   4.023   1.276   4.705
 2141TIP3    H1 6364   4.109   1.319   4.709
 2141TIP3    H2 6365   3.965   1.341   4.667
 2142TIP3   OH2 6366   4.446   1.601   3.132
 2142TIP3    H1 6367   4.400   1.517   3.130
 2142TIP3    H2 6368   4.461   1.618   3.225
 2143TIP3   OH2 6369   0.520   4.004   1.230
 2143TIP3    H1 6370   0.517   4.095   1.203
 2143TIP3    H2 6371   0.548   3.956   1.152
 2144TIP3   OH2 6372   1.795   4.999   2.332
 2144TIP3    H1 6373   1.878   5.046   2.336
 2144TIP3    H2 6374   1.739   5.055   2.278
 2145TIP3   OH2 6375   2.426   5.792   1.958
 2145TIP3    H1 6376   2.490   5.804   1.887
 2145TIP3    H2 6377   2.342   5.787   1.914
 2146TIP3   OH2 6378   1.529   7.158   6.505
 2146TIP3    H1 6379   1.549   7.233   6.562
 2146TIP3    H2 6380   1.463   7.109   6.552
 2147TIP3   OH2 6381   0.353   0.406   1.350
 2147TIP3    H1 6382   0.362   0.492   1.308
 2147TIP3    H2 6383   0.375   0.422   1.442
 2148TIP3   OH2 6384   0.105   4.560   4.666
 2148TIP3    H1 6385   0.113   4.640   4.616
 2148TIP3    H2 6386   0.169   4.500   4.628
 2149TIP3   OH2 6387   6.996   1.135   2.142
 2149TIP3    H1 6388   7.063   1.195   2.177
 2149TIP3    H2 6389   7.018   1.127   2.050
 2150TIP3   OH2 6390   0.740   7.571   1.549
 2150TIP3    H1 6391   0.754   7.661   1.581
 2150TIP3    H2 6392   0.809   7.520   1.592
 2151TIP3   OH2 6393   0.302   0.682   5.624
 2151TIP3    H1 6394   0.297   0.735   5.544
 2151TIP3    H2 6395   0.259   0.600   5.601
 2152TIP3   OH2 6396   3.221   5.921   3.279
 2152TIP3    H1 6397   3.266   5.853   3.329
 2152TIP3    H2 6398   3.235   6.002   3.329
 2153TIP3   OH2 6399   3.816   1.648   3.436
 2153TIP3    H1 6400   3.860   1.691   3.363
 2153TIP3    H2 6401   3.726   1.636   3.406
 2154TIP3   OH2 6402   3.298   7.663   1.802
 2154TIP3    H1 6403   3.210   7.689   1.830
 2154TIP3    H2 6404   3.302   7.688   1.710
 2155TIP3   OH2 6405   3.963   0.271   5.018
 2155TIP3    H1 6406   3.968   0.299   5.109
 2155TIP3    H2 6407   4.002   0.343   4.968
 2156TIP3   OH2 6408   0.051   3.045   4.099
 2156TIP3    H1 6409   0.131   3.022   4.052
 2156TIP3    H2 6410   0.060   3.001   4.184
 2157TIP3   OH2 6411   7.241   0.383   1.699
 2157TIP3    H1 6412   7.326   0.424   1.712
 2157TIP3    H2 6413   7.248   0.340   1.614
 2158TIP3   OH2 6414   4.625   2.878   3.909
 2158TIP3    H1 6415   4.579   2.957   3.938
 2158TIP3    H2 6416   4.635   2.889   3.815
 2159TIP3   OH2 6417   0.615   3.734   2.982
 2159TIP3    H1 6418   0.522   3.720   2.963
 2159TIP3    H2 6419   0.661   3.673   2.925
 2160TIP3   OH2 6420   4.100   4.599   3.930
 2160TIP3    H1 6421   4.009   4.571   3.936
 2160TIP3    H2 6422   4.150   4.520   3.950
 2161TIP3   OH2 6423   0.876   4.141   3.035
 2161TIP3    H1 6424   0.792   4.147   2.990
 2161TIP3    H2 6425   0.897   4.047   3.034
 2162TIP3   OH2 6426   6.810   5.215   0.271
 2162TIP3    H1 6427   6.716   5.197   0.268
 2162TIP3    H2 6428   6.848   5.135   0.307
 2163TIP3   OH2 6429   6.562   1.986   0.675
 2163TIP3    H1 6430   6.643   1.965   0.627
 2163TIP3    H2 6431   6.581   2.070   0.716
 2164TIP3   OH2 6432   1.361   4.622   3.643
 2164TIP3    H1 6433   1.370   4.547   3.702
 2164TIP3    H2 6434   1.276   4.660   3.665
 2165TIP3   OH2 6435   5.413   4.360   6.265
 2165TIP3    H1 6436   5.323   4.363   6.297
 2165TIP3    H2 6437   5.407   4.380   6.172
 2166TIP3   OH2 6438   3.110   5.549   3.424
 2166TIP3    H1 6439   3.119   5.637   3.460
 2166TIP3    H2 6440   3.161   5.550   3.343
 2167TIP3   OH2 6441   2.480   1.159   0.102
 2167TIP3    H1 6442   2.393   1.130   0.076
 2167TIP3    H2 6443   2.527   1.079   0.122
 2168TIP3   OH2 6444   5.525   3.276   2.350
 2168TIP3    H1 6445   5.460   3.246   2.413
 2168TIP3    H2 6446   5.609   3.266   2.394
 2169TIP3   OH2 6447   4.939   5.266   5.560
 2169TIP3    H1 6448   4.985   5.339   5.602
 2169TIP3    H2 6449   5.007   5.201   5.545
 2170TIP3   OH2 6450   7.190   3.037   0.084
 2170TIP3    H1 6451   7.237   3.023   0.166
 2170TIP3    H2 6452   7.101   3.008   0.102
 2171TIP3   OH2 6453   8.314   4.554   0.542
 2171TIP3    H1 6454   8.373   4.504   0.599
 2171TIP3    H2 6455   8.283   4.490   0.478
 2172TIP3   OH2 6456   1.314   4.575   5.230
 2172TIP3    H1 6457   1.308   4.517   5.306
 2172TIP3    H2 6458   1.368   4.527   5.168
 2173TIP3   OH2 6459   8.272   6.014   1.396
 2173TIP3    H1 6460   8.277   6.047   1.306
 2173TIP3    H2 6461   8.257   6.091   1.449
 2174TIP3   OH2 6462   6.493   5.884   2.784
 2174TIP3    H1 6463   6.541   5.802   2.775
 2174TIP3    H2 6464   6.560   5.952   2.776
 2175TIP3   OH2 6465   8.181   7.878   6.098
 2175TIP3    H1 6466   8.163   7.923   6.180
 2175TIP3    H2 6467   8.122   7.918   6.035
 2176TIP3   OH2 6468   2.968   0.061   6.235
 2176TIP3    H1 6469   2.902   0.009   6.282
 2176TIP3    H2 6470   3.015  -0.003   6.181
 2177TIP3   OH2 6471   6.000   2.829   3.451
 2177TIP3    H1 6472   6.000   2.882   3.371
 2177TIP3    H2 6473   5.976   2.741   3.422
 2178TIP3   OH2 6474   2.914   6.283   4.880
 2178TIP3    H1 6475   2.826   6.316   4.898
 2178TIP3    H2 6476   2.962   6.300   4.961
 2179TIP3   OH2 6477   5.026   2.078   1.446
 2179TIP3    H1 6478   5.037   2.034   1.362
 2179TIP3    H2 6479   5.053   2.013   1.511
 2180TIP3   OH2 6480   1.344   7.624   2.186
 2180TIP3    H1 6481   1.358   7.697   2.246
 2180TIP3    H2 6482   1.422   7.622   2.131
 2181TIP3   OH2 6483   4.968   7.787   1.138
 2181TIP3    H1 6484   5.049   7.744   1.107
 2181TIP3    H2 6485   4.968   7.771   1.232
 2182TIP3   OH2 6486   4.423   7.886   5.061
 2182TIP3    H1 6487   4.349   7.946   5.047
 2182TIP3    H2 6488   4.383   7.800   5.070
 2183TIP3   OH2 6489   3.841   2.179   3.789
 2183TIP3    H1 6490   3.922   2.169   3.739
 2183TIP3    H2 6491   3.868   2.227   3.868
 2184TIP3   OH2 6492   1.494   3.453   3.817
 2184TIP3    H1 6493   1.438   3.466   3.740
 2184TIP3    H2 6494   1.522   3.542   3.842
 2185TIP3   OH2 6495   4.614   4.428   0.783
 2185TIP3    H1 6496   4.624   4.362   0.853
 2185TIP3    H2 6497   4.684   4.491   0.800
 2186TIP3   OH2 6498   1.258   7.421   1.985
 2186TIP3    H1 6499   1.302   7.501   2.015
 2186TIP3    H2 6500   1.232   7.440   1.895
 2187TIP3   OH2 6501   2.826   6.335   4.228
 2187TIP3    H1 6502   2.827   6.428   4.249
 2187TIP3    H2 6503   2.836   6.291   4.313
 2188TIP3   OH2 6504   3.034   2.311   4.243
 2188TIP3    H1 6505   3.036   2.218   4.264
 2188TIP3    H2 6506   2.968   2.347   4.304
 2189TIP3   OH2 6507   6.249   1.954   2.506
 2189TIP3    H1 6508   6.225   2.047   2.500
 2189TIP3    H2 6509   6.333   1.954   2.553
 2190TIP3   OH2 6510   0.645   4.480   5.087
 2190TIP3    H1 6511   0.551   4.495   5.101
 2190TIP3    H2 6512   0.680   4.458   5.173
 2191TIP3   OH2 6513   6.632   5.153   4.239
 2191TIP3    H1 6514   6.632   5.126   4.331
 2191TIP3    H2 6515   6.700   5.220   4.233
 2192TIP3   OH2 6516   4.053   2.880   1.432
 2192TIP3    H1 6517   4.008   2.818   1.489
 2192TIP3    H2 6518   4.092   2.825   1.364
 2193TIP3   OH2 6519   6.295   3.563   1.407
 2193TIP3    H1 6520   6.216   3.617   1.411
 2193TIP3    H2 6521   6.289   3.506   1.484
 2194TIP3   OH2 6522   8.145   2.504   5.751
 2194TIP3    H1 6523   8.128   2.412   5.731
 2194TIP3    H2 6524   8.123   2.514   5.843
 2195TIP3   OH2 6525   1.155   1.513   5.949
 2195TIP3    H1 6526   1.224   1.557   5.899
 2195TIP3    H2 6527   1.085   1.578   5.957
 2196TIP3   OH2 6528   3.798   3.166   4.877
 2196TIP3    H1 6529   3.734   3.221   4.923
 2196TIP3    H2 6530   3.871   3.158   4.938
 2197TIP3   OH2 6531   3.769   1.504   3.108
 2197TIP3    H1 6532   3.724   1.473   3.029
 2197TIP3    H2 6533   3.700   1.507   3.175
 2198TIP3   OH2 6534   5.928   2.279   1.267
 2198TIP3    H1 6535   5.946   2.301   1.359
 2198TIP3    H2 6536   5.984   2.202   1.251
 2199TIP3   OH2 6537   2.150   1.626   6.622
 2199TIP3    H1 6538   2.199   1.575   6.687
 2199TIP3    H2 6539   2.107   1.694   6.673
 2200TIP3   OH2 6540   5.954   5.043   0.822
 2200TIP3    H1 6541   5.919   5.006   0.903
 2200TIP3    H2 6542   5.900   5.004   0.753
 2201TIP3   OH2 6543   5.696   1.783   2.637
 2201TIP3    H1 6544   5.653   1.865   2.613
 2201TIP3    H2 6545   5.776   1.782   2.584
 2202TIP3   OH2 6546   7.162   6.421   3.052
 2202TIP3    H1 6547   7.161   6.405   3.147
 2202TIP3    H2 6548   7.119   6.506   3.042
 2203TIP3   OH2 6549   4.790   1.387   3.921
 2203TIP3    H1 6550   4.799   1.480   3.902
 2203TIP3    H2 6551   4.872   1.363   3.965
 2204TIP3   OH2 6552   5.763   6.155   5.072
 2204TIP3    H1 6553   5.762   6.248   5.093
 2204TIP3    H2 6554   5.781   6.152   4.978
 2205TIP3   OH2 6555   4.320   4.020   1.567
 2205TIP3    H1 6556   4.398   4.073   1.549
 2205TIP3    H2 6557   4.258   4.045   1.498
 2206TIP3   OH2 6558   6.757   7.276   2.438
 2206TIP3    H1 6559   6.794   7.357   2.472
 2206TIP3    H2 6560   6.665   7.278   2.465
 2207TIP3   OH2 6561   5.804   4.911   5.959
 2207TIP3    H1 6562   5.804   5.000   5.922
 2207TIP3    H2 6563   5.871   4.914   6.027
 2208TIP3   OH2 6564   1.251   3.863   3.541
 2208TIP3    H1 6565   1.279   3.938   3.593
 2208TIP3    H2 6566   1.163   3.844   3.573
 2209TIP3   OH2 6567   5.753   5.873   5.893
 2209TIP3    H1 6568   5.792   5.888   5.979
 2209TIP3    H2 6569   5.750   5.777   5.885
 2210TIP3   OH2 6570   1.427   4.700   0.662
 2210TIP3    H1 6571   1.401   4.737   0.577
 2210TIP3    H2 6572   1.344   4.686   0.708
 2211TIP3   OH2 6573   1.962   4.043   5.932
 2211TIP3    H1 6574   1.945   4.103   6.004
 2211TIP3    H2 6575   2.056   4.023   5.940
 2212TIP3   OH2 6576   4.064   7.345   1.073
 2212TIP3    H1 6577   4.094   7.275   1.131
 2212TIP3    H2 6578   4.051   7.421   1.131
 2213TIP3   OH2 6579   1.834   3.324   4.381
 2213TIP3    H1 6580   1.919   3.320   4.424
 2213TIP3    H2 6581   1.771   3.307   4.450
 2214TIP3   OH2 6582   3.498   6.461   6.642
 2214TIP3    H1 6583   3.521   6.541   6.689
 2214TIP3    H2 6584   3.580   6.412   6.635
 2215TIP3   OH2 6585   1.123   4.333   6.235
 2215TIP3    H1 6586   1.177   4.399   6.192
 2215TIP3    H2 6587   1.081   4.379   6.307
 2216TIP3   OH2 6588   3.426   3.590   0.520
 2216TIP3    H1 6589   3.426   3.495   0.510
 2216TIP3    H2 6590   3.404   3.624   0.433
 2217TIP3   OH2 6591   7.640   5.274   4.456
 2217TIP3    H1 6592   7.639   5.368   4.440
 2217TIP3    H2 6593   7.667   5.266   4.548
 2218TIP3   OH2 6594   2.050   1.565   6.034
 2218TIP3    H1 6595   2.074   1.632   6.098
 2218TIP3    H2 6596   2.060   1.482   6.081
 2219TIP3   OH2 6597   2.077   4.404   3.315
 2219TIP3    H1 6598   2.143   4.342   3.347
 2219TIP3    H2 6599   2.072   4.386   3.221
 2220TIP3   OH2 6600   6.437   6.174   3.110
 2220TIP3    H1 6601   6.391   6.179   3.026
 2220TIP3    H2 6602   6.440   6.080   3.130
 2221TIP3   OH2 6603   6.255   5.150   4.429
 2221TIP3    H1 6604   6.262   5.243   4.409
 2221TIP3    H2 6605   6.206   5.146   4.511
 2222TIP3   OH2 6606   3.358   4.461   3.927
 2222TIP3    H1 6607   3.438   4.409   3.929
 2222TIP3    H2 6608   3.381   4.538   3.875
 2223TIP3   OH2 6609   0.171   6.729   3.774
 2223TIP3    H1 6610   0.213   6.654   3.817
 2223TIP3    H2 6611   0.133   6.692   3.694
 2224TIP3   OH2 6612   1.482   6.499   0.499
 2224TIP3    H1 6613   1.515   6.443   0.429
 2224TIP3    H2 6614   1.498   6.449   0.579
 2225TIP3   OH2 6615   1.496   5.231   4.159
 2225TIP3    H1 6616   1.427   5.214   4.223
 2225TIP3    H2 6617   1.577   5.233   4.210
 2226TIP3   OH2 6618   5.401   6.817   3.559
 2226TIP3    H1 6619   5.400   6.765   3.639
 2226TIP3    H2 6620   5.359   6.761   3.494
 2227TIP3   OH2 6621   4.943   1.293   1.669
 2227TIP3    H1 6622   4.854   1.269   1.643
 2227TIP3    H2 6623   4.999   1.230   1.623
 2228TIP3   OH2 6624   6.043   3.984   2.768
 2228TIP3    H1 6625   6.098   4.030   2.832
 2228TIP3    H2 6626   6.021   3.901   2.811
 2229TIP3   OH2 6627   4.329   3.026   2.492
 2229TIP3    H1 6628   4.367   3.065   2.570
 2229TIP3    H2 6629   4.403   3.011   2.434
 2230TIP3   OH2 6630   7.234   6.688   6.490
 2230TIP3    H1 6631   7.144   6.673   6.461
 2230TIP3    H2 6632   7.246   6.783   6.483
 2231TIP3   OH2 6633   5.705   3.205   1.562
 2231TIP3    H1 6634   5.642   3.187   1.632
 2231TIP3    H2 6635   5.751   3.284   1.590
 2232TIP3   OH2 6636   6.215   4.589   1.417
 2232TIP3    H1 6637   6.163   4.628   1.487
 2232TIP3    H2 6638   6.248   4.507   1.453
 2233TIP3   OH2 6639   4.794   0.960   6.606
 2233TIP3    H1 6640   4.814   0.913   6.525
 2233TIP3    H2 6641   4.724   1.021   6.582
 2234TIP3   OH2 6642   7.215   2.622   0.247
 2234TIP3    H1 6643   7.148   2.554   0.255
 2234TIP3    H2 6644   7.165   2.704   0.241
 2235TIP3   OH2 6645   3.203   1.111   5.838
 2235TIP3    H1 6646   3.226   1.203   5.851
 2235TIP3    H2 6647   3.236   1.090   5.750
 2236TIP3   OH2 6648   5.848   0.373   4.423
 2236TIP3    H1 6649   5.785   0.302   4.415
 2236TIP3    H2 6650   5.798   0.446   4.457
 2237TIP3   OH2 6651   1.114   5.617   0.348
 2237TIP3    H1 6652   1.041   5.672   0.321
 2237TIP3    H2 6653   1.156   5.667   0.418
 2238TIP3   OH2 6654   2.124   7.250   4.136
 2238TIP3    H1 6655   2.187   7.180   4.151
 2238TIP3    H2 6656   2.169   7.312   4.079
 2239TIP3   OH2 6657   6.895   6.500   0.315
 2239TIP3    H1 6658   6.827   6.516   0.380
 2239TIP3    H2 6659   6.876   6.562   0.244
 2240TIP3   OH2 6660   1.031   3.808   6.408
 2240TIP3    H1 6661   1.114   3.817   6.456
 2240TIP3    H2 6662   0.987   3.892   6.419
 2241TIP3   OH2 6663   0.885   4.674   2.307
 2241TIP3    H1 6664   0.901   4.661   2.401
 2241TIP3    H2 6665   0.820   4.607   2.285
 2242TIP3   OH2 6666   0.521   6.593   6.752
 2242TIP3    H1 6667   0.601   6.542   6.740
 2242TIP3    H2 6668   0.552   6.677   6.786
 2243TIP3   OH2 6669   6.175   1.212   0.965
 2243TIP3    H1 6670   6.208   1.122   0.975
 2243TIP3    H2 6671   6.227   1.248   0.893
 2244TIP3   OH2 6672   5.404   2.514   4.688
 2244TIP3    H1 6673   5.411   2.493   4.781
 2244TIP3    H2 6674   5.323   2.471   4.660
 2245TIP3   OH2 6675   2.539   1.388   6.829
 2245TIP3    H1 6676   2.630   1.376   6.803
 2245TIP3    H2 6677   2.543   1.404   6.923
 2246TIP3   OH2 6678   1.915   6.580   2.481
 2246TIP3    H1 6679   1.865   6.545   2.407
 2246TIP3    H2 6680   1.995   6.527   2.483
 2247TIP3   OH2 6681   5.343   1.596   3.217
 2247TIP3    H1 6682   5.257   1.636   3.202
 2247TIP3    H2 6683   5.348   1.526   3.152
 2248TIP3   OH2 6684   4.786   7.582   2.358
 2248TIP3    H1 6685   4.703   7.628   2.371
 2248TIP3    H2 6686   4.801   7.586   2.263
 2249TIP3   OH2 6687   3.012   6.218   4.051
 2249TIP3    H1 6688   2.929   6.253   4.083
 2249TIP3    H2 6689   3.011   6.235   3.957
 2250TIP3   OH2 6690   5.849   5.586   6.732
 2250TIP3    H1 6691   5.807   5.503   6.709
 2250TIP3    H2 6692   5.940   5.563   6.750
 2251TIP3   OH2 6693   6.868   7.714   0.309
 2251TIP3    H1 6694   6.960   7.688   0.306
 2251TIP3    H2 6695   6.871   7.810   0.311
 2252TIP3   OH2 6696   3.489   7.689   4.315
 2252TIP3    H1 6697   3.436   7.708   4.238
 2252TIP3    H2 6698   3.427   7.655   4.379
 2253TIP3   OH2 6699   4.386   1.727   3.600
 2253TIP3    H1 6700   4.425   1.676   3.529
 2253TIP3    H2 6701   4.297   1.692   3.608
 2254TIP3   OH2 6702   5.651   7.737   0.157
 2254TIP3    H1 6703   5.731   7.788   0.168
 2254TIP3    H2 6704   5.652   7.675   0.230
 2255TIP3   OH2 6705   3.910   3.731   3.943
 2255TIP3    H1 6706   3.827   3.683   3.948
 2255TIP3    H2 6707   3.884   3.819   3.916
 2256TIP3   OH2 6708   7.365   1.387   1.825
 2256TIP3    H1 6709   7.281   1.371   1.780
 2256TIP3    H2 6710   7.340   1.413   1.913
 2257TIP3   OH2 6711   5.074   1.824   4.621
 2257TIP3    H1 6712   5.025   1.830   4.703
 2257TIP3    H2 6713   5.031   1.753   4.573
 2258TIP3   OH2 6714   0.797   3.950   3.364
 2258TIP3    H1 6715   0.769   3.858   3.366
 2258TIP3    H2 6716   0.720   3.998   3.334
 2259TIP3   OH2 6717   7.118   1.216   1.865
 2259TIP3    H1 6718   7.032   1.201   1.824
 2259TIP3    H2 6719   7.178   1.163   1.813
 2260TIP3   OH2 6720   7.035   6.076   2.240
 2260TIP3    H1 6721   7.031   6.170   2.260
 2260TIP3    H2 6722   7.087   6.039   2.310
 2261TIP3   OH2 6723   7.931   2.243   2.936
 2261TIP3    H1 6724   7.916   2.148   2.944
 2261TIP3    H2 6725   8.012   2.250   2.886
 2262TIP3   OH2 6726   0.866   1.049   0.663
 2262TIP3    H1 6727   0.863   0.953   0.673
 2262TIP3    H2 6728   0.819   1.082   0.739
 2263TIP3   OH2 6729   5.108   1.297   3.674
 2263TIP3    H1 6730   5.130   1.238   3.746
 2263TIP3    H2 6731   5.188   1.303   3.622
 2264TIP3   OH2 6732   3.108   7.504   3.862
 2264TIP3    H1 6733   3.103   7.516   3.767
 2264TIP3    H2 6734   3.097   7.591   3.899
 2265TIP3   OH2 6735   1.974   6.829   2.329
 2265TIP3    H1 6736   2.056   6.862   2.292
 2265TIP3    H2 6737   1.917   6.816   2.253
 2266TIP3   OH2 6738   4.517   7.011   4.590
 2266TIP3    H1 6739   4.535   6.996   4.683
 2266TIP3    H2 6740   4.564   6.940   4.546
 2267TIP3   OH2 6741   3.968   2.750   3.840
 2267TIP3    H1 6742   4.056   2.732   3.808
 2267TIP3    H2 6743   3.920   2.784   3.764
 2268TIP3   OH2 6744   6.130   7.067   4.617
 2268TIP3    H1 6745   6.066   7.115   4.669
 2268TIP3    H2 6746   6.214   7.106   4.640
 2269TIP3   OH2 6747   4.394   0.880   1.230
 2269TIP3    H1 6748   4.360   0.965   1.256
 2269TIP3    H2 6749   4.329   0.845   1.169
 2270TIP3   OH2 6750   2.776   4.696   1.739
 2270TIP3    H1 6751   2.839   4.765   1.720
 2270TIP3    H2 6752   2.765   4.699   1.834
 2271TIP3   OH2 6753   5.094   4.169   6.519
 2271TIP3    H1 6754   5.145   4.107   6.467
 2271TIP3    H2 6755   5.023   4.117   6.556
 2272TIP3   OH2 6756   2.429   2.071   6.184
 2272TIP3    H1 6757   2.381   2.013   6.242
 2272TIP3    H2 6758   2.393   2.053   6.097
 2273TIP3   OH2 6759   6.133   3.445   3.767
 2273TIP3    H1 6760   6.065   3.411   3.708
 2273TIP3    H2 6761   6.114   3.404   3.851
 2274TIP3   OH2 6762   4.819   6.789   0.020
 2274TIP3    H1 6763   4.891   6.759  -0.036
 2274TIP3    H2 6764   4.852   6.871   0.059
 2275TIP3   OH2 6765   2.844   0.578   6.471
 2275TIP3    H1 6766   2.836   0.482   6.475
 2275TIP3    H2 6767   2.938   0.594   6.472
 2276TIP3   OH2 6768   5.705   4.351   3.458
 2276TIP3    H1 6769   5.692   4.302   3.539
 2276TIP3    H2 6770   5.641   4.314   3.397
 2277TIP3   OH2 6771   6.138   7.413   4.504
 2277TIP3    H1 6772   6.194   7.408   4.581
 2277TIP3    H2 6773   6.067   7.472   4.531
 2278TIP3   OH2 6774   5.391   3.656   5.958
 2278TIP3    H1 6775   5.338   3.733   5.981
 2278TIP3    H2 6776   5.403   3.664   5.863
 2279TIP3   OH2 6777   3.860   6.017   0.721
 2279TIP3    H1 6778   3.875   6.093   0.777
 2279TIP3    H2 6779   3.777   5.981   0.751
 2280TIP3   OH2 6780   7.309   3.005   0.315
 2280TIP3    H1 6781   7.286   2.997   0.407
 2280TIP3    H2 6782   7.349   3.092   0.308
 2281TIP3   OH2 6783   0.407   7.107   6.499
 2281TIP3    H1 6784   0.392   7.182   6.557
 2281TIP3    H2 6785   0.498   7.117   6.471
 2282TIP3   OH2 6786   5.664   7.823   2.265
 2282TIP3    H1 6787   5.619   7.830   2.180
 2282TIP3    H2 6788   5.706   7.909   2.276
 2283TIP3   OH2 6789   2.294   6.078   0.557
 2283TIP3    H1 6790   2.362   6.012   0.573
 2283TIP3    H2 6791   2.326   6.156   0.604
 2284TIP3   OH2 6792   4.519   1.736   2.100
 2284TIP3    H1 6793   4.563   1.756   2.183
 2284TIP3    H2 6794   4.480   1.820   2.073
 2285TIP3   OH2 6795   7.044   2.695   5.290
 2285TIP3    H1 6796   7.062   2.602   5.302
 2285TIP3    H2 6797   7.124   2.739   5.320
 2286TIP3   OH2 6798   0.282   3.470   5.453
 2286TIP3    H1 6799   0.270   3.440   5.543
 2286TIP3    H2 6800   0.318   3.395   5.407
 2287TIP3   OH2 6801   5.323   5.755   4.671
 2287TIP3    H1 6802   5.287   5.696   4.605
 2287TIP3    H2 6803   5.337   5.700   4.748
 2288TIP3   OH2 6804   6.336   0.539   3.401
 2288TIP3    H1 6805   6.401   0.609   3.400
 2288TIP3    H2 6806   6.262   0.575   3.353
 2289TIP3   OH2 6807   0.520   6.970   0.694
 2289TIP3    H1 6808   0.481   7.036   0.637
 2289TIP3    H2 6809   0.577   6.919   0.636
 2290TIP3   OH2 6810   0.274   4.268   5.229
 2290TIP3    H1 6811   0.269   4.305   5.317
 2290TIP3    H2 6812   0.184   4.270   5.197
 2291TIP3   OH2 6813   3.719   3.874   2.279
 2291TIP3    H1 6814   3.747   3.785   2.303
 2291TIP3    H2 6815   3.800   3.917   2.251
 2292TIP3   OH2 6816   6.769   2.671   4.661
 2292TIP3    H1 6817   6.811   2.587   4.676
 2292TIP3    H2 6818   6.741   2.668   4.569
 2293TIP3   OH2 6819   7.048   1.263   5.567
 2293TIP3    H1 6820   6.985   1.266   5.639
 2293TIP3    H2 6821   7.093   1.179   5.578
 2294TIP3   OH2 6822   8.052   2.813   3.631
 2294TIP3    H1 6823   8.135   2.824   3.584
 2294TIP3    H2 6824   7.992   2.875   3.589
 2295TIP3   OH2 6825   1.839   6.730   4.225
 2295TIP3    H1 6826   1.855   6.795   4.156
 2295TIP3    H2 6827   1.744   6.727   4.233
 2296TIP3   OH2 6828   8.215   6.704   6.159
 2296TIP3    H1 6829   8.183   6.719   6.248
 2296TIP3    H2 6830   8.274   6.778   6.143
 2297TIP3   OH2 6831   4.535   1.488   5.904
 2297TIP3    H1 6832   4.520   1.411   5.958
 2297TIP3    H2 6833   4.544   1.560   5.966
 2298TIP3   OH2 6834   3.669   4.112   0.085
 2298TIP3    H1 6835   3.586   4.065   0.078
 2298TIP3    H2 6836   3.733   4.053   0.046
 2299TIP3   OH2 6837   0.470   4.382   0.286
 2299TIP3    H1 6838   0.500   4.318   0.351
 2299TIP3    H2 6839   0.528   4.369   0.211
 2300TIP3   OH2 6840   5.379   6.892   1.327
 2300TIP3    H1 6841   5.395   6.982   1.358
 2300TIP3    H2 6842   5.358   6.902   1.234
 2301TIP3   OH2 6843   3.440   4.957   0.082
 2301TIP3    H1 6844   3.451   5.010   0.161
 2301TIP3    H2 6845   3.346   4.944   0.074
 2302TIP3   OH2 6846   3.710   1.365   5.680
 2302TIP3    H1 6847   3.615   1.360   5.666
 2302TIP3    H2 6848   3.728   1.302   5.750
 2303TIP3   OH2 6849   5.718   6.569   6.445
 2303TIP3    H1 6850   5.771   6.648   6.445
 2303TIP3    H2 6851   5.682   6.565   6.357
 2304TIP3   OH2 6852   4.801   5.208   4.087
 2304TIP3    H1 6853   4.775   5.232   4.176
 2304TIP3    H2 6854   4.879   5.261   4.070
 2305TIP3   OH2 6855   5.194   7.327   6.371
 2305TIP3    H1 6856   5.138   7.348   6.297
 2305TIP3    H2 6857   5.207   7.411   6.416
 2306TIP3   OH2 6858   7.658   3.044   5.003
 2306TIP3    H1 6859   7.734   2.992   5.028
 2306TIP3    H2 6860   7.674   3.067   4.911
 2307TIP3   OH2 6861   6.465   1.244   6.775
 2307TIP3    H1 6862   6.496   1.283   6.857
 2307TIP3    H2 6863   6.484   1.310   6.709
 2308TIP3   OH2 6864   0.076   2.282   2.472
 2308TIP3    H1 6865   0.136   2.353   2.449
 2308TIP3    H2 6866  -0.002   2.298   2.419
 2309TIP3   OH2 6867   4.663   6.075   4.228
 2309TIP3    H1 6868   4.572   6.046   4.226
 2309TIP3    H2 6869   4.697   6.040   4.311
 2310TIP3   OH2 6870   3.732   1.736   1.683
 2310TIP3    H1 6871   3.806   1.765   1.735
 2310TIP3    H2 6872   3.689   1.816   1.654
 2311TIP3   OH2 6873   1.893   2.881   0.502
 2311TIP3    H1 6874   1.902   2.803   0.557
 2311TIP3    H2 6875   1.965   2.873   0.439
 2312TIP3   OH2 6876   5.214   2.557   4.350
 2312TIP3    H1 6877   5.272   2.625   4.383
 2312TIP3    H2 6878   5.157   2.602   4.288
 2313TIP3   OH2 6879   6.023   7.275   2.069
 2313TIP3    H1 6880   5.964   7.320   2.129
 2313TIP3    H2 6881   5.974   7.267   1.988
 2314TIP3   OH2 6882   4.411   6.042   1.683
 2314TIP3    H1 6883   4.458   5.960   1.668
 2314TIP3    H2 6884   4.480   6.109   1.687
 2315TIP3   OH2 6885   7.937   5.946   4.046
 2315TIP3    H1 6886   7.888   6.028   4.039
 2315TIP3    H2 6887   7.870   5.880   4.062
 2316TIP3   OH2 6888   0.190   0.871   2.116
 2316TIP3    H1 6889   0.097   0.850   2.123
 2316TIP3    H2 6890   0.220   0.876   2.207
 2317TIP3   OH2 6891   4.317   6.562   5.467
 2317TIP3    H1 6892   4.371   6.571   5.388
 2317TIP3    H2 6893   4.338   6.639   5.520
 2318TIP3   OH2 6894   0.461   5.923   6.348
 2318TIP3    H1 6895   0.436   6.013   6.366
 2318TIP3    H2 6896   0.551   5.917   6.379
 2319TIP3   OH2 6897   0.734   6.086   6.353
 2319TIP3    H1 6898   0.649   6.115   6.320
 2319TIP3    H2 6899   0.796   6.152   6.323
 2320TIP3   OH2 6900   1.379   5.963   2.858
 2320TIP3    H1 6901   1.376   5.963   2.954
 2320TIP3    H2 6902   1.290   5.942   2.831
 2321TIP3   OH2 6903   4.236   7.013   2.924
 2321TIP3    H1 6904   4.237   7.094   2.873
 2321TIP3    H2 6905   4.185   6.952   2.871
 2322TIP3   OH2 6906   4.627   0.989   5.247
 2322TIP3    H1 6907   4.695   0.924   5.265
 2322TIP3    H2 6908   4.630   1.049   5.321
 2323TIP3   OH2 6909   6.462   6.892   4.666
 2323TIP3    H1 6910   6.529   6.913   4.600
 2323TIP3    H2 6911   6.509   6.847   4.735
 2324TIP3   OH2 6912   3.560   5.744   1.342
 2324TIP3    H1 6913   3.479   5.719   1.386
 2324TIP3    H2 6914   3.557   5.839   1.337
 2325TIP3   OH2 6915   1.711   1.339   2.435
 2325TIP3    H1 6916   1.795   1.300   2.459
 2325TIP3    H2 6917   1.655   1.322   2.510
 2326TIP3   OH2 6918   0.621   3.778   6.641
 2326TIP3    H1 6919   0.569   3.854   6.612
 2326TIP3    H2 6920   0.664   3.809   6.721
 2327TIP3   OH2 6921   6.279   2.715   2.091
 2327TIP3    H1 6922   6.345   2.649   2.111
 2327TIP3    H2 6923   6.320   2.798   2.118
 2328TIP3   OH2 6924   6.629   4.120   6.683
 2328TIP3    H1 6925   6.696   4.116   6.752
 2328TIP3    H2 6926   6.671   4.079   6.607
 2329TIP3   OH2 6927   4.925   5.241   6.334
 2329TIP3    H1 6928   4.906   5.230   6.427
 2329TIP3    H2 6929   4.873   5.174   6.290
 2330TIP3   OH2 6930   7.728   2.236   0.921
 2330TIP3    H1 6931   7.808   2.200   0.884
 2330TIP3    H2 6932   7.676   2.263   0.845
 2331TIP3   OH2 6933   0.306   2.226   5.996
 2331TIP3    H1 6934   0.348   2.223   6.083
 2331TIP3    H2 6935   0.356   2.292   5.948
 2332TIP3   OH2 6936   3.775   5.624   5.866
 2332TIP3    H1 6937   3.808   5.673   5.941
 2332TIP3    H2 6938   3.685   5.653   5.855
 2333TIP3   OH2 6939   6.294   6.427   2.921
 2333TIP3    H1 6940   6.348   6.440   2.843
 2333TIP3    H2 6941   6.231   6.498   2.918
 2334TIP3   OH2 6942   4.905   1.252   2.742
 2334TIP3    H1 6943   4.848   1.208   2.805
 2334TIP3    H2 6944   4.982   1.197   2.736
 2335TIP3   OH2 6945   3.556   2.341   1.484
 2335TIP3    H1 6946   3.503   2.395   1.425
 2335TIP3    H2 6947   3.493   2.306   1.547
 2336TIP3   OH2 6948   3.311   1.263   6.325
 2336TIP3    H1 6949   3.294   1.183   6.276
 2336TIP3    H2 6950   3.247   1.326   6.292
 2337TIP3   OH2 6951   5.255   5.965   4.084
 2337TIP3    H1 6952   5.319   6.035   4.093
 2337TIP3    H2 6953   5.232   5.940   4.174
 2338TIP3   OH2 6954   6.602   6.044   4.650
 2338TIP3    H1 6955   6.569   6.122   4.694
 2338TIP3    H2 6956   6.682   6.073   4.607
 2339TIP3   OH2 6957   1.306   3.722   1.315
 2339TIP3    H1 6958   1.216   3.743   1.340
 2339TIP3    H2 6959   1.305   3.627   1.300
 2340TIP3   OH2 6960   1.017   1.734   4.744
 2340TIP3    H1 6961   1.010   1.829   4.756
 2340TIP3    H2 6962   1.102   1.722   4.702
 2341TIP3   OH2 6963   5.979   0.911   5.935
 2341TIP3    H1 6964   5.976   1.006   5.928
 2341TIP3    H2 6965   5.989   0.881   5.845
 2342TIP3   OH2 6966   2.150   4.098   4.916
 2342TIP3    H1 6967   2.198   4.157   4.856
 2342TIP3    H2 6968   2.063   4.090   4.877
 2343TIP3   OH2 6969   3.784   7.327   3.537
 2343TIP3    H1 6970   3.825   7.369   3.461
 2343TIP3    H2 6971   3.855   7.318   3.600
 2344TIP3   OH2 6972   3.743   7.238   6.654
 2344TIP3    H1 6973   3.720   7.150   6.686
 2344TIP3    H2 6974   3.731   7.232   6.560
 2345TIP3   OH2 6975   5.840   6.690   4.591
 2345TIP3    H1 6976   5.794   6.667   4.510
 2345TIP3    H2 6977   5.933   6.678   4.570
 2346TIP3   OH2 6978   7.109   5.087   0.218
 2346TIP3    H1 6979   7.173   5.137   0.167
 2346TIP3    H2 6980   7.134   5.102   0.309
 2347TIP3   OH2 6981   7.557   2.633   4.222
 2347TIP3    H1 6982   7.608   2.563   4.180
 2347TIP3    H2 6983   7.531   2.596   4.306
 2348TIP3   OH2 6984   4.625   4.349   4.994
 2348TIP3    H1 6985   4.567   4.381   5.062
 2348TIP3    H2 6986   4.637   4.424   4.935
 2349TIP3   OH2 6987   2.056   3.986   5.644
 2349TIP3    H1 6988   2.051   4.012   5.737
 2349TIP3    H2 6989   2.117   4.048   5.605
 2350TIP3   OH2 6990   7.437   1.275   3.122
 2350TIP3    H1 6991   7.350   1.235   3.126
 2350TIP3    H2 6992   7.476   1.256   3.208
 2351TIP3   OH2 6993   4.709   2.932   0.889
 2351TIP3    H1 6994   4.679   2.980   0.966
 2351TIP3    H2 6995   4.798   2.905   0.910
 2352TIP3   OH2 6996   6.519   5.416   4.272
 2352TIP3    H1 6997   6.541   5.327   4.301
 2352TIP3    H2 6998   6.592   5.469   4.304
 2353TIP3   OH2 6999   0.817   1.266   5.679
 2353TIP3    H1 7000   0.800   1.178   5.648
 2353TIP3    H2 7001   0.896   1.294   5.632
 2354TIP3   OH2 7002   1.211   7.794   0.306
 2354TIP3    H1 7003   1.218   7.786   0.211
 2354TIP3    H2 7004   1.293   7.757   0.340
 2355TIP3   OH2 7005   2.732   2.155   4.441
 2355TIP3    H1 7006   2.690   2.237   4.416
 2355TIP3    H2 7007   2.825   2.177   4.447
 2356TIP3   OH2 7008   1.513   1.356   0.840
 2356TIP3    H1 7009   1.476   1.318   0.760
 2356TIP3    H2 7010   1.437   1.390   0.887
 2357TIP3   OH2 7011   0.148   0.614   4.292
 2357TIP3    H1 7012   0.160   0.701   4.329
 2357TIP3    H2 7013   0.189   0.555   4.355
 2358TIP3   OH2 7014   4.616   6.333   3.851
 2358TIP3    H1 7015   4.687   6.271   3.869
 2358TIP3    H2 7016   4.564   6.334   3.932
 2359TIP3   OH2 7017   7.787   3.873   5.468
 2359TIP3    H1 7018   7.815   3.816   5.397
 2359TIP3    H2 7019   7.836   3.954   5.454
 2360TIP3   OH2 7020   2.026   1.519   5.419
 2360TIP3    H1 7021   1.974   1.444   5.390
 2360TIP3    H2 7022   2.102   1.520   5.361
 2361TIP3   OH2 7023   2.335   2.067   3.053
 2361TIP3    H1 7024   2.402   2.124   3.016
 2361TIP3    H2 7025   2.256   2.089   3.004
 2362TIP3   OH2 7026   1.902   6.531   3.598
 2362TIP3    H1 7027   1.929   6.440   3.610
 2362TIP3    H2 7028   1.897   6.567   3.687
 2363TIP3   OH2 7029   3.735   1.855   0.028
 2363TIP3    H1 7030   3.804   1.825   0.088
 2363TIP3    H2 7031   3.780   1.915  -0.032
 2364TIP3   OH2 7032   2.030   5.635   6.603
 2364TIP3    H1 7033   2.062   5.718   6.567
 2364TIP3    H2 7034   2.093   5.570   6.572
 2365TIP3   OH2 7035   0.112   0.475   0.272
 2365TIP3    H1 7036   0.030   0.426   0.262
 2365TIP3    H2 7037   0.174   0.428   0.217
 2366TIP3   OH2 7038   4.412   2.247   3.931
 2366TIP3    H1 7039   4.506   2.228   3.939
 2366TIP3    H2 7040   4.370   2.161   3.934
 2367TIP3   OH2 7041   3.662   5.654   1.655
 2367TIP3    H1 7042   3.615   5.597   1.596
 2367TIP3    H2 7043   3.654   5.741   1.616
 2368TIP3   OH2 7044   4.964   6.696   2.540
 2368TIP3    H1 7045   4.958   6.778   2.492
 2368TIP3    H2 7046   4.924   6.631   2.482
 2369TIP3   OH2 7047   0.816   7.429   0.809
 2369TIP3    H1 7048   0.842   7.390   0.893
 2369TIP3    H2 7049   0.881   7.397   0.746
 2370TIP3   OH2 7050   6.399   5.661   2.119
 2370TIP3    H1 7051   6.490   5.642   2.095
 2370TIP3    H2 7052   6.405   5.700   2.206
 2371TIP3   OH2 7053   1.865   2.791   4.819
 2371TIP3    H1 7054   1.812   2.735   4.763
 2371TIP3    H2 7055   1.864   2.748   4.905
 2372TIP3   OH2 7056   4.674   5.884   0.116
 2372TIP3    H1 7057   4.645   5.804   0.160
 2372TIP3    H2 7058   4.625   5.954   0.160
 2373TIP3   OH2 7059   0.773   4.951  -0.002
 2373TIP3    H1 7060   0.819   5.031  -0.025
 2373TIP3    H2 7061   0.765   4.954   0.094
 2374TIP3   OH2 7062   4.722   6.906   0.491
 2374TIP3    H1 7063   4.796   6.966   0.500
 2374TIP3    H2 7064   4.750   6.842   0.425
 2375TIP3   OH2 7065   5.564   1.144   3.589
 2375TIP3    H1 7066   5.647   1.153   3.542
 2375TIP3    H2 7067   5.528   1.061   3.557
 2376TIP3   OH2 7068   5.398   2.205   4.899
 2376TIP3    H1 7069   5.490   2.177   4.897
 2376TIP3    H2 7070   5.370   2.199   4.808
 2377TIP3   OH2 7071   6.482   3.101   4.500
 2377TIP3    H1 7072   6.390   3.098   4.473
 2377TIP3    H2 7073   6.530   3.121   4.420
 2378TIP3   OH2 7074   4.274   6.329   1.635
 2378TIP3    H1 7075   4.315   6.377   1.564
 2378TIP3    H2 7076   4.182   6.323   1.610
 2379TIP3   OH2 7077   7.591   6.825   0.600
 2379TIP3    H1 7078   7.514   6.824   0.544
 2379TIP3    H2 7079   7.574   6.758   0.666
 2380TIP3   OH2 7080   7.141   7.203   2.169
 2380TIP3    H1 7081   7.108   7.272   2.226
 2380TIP3    H2 7082   7.161   7.249   2.087
 2381TIP3   OH2 7083   7.824   6.409   1.837
 2381TIP3    H1 7084   7.821   6.500   1.805
 2381TIP3    H2 7085   7.905   6.404   1.886
 2382TIP3   OH2 7086   4.569   2.626   2.487
 2382TIP3    H1 7087   4.558   2.565   2.560
 2382TIP3    H2 7088   4.480   2.658   2.470
 2383TIP3   OH2 7089   6.688   5.610   0.345
 2383TIP3    H1 7090   6.626   5.630   0.275
 2383TIP3    H2 7091   6.650   5.648   0.423
 2384TIP3   OH2 7092   8.346   1.898   2.149
 2384TIP3    H1 7093   8.310   1.987   2.145
 2384TIP3    H2 7094   8.440   1.909   2.133
 2385TIP3   OH2 7095   2.149   6.775   5.678
 2385TIP3    H1 7096   2.236   6.813   5.667
 2385TIP3    H2 7097   2.152   6.693   5.628
 2386TIP3   OH2 7098   1.042   6.514   5.149
 2386TIP3    H1 7099   0.953   6.479   5.150
 2386TIP3    H2 7100   1.031   6.608   5.135
 2387TIP3   OH2 7101   4.241   1.130   4.966
 2387TIP3    H1 7102   4.319   1.076   4.958
 2387TIP3    H2 7103   4.273   1.220   4.954
 2388TIP3   OH2 7104   3.637   2.648   1.401
 2388TIP3    H1 7105   3.554   2.666   1.446
 2388TIP3    H2 7106   3.687   2.730   1.409
 2389TIP3   OH2 7107   4.038   6.175   1.864
 2389TIP3    H1 7108   4.057   6.269   1.870
 2389TIP3    H2 7109   4.052   6.154   1.772
 2390TIP3   OH2 7110   1.394   3.140   5.225
 2390TIP3    H1 7111   1.300   3.149   5.207
 2390TIP3    H2 7112   1.412   3.206   5.291
 2391TIP3   OH2 7113   7.086   2.704   1.890
 2391TIP3    H1 7114   7.135   2.725   1.811
 2391TIP3    H2 7115   7.081   2.608   1.890
 2392TIP3   OH2 7116   6.355   1.013   5.802
 2392TIP3    H1 7117   6.287   1.026   5.735
 2392TIP3    H2 7118   6.334   0.929   5.842
 2393TIP3   OH2 7119   5.813   3.394   4.524
 2393TIP3    H1 7120   5.836   3.481   4.491
 2393TIP3    H2 7121   5.848   3.393   4.614
 2394TIP3   OH2 7122   5.362   7.283   2.358
 2394TIP3    H1 7123   5.395   7.239   2.280
 2394TIP3    H2 7124   5.404   7.238   2.431
 2395TIP3   OH2 7125   1.430   5.564   2.708
 2395TIP3    H1 7126   1.342   5.600   2.723
 2395TIP3    H2 7127   1.417   5.469   2.707
 2396TIP3   OH2 7128   3.647   1.160   4.783
 2396TIP3    H1 7129   3.722   1.100   4.776
 2396TIP3    H2 7130   3.644   1.184   4.876
 2397TIP3   OH2 7131   6.929   4.749   5.843
 2397TIP3    H1 7132   7.018   4.767   5.811
 2397TIP3    H2 7133   6.876   4.821   5.809
 2398TIP3   OH2 7134   4.221   0.539   5.087
 2398TIP3    H1 7135   4.159   0.503   5.024
 2398TIP3    H2 7136   4.193   0.629   5.101
 2399TIP3   OH2 7137   8.056   4.324   6.758
 2399TIP3    H1 7138   8.008   4.349   6.837
 2399TIP3    H2 7139   8.114   4.398   6.741
 2400TIP3   OH2 7140   4.597   5.047   3.416
 2400TIP3    H1 7141   4.658   5.008   3.479
 2400TIP3    H2 7142   4.636   5.031   3.330
 2401TIP3   OH2 7143   5.031   6.695   3.497
 2401TIP3    H1 7144   4.951   6.707   3.548
 2401TIP3    H2 7145   5.066   6.784   3.486
 2402TIP3   OH2 7146   2.429   3.733   2.235
 2402TIP3    H1 7147   2.344   3.710   2.197
 2402TIP3    H2 7148   2.488   3.738   2.160
 2403TIP3   OH2 7149   1.129   1.029   2.246
 2403TIP3    H1 7150   1.201   1.078   2.287
 2403TIP3    H2 7151   1.103   1.083   2.172
 2404TIP3   OH2 7152   5.047   1.297   3.954
 2404TIP3    H1 7153   5.097   1.218   3.978
 2404TIP3    H2 7154   5.114   1.365   3.945
 2405TIP3   OH2 7155   2.915   7.851   6.271
 2405TIP3    H1 7156   3.003   7.812   6.272
 2405TIP3    H2 7157   2.912   7.905   6.349
 2406TIP3   OH2 7158   8.137   2.305   1.979
 2406TIP3    H1 7159   8.129   2.225   1.928
 2406TIP3    H2 7160   8.155   2.275   2.068
 2407TIP3   OH2 7161   7.318   2.495   2.315
 2407TIP3    H1 7162   7.225   2.478   2.330
 2407TIP3    H2 7163   7.336   2.575   2.365
 2408TIP3   OH2 7164   1.264   4.410   2.795
 2408TIP3    H1 7165   1.189   4.469   2.784
 2408TIP3    H2 7166   1.246   4.336   2.737
 2409TIP3   OH2 7167   3.502   4.941   3.907
 2409TIP3    H1 7168   3.508   4.914   3.815
 2409TIP3    H2 7169   3.565   4.884   3.952
 2410TIP3   OH2 7170   0.564   7.578   3.697
 2410TIP3    H1 7171   0.597   7.667   3.708
 2410TIP3    H2 7172   0.555   7.545   3.787
 2411TIP3   OH2 7173   6.846   5.674   1.752
 2411TIP3    H1 7174   6.874   5.714   1.670
 2411TIP3    H2 7175   6.761   5.635   1.732
 2412TIP3   OH2 7176   3.059   6.568   6.627
 2412TIP3    H1 7177   3.049   6.654   6.668
 2412TIP3    H2 7178   2.988   6.564   6.563
 2413TIP3   OH2 7179   6.510   5.446   4.980
 2413TIP3    H1 7180   6.469   5.368   4.944
 2413TIP3    H2 7181   6.593   5.454   4.932
 2414TIP3   OH2 7182   6.698   6.079   3.296
 2414TIP3    H1 7183   6.767   6.029   3.252
 2414TIP3    H2 7184   6.622   6.021   3.295
 2415TIP3   OH2 7185   5.547   1.463   4.059
 2415TIP3    H1 7186   5.530   1.498   3.972
 2415TIP3    H2 7187   5.549   1.368   4.047
 2416TIP3   OH2 7188   1.608   7.255   1.543
 2416TIP3    H1 7189   1.528   7.284   1.500
 2416TIP3    H2 7190   1.578   7.207   1.621
 2417TIP3   OH2 7191   3.449   3.216   0.687
 2417TIP3    H1 7192   3.460   3.303   0.726
 2417TIP3    H2 7193   3.492   3.157   0.748
 2418TIP3   OH2 7194   3.520   4.515   6.556
 2418TIP3    H1 7195   3.467   4.565   6.493
 2418TIP3    H2 7196   3.595   4.486   6.505
 2419TIP3   OH2 7197   0.345   2.879   4.993
 2419TIP3    H1 7198   0.420   2.937   4.986
 2419TIP3    H2 7199   0.370   2.814   5.058
 2420TIP3   OH2 7200   2.124   5.756   3.336
 2420TIP3    H1 7201   2.143   5.695   3.406
 2420TIP3    H2 7202   2.199   5.748   3.276
 2421TIP3   OH2 7203   3.962   4.090   5.797
 2421TIP3    H1 7204   4.047   4.049   5.815
 2421TIP3    H2 7205   3.953   4.157   5.865
 2422TIP3   OH2 7206   7.763   2.948   2.990
 2422TIP3    H1 7207   7.775   3.034   3.029
 2422TIP3    H2 7208   7.769   2.962   2.896
 2423TIP3   OH2 7209   0.240   2.274   3.348
 2423TIP3    H1 7210   0.296   2.297   3.423
 2423TIP3    H2 7211   0.264   2.184   3.327
 2424TIP3   OH2 7212   6.762   0.466   5.053
 2424TIP3    H1 7213   6.826   0.456   4.983
 2424TIP3    H2 7214   6.678   0.445   5.012
 2425TIP3   OH2 7215   3.800   7.409   0.436
 2425TIP3    H1 7216   3.794   7.419   0.531
 2425TIP3    H2 7217   3.761   7.489   0.401
 2426TIP3   OH2 7218   0.011   0.884   3.011
 2426TIP3    H1 7219   0.085   0.944   3.003
 2426TIP3    H2 7220   0.038   0.806   2.963
 2427TIP3   OH2 7221   2.501   1.207   5.668
 2427TIP3    H1 7222   2.497   1.128   5.722
 2427TIP3    H2 7223   2.411   1.238   5.663
 2428TIP3   OH2 7224   8.383   4.020   1.737
 2428TIP3    H1 7225   8.309   4.018   1.677
 2428TIP3    H2 7226   8.457   3.986   1.686
 2429TIP3   OH2 7227   1.682   0.511   4.567
 2429TIP3    H1 7228   1.687   0.462   4.650
 2429TIP3    H2 7229   1.593   0.497   4.536
 2430TIP3   OH2 7230   1.632   5.012   2.775
 2430TIP3    H1 7231   1.694   5.083   2.759
 2430TIP3    H2 7232   1.665   4.968   2.853
 2431TIP3   OH2 7233   4.692   4.640   5.738
 2431TIP3    H1 7234   4.719   4.699   5.808
 2431TIP3    H2 7235   4.653   4.698   5.672
 2432TIP3   OH2 7236   3.788   2.988   5.757
 2432TIP3    H1 7237   3.801   2.935   5.678
 2432TIP3    H2 7238   3.694   2.987   5.771
 2433TIP3   OH2 7239   4.354   4.559   0.083
 2433TIP3    H1 7240   4.347   4.513   0.167
 2433TIP3    H2 7241   4.404   4.638   0.103
 2434TIP3   OH2 7242   6.840   1.064   4.207
 2434TIP3    H1 7243   6.834   0.997   4.275
 2434TIP3    H2 7244   6.865   1.015   4.128
 2435TIP3   OH2 7245   4.272   5.887   3.379
 2435TIP3    H1 7246   4.229   5.923   3.457
 2435TIP3    H2 7247   4.355   5.933   3.375
 2436TIP3   OH2 7248   8.043   3.802   1.101
 2436TIP3    H1 7249   7.964   3.749   1.116
 2436TIP3    H2 7250   8.058   3.795   1.006
 2437TIP3   OH2 7251   8.061   1.824   4.910
 2437TIP3    H1 7252   7.980   1.787   4.944
 2437TIP3    H2 7253   8.125   1.810   4.980
 2438TIP3   OH2 7254   2.696   5.853   0.713
 2438TIP3    H1 7255   2.740   5.768   0.707
 2438TIP3    H2 7256   2.764   5.916   0.692
 2439TIP3   OH2 7257   0.359   0.640   1.238
 2439TIP3    H1 7258   0.288   0.681   1.188
 2439TIP3    H2 7259   0.433   0.700   1.226
 2440TIP3   OH2 7260   3.226   6.449   0.878
 2440TIP3    H1 7261   3.232   6.540   0.850
 2440TIP3    H2 7262   3.318   6.422   0.889
 2441TIP3   OH2 7263   1.622   5.075   1.922
 2441TIP3    H1 7264   1.642   5.061   1.829
 2441TIP3    H2 7265   1.707   5.088   1.963
 2442TIP3   OH2 7266   0.984   0.236   3.294
 2442TIP3    H1 7267   1.070   0.236   3.251
 2442TIP3    H2 7268   1.003   0.241   3.387
 2443TIP3   OH2 7269   3.105   0.977   1.732
 2443TIP3    H1 7270   3.124   0.896   1.686
 2443TIP3    H2 7271   3.129   0.959   1.823
 2444TIP3   OH2 7272   2.276   7.655   2.974
 2444TIP3    H1 7273   2.308   7.585   2.917
 2444TIP3    H2 7274   2.311   7.735   2.934
 2445TIP3   OH2 7275  -0.006   5.474   6.596
 2445TIP3    H1 7276   0.045   5.463   6.676
 2445TIP3    H2 7277   0.058   5.472   6.525
 2446TIP3   OH2 7278   4.820   2.874   2.935
 2446TIP3    H1 7279   4.866   2.920   3.005
 2446TIP3    H2 7280   4.739   2.924   2.922
 2447TIP3   OH2 7281   1.568   4.009   6.571
 2447TIP3    H1 7282   1.595   3.918   6.583
 2447TIP3    H2 7283   1.533   4.035   6.656
 2448TIP3   OH2 7284   3.685   4.932   2.568
 2448TIP3    H1 7285   3.710   4.924   2.476
 2448TIP3    H2 7286   3.661   5.024   2.579
 2449TIP3   OH2 7287   0.154   3.899   4.302
 2449TIP3    H1 7288   0.197   3.898   4.217
 2449TIP3    H2 7289   0.192   3.975   4.348
 2450TIP3   OH2 7290   4.027   1.613   1.858
 2450TIP3    H1 7291   4.117   1.626   1.828
 2450TIP3    H2 7292   3.988   1.701   1.853
 2451TIP3   OH2 7293   8.092   3.613   2.538
 2451TIP3    H1 7294   8.066   3.700   2.567
 2451TIP3    H2 7295   8.055   3.553   2.603
 2452TIP3   OH2 7296   4.582   4.229   0.122
 2452TIP3    H1 7297   4.490   4.252   0.107
 2452TIP3    H2 7298   4.629   4.311   0.110
 2453TIP3   OH2 7299   0.539   2.971   1.241
 2453TIP3    H1 7300   0.452   2.983   1.205
 2453TIP3    H2 7301   0.597   3.019   1.182
 2454TIP3   OH2 7302   0.178   1.548   5.892
 2454TIP3    H1 7303   0.146   1.499   5.967
 2454TIP3    H2 7304   0.272   1.557   5.908
 2455TIP3   OH2 7305   8.004   5.039   3.708
 2455TIP3    H1 7306   8.075   4.999   3.658
 2455TIP3    H2 7307   7.960   4.965   3.750
 2456TIP3   OH2 7308   4.835   1.082   2.941
 2456TIP3    H1 7309   4.923   1.049   2.958
 2456TIP3    H2 7310   4.790   1.008   2.900
 2457TIP3   OH2 7311   1.011   4.234   3.471
 2457TIP3    H1 7312   1.046   4.177   3.402
 2457TIP3    H2 7313   1.067   4.216   3.547
 2458TIP3   OH2 7314   6.801   7.176   5.698
 2458TIP3    H1 7315   6.873   7.224   5.739
 2458TIP3    H2 7316   6.840   7.137   5.620
 2459TIP3   OH2 7317   8.178   7.488   2.361
 2459TIP3    H1 7318   8.131   7.427   2.303
 2459TIP3    H2 7319   8.152   7.574   2.329
 2460TIP3   OH2 7320   1.209   2.131   4.643
 2460TIP3    H1 7321   1.270   2.069   4.684
 2460TIP3    H2 7322   1.123   2.105   4.675
 2461TIP3   OH2 7323   6.676   2.944   3.577
 2461TIP3    H1 7324   6.673   2.851   3.599
 2461TIP3    H2 7325   6.763   2.973   3.605
 2462TIP3   OH2 7326   6.998   4.895   2.107
 2462TIP3    H1 7327   6.962   4.964   2.162
 2462TIP3    H2 7328   6.976   4.922   2.018
 2463TIP3   OH2 7329   4.857   0.546   6.805
 2463TIP3    H1 7330   4.942   0.590   6.808
 2463TIP3    H2 7331   4.876   0.454   6.822
 2464TIP3   OH2 7332   7.156   5.475   4.233
 2464TIP3    H1 7333   7.078   5.426   4.207
 2464TIP3    H2 7334   7.217   5.408   4.265
 2465TIP3   OH2 7335   6.151   5.842   4.269
 2465TIP3    H1 7336   6.070   5.877   4.306
 2465TIP3    H2 7337   6.180   5.777   4.334
 2466TIP3   OH2 7338   6.620   0.614   6.627
 2466TIP3    H1 7339   6.617   0.699   6.583
 2466TIP3    H2 7340   6.564   0.626   6.704
 2467TIP3   OH2 7341   6.629   7.265   6.188
 2467TIP3    H1 7342   6.565   7.306   6.246
 2467TIP3    H2 7343   6.594   7.279   6.100
 2468TIP3   OH2 7344   2.699   5.002   5.923
 2468TIP3    H1 7345   2.760   4.941   5.964
 2468TIP3    H2 7346   2.750   5.082   5.908
 2469TIP3   OH2 7347   2.152   1.255   4.257
 2469TIP3    H1 7348   2.069   1.287   4.219
 2469TIP3    H2 7349   2.206   1.236   4.181
 2470TIP3   OH2 7350   2.680   2.562   1.545
 2470TIP3    H1 7351   2.768   2.549   1.579
 2470TIP3    H2 7352   2.629   2.490   1.582
 2471TIP3   OH2 7353   3.630   0.773   0.537
 2471TIP3    H1 7354   3.640   0.724   0.455
 2471TIP3    H2 7355   3.702   0.836   0.536
 2472TIP3   OH2 7356   6.035   0.368   3.342
 2472TIP3    H1 7357   6.033   0.425   3.265
 2472TIP3    H2 7358   6.022   0.427   3.416
 2473TIP3   OH2 7359   3.425   0.645   6.430
 2473TIP3    H1 7360   3.447   0.731   6.467
 2473TIP3    H2 7361   3.504   0.618   6.384
 2474TIP3   OH2 7362   0.267   4.053   6.438
 2474TIP3    H1 7363   0.234   3.964   6.422
 2474TIP3    H2 7364   0.230   4.105   6.367
 2475TIP3   OH2 7365   8.185   2.643   6.297
 2475TIP3    H1 7366   8.243   2.570   6.274
 2475TIP3    H2 7367   8.163   2.683   6.213
 2476TIP3   OH2 7368   5.398   3.698   3.462
 2476TIP3    H1 7369   5.449   3.677   3.384
 2476TIP3    H2 7370   5.362   3.784   3.444
 2477TIP3   OH2 7371   1.582   2.964   5.166
 2477TIP3    H1 7372   1.667   2.996   5.198
 2477TIP3    H2 7373   1.521   3.035   5.187
 2478TIP3   OH2 7374   0.140   3.844   6.062
 2478TIP3    H1 7375   0.233   3.845   6.086
 2478TIP3    H2 7376   0.138   3.877   5.972
 2479TIP3   OH2 7377   0.246   2.644   5.415
 2479TIP3    H1 7378   0.206   2.593   5.345
 2479TIP3    H2 7379   0.256   2.582   5.487
 2480TIP3   OH2 7380   7.079   2.479   5.069
 2480TIP3    H1 7381   7.066   2.465   5.163
 2480TIP3    H2 7382   7.161   2.434   5.049
 2481TIP3   OH2 7383   3.302   1.475   1.295
 2481TIP3    H1 7384   3.397   1.460   1.301
 2481TIP3    H2 7385   3.263   1.397   1.333
 2482TIP3   OH2 7386   2.309   5.044   3.897
 2482TIP3    H1 7387   2.333   5.075   3.984
 2482TIP3    H2 7388   2.356   5.103   3.837
 2483TIP3   OH2 7389   1.509   7.227   0.429
 2483TIP3    H1 7390   1.467   7.306   0.396
 2483TIP3    H2 7391   1.439   7.179   0.473
 2484TIP3   OH2 7392   0.105   5.160   1.029
 2484TIP3    H1 7393   0.138   5.218   0.961
 2484TIP3    H2 7394   0.179   5.104   1.051
 2485TIP3   OH2 7395   3.207   0.774   5.431
 2485TIP3    H1 7396   3.213   0.810   5.519
 2485TIP3    H2 7397   3.177   0.848   5.377
 2486TIP3   OH2 7398   6.219   0.752   6.821
 2486TIP3    H1 7399   6.272   0.832   6.817
 2486TIP3    H2 7400   6.279   0.683   6.792
 2487TIP3   OH2 7401   5.218   5.399   3.467
 2487TIP3    H1 7402   5.261   5.336   3.524
 2487TIP3    H2 7403   5.263   5.482   3.485
 2488TIP3   OH2 7404   3.865   1.440   4.573
 2488TIP3    H1 7405   3.906   1.488   4.502
 2488TIP3    H2 7406   3.773   1.463   4.568
 2489TIP3   OH2 7407   1.636   3.742   1.602
 2489TIP3    H1 7408   1.651   3.703   1.516
 2489TIP3    H2 7409   1.545   3.722   1.622
 2490TIP3   OH2 7410   2.419   4.539   0.380
 2490TIP3    H1 7411   2.513   4.521   0.379
 2490TIP3    H2 7412   2.382   4.470   0.434
 2491TIP3   OH2 7413   5.780   1.003   3.401
 2491TIP3    H1 7414   5.813   1.055   3.328
 2491TIP3    H2 7415   5.689   0.984   3.378
 2492TIP3   OH2 7416   7.485   2.479   2.773
 2492TIP3    H1 7417   7.575   2.486   2.744
 2492TIP3    H2 7418   7.488   2.499   2.867
 2493TIP3   OH2 7419   1.616   5.851   6.356
 2493TIP3    H1 7420   1.674   5.775   6.362
 2493TIP3    H2 7421   1.559   5.843   6.432
 2494TIP3   OH2 7422   2.580   5.551   0.401
 2494TIP3    H1 7423   2.614   5.461   0.407
 2494TIP3    H2 7424   2.658   5.606   0.413
 2495TIP3   OH2 7425   6.895   6.687   0.943
 2495TIP3    H1 7426   6.868   6.666   0.854
 2495TIP3    H2 7427   6.879   6.607   0.993
 2496TIP3   OH2 7428   2.323   1.849   0.488
 2496TIP3    H1 7429   2.383   1.883   0.421
 2496TIP3    H2 7430   2.329   1.753   0.479
 2497TIP3   OH2 7431   6.031   5.119   2.379
 2497TIP3    H1 7432   5.987   5.155   2.302
 2497TIP3    H2 7433   6.039   5.026   2.361
 2498TIP3   OH2 7434   0.843   3.204   1.348
 2498TIP3    H1 7435   0.931   3.240   1.356
 2498TIP3    H2 7436   0.855   3.121   1.303
 2499TIP3   OH2 7437   5.573   6.383   1.044
 2499TIP3    H1 7438   5.514   6.425   0.980
 2499TIP3    H2 7439   5.616   6.314   0.994
 2500TIP3   OH2 7440   7.810   1.685   3.477
 2500TIP3    H1 7441   7.810   1.642   3.392
 2500TIP3    H2 7442   7.758   1.764   3.465
 2501TIP3   OH2 7443   8.035   6.430   5.379
 2501TIP3    H1 7444   7.983   6.447   5.457
 2501TIP3    H2 7445   8.121   6.405   5.412
 2502TIP3   OH2 7446   0.201   7.780   6.662
 2502TIP3    H1 7447   0.113   7.811   6.680
 2502TIP3    H2 7448   0.253   7.860   6.653
 2503TIP3   OH2 7449   6.185   1.995   4.410
 2503TIP3    H1 7450   6.150   1.910   4.435
 2503TIP3    H2 7451   6.258   2.010   4.471
 2504TIP3   OH2 7452   2.237   2.540   4.747
 2504TIP3    H1 7453   2.179   2.482   4.797
 2504TIP3    H2 7454   2.178   2.600   4.702
 2505TIP3   OH2 7455   2.795   0.711   5.042
 2505TIP3    H1 7456   2.860   0.740   5.106
 2505TIP3    H2 7457   2.789   0.783   4.979
 2506TIP3   OH2 7458   1.353   0.197   4.376
 2506TIP3    H1 7459   1.444   0.174   4.356
 2506TIP3    H2 7460   1.343   0.173   4.468
 2507TIP3   OH2 7461   0.982   1.842   4.132
 2507TIP3    H1 7462   0.915   1.883   4.187
 2507TIP3    H2 7463   1.013   1.768   4.184
 2508TIP3   OH2 7464   4.581   4.421   5.847
 2508TIP3    H1 7465   4.583   4.512   5.818
 2508TIP3    H2 7466   4.622   4.422   5.933
 2509TIP3   OH2 7467   1.259   5.273   3.295
 2509TIP3    H1 7468   1.183   5.249   3.348
 2509TIP3    H2 7469   1.322   5.310   3.356
 2510TIP3   OH2 7470   4.265   6.416   6.043
 2510TIP3    H1 7471   4.264   6.477   5.969
 2510TIP3    H2 7472   4.202   6.348   6.020
 2511TIP3   OH2 7473   7.279   6.320   6.793
 2511TIP3    H1 7474   7.183   6.316   6.786
 2511TIP3    H2 7475   7.297   6.304   6.886
 2512TIP3   OH2 7476   7.276   0.965   2.875
 2512TIP3    H1 7477   7.323   1.048   2.861
 2512TIP3    H2 7478   7.321   0.903   2.818
 2513TIP3   OH2 7479   3.302   6.053   4.618
 2513TIP3    H1 7480   3.219   6.048   4.667
 2513TIP3    H2 7481   3.297   5.981   4.556
 2514TIP3   OH2 7482   5.307   1.226   4.693
 2514TIP3    H1 7483   5.385   1.248   4.743
 2514TIP3    H2 7484   5.249   1.184   4.757
 2515TIP3   OH2 7485   8.293   0.476   5.775
 2515TIP3    H1 7486   8.356   0.488   5.846
 2515TIP3    H2 7487   8.251   0.561   5.766
 2516TIP3   OH2 7488   6.434   7.455   5.749
 2516TIP3    H1 7489   6.504   7.424   5.807
 2516TIP3    H2 7490   6.356   7.407   5.777
 2517TIP3   OH2 7491   0.123   5.669   4.725
 2517TIP3    H1 7492   0.136   5.659   4.631
 2517TIP3    H2 7493   0.171   5.596   4.764
 2518TIP3   OH2 7494   2.447   7.529   2.431
 2518TIP3    H1 7495   2.406   7.615   2.419
 2518TIP3    H2 7496   2.384   7.468   2.392
 2519TIP3   OH2 7497   4.198   7.163   6.165
 2519TIP3    H1 7498   4.189   7.138   6.257
 2519TIP3    H2 7499   4.272   7.111   6.133
 2520TIP3   OH2 7500   5.299   7.643   5.620
 2520TIP3    H1 7501   5.385   7.602   5.624
 2520TIP3    H2 7502   5.317   7.736   5.611
 2521TIP3   OH2 7503   0.447   4.473   1.156
 2521TIP3    H1 7504   0.383   4.537   1.186
 2521TIP3    H2 7505   0.521   4.525   1.126
 2522TIP3   OH2 7506   2.844   3.895   4.106
 2522TIP3    H1 7507   2.861   3.896   4.200
 2522TIP3    H2 7508   2.749   3.909   4.099
 2523TIP3   OH2 7509   3.298   5.790   4.106
 2523TIP3    H1 7510   3.316   5.696   4.110
 2523TIP3    H2 7511   3.348   5.827   4.179
 2524TIP3   OH2 7512   2.601   2.623   1.896
 2524TIP3    H1 7513   2.529   2.624   1.833
 2524TIP3    H2 7514   2.560   2.603   1.980
 2525TIP3   OH2 7515   0.147   0.577   1.771
 2525TIP3    H1 7516   0.157   0.607   1.681
 2525TIP3    H2 7517   0.053   0.567   1.783
 2526TIP3   OH2 7518   4.649   4.859   2.178
 2526TIP3    H1 7519   4.607   4.932   2.223
 2526TIP3    H2 7520   4.699   4.899   2.107
 2527TIP3   OH2 7521   0.337   0.783   1.554
 2527TIP3    H1 7522   0.428   0.791   1.525
 2527TIP3    H2 7523   0.304   0.706   1.507
 2528TIP3   OH2 7524   0.014   7.557   1.840
 2528TIP3    H1 7525   0.046   7.568   1.930
 2528TIP3    H2 7526   0.027   7.464   1.821
 2529TIP3   OH2 7527   1.061   0.449   3.974
 2529TIP3    H1 7528   1.013   0.455   4.057
 2529TIP3    H2 7529   1.020   0.376   3.928
 2530TIP3   OH2 7530   3.045   5.360   4.059
 2530TIP3    H1 7531   3.039   5.428   3.992
 2530TIP3    H2 7532   2.957   5.357   4.098
 2531TIP3   OH2 7533   1.650   7.574   5.546
 2531TIP3    H1 7534   1.623   7.612   5.462
 2531TIP3    H2 7535   1.699   7.644   5.589
 2532TIP3   OH2 7536   1.726   6.820   6.555
 2532TIP3    H1 7537   1.784   6.889   6.587
 2532TIP3    H2 7538   1.724   6.832   6.460
 2533TIP3   OH2 7539   0.973   5.078   2.686
 2533TIP3    H1 7540   1.060   5.091   2.723
 2533TIP3    H2 7541   0.913   5.112   2.753
 2534TIP3   OH2 7542   4.602   7.931   2.683
 2534TIP3    H1 7543   4.552   7.943   2.602
 2534TIP3    H2 7544   4.635   7.841   2.677
 2535TIP3   OH2 7545   6.457   7.332   2.857
 2535TIP3    H1 7546   6.468   7.418   2.899
 2535TIP3    H2 7547   6.490   7.346   2.767
 2536TIP3   OH2 7548   5.969   6.323   0.978
 2536TIP3    H1 7549   5.930   6.394   1.030
 2536TIP3    H2 7550   5.894   6.277   0.940
 2537TIP3   OH2 7551   4.648   4.428   6.130
 2537TIP3    H1 7552   4.653   4.521   6.154
 2537TIP3    H2 7553   4.704   4.384   6.194
 2538TIP3   OH2 7554   0.655   7.227   1.564
 2538TIP3    H1 7555   0.653   7.289   1.637
 2538TIP3    H2 7556   0.697   7.149   1.600
 2539TIP3   OH2 7557   6.835   1.970   4.879
 2539TIP3    H1 7558   6.750   2.015   4.884
 2539TIP3    H2 7559   6.855   1.949   4.970
 2540TIP3   OH2 7560   0.784   0.782   0.770
 2540TIP3    H1 7561   0.761   0.782   0.862
 2540TIP3    H2 7562   0.700   0.791   0.724
 2541TIP3   OH2 7563   2.474   4.489   3.377
 2541TIP3    H1 7564   2.558   4.442   3.384
 2541TIP3    H2 7565   2.431   4.472   3.461
 2542TIP3   OH2 7566   7.586   7.288   4.234
 2542TIP3    H1 7567   7.567   7.244   4.151
 2542TIP3    H2 7568   7.588   7.217   4.299
 2543TIP3   OH2 7569   1.205   2.591   3.163
 2543TIP3    H1 7570   1.292   2.578   3.203
 2543TIP3    H2 7571   1.213   2.674   3.115
 2544TIP3   OH2 7572   2.592   0.521   5.271
 2544TIP3    H1 7573   2.527   0.527   5.201
 2544TIP3    H2 7574   2.634   0.607   5.273
 2545TIP3   OH2 7575   4.735   7.678   2.653
 2545TIP3    H1 7576   4.822   7.712   2.632
 2545TIP3    H2 7577   4.711   7.625   2.577
 2546TIP3   OH2 7578   5.233   3.802   2.892
 2546TIP3    H1 7579   5.245   3.784   2.985
 2546TIP3    H2 7580   5.202   3.893   2.889
 2547TIP3   OH2 7581   1.221   5.258   5.856
 2547TIP3    H1 7582   1.248   5.297   5.773
 2547TIP3    H2 7583   1.132   5.291   5.870
 2548TIP3   OH2 7584   0.455   1.654   5.930
 2548TIP3    H1 7585   0.473   1.738   5.973
 2548TIP3    H2 7586   0.522   1.647   5.862
 2549TIP3   OH2 7587   1.500   5.495   5.865
 2549TIP3    H1 7588   1.508   5.584   5.831
 2549TIP3    H2 7589   1.471   5.443   5.790
 2550TIP3   OH2 7590   3.315   1.711   3.277
 2550TIP3    H1 7591   3.254   1.667   3.337
 2550TIP3    H2 7592   3.261   1.737   3.202
 2551TIP3   OH2 7593   2.871   4.070   6.399
 2551TIP3    H1 7594   2.942   4.018   6.438
 2551TIP3    H2 7595   2.908   4.102   6.316
 2552TIP3   OH2 7596   1.928   5.878   1.079
 2552TIP3    H1 7597   2.004   5.819   1.072
 2552TIP3    H2 7598   1.855   5.827   1.044
 2553TIP3   OH2 7599   1.410   7.352   0.802
 2553TIP3    H1 7600   1.470   7.289   0.841
 2553TIP3    H2 7601   1.462   7.431   0.789
 2554TIP3   OH2 7602   7.803   3.933   3.550
 2554TIP3    H1 7603   7.790   3.850   3.595
 2554TIP3    H2 7604   7.717   3.976   3.553
 2555TIP3   OH2 7605   1.555   5.627   3.577
 2555TIP3    H1 7606   1.475   5.665   3.540
 2555TIP3    H2 7607   1.542   5.632   3.672
 2556TIP3   OH2 7608   4.301   0.311   2.370
 2556TIP3    H1 7609   4.274   0.344   2.284
 2556TIP3    H2 7610   4.286   0.216   2.364
 2557TIP3   OH2 7611   5.307   6.859   2.025
 2557TIP3    H1 7612   5.313   6.927   2.092
 2557TIP3    H2 7613   5.385   6.872   1.971
 2558TIP3   OH2 7614   3.741   2.212   0.992
 2558TIP3    H1 7615   3.666   2.156   1.014
 2558TIP3    H2 7616   3.741   2.280   1.059
 2559TIP3   OH2 7617   3.108   6.201   1.454
 2559TIP3    H1 7618   3.054   6.153   1.516
 2559TIP3    H2 7619   3.064   6.286   1.444
 2560TIP3   OH2 7620   3.145   2.122   1.637
 2560TIP3    H1 7621   3.068   2.120   1.695
 2560TIP3    H2 7622   3.161   2.030   1.616
 2561TIP3   OH2 7623   5.223   2.361   4.004
 2561TIP3    H1 7624   5.241   2.339   3.912
 2561TIP3    H2 7625   5.178   2.445   4.000
 2562TIP3   OH2 7626   1.091   2.356   1.535
 2562TIP3    H1 7627   1.181   2.348   1.568
 2562TIP3    H2 7628   1.042   2.292   1.585
 2563TIP3   OH2 7629   3.184   3.711   2.379
 2563TIP3    H1 7630   3.222   3.657   2.310
 2563TIP3    H2 7631   3.157   3.791   2.334
 2564TIP3   OH2 7632   4.953   5.550   1.015
 2564TIP3    H1 7633   5.019   5.599   1.062
 2564TIP3    H2 7634   4.915   5.491   1.080
 2565TIP3   OH2 7635   3.501   1.445   6.623
 2565TIP3    H1 7636   3.571   1.433   6.559
 2565TIP3    H2 7637   3.543   1.430   6.707
 2566TIP3   OH2 7638   4.497   3.737   3.762
 2566TIP3    H1 7639   4.458   3.653   3.787
 2566TIP3    H2 7640   4.503   3.786   3.844
 2567TIP3   OH2 7641   3.154   4.969   3.788
 2567TIP3    H1 7642   3.204   4.992   3.866
 2567TIP3    H2 7643   3.184   4.881   3.765
 2568TIP3   OH2 7644   2.141   2.977   1.423
 2568TIP3    H1 7645   2.135   3.072   1.435
 2568TIP3    H2 7646   2.219   2.965   1.369
 2569TIP3   OH2 7647   4.349   3.203   2.184
 2569TIP3    H1 7648   4.356   3.298   2.194
 2569TIP3    H2 7649   4.280   3.178   2.245
 2570TIP3   OH2 7650   4.762   0.459   2.730
 2570TIP3    H1 7651   4.808   0.379   2.757
 2570TIP3    H2 7652   4.694   0.430   2.670
 2571TIP3   OH2 7653   6.963   1.370   5.115
 2571TIP3    H1 7654   6.924   1.339   5.197
 2571TIP3    H2 7655   6.899   1.347   5.048
 2572TIP3   OH2 7656   7.398   6.161   2.838
 2572TIP3    H1 7657   7.406   6.212   2.757
 2572TIP3    H2 7658   7.434   6.218   2.906
 2573TIP3   OH2 7659   6.691   2.285   1.087
 2573TIP3    H1 7660   6.751   2.249   1.153
 2573TIP3    H2 7661   6.606   2.290   1.132
 2574TIP3   OH2 7662   1.069   6.062   3.151
 2574TIP3    H1 7663   1.062   6.149   3.192
 2574TIP3    H2 7664   1.057   6.078   3.058
 2575TIP3   OH2 7665   5.545   4.324   1.347
 2575TIP3    H1 7666   5.484   4.378   1.297
 2575TIP3    H2 7667   5.629   4.337   1.303
 2576TIP3   OH2 7668   4.979   3.577   6.345
 2576TIP3    H1 7669   4.931   3.654   6.314
 2576TIP3    H2 7670   4.968   3.513   6.274
 2577TIP3   OH2 7671   4.033   6.313   3.281
 2577TIP3    H1 7672   4.060   6.273   3.365
 2577TIP3    H2 7673   4.039   6.407   3.297
 2578TIP3   OH2 7674   7.287   3.756   2.549
 2578TIP3    H1 7675   7.204   3.732   2.591
 2578TIP3    H2 7676   7.333   3.673   2.537
 2579TIP3   OH2 7677   1.228   0.284   2.810
 2579TIP3    H1 7678   1.144   0.251   2.779
 2579TIP3    H2 7679   1.287   0.273   2.736
 2580TIP3   OH2 7680   2.488   0.783   6.242
 2580TIP3    H1 7681   2.434   0.720   6.194
 2580TIP3    H2 7682   2.560   0.731   6.276
 2581TIP3   OH2 7683   6.666   5.295   1.212
 2581TIP3    H1 7684   6.636   5.264   1.126
 2581TIP3    H2 7685   6.753   5.258   1.222
 2582TIP3   OH2 7686   6.141   5.333   2.563
 2582TIP3    H1 7687   6.168   5.287   2.484
 2582TIP3    H2 7688   6.133   5.263   2.629
 2583TIP3   OH2 7689   8.277   0.217   0.661
 2583TIP3    H1 7690   8.358   0.250   0.622
 2583TIP3    H2 7691   8.208   0.264   0.614
 2584TIP3   OH2 7692   0.918   7.643   1.258
 2584TIP3    H1 7693   0.935   7.708   1.326
 2584TIP3    H2 7694   0.943   7.560   1.298
 2585TIP3   OH2 7695   1.766   4.570   0.087
 2585TIP3    H1 7696   1.764   4.525   0.003
 2585TIP3    H2 7697   1.680   4.553   0.125
 2586TIP3   OH2 7698   4.671   4.188   1.989
 2586TIP3    H1 7699   4.746   4.208   1.934
 2586TIP3    H2 7700   4.656   4.094   1.977
 2587TIP3   OH2 7701   6.778   3.437   2.793
 2587TIP3    H1 7702   6.806   3.481   2.873
 2587TIP3    H2 7703   6.702   3.385   2.820
 2588TIP3   OH2 7704   2.880   5.352   2.409
 2588TIP3    H1 7705   2.908   5.383   2.323
 2588TIP3    H2 7706   2.929   5.272   2.423
 2589TIP3   OH2 7707   6.090   5.941   1.092
 2589TIP3    H1 7708   6.101   5.870   1.156
 2589TIP3    H2 7709   6.008   5.920   1.047
 2590TIP3   OH2 7710   6.098   4.526   5.601
 2590TIP3    H1 7711   6.069   4.440   5.571
 2590TIP3    H2 7712   6.142   4.510   5.684
 2591TIP3   OH2 7713   8.041   7.099   0.553
 2591TIP3    H1 7714   7.976   7.068   0.490
 2591TIP3    H2 7715   8.065   7.186   0.522
 2592TIP3   OH2 7716   1.623   6.054   1.363
 2592TIP3    H1 7717   1.568   5.984   1.328
 2592TIP3    H2 7718   1.711   6.016   1.364
 2593TIP3   OH2 7719   4.559   4.403   2.746
 2593TIP3    H1 7720   4.470   4.412   2.713
 2593TIP3    H2 7721   4.614   4.400   2.667
 2594TIP3   OH2 7722   3.635   1.362   2.119
 2594TIP3    H1 7723   3.675   1.440   2.083
 2594TIP3    H2 7724   3.688   1.289   2.085
 2595TIP3   OH2 7725   6.264   5.960   6.181
 2595TIP3    H1 7726   6.280   6.054   6.195
 2595TIP3    H2 7727   6.308   5.917   6.255
 2596TIP3   OH2 7728   1.384   0.328   0.385
 2596TIP3    H1 7729   1.327   0.403   0.369
 2596TIP3    H2 7730   1.342   0.281   0.457
 2597TIP3   OH2 7731   0.541   5.603   4.094
 2597TIP3    H1 7732   0.561   5.577   4.004
 2597TIP3    H2 7733   0.469   5.546   4.121
 2598TIP3   OH2 7734   3.817   1.349   3.550
 2598TIP3    H1 7735   3.816   1.444   3.544
 2598TIP3    H2 7736   3.822   1.318   3.460
 2599TIP3   OH2 7737   3.354   2.062   2.351
 2599TIP3    H1 7738   3.430   2.117   2.366
 2599TIP3    H2 7739   3.357   2.042   2.258
 2600TIP3   OH2 7740   7.908   6.951   6.458
 2600TIP3    H1 7741   7.831   6.903   6.428
 2600TIP3    H2 7742   7.889   7.042   6.437
 2601TIP3   OH2 7743   6.613   6.510   5.304
 2601TIP3    H1 7744   6.584   6.514   5.213
 2601TIP3    H2 7745   6.647   6.598   5.322
 2602TIP3   OH2 7746   4.597  -0.002   0.148
 2602TIP3    H1 7747   4.614   0.091   0.163
 2602TIP3    H2 7748   4.606  -0.012   0.053
 2603TIP3   OH2 7749   4.112   0.885   1.236
 2603TIP3    H1 7750   4.018   0.888   1.221
 2603TIP3    H2 7751   4.132   0.970   1.276
 2604TIP3   OH2 7752   0.112   6.940   5.689
 2604TIP3    H1 7753   0.165   6.876   5.641
 2604TIP3    H2 7754   0.071   6.994   5.621
 2605TIP3   OH2 7755   3.283   4.399   5.917
 2605TIP3    H1 7756   3.289   4.312   5.878
 2605TIP3    H2 7757   3.314   4.458   5.849
 2606TIP3   OH2 7758   0.401   7.291   2.941
 2606TIP3    H1 7759   0.490   7.258   2.929
 2606TIP3    H2 7760   0.406   7.382   2.912
 2607TIP3   OH2 7761   0.059   7.859   1.768
 2607TIP3    H1 7762   0.073   7.770   1.799
 2607TIP3    H2 7763   0.106   7.863   1.685
 2608TIP3   OH2 7764   8.177   4.801   0.741
 2608TIP3    H1 7765   8.169   4.818   0.835
 2608TIP3    H2 7766   8.268   4.776   0.729
 2609TIP3   OH2 7767   1.166   6.903   5.911
 2609TIP3    H1 7768   1.167   6.897   6.006
 2609TIP3    H2 7769   1.110   6.831   5.883
 2610TIP3   OH2 7770   4.334   6.610   6.777
 2610TIP3    H1 7771   4.411   6.665   6.763
 2610TIP3    H2 7772   4.316   6.572   6.691
 2611TIP3   OH2 7773   7.296   2.724   6.803
 2611TIP3    H1 7774   7.240   2.782   6.854
 2611TIP3    H2 7775   7.345   2.783   6.745
 2612TIP3   OH2 7776   5.938   0.096   2.339
 2612TIP3    H1 7777   5.916   0.126   2.251
 2612TIP3    H2 7778   5.963   0.004   2.327
 2613TIP3   OH2 7779   5.375   3.159   5.800
 2613TIP3    H1 7780   5.430   3.230   5.766
 2613TIP3    H2 7781   5.396   3.085   5.743
 2614TIP3   OH2 7782   2.648   7.292   1.613
 2614TIP3    H1 7783   2.569   7.244   1.589
 2614TIP3    H2 7784   2.695   7.233   1.672
 2615TIP3   OH2 7785   5.653   5.969   6.212
 2615TIP3    H1 7786   5.633   6.024   6.288
 2615TIP3    H2 7787   5.607   6.010   6.140
 2616TIP3   OH2 7788   6.830   0.733   3.758
 2616TIP3    H1 7789   6.792   0.701   3.676
 2616TIP3    H2 7790   6.761   0.717   3.823
 2617TIP3   OH2 7791   4.495   6.817   6.721
 2617TIP3    H1 7792   4.576   6.847   6.762
 2617TIP3    H2 7793   4.472   6.887   6.659
 2618TIP3   OH2 7794   2.737   3.747   2.526
 2618TIP3    H1 7795   2.723   3.837   2.556
 2618TIP3    H2 7796   2.830   3.731   2.540
 2619TIP3   OH2 7797   7.836   0.999   4.792
 2619TIP3    H1 7798   7.882   0.947   4.858
 2619TIP3    H2 7799   7.756   0.949   4.774
 2620TIP3   OH2 7800   5.929   6.774   6.417
 2620TIP3    H1 7801   5.948   6.846   6.357
 2620TIP3    H2 7802   6.000   6.711   6.402
 2621TIP3   OH2 7803   6.444   6.805   3.761
 2621TIP3    H1 7804   6.351   6.822   3.745
 2621TIP3    H2 7805   6.489   6.847   3.688
 2622TIP3   OH2 7806   2.290   6.358   2.224
 2622TIP3    H1 7807   2.298   6.295   2.152
 2622TIP3    H2 7808   2.318   6.441   2.186
 2623TIP3   OH2 7809   1.665   1.239   4.234
 2623TIP3    H1 7810   1.619   1.236   4.150
 2623TIP3    H2 7811   1.698   1.150   4.246
 2624TIP3   OH2 7812   8.408   6.149   4.915
 2624TIP3    H1 7813   8.415   6.131   5.009
 2624TIP3    H2 7814   8.358   6.076   4.880
 2625TIP3   OH2 7815   8.355   1.503   5.444
 2625TIP3    H1 7816   8.425   1.511   5.379
 2625TIP3    H2 7817   8.322   1.414   5.432
 2626TIP3   OH2 7818   5.933   0.993   0.019
 2626TIP3    H1 7819   5.859   1.054   0.022
 2626TIP3    H2 7820   6.010   1.049   0.027
 2627TIP3   OH2 7821   2.934   2.399   3.743
 2627TIP3    H1 7822   2.859   2.360   3.698
 2627TIP3    H2 7823   2.964   2.467   3.683
 2628TIP3   OH2 7824   1.717   3.950   2.461
 2628TIP3    H1 7825   1.756   3.883   2.518
 2628TIP3    H2 7826   1.726   4.032   2.510
 2629TIP3   OH2 7827   2.520   2.607   3.757
 2629TIP3    H1 7828   2.510   2.667   3.683
 2629TIP3    H2 7829   2.449   2.544   3.746
 2630TIP3   OH2 7830   7.815   3.656   2.900
 2630TIP3    H1 7831   7.744   3.633   2.840
 2630TIP3    H2 7832   7.791   3.741   2.935
 2631TIP3   OH2 7833   4.298   1.793   1.047
 2631TIP3    H1 7834   4.236   1.860   1.020
 2631TIP3    H2 7835   4.352   1.836   1.114
 2632TIP3   OH2 7836   3.894   3.247   1.856
 2632TIP3    H1 7837   3.931   3.250   1.944
 2632TIP3    H2 7838   3.819   3.188   1.863
 2633TIP3   OH2 7839   7.771   6.015   0.785
 2633TIP3    H1 7840   7.786   6.010   0.879
 2633TIP3    H2 7841   7.676   6.003   0.775
 2634TIP3   OH2 7842   4.808   1.475   1.516
 2634TIP3    H1 7843   4.851   1.425   1.447
 2634TIP3    H2 7844   4.867   1.467   1.591
 2635TIP3   OH2 7845   6.551   1.502   4.780
 2635TIP3    H1 7846   6.634   1.489   4.733
 2635TIP3    H2 7847   6.487   1.451   4.731
 2636TIP3   OH2 7848   4.116   0.214   6.693
 2636TIP3    H1 7849   4.039   0.237   6.745
 2636TIP3    H2 7850   4.145   0.130   6.729
 2637TIP3   OH2 7851   2.138   7.887   6.418
 2637TIP3    H1 7852   2.129   7.924   6.505
 2637TIP3    H2 7853   2.063   7.829   6.409
 2638TIP3   OH2 7854   4.535   3.543   1.420
 2638TIP3    H1 7855   4.522   3.493   1.500
 2638TIP3    H2 7856   4.452   3.537   1.373
 2639TIP3   OH2 7857   3.013   6.606   3.392
 2639TIP3    H1 7858   3.000   6.698   3.413
 2639TIP3    H2 7859   3.071   6.606   3.316
 2640TIP3   OH2 7860   3.106   1.931   1.162
 2640TIP3    H1 7861   3.023   1.906   1.121
 2640TIP3    H2 7862   3.165   1.858   1.144
 2641TIP3   OH2 7863   7.618   0.095   5.441
 2641TIP3    H1 7864   7.656   0.084   5.353
 2641TIP3    H2 7865   7.523   0.086   5.427
 2642TIP3   OH2 7866   5.768   7.590   5.809
 2642TIP3    H1 7867   5.861   7.566   5.804
 2642TIP3    H2 7868   5.723   7.507   5.824
 2643TIP3   OH2 7869   8.328   0.840   2.191
 2643TIP3    H1 7870   8.264   0.900   2.229
 2643TIP3    H2 7871   8.274   0.772   2.150
 2644TIP3   OH2 7872   4.172   3.518   0.722
 2644TIP3    H1 7873   4.243   3.455   0.712
 2644TIP3    H2 7874   4.160   3.554   0.634
 2645TIP3   OH2 7875   5.914   7.665   5.421
 2645TIP3    H1 7876   5.819   7.669   5.419
 2645TIP3    H2 7877   5.943   7.736   5.365
 2646TIP3   OH2 7878   7.955   5.693   6.691
 2646TIP3    H1 7879   8.012   5.769   6.685
 2646TIP3    H2 7880   7.991   5.630   6.628
 2647TIP3   OH2 7881   8.183   3.424   6.620
 2647TIP3    H1 7882   8.234   3.503   6.602
 2647TIP3    H2 7883   8.193   3.411   6.715
 2648TIP3   OH2 7884   8.194   3.152   4.374
 2648TIP3    H1 7885   8.159   3.124   4.289
 2648TIP3    H2 7886   8.203   3.070   4.424
 2649TIP3   OH2 7887   2.743   0.017   6.386
 2649TIP3    H1 7888   2.731  -0.047   6.457
 2649TIP3    H2 7889   2.657   0.060   6.378
 2650TIP3   OH2 7890   7.205   6.432   1.113
 2650TIP3    H1 7891   7.168   6.511   1.152
 2650TIP3    H2 7892   7.151   6.415   1.036
 2651TIP3   OH2 7893   1.790   7.643   1.789
 2651TIP3    H1 7894   1.772   7.737   1.786
 2651TIP3    H2 7895   1.875   7.633   1.746
 2652TIP3   OH2 7896   3.459   6.245   4.451
 2652TIP3    H1 7897   3.418   6.186   4.513
 2652TIP3    H2 7898   3.552   6.240   4.472
 2653TIP3   OH2 7899   0.988   7.088   2.938
 2653TIP3    H1 7900   0.920   7.028   2.909
 2653TIP3    H2 7901   1.059   7.032   2.969
 2654TIP3   OH2 7902   3.476   0.384   3.764
 2654TIP3    H1 7903   3.484   0.463   3.710
 2654TIP3    H2 7904   3.383   0.364   3.764
 2655TIP3   OH2 7905   8.110   4.522   1.713
 2655TIP3    H1 7906   8.169   4.548   1.784
 2655TIP3    H2 7907   8.077   4.436   1.739
 2656TIP3   OH2 7908   6.099   4.402   4.830
 2656TIP3    H1 7909   6.052   4.364   4.904
 2656TIP3    H2 7910   6.033   4.408   4.761
 2657TIP3   OH2 7911   7.797   6.088   1.634
 2657TIP3    H1 7912   7.813   6.006   1.587
 2657TIP3    H2 7913   7.845   6.154   1.583
 2658TIP3   OH2 7914   5.497   5.470   5.991
 2658TIP3    H1 7915   5.498   5.395   5.932
 2658TIP3    H2 7916   5.564   5.529   5.956
 2659TIP3   OH2 7917   3.032   7.685   2.139
 2659TIP3    H1 7918   2.938   7.706   2.145
 2659TIP3    H2 7919   3.048   7.673   2.046
 2660TIP3   OH2 7920   7.997   2.765   4.644
 2660TIP3    H1 7921   7.979   2.829   4.712
 2660TIP3    H2 7922   7.915   2.758   4.595
 2661TIP3   OH2 7923   6.105   3.757   4.491
 2661TIP3    H1 7924   6.090   3.697   4.418
 2661TIP3    H2 7925   6.032   3.741   4.551
 2662TIP3   OH2 7926   5.894   4.509   2.021
 2662TIP3    H1 7927   5.972   4.520   2.076
 2662TIP3    H2 7928   5.919   4.441   1.958
 2663TIP3   OH2 7929   4.802   4.130   3.783
 2663TIP3    H1 7930   4.752   4.060   3.741
 2663TIP3    H2 7931   4.754   4.210   3.762
 2664TIP3   OH2 7932   6.116   3.181   6.674
 2664TIP3    H1 7933   6.191   3.177   6.615
 2664TIP3    H2 7934   6.139   3.248   6.739
 2665TIP3   OH2 7935   6.727   7.690   2.768
 2665TIP3    H1 7936   6.707   7.700   2.675
 2665TIP3    H2 7937   6.819   7.717   2.775
 2666TIP3   OH2 7938  -0.007   6.451   3.305
 2666TIP3    H1 7939  -0.017   6.544   3.284
 2666TIP3    H2 7940   0.014   6.410   3.222
 2667TIP3   OH2 7941   7.558   7.066   6.713
 2667TIP3    H1 7942   7.625   7.134   6.707
 2667TIP3    H2 7943   7.482   7.110   6.749
 2668TIP3   OH2 7944   5.965   5.439   1.359
 2668TIP3    H1 7945   5.891   5.378   1.361
 2668TIP3    H2 7946   6.040   5.385   1.336
 2669TIP3   OH2 7947   6.516   1.171   0.726
 2669TIP3    H1 7948   6.523   1.085   0.685
 2669TIP3    H2 7949   6.461   1.221   0.666
 2670TIP3   OH2 7950   0.370   4.957   2.892
 2670TIP3    H1 7951   0.376   5.031   2.953
 2670TIP3    H2 7952   0.461   4.926   2.885
 2671TIP3   OH2 7953   6.507   4.559   2.079
 2671TIP3    H1 7954   6.570   4.507   2.029
 2671TIP3    H2 7955   6.423   4.544   2.037
 2672TIP3   OH2 7956   7.255   2.728   4.811
 2672TIP3    H1 7957   7.279   2.805   4.863
 2672TIP3    H2 7958   7.309   2.733   4.733
 2673TIP3   OH2 7959   6.877   5.373   0.039
 2673TIP3    H1 7960   6.945   5.428   0.078
 2673TIP3    H2 7961   6.868   5.299   0.100
 2674TIP3   OH2 7962   0.514   0.920   5.544
 2674TIP3    H1 7963   0.544   0.904   5.633
 2674TIP3    H2 7964   0.549   0.846   5.494
 2675TIP3   OH2 7965   6.456   5.040   3.228
 2675TIP3    H1 7966   6.487   4.995   3.306
 2675TIP3    H2 7967   6.391   5.103   3.261
 2676TIP3   OH2 7968   6.585   4.699   6.426
 2676TIP3    H1 7969   6.523   4.683   6.497
 2676TIP3    H2 7970   6.653   4.632   6.438
 2677TIP3   OH2 7971   0.995   0.765   0.368
 2677TIP3    H1 7972   1.059   0.833   0.347
 2677TIP3    H2 7973   1.017   0.739   0.457
 2678TIP3   OH2 7974   3.988   2.887   5.202
 2678TIP3    H1 7975   3.897   2.918   5.200
 2678TIP3    H2 7976   4.039   2.965   5.223
 2679TIP3   OH2 7977   2.003   5.630   3.612
 2679TIP3    H1 7978   1.943   5.651   3.684
 2679TIP3    H2 7979   1.953   5.651   3.533
 2680TIP3   OH2 7980   0.493   3.833   4.540
 2680TIP3    H1 7981   0.508   3.846   4.633
 2680TIP3    H2 7982   0.411   3.879   4.521
 2681TIP3   OH2 7983   2.197   5.986   1.639
 2681TIP3    H1 7984   2.207   5.921   1.708
 2681TIP3    H2 7985   2.172   5.936   1.561
 2682TIP3   OH2 7986   3.219   0.009   1.783
 2682TIP3    H1 7987   3.196  -0.076   1.820
 2682TIP3    H2 7988   3.198   0.072   1.853
 2683TIP3   OH2 7989   3.693   4.208   4.243
 2683TIP3    H1 7990   3.645   4.133   4.275
 2683TIP3    H2 7991   3.769   4.215   4.301
 2684TIP3   OH2 7992   5.679   0.236   0.998
 2684TIP3    H1 7993   5.695   0.144   1.017
 2684TIP3    H2 7994   5.734   0.255   0.923
 2685TIP3   OH2 7995   5.472   4.971   1.864
 2685TIP3    H1 7996   5.530   4.961   1.788
 2685TIP3    H2 7997   5.418   4.892   1.863
 2686TIP3   OH2 7998   4.842   2.127   0.096
 2686TIP3    H1 7999   4.854   2.177   0.177
 2686TIP3    H2 8000   4.897   2.171   0.032
 2687TIP3   OH2 8001   6.922   5.469   4.564
 2687TIP3    H1 8002   7.001   5.524   4.563
 2687TIP3    H2 8003   6.904   5.455   4.657
 2688TIP3   OH2 8004   4.139   5.360   0.851
 2688TIP3    H1 8005   4.159   5.353   0.758
 2688TIP3    H2 8006   4.148   5.270   0.884
 2689TIP3   OH2 8007   6.467   5.979   4.937
 2689TIP3    H1 8008   6.482   5.908   4.874
 2689TIP3    H2 8009   6.402   5.944   4.998
 2690TIP3   OH2 8010   5.208   4.576   5.793
 2690TIP3    H1 8011   5.242   4.596   5.706
 2690TIP3    H2 8012   5.113   4.574   5.781
 2691TIP3   OH2 8013   4.547   7.698   5.856
 2691TIP3    H1 8014   4.631   7.712   5.899
 2691TIP3    H2 8015   4.522   7.784   5.822
 2692TIP3   OH2 8016   7.607   2.826   1.771
 2692TIP3    H1 8017   7.530   2.809   1.825
 2692TIP3    H2 8018   7.575   2.882   1.700
 2693TIP3   OH2 8019   6.911   3.617   0.138
 2693TIP3    H1 8020   6.986   3.665   0.104
 2693TIP3    H2 8021   6.870   3.577   0.061
 2694TIP3   OH2 8022   1.452   5.258   2.756
 2694TIP3    H1 8023   1.501   5.205   2.693
 2694TIP3    H2 8024   1.362   5.256   2.724
 2695TIP3   OH2 8025   4.675   1.866   3.668
 2695TIP3    H1 8026   4.663   1.805   3.596
 2695TIP3    H2 8027   4.662   1.952   3.629
 2696TIP3   OH2 8028   4.978   0.812   5.781
 2696TIP3    H1 8029   4.929   0.818   5.863
 2696TIP3    H2 8030   4.996   0.903   5.757
 2697TIP3   OH2 8031   8.150   2.314   6.241
 2697TIP3    H1 8032   8.206   2.319   6.319
 2697TIP3    H2 8033   8.201   2.355   6.172
 2698TIP3   OH2 8034   3.349   5.028   0.341
 2698TIP3    H1 8035   3.416   5.095   0.350
 2698TIP3    H2 8036   3.289   5.043   0.414
 2699TIP3   OH2 8037   4.090   2.325   2.604
 2699TIP3    H1 8038   4.098   2.396   2.540
 2699TIP3    H2 8039   4.105   2.367   2.689
 2700TIP3   OH2 8040   7.693   2.568   3.609
 2700TIP3    H1 8041   7.789   2.573   3.603
 2700TIP3    H2 8042   7.676   2.477   3.633
 2701TIP3   OH2 8043   1.017   7.697   4.419
 2701TIP3    H1 8044   0.961   7.774   4.406
 2701TIP3    H2 8045   0.970   7.644   4.484
 2702TIP3   OH2 8046   8.245   7.493   3.072
 2702TIP3    H1 8047   8.208   7.405   3.067
 2702TIP3    H2 8048   8.235   7.529   2.984
 2703TIP3   OH2 8049   7.524   3.507   0.269
 2703TIP3    H1 8050   7.596   3.474   0.216
 2703TIP3    H2 8051   7.445   3.474   0.227
 2704TIP3   OH2 8052   6.579   3.440   3.368
 2704TIP3    H1 8053   6.499   3.402   3.406
 2704TIP3    H2 8054   6.553   3.529   3.343
 2705TIP3   OH2 8055   7.219   6.605   4.189
 2705TIP3    H1 8056   7.128   6.615   4.219
 2705TIP3    H2 8057   7.210   6.587   4.095
 2706TIP3   OH2 8058   3.692   0.495   5.202
 2706TIP3    H1 8059   3.647   0.492   5.286
 2706TIP3    H2 8060   3.779   0.529   5.223
 2707TIP3   OH2 8061   1.233   5.043   5.538
 2707TIP3    H1 8062   1.176   4.978   5.579
 2707TIP3    H2 8063   1.271   4.997   5.463
 2708TIP3   OH2 8064   6.199   3.308   1.122
 2708TIP3    H1 8065   6.255   3.374   1.161
 2708TIP3    H2 8066   6.237   3.225   1.149
 2709TIP3   OH2 8067   6.232   3.451   1.656
 2709TIP3    H1 8068   6.241   3.356   1.662
 2709TIP3    H2 8069   6.159   3.472   1.714
 2710TIP3   OH2 8070   1.246   1.990   0.223
 2710TIP3    H1 8071   1.203   2.029   0.146
 2710TIP3    H2 8072   1.185   1.925   0.254
 2711TIP3   OH2 8073   1.973   1.214   6.827
 2711TIP3    H1 8074   1.981   1.300   6.785
 2711TIP3    H2 8075   2.059   1.200   6.867
 2712TIP3   OH2 8076   4.809   2.826   2.185
 2712TIP3    H1 8077   4.797   2.731   2.192
 2712TIP3    H2 8078   4.774   2.861   2.267
 2713TIP3   OH2 8079   2.464   0.096   4.288
 2713TIP3    H1 8080   2.451   0.156   4.362
 2713TIP3    H2 8081   2.488   0.013   4.329
 2714TIP3   OH2 8082   2.500   1.506   4.816
 2714TIP3    H1 8083   2.411   1.471   4.807
 2714TIP3    H2 8084   2.555   1.429   4.829
 2715TIP3   OH2 8085   3.711   3.994   6.210
 2715TIP3    H1 8086   3.756   3.923   6.164
 2715TIP3    H2 8087   3.632   4.009   6.159
 2716TIP3   OH2 8088   8.309   2.592   2.580
 2716TIP3    H1 8089   8.314   2.515   2.637
 2716TIP3    H2 8090   8.249   2.565   2.510
 2717TIP3   OH2 8091   1.101   4.137   0.683
 2717TIP3    H1 8092   1.115   4.231   0.696
 2717TIP3    H2 8093   1.084   4.128   0.589
 2718TIP3   OH2 8094   1.471   5.393   3.774
 2718TIP3    H1 8095   1.552   5.383   3.724
 2718TIP3    H2 8096   1.482   5.474   3.822
 2719TIP3   OH2 8097   7.932   4.103   6.308
 2719TIP3    H1 8098   7.983   4.129   6.384
 2719TIP3    H2 8099   7.988   4.123   6.233
 2720TIP3   OH2 8100   3.324   0.211   0.741
 2720TIP3    H1 8101   3.363   0.228   0.656
 2720TIP3    H2 8102   3.233   0.238   0.731
 2721TIP3   OH2 8103   2.380   6.068   1.327
 2721TIP3    H1 8104   2.356   5.985   1.285
 2721TIP3    H2 8105   2.422   6.119   1.259
 2722TIP3   OH2 8106   0.611   6.138   5.950
 2722TIP3    H1 8107   0.617   6.049   5.983
 2722TIP3    H2 8108   0.604   6.192   6.029
 2723TIP3   OH2 8109   4.515   5.614   6.247
 2723TIP3    H1 8110   4.429   5.640   6.215
 2723TIP3    H2 8111   4.505   5.610   6.342
 2724TIP3   OH2 8112   1.639   3.588   0.405
 2724TIP3    H1 8113   1.558   3.588   0.457
 2724TIP3    H2 8114   1.630   3.663   0.347
 2725TIP3   OH2 8115   3.370   1.783   1.798
 2725TIP3    H1 8116   3.466   1.779   1.790
 2725TIP3    H2 8117   3.342   1.691   1.797
 2726TIP3   OH2 8118   3.391   2.719   5.416
 2726TIP3    H1 8119   3.348   2.655   5.474
 2726TIP3    H2 8120   3.477   2.681   5.398
 2727TIP3   OH2 8121   1.274   3.870   4.596
 2727TIP3    H1 8122   1.302   3.950   4.551
 2727TIP3    H2 8123   1.272   3.803   4.528
 2728TIP3   OH2 8124   3.681   5.143   3.645
 2728TIP3    H1 8125   3.633   5.061   3.645
 2728TIP3    H2 8126   3.772   5.118   3.629
 2729TIP3   OH2 8127   5.948   4.460   0.945
 2729TIP3    H1 8128   5.996   4.380   0.926
 2729TIP3    H2 8129   5.991   4.498   1.022
 2730TIP3   OH2 8130   2.698   4.334   0.545
 2730TIP3    H1 8131   2.722   4.380   0.626
 2730TIP3    H2 8132   2.677   4.403   0.483
 2731TIP3   OH2 8133   0.376   3.517   0.070
 2731TIP3    H1 8134   0.389   3.423   0.085
 2731TIP3    H2 8135   0.431   3.559   0.136
 2732TIP3   OH2 8136   3.332   0.636   3.012
 2732TIP3    H1 8137   3.313   0.728   3.034
 2732TIP3    H2 8138   3.262   0.611   2.952
 2733TIP3   OH2 8139   2.681   7.565   3.703
 2733TIP3    H1 8140   2.756   7.592   3.756
 2733TIP3    H2 8141   2.673   7.471   3.719
 2734TIP3   OH2 8142   3.667   2.609   5.310
 2734TIP3    H1 8143   3.698   2.520   5.292
 2734TIP3    H2 8144   3.707   2.663   5.242
 2735TIP3   OH2 8145   6.952   3.639   3.372
 2735TIP3    H1 8146   7.017   3.709   3.361
 2735TIP3    H2 8147   6.935   3.637   3.466
 2736TIP3   OH2 8148   5.112   4.570   3.549
 2736TIP3    H1 8149   5.198   4.530   3.532
 2736TIP3    H2 8150   5.131   4.638   3.614
 2737TIP3   OH2 8151   1.853   5.763   1.575
 2737TIP3    H1 8152   1.825   5.739   1.486
 2737TIP3    H2 8153   1.855   5.858   1.575
 2738TIP3   OH2 8154   0.299   7.489   0.487
 2738TIP3    H1 8155   0.299   7.508   0.393
 2738TIP3    H2 8156   0.382   7.525   0.518
 2739TIP3   OH2 8157   3.440   3.429   2.802
 2739TIP3    H1 8158   3.405   3.462   2.719
 2739TIP3    H2 8159   3.505   3.494   2.828
 2740TIP3   OH2 8160   4.940   4.565   2.450
 2740TIP3    H1 8161   4.944   4.580   2.356
 2740TIP3    H2 8162   4.860   4.514   2.463
 2741TIP3   OH2 8163   5.216   6.220   6.273
 2741TIP3    H1 8164   5.275   6.168   6.328
 2741TIP3    H2 8165   5.222   6.309   6.307
 2742TIP3   OH2 8166   1.342   7.539   4.873
 2742TIP3    H1 8167   1.294   7.569   4.796
 2742TIP3    H2 8168   1.301   7.585   4.946
 2743TIP3   OH2 8169   5.917   7.474   0.849
 2743TIP3    H1 8170   5.870   7.550   0.884
 2743TIP3    H2 8171   5.917   7.411   0.921
 2744TIP3   OH2 8172   6.862   5.639   1.026
 2744TIP3    H1 8173   6.870   5.584   1.104
 2744TIP3    H2 8174   6.923   5.712   1.042
 2745TIP3   OH2 8175   1.033   3.960   4.837
 2745TIP3    H1 8176   1.072   3.921   4.759
 2745TIP3    H2 8177   0.950   3.996   4.807
 2746TIP3   OH2 8178   5.343   5.260   0.683
 2746TIP3    H1 8179   5.354   5.199   0.756
 2746TIP3    H2 8180   5.337   5.346   0.725
 2747TIP3   OH2 8181   3.405   7.863   4.635
 2747TIP3    H1 8182   3.484   7.837   4.587
 2747TIP3    H2 8183   3.399   7.958   4.622
 2748TIP3   OH2 8184   0.127   3.817   0.267
 2748TIP3    H1 8185   0.046   3.866   0.267
 2748TIP3    H2 8186   0.171   3.842   0.185
 2749TIP3   OH2 8187   4.985   1.107   1.241
 2749TIP3    H1 8188   5.049   1.051   1.196
 2749TIP3    H2 8189   4.901   1.064   1.225
 2750TIP3   OH2 8190   1.530   3.327   2.728
 2750TIP3    H1 8191   1.487   3.258   2.780
 2750TIP3    H2 8192   1.619   3.330   2.763
 2751TIP3   OH2 8193   4.141   2.476   4.163
 2751TIP3    H1 8194   4.221   2.496   4.115
 2751TIP3    H2 8195   4.095   2.560   4.171
 2752TIP3   OH2 8196   7.496   5.281   0.807
 2752TIP3    H1 8197   7.511   5.322   0.892
 2752TIP3    H2 8198   7.569   5.311   0.753
 2753TIP3   OH2 8199   4.475   1.465   3.942
 2753TIP3    H1 8200   4.391   1.427   3.915
 2753TIP3    H2 8201   4.541   1.409   3.900
 2754TIP3   OH2 8202   8.257   0.713   2.657
 2754TIP3    H1 8203   8.178   0.734   2.706
 2754TIP3    H2 8204   8.245   0.621   2.632
 2755TIP3   OH2 8205   6.193   2.765   2.986
 2755TIP3    H1 8206   6.274   2.720   2.964
 2755TIP3    H2 8207   6.194   2.845   2.933
 2756TIP3   OH2 8208   5.980   4.596   3.781
 2756TIP3    H1 8209   5.898   4.629   3.818
 2756TIP3    H2 8210   5.980   4.503   3.801
 2757TIP3   OH2 8211   6.945   5.775   0.339
 2757TIP3    H1 8212   6.971   5.843   0.402
 2757TIP3    H2 8213   6.853   5.756   0.360
 2758TIP3   OH2 8214   3.778   7.111   6.129
 2758TIP3    H1 8215   3.763   7.019   6.109
 2758TIP3    H2 8216   3.831   7.144   6.056
 2759TIP3   OH2 8217   0.964   4.180   5.133
 2759TIP3    H1 8218   0.945   4.245   5.066
 2759TIP3    H2 8219   0.878   4.153   5.166
 2760TIP3   OH2 8220   7.831   6.941   1.812
 2760TIP3    H1 8221   7.904   6.989   1.851
 2760TIP3    H2 8222   7.807   6.993   1.735
 2761TIP3   OH2 8223   7.823   3.264   3.179
 2761TIP3    H1 8224   7.824   3.183   3.229
 2761TIP3    H2 8225   7.907   3.266   3.134
 2762TIP3   OH2 8226   7.488   2.841   2.785
 2762TIP3    H1 8227   7.518   2.803   2.868
 2762TIP3    H2 8228   7.510   2.933   2.792
 2763TIP3   OH2 8229   7.633   4.558   4.552
 2763TIP3    H1 8230   7.721   4.546   4.587
 2763TIP3    H2 8231   7.589   4.613   4.617
 2764TIP3   OH2 8232   2.279   7.046   4.996
 2764TIP3    H1 8233   2.276   7.019   5.088
 2764TIP3    H2 8234   2.318   7.133   4.998
 2765TIP3   OH2 8235   5.545   1.947   4.840
 2765TIP3    H1 8236   5.464   1.931   4.790
 2765TIP3    H2 8237   5.607   1.978   4.775
 2766TIP3   OH2 8238   7.814   5.658   1.666
 2766TIP3    H1 8239   7.728   5.702   1.671
 2766TIP3    H2 8240   7.843   5.653   1.757
 2767TIP3   OH2 8241   8.366   6.513   6.756
 2767TIP3    H1 8242   8.397   6.423   6.747
 2767TIP3    H2 8243   8.288   6.507   6.811
 2768TIP3   OH2 8244   8.207   7.548   1.027
 2768TIP3    H1 8245   8.182   7.465   0.987
 2768TIP3    H2 8246   8.251   7.523   1.108
 2769TIP3   OH2 8247   8.050   6.498   0.170
 2769TIP3    H1 8248   8.005   6.416   0.191
 2769TIP3    H2 8249   8.094   6.480   0.087
 2770TIP3   OH2 8250   6.943   7.155   1.478
 2770TIP3    H1 8251   6.936   7.141   1.383
 2770TIP3    H2 8252   6.936   7.068   1.516
 2771TIP3   OH2 8253   1.011   2.820   2.165
 2771TIP3    H1 8254   0.997   2.779   2.080
 2771TIP3    H2 8255   0.982   2.754   2.228
 2772TIP3   OH2 8256   7.288   0.616   5.501
 2772TIP3    H1 8257   7.209   0.629   5.449
 2772TIP3    H2 8258   7.326   0.704   5.508
 2773TIP3   OH2 8259   8.127   1.000   5.311
 2773TIP3    H1 8260   8.053   1.048   5.274
 2773TIP3    H2 8261   8.184   0.984   5.236
 2774TIP3   OH2 8262   1.857   7.418   6.369
 2774TIP3    H1 8263   1.923   7.366   6.323
 2774TIP3    H2 8264   1.818   7.357   6.431
 2775TIP3   OH2 8265   2.436   1.266   2.386
 2775TIP3    H1 8266   2.525   1.297   2.369
 2775TIP3    H2 8267   2.423   1.194   2.324
 2776TIP3   OH2 8268   5.673   5.394   0.905
 2776TIP3    H1 8269   5.616   5.321   0.927
 2776TIP3    H2 8270   5.761   5.357   0.907
 2777TIP3   OH2 8271   1.068   1.801   0.289
 2777TIP3    H1 8272   0.996   1.828   0.233
 2777TIP3    H2 8273   1.034   1.810   0.378
 2778TIP3   OH2 8274   1.648   0.338   2.721
 2778TIP3    H1 8275   1.671   0.263   2.777
 2778TIP3    H2 8276   1.658   0.305   2.632
 2779TIP3   OH2 8277   0.396   7.087   1.496
 2779TIP3    H1 8278   0.352   7.103   1.579
 2779TIP3    H2 8279   0.487   7.113   1.511
 2780TIP3   OH2 8280   5.221   5.966   2.281
 2780TIP3    H1 8281   5.192   6.007   2.199
 2780TIP3    H2 8282   5.282   6.030   2.319
 2781TIP3   OH2 8283   4.086   1.577   2.474
 2781TIP3    H1 8284   4.093   1.560   2.568
 2781TIP3    H2 8285   4.168   1.621   2.452
 2782TIP3   OH2 8286   3.697   6.261   6.585
 2782TIP3    H1 8287   3.778   6.308   6.605
 2782TIP3    H2 8288   3.703   6.241   6.492
 2783TIP3   OH2 8289   2.725   0.686   3.605
 2783TIP3    H1 8290   2.675   0.693   3.686
 2783TIP3    H2 8291   2.815   0.709   3.630
 2784TIP3   OH2 8292   5.020   2.914   1.671
 2784TIP3    H1 8293   5.115   2.903   1.684
 2784TIP3    H2 8294   5.010   2.920   1.576
 2785TIP3   OH2 8295   0.774   5.177   4.343
 2785TIP3    H1 8296   0.722   5.222   4.409
 2785TIP3    H2 8297   0.747   5.086   4.349
 2786TIP3   OH2 8298   2.649   1.775   2.444
 2786TIP3    H1 8299   2.580   1.748   2.383
 2786TIP3    H2 8300   2.696   1.844   2.397
 2787TIP3   OH2 8301   0.013   5.102   3.678
 2787TIP3    H1 8302  -0.059   5.081   3.619
 2787TIP3    H2 8303   0.077   5.148   3.624
 2788TIP3   OH2 8304   5.354   5.332   6.776
 2788TIP3    H1 8305   5.310   5.256   6.815
 2788TIP3    H2 8306   5.364   5.308   6.683
 2789TIP3   OH2 8307   2.402   5.176   0.988
 2789TIP3    H1 8308   2.355   5.163   0.905
 2789TIP3    H2 8309   2.493   5.191   0.962
 2790TIP3   OH2 8310   4.501   3.446   4.645
 2790TIP3    H1 8311   4.494   3.401   4.729
 2790TIP3    H2 8312   4.431   3.409   4.592
 2791TIP3   OH2 8313   3.384   3.512   5.769
 2791TIP3    H1 8314   3.360   3.425   5.738
 2791TIP3    H2 8315   3.353   3.572   5.701
 2792TIP3   OH2 8316   7.306   1.583   3.156
 2792TIP3    H1 8317   7.310   1.591   3.251
 2792TIP3    H2 8318   7.380   1.527   3.132
 2793TIP3   OH2 8319   3.594   5.437   5.247
 2793TIP3    H1 8320   3.679   5.459   5.284
 2793TIP3    H2 8321   3.532   5.492   5.295
 2794TIP3   OH2 8322   8.266   2.091   3.972
 2794TIP3    H1 8323   8.215   2.012   3.955
 2794TIP3    H2 8324   8.238   2.119   4.059
 2795TIP3   OH2 8325   2.375   1.094   6.555
 2795TIP3    H1 8326   2.429   1.081   6.633
 2795TIP3    H2 8327   2.417   1.166   6.508
 2796TIP3   OH2 8328   6.607   6.142   6.295
 2796TIP3    H1 8329   6.627   6.091   6.374
 2796TIP3    H2 8330   6.594   6.232   6.327
 2797TIP3   OH2 8331   8.241   6.171   3.937
 2797TIP3    H1 8332   8.262   6.078   3.946
 2797TIP3    H2 8333   8.200   6.195   4.020
 2798TIP3   OH2 8334   4.229   6.492   4.890
 2798TIP3    H1 8335   4.200   6.582   4.905
 2798TIP3    H2 8336   4.188   6.467   4.807
 2799TIP3   OH2 8337   3.216   5.155   3.594
 2799TIP3    H1 8338   3.256   5.126   3.511
 2799TIP3    H2 8339   3.219   5.077   3.650
 2800TIP3   OH2 8340   1.621   7.670   2.156
 2800TIP3    H1 8341   1.669   7.597   2.196
 2800TIP3    H2 8342   1.609   7.644   2.065
 2801TIP3   OH2 8343   5.205   2.051   5.507
 2801TIP3    H1 8344   5.218   2.125   5.449
 2801TIP3    H2 8345   5.154   2.086   5.580
 2802TIP3   OH2 8346   5.162   2.229   0.452
 2802TIP3    H1 8347   5.150   2.245   0.358
 2802TIP3    H2 8348   5.113   2.149   0.468
 2803TIP3   OH2 8349   3.807   4.059   1.730
 2803TIP3    H1 8350   3.841   4.039   1.643
 2803TIP3    H2 8351   3.884   4.067   1.786
 2804TIP3   OH2 8352   7.208   6.054   1.650
 2804TIP3    H1 8353   7.223   6.028   1.560
 2804TIP3    H2 8354   7.129   6.108   1.647
 2805TIP3   OH2 8355   5.915   3.726   2.473
 2805TIP3    H1 8356   5.855   3.795   2.443
 2805TIP3    H2 8357   5.977   3.715   2.401
 2806TIP3   OH2 8358   8.101   5.385   3.820
 2806TIP3    H1 8359   8.040   5.458   3.833
 2806TIP3    H2 8360   8.052   5.322   3.769
 2807TIP3   OH2 8361   3.533   3.561   6.000
 2807TIP3    H1 8362   3.462   3.572   6.063
 2807TIP3    H2 8363   3.489   3.551   5.916
 2808TIP3   OH2 8364   7.858   4.605   5.716
 2808TIP3    H1 8365   7.773   4.604   5.759
 2808TIP3    H2 8366   7.873   4.514   5.691
 2809TIP3   OH2 8367   7.707   6.449   0.613
 2809TIP3    H1 8368   7.646   6.445   0.687
 2809TIP3    H2 8369   7.764   6.373   0.624
 2810TIP3   OH2 8370   7.599   4.135   2.366
 2810TIP3    H1 8371   7.528   4.090   2.411
 2810TIP3    H2 8372   7.556   4.207   2.319
 2811TIP3   OH2 8373   4.619   3.851   5.816
 2811TIP3    H1 8374   4.642   3.779   5.757
 2811TIP3    H2 8375   4.697   3.907   5.817
 2812TIP3   OH2 8376   2.714   6.503   6.562
 2812TIP3    H1 8377   2.759   6.568   6.509
 2812TIP3    H2 8378   2.682   6.552   6.638
 2813TIP3   OH2 8379   6.822   0.018   5.340
 2813TIP3    H1 8380   6.797   0.019   5.248
 2813TIP3    H2 8381   6.750   0.061   5.385
 2814TIP3   OH2 8382   7.500   1.555   2.805
 2814TIP3    H1 8383   7.522   1.622   2.871
 2814TIP3    H2 8384   7.404   1.554   2.804
 2815TIP3   OH2 8385   4.830   2.019   2.077
 2815TIP3    H1 8386   4.873   2.105   2.076
 2815TIP3    H2 8387   4.737   2.039   2.090
 2816TIP3   OH2 8388   5.048   5.461   5.716
 2816TIP3    H1 8389   5.002   5.484   5.797
 2816TIP3    H2 8390   5.097   5.540   5.694
 2817TIP3   OH2 8391   0.282   0.044   4.795
 2817TIP3    H1 8392   0.207   0.028   4.853
 2817TIP3    H2 8393   0.339  -0.031   4.810
 2818TIP3   OH2 8394   0.709   2.780   5.977
 2818TIP3    H1 8395   0.802   2.785   5.997
 2818TIP3    H2 8396   0.703   2.794   5.883
 2819TIP3   OH2 8397   1.441   1.905   3.288
 2819TIP3    H1 8398   1.412   1.920   3.378
 2819TIP3    H2 8399   1.535   1.888   3.295
 2820TIP3   OH2 8400   6.959   4.941   4.350
 2820TIP3    H1 8401   6.885   4.918   4.406
 2820TIP3    H2 8402   6.974   5.034   4.366
 2821TIP3   OH2 8403   5.757   2.804   4.640
 2821TIP3    H1 8404   5.664   2.822   4.626
 2821TIP3    H2 8405   5.790   2.881   4.685
 2822TIP3   OH2 8406   4.677   6.484   6.707
 2822TIP3    H1 8407   4.648   6.542   6.778
 2822TIP3    H2 8408   4.696   6.544   6.634
 2823TIP3   OH2 8409   3.720   4.849   4.092
 2823TIP3    H1 8410   3.770   4.779   4.133
 2823TIP3    H2 8411   3.780   4.924   4.092
 2824TIP3   OH2 8412   0.365   3.657   1.234
 2824TIP3    H1 8413   0.352   3.637   1.142
 2824TIP3    H2 8414   0.349   3.751   1.241
 2825TIP3   OH2 8415   0.094   5.983   0.514
 2825TIP3    H1 8416   0.040   6.056   0.485
 2825TIP3    H2 8417   0.183   6.005   0.485
 2826TIP3   OH2 8418   1.650   6.354   5.110
 2826TIP3    H1 8419   1.735   6.399   5.112
 2826TIP3    H2 8420   1.596   6.402   5.172
 2827TIP3   OH2 8421   3.407   1.446   2.239
 2827TIP3    H1 8422   3.328   1.396   2.219
 2827TIP3    H2 8423   3.474   1.409   2.182
 2828TIP3   OH2 8424   6.185   2.570   3.164
 2828TIP3    H1 8425   6.186   2.652   3.115
 2828TIP3    H2 8426   6.244   2.586   3.238
 2829TIP3   OH2 8427   0.866   1.853   0.488
 2829TIP3    H1 8428   0.814   1.773   0.477
 2829TIP3    H2 8429   0.893   1.852   0.579
 2830TIP3   OH2 8430   4.346   4.638   6.167
 2830TIP3    H1 8431   4.435   4.624   6.133
 2830TIP3    H2 8432   4.289   4.606   6.098
 2831TIP3   OH2 8433   6.118   7.792   5.567
 2831TIP3    H1 8434   6.089   7.712   5.523
 2831TIP3    H2 8435   6.162   7.762   5.646
 2832TIP3   OH2 8436   3.263   0.610   1.133
 2832TIP3    H1 8437   3.306   0.525   1.131
 2832TIP3    H2 8438   3.284   0.650   1.049
 2833TIP3   OH2 8439   8.078   5.595   2.041
 2833TIP3    H1 8440   8.152   5.656   2.039
 2833TIP3    H2 8441   8.119   5.509   2.049
 2834TIP3   OH2 8442   1.912   3.935   2.654
 2834TIP3    H1 8443   2.001   3.969   2.648
 2834TIP3    H2 8444   1.881   3.963   2.741
 2835TIP3   OH2 8445   1.693   1.025   6.107
 2835TIP3    H1 8446   1.719   0.999   6.196
 2835TIP3    H2 8447   1.710   1.120   6.105
 2836TIP3   OH2 8448   7.301   3.423   1.708
 2836TIP3    H1 8449   7.351   3.505   1.706
 2836TIP3    H2 8450   7.315   3.389   1.796
 2837TIP3   OH2 8451   4.788   4.926   3.551
 2837TIP3    H1 8452   4.765   4.909   3.643
 2837TIP3    H2 8453   4.877   4.960   3.555
 2838TIP3   OH2 8454   2.582   0.917   0.123
 2838TIP3    H1 8455   2.623   0.917   0.210
 2838TIP3    H2 8456   2.549   0.828   0.112
 2839TIP3   OH2 8457   7.146   4.920   3.350
 2839TIP3    H1 8458   7.062   4.897   3.388
 2839TIP3    H2 8459   7.129   5.000   3.299
 2840TIP3   OH2 8460   0.639   4.921   2.956
 2840TIP3    H1 8461   0.688   4.881   3.027
 2840TIP3    H2 8462   0.693   4.996   2.929
 2841TIP3   OH2 8463   1.709   2.198   1.421
 2841TIP3    H1 8464   1.615   2.184   1.430
 2841TIP3    H2 8465   1.716   2.266   1.355
 2842TIP3   OH2 8466   0.406   0.435   2.372
 2842TIP3    H1 8467   0.455   0.512   2.400
 2842TIP3    H2 8468   0.414   0.435   2.277
 2843TIP3   OH2 8469   3.386   3.985   1.941
 2843TIP3    H1 8470   3.419   4.071   1.916
 2843TIP3    H2 8471   3.463   3.928   1.939
 2844TIP3   OH2 8472   5.494   1.256   2.850
 2844TIP3    H1 8473   5.525   1.330   2.798
 2844TIP3    H2 8474   5.483   1.185   2.786
 2845TIP3   OH2 8475   5.685   7.112   6.043
 2845TIP3    H1 8476   5.627   7.042   6.012
 2845TIP3    H2 8477   5.771   7.070   6.049
 2846TIP3   OH2 8478   4.452   5.671   2.664
 2846TIP3    H1 8479   4.515   5.649   2.595
 2846TIP3    H2 8480   4.503   5.720   2.728
 2847TIP3   OH2 8481   6.293   5.907   2.013
 2847TIP3    H1 8482   6.324   5.828   2.057
 2847TIP3    H2 8483   6.258   5.876   1.930
 2848TIP3   OH2 8484   0.869   1.416   0.007
 2848TIP3    H1 8485   0.931   1.478  -0.031
 2848TIP3    H2 8486   0.825   1.465   0.077
 2849TIP3   OH2 8487   3.045   2.538   2.829
 2849TIP3    H1 8488   3.023   2.455   2.789
 2849TIP3    H2 8489   3.016   2.604   2.766
 2850TIP3   OH2 8490   6.975   6.320   2.897
 2850TIP3    H1 8491   7.056   6.338   2.946
 2850TIP3    H2 8492   6.905   6.339   2.960
 2851TIP3   OH2 8493   7.906   7.868   2.392
 2851TIP3    H1 8494   7.880   7.836   2.478
 2851TIP3    H2 8495   7.902   7.964   2.400
 2852TIP3   OH2 8496   7.510   2.079   1.933
 2852TIP3    H1 8497   7.436   2.028   1.965
 2852TIP3    H2 8498   7.473   2.134   1.864
 2853TIP3   OH2 8499   5.949   1.185   4.903
 2853TIP3    H1 8500   5.944   1.274   4.938
 2853TIP3    H2 8501   5.946   1.128   4.980
 2854TIP3   OH2 8502   7.735   7.579   1.261
 2854TIP3    H1 8503   7.752   7.619   1.176
 2854TIP3    H2 8504   7.737   7.485   1.244
 2855TIP3   OH2 8505   0.330   6.340   4.892
 2855TIP3    H1 8506   0.319   6.260   4.942
 2855TIP3    H2 8507   0.327   6.313   4.801
 2856TIP3   OH2 8508   1.695   0.254   6.491
 2856TIP3    H1 8509   1.712   0.348   6.496
 2856TIP3    H2 8510   1.782   0.214   6.491
 2857TIP3   OH2 8511   5.515   4.035   1.509
 2857TIP3    H1 8512   5.460   4.033   1.587
 2857TIP3    H2 8513   5.535   4.127   1.495
 2858TIP3   OH2 8514   7.622   4.456   2.360
 2858TIP3    H1 8515   7.564   4.406   2.417
 2858TIP3    H2 8516   7.583   4.543   2.356
 2859TIP3   OH2 8517   7.199   4.614   1.153
 2859TIP3    H1 8518   7.129   4.613   1.087
 2859TIP3    H2 8519   7.273   4.572   1.110
 2860TIP3   OH2 8520   1.528   0.715   2.257
 2860TIP3    H1 8521   1.510   0.809   2.259
 2860TIP3    H2 8522   1.443   0.675   2.240
 2861TIP3   OH2 8523   5.490   3.637   1.598
 2861TIP3    H1 8524   5.408   3.684   1.586
 2861TIP3    H2 8525   5.529   3.675   1.677
 2862TIP3   OH2 8526   7.460   4.362   4.969
 2862TIP3    H1 8527   7.495   4.323   5.049
 2862TIP3    H2 8528   7.415   4.290   4.924
 2863TIP3   OH2 8529   5.751   6.153   2.628
 2863TIP3    H1 8530   5.773   6.180   2.538
 2863TIP3    H2 8531   5.724   6.062   2.620
 2864TIP3   OH2 8532   4.000   6.391   2.437
 2864TIP3    H1 8533   3.988   6.473   2.391
 2864TIP3    H2 8534   3.917   6.377   2.483
 2865TIP3   OH2 8535   5.172   2.213   6.247
 2865TIP3    H1 8536   5.156   2.280   6.314
 2865TIP3    H2 8537   5.222   2.258   6.179
 2866TIP3   OH2 8538   7.528   3.716   2.848
 2866TIP3    H1 8539   7.501   3.804   2.876
 2866TIP3    H2 8540   7.453   3.661   2.870
 2867TIP3   OH2 8541   0.371   6.916   2.700
 2867TIP3    H1 8542   0.372   6.853   2.628
 2867TIP3    H2 8543   0.289   6.899   2.747
 2868TIP3   OH2 8544   7.824   7.695   4.438
 2868TIP3    H1 8545   7.872   7.744   4.505
 2868TIP3    H2 8546   7.849   7.604   4.453
 2869TIP3   OH2 8547   4.643   0.573   1.888
 2869TIP3    H1 8548   4.681   0.488   1.913
 2869TIP3    H2 8549   4.596   0.601   1.967
 2870TIP3   OH2 8550   6.252   7.482   4.746
 2870TIP3    H1 8551   6.331   7.435   4.772
 2870TIP3    H2 8552   6.279   7.573   4.738
 2871TIP3   OH2 8553   6.496   6.192   1.830
 2871TIP3    H1 8554   6.549   6.141   1.891
 2871TIP3    H2 8555   6.438   6.243   1.887
 2872TIP3   OH2 8556   5.313   7.805   6.362
 2872TIP3    H1 8557   5.384   7.757   6.319
 2872TIP3    H2 8558   5.334   7.898   6.347
 2873TIP3   OH2 8559   5.994   5.871   2.566
 2873TIP3    H1 8560   6.084   5.884   2.595
 2873TIP3    H2 8561   6.002   5.839   2.476
 2874TIP3   OH2 8562   5.887   3.722   1.604
 2874TIP3    H1 8563   5.949   3.772   1.658
 2874TIP3    H2 8564   5.877   3.774   1.525
 2875TIP3   OH2 8565   3.795   2.743   1.973
 2875TIP3    H1 8566   3.754   2.796   2.041
 2875TIP3    H2 8567   3.880   2.784   1.958
 2876TIP3   OH2 8568   2.654   1.086   3.829
 2876TIP3    H1 8569   2.652   1.071   3.924
 2876TIP3    H2 8570   2.624   1.004   3.791
 2877TIP3   OH2 8571   7.323   4.788   1.772
 2877TIP3    H1 8572   7.376   4.808   1.849
 2877TIP3    H2 8573   7.376   4.817   1.698
 2878TIP3   OH2 8574   2.199   4.781   6.148
 2878TIP3    H1 8575   2.200   4.710   6.083
 2878TIP3    H2 8576   2.117   4.827   6.132
 2879TIP3   OH2 8577   2.174   7.286   0.964
 2879TIP3    H1 8578   2.218   7.362   0.927
 2879TIP3    H2 8579   2.138   7.240   0.889
 2880TIP3   OH2 8580   6.530   1.901   4.390
 2880TIP3    H1 8581   6.585   1.935   4.461
 2880TIP3    H2 8582   6.578   1.826   4.355
 2881TIP3   OH2 8583   5.305   1.378   3.025
 2881TIP3    H1 8584   5.380   1.365   2.968
 2881TIP3    H2 8585   5.287   1.291   3.062
 2882TIP3   OH2 8586   4.015   1.749   4.090
 2882TIP3    H1 8587   4.032   1.772   3.999
 2882TIP3    H2 8588   3.920   1.745   4.097
 2883TIP3   OH2 8589   5.487   4.211   4.025
 2883TIP3    H1 8590   5.539   4.133   4.038
 2883TIP3    H2 8591   5.423   4.186   3.958
 2884TIP3   OH2 8592   7.871   4.611   3.756
 2884TIP3    H1 8593   7.939   4.629   3.691
 2884TIP3    H2 8594   7.900   4.532   3.800
 2885TIP3   OH2 8595   7.967   2.472   2.723
 2885TIP3    H1 8596   8.000   2.553   2.762
 2885TIP3    H2 8597   8.017   2.462   2.642
 2886TIP3   OH2 8598   4.467   3.461   6.412
 2886TIP3    H1 8599   4.536   3.411   6.368
 2886TIP3    H2 8600   4.514   3.527   6.463
 2887TIP3   OH2 8601   3.589   2.550   3.084
 2887TIP3    H1 8602   3.508   2.585   3.049
 2887TIP3    H2 8603   3.611   2.477   3.027
 2888TIP3   OH2 8604   5.827   1.830   4.808
 2888TIP3    H1 8605   5.766   1.897   4.839
 2888TIP3    H2 8606   5.879   1.874   4.740
 2889TIP3   OH2 8607   8.316   5.226   1.284
 2889TIP3    H1 8608   8.378   5.291   1.250
 2889TIP3    H2 8609   8.282   5.182   1.206
 2890TIP3   OH2 8610   1.899   3.431   2.760
 2890TIP3    H1 8611   1.853   3.443   2.843
 2890TIP3    H2 8612   1.946   3.513   2.747
 2891TIP3   OH2 8613   5.650   5.469   4.514
 2891TIP3    H1 8614   5.626   5.398   4.454
 2891TIP3    H2 8615   5.724   5.435   4.563
 2892TIP3   OH2 8616   0.793   5.391   5.378
 2892TIP3    H1 8617   0.821   5.454   5.311
 2892TIP3    H2 8618   0.806   5.438   5.460
 2893TIP3   OH2 8619   1.716   6.970   3.213
 2893TIP3    H1 8620   1.650   6.911   3.176
 2893TIP3    H2 8621   1.799   6.927   3.196
 2894TIP3   OH2 8622   3.176   7.166   2.075
 2894TIP3    H1 8623   3.229   7.150   2.153
 2894TIP3    H2 8624   3.183   7.260   2.060
 2895TIP3   OH2 8625   6.526   3.172   4.236
 2895TIP3    H1 8626   6.523   3.121   4.156
 2895TIP3    H2 8627   6.465   3.244   4.222
 2896TIP3   OH2 8628   6.440   6.690   3.365
 2896TIP3    H1 8629   6.442   6.613   3.309
 2896TIP3    H2 8630   6.412   6.761   3.307
 2897TIP3   OH2 8631   1.695   7.264   0.822
 2897TIP3    H1 8632   1.654   7.300   0.900
 2897TIP3    H2 8633   1.736   7.339   0.779
 2898TIP3   OH2 8634   8.047   4.965   0.922
 2898TIP3    H1 8635   8.094   5.029   0.976
 2898TIP3    H2 8636   7.992   5.018   0.864
 2899TIP3   OH2 8637   3.523   1.056   4.139
 2899TIP3    H1 8638   3.539   1.062   4.045
 2899TIP3    H2 8639   3.583   0.989   4.170
 2900TIP3   OH2 8640   0.667   5.514   1.115
 2900TIP3    H1 8641   0.731   5.537   1.048
 2900TIP3    H2 8642   0.652   5.596   1.163
 2901TIP3   OH2 8643   4.248   3.092   6.700
 2901TIP3    H1 8644   4.281   3.130   6.618
 2901TIP3    H2 8645   4.171   3.145   6.720
 2902TIP3   OH2 8646   6.039   5.465   6.351
 2902TIP3    H1 8647   5.957   5.473   6.303
 2902TIP3    H2 8648   6.093   5.538   6.319
 2903TIP3   OH2 8649   2.001   5.262   1.725
 2903TIP3    H1 8650   2.018   5.257   1.820
 2903TIP3    H2 8651   1.955   5.345   1.713
 2904TIP3   OH2 8652   5.630   0.133   2.337
 2904TIP3    H1 8653   5.695   0.130   2.267
 2904TIP3    H2 8654   5.632   0.045   2.375
 2905TIP3   OH2 8655   4.892   7.429   1.212
 2905TIP3    H1 8656   4.946   7.354   1.236
 2905TIP3    H2 8657   4.924   7.456   1.126
 2906TIP3   OH2 8658   5.796   1.702   6.455
 2906TIP3    H1 8659   5.759   1.770   6.511
 2906TIP3    H2 8660   5.888   1.695   6.482
 2907TIP3   OH2 8661   7.564   7.829   2.613
 2907TIP3    H1 8662   7.548   7.892   2.683
 2907TIP3    H2 8663   7.648   7.788   2.636
 2908TIP3   OH2 8664   5.974   2.263   1.543
 2908TIP3    H1 8665   6.065   2.277   1.569
 2908TIP3    H2 8666   5.923   2.319   1.601
 2909TIP3   OH2 8667   7.684   7.083   5.457
 2909TIP3    H1 8668   7.753   7.024   5.427
 2909TIP3    H2 8669   7.730   7.149   5.508
 2910TIP3   OH2 8670   2.093   1.985   2.678
 2910TIP3    H1 8671   2.028   1.928   2.637
 2910TIP3    H2 8672   2.104   2.058   2.617
 2911TIP3   OH2 8673   2.468   2.460   0.894
 2911TIP3    H1 8674   2.562   2.466   0.910
 2911TIP3    H2 8675   2.461   2.411   0.811
 2912TIP3   OH2 8676   2.010   3.665   2.656
 2912TIP3    H1 8677   2.017   3.760   2.666
 2912TIP3    H2 8678   2.034   3.650   2.564
 2913TIP3   OH2 8679   5.407   0.842   6.228
 2913TIP3    H1 8680   5.389   0.772   6.291
 2913TIP3    H2 8681   5.459   0.906   6.277
 2914TIP3   OH2 8682   5.781   7.916   2.986
 2914TIP3    H1 8683   5.834   7.935   3.064
 2914TIP3    H2 8684   5.712   7.858   3.018
 2915TIP3   OH2 8685   6.228   4.826   0.500
 2915TIP3    H1 8686   6.307   4.880   0.510
 2915TIP3    H2 8687   6.179   4.871   0.431
 2916TIP3   OH2 8688   7.634   6.710   5.775
 2916TIP3    H1 8689   7.556   6.656   5.785
 2916TIP3    H2 8690   7.701   6.666   5.827
 2917TIP3   OH2 8691   7.568   4.245   5.202
 2917TIP3    H1 8692   7.587   4.212   5.290
 2917TIP3    H2 8693   7.639   4.306   5.183
 2918TIP3   OH2 8694   8.300   6.954   0.160
 2918TIP3    H1 8695   8.209   6.929   0.145
 2918TIP3    H2 8696   8.302   6.982   0.251
 2919TIP3   OH2 8697   5.308   5.064   0.865
 2919TIP3    H1 8698   5.290   4.992   0.805
 2919TIP3    H2 8699   5.257   5.043   0.943
 2920TIP3   OH2 8700   4.973   7.339   6.195
 2920TIP3    H1 8701   4.959   7.372   6.106
 2920TIP3    H2 8702   4.938   7.250   6.194
 2921TIP3   OH2 8703   3.304   6.297   3.264
 2921TIP3    H1 8704   3.221   6.305   3.215
 2921TIP3    H2 8705   3.364   6.355   3.217
 2922TIP3   OH2 8706   2.232   0.473   6.705
 2922TIP3    H1 8707   2.172   0.531   6.752
 2922TIP3    H2 8708   2.306   0.529   6.680
 2923TIP3   OH2 8709   8.067   0.896   3.393
 2923TIP3    H1 8710   8.046   0.831   3.325
 2923TIP3    H2 8711   8.031   0.859   3.473
 2924TIP3   OH2 8712   5.175   3.304   2.540
 2924TIP3    H1 8713   5.233   3.238   2.502
 2924TIP3    H2 8714   5.219   3.387   2.525
 2925TIP3   OH2 8715   7.894   6.211   5.577
 2925TIP3    H1 8716   7.884   6.301   5.609
 2925TIP3    H2 8717   7.854   6.213   5.490
 2926TIP3   OH2 8718   8.004   7.689   3.332
 2926TIP3    H1 8719   8.015   7.749   3.406
 2926TIP3    H2 8720   8.075   7.626   3.342
 2927TIP3   OH2 8721   6.216   3.492   2.775
 2927TIP3    H1 8722   6.155   3.461   2.709
 2927TIP3    H2 8723   6.299   3.503   2.728
 2928TIP3   OH2 8724   8.335   6.967   2.565
 2928TIP3    H1 8725   8.257   7.015   2.591
 2928TIP3    H2 8726   8.319   6.877   2.594
 2929TIP3   OH2 8727   1.795   2.730   5.549
 2929TIP3    H1 8728   1.716   2.682   5.572
 2929TIP3    H2 8729   1.783   2.817   5.587
 2930TIP3   OH2 8730   4.700   3.659   2.012
 2930TIP3    H1 8731   4.780   3.707   2.034
 2930TIP3    H2 8732   4.723   3.605   1.937
 2931TIP3   OH2 8733   4.083   2.945   4.379
 2931TIP3    H1 8734   4.068   3.039   4.389
 2931TIP3    H2 8735   4.022   2.904   4.441
 2932TIP3   OH2 8736   5.503   3.561   0.406
 2932TIP3    H1 8737   5.420   3.577   0.362
 2932TIP3    H2 8738   5.567   3.558   0.335
 2933TIP3   OH2 8739   1.101   1.628   5.533
 2933TIP3    H1 8740   1.110   1.595   5.444
 2933TIP3    H2 8741   1.040   1.567   5.575
 2934TIP3   OH2 8742   1.350   5.619   5.457
 2934TIP3    H1 8743   1.295   5.647   5.384
 2934TIP3    H2 8744   1.362   5.698   5.510
 2935TIP3   OH2 8745   0.971   2.152   6.107
 2935TIP3    H1 8746   1.015   2.148   6.022
 2935TIP3    H2 8747   1.008   2.081   6.157
 2936TIP3   OH2 8748   7.328   7.369   0.689
 2936TIP3    H1 8749   7.320   7.426   0.613
 2936TIP3    H2 8750   7.248   7.385   0.740
 2937TIP3   OH2 8751   7.816   0.494   3.440
 2937TIP3    H1 8752   7.868   0.433   3.493
 2937TIP3    H2 8753   7.811   0.453   3.354
 2938TIP3   OH2 8754   7.861   3.102   5.537
 2938TIP3    H1 8755   7.815   3.112   5.454
 2938TIP3    H2 8756   7.840   3.014   5.567
 2939TIP3   OH2 8757   2.785   6.203   2.550
 2939TIP3    H1 8758   2.741   6.137   2.496
 2939TIP3    H2 8759   2.776   6.284   2.500
 2940TIP3   OH2 8760   4.994  -0.002   3.376
 2940TIP3    H1 8761   4.938   0.029   3.305
 2940TIP3    H2 8762   5.081  -0.008   3.337
 2941TIP3   OH2 8763   2.109   5.867   6.414
 2941TIP3    H1 8764   2.081   5.916   6.337
 2941TIP3    H2 8765   2.140   5.783   6.379
 2942TIP3   OH2 8766   1.333   1.605   0.921
 2942TIP3    H1 8767   1.394   1.679   0.921
 2942TIP3    H2 8768   1.301   1.599   0.832
 2943TIP3   OH2 8769   0.114   4.759   0.552
 2943TIP3    H1 8770   0.187   4.757   0.614
 2943TIP3    H2 8771   0.064   4.680   0.572
 2944TIP3   OH2 8772   6.068   5.013   5.315
 2944TIP3    H1 8773   6.028   5.097   5.337
 2944TIP3    H2 8774   6.156   5.018   5.351
 2945TIP3   OH2 8775   1.396   4.396   3.781
 2945TIP3    H1 8776   1.453   4.385   3.856
 2945TIP3    H2 8777   1.453   4.381   3.705
 2946TIP3   OH2 8778   3.921   5.015   4.921
 2946TIP3    H1 8779   3.997   4.960   4.939
 2946TIP3    H2 8780   3.858   4.990   4.989
 2947TIP3   OH2 8781   1.321   0.869   0.299
 2947TIP3    H1 8782   1.411   0.899   0.288
 2947TIP3    H2 8783   1.272   0.948   0.322
 2948TIP3   OH2 8784   0.656   7.002   1.710
 2948TIP3    H1 8785   0.611   6.918   1.716
 2948TIP3    H2 8786   0.590   7.067   1.736
 2949TIP3   OH2 8787   4.078   0.826   2.276
 2949TIP3    H1 8788   4.116   0.868   2.199
 2949TIP3    H2 8789   4.037   0.898   2.325
 2950TIP3   OH2 8790   2.650   2.460   0.487
 2950TIP3    H1 8791   2.596   2.417   0.421
 2950TIP3    H2 8792   2.733   2.476   0.442
 2951TIP3   OH2 8793   6.071   6.181   0.360
 2951TIP3    H1 8794   6.008   6.175   0.431
 2951TIP3    H2 8795   6.070   6.093   0.321
 2952TIP3   OH2 8796   8.374   5.367   4.875
 2952TIP3    H1 8797   8.351   5.347   4.966
 2952TIP3    H2 8798   8.469   5.358   4.871
 2953TIP3   OH2 8799   4.583   7.371   4.612
 2953TIP3    H1 8800   4.534   7.320   4.548
 2953TIP3    H2 8801   4.652   7.312   4.642
 2954TIP3   OH2 8802   6.966   2.036   4.276
 2954TIP3    H1 8803   7.020   2.115   4.282
 2954TIP3    H2 8804   6.902   2.055   4.208
 2955TIP3   OH2 8805   2.748   5.209   2.073
 2955TIP3    H1 8806   2.817   5.185   2.134
 2955TIP3    H2 8807   2.692   5.270   2.122
 2956TIP3   OH2 8808   2.942   0.597   1.685
 2956TIP3    H1 8809   2.942   0.614   1.779
 2956TIP3    H2 8810   2.853   0.568   1.665
 2957TIP3   OH2 8811   7.803   6.547   2.355
 2957TIP3    H1 8812   7.746   6.622   2.334
 2957TIP3    H2 8813   7.852   6.532   2.274
 2958TIP3   OH2 8814   5.692   1.388   6.195
 2958TIP3    H1 8815   5.703   1.481   6.178
 2958TIP3    H2 8816   5.742   1.372   6.275
 2959TIP3   OH2 8817   3.764   6.910   0.488
 2959TIP3    H1 8818   3.748   6.993   0.533
 2959TIP3    H2 8819   3.858   6.894   0.500
 2960TIP3   OH2 8820   2.561   0.770   3.840
 2960TIP3    H1 8821   2.497   0.839   3.820
 2960TIP3    H2 8822   2.524   0.724   3.915
 2961TIP3   OH2 8823   2.620   6.375   5.349
 2961TIP3    H1 8824   2.611   6.298   5.404
 2961TIP3    H2 8825   2.539   6.377   5.298
 2962TIP3   OH2 8826   6.104   1.741   4.556
 2962TIP3    H1 8827   6.183   1.718   4.507
 2962TIP3    H2 8828   6.099   1.675   4.625
 2963TIP3   OH2 8829   6.452   6.013   3.863
 2963TIP3    H1 8830   6.503   6.088   3.833
 2963TIP3    H2 8831   6.398   5.989   3.788
 2964TIP3   OH2 8832   1.442   7.726   6.517
 2964TIP3    H1 8833   1.419   7.759   6.604
 2964TIP3    H2 8834   1.407   7.636   6.516
 2965TIP3   OH2 8835   2.272   4.687   0.005
 2965TIP3    H1 8836   2.255   4.611   0.061
 2965TIP3    H2 8837   2.362   4.711   0.024
 2966TIP3   OH2 8838   1.235   0.766   5.351
 2966TIP3    H1 8839   1.217   0.844   5.403
 2966TIP3    H2 8840   1.149   0.729   5.332
 2967TIP3   OH2 8841   3.058   2.262   3.232
 2967TIP3    H1 8842   3.018   2.191   3.182
 2967TIP3    H2 8843   3.080   2.328   3.167
 2968TIP3   OH2 8844   2.205   5.938   4.137
 2968TIP3    H1 8845   2.124   5.903   4.172
 2968TIP3    H2 8846   2.200   6.032   4.153
 2969TIP3   OH2 8847   5.446   0.572   1.772
 2969TIP3    H1 8848   5.418   0.664   1.772
 2969TIP3    H2 8849   5.511   0.567   1.842
 2970TIP3   OH2 8850   0.474   0.288   4.668
 2970TIP3    H1 8851   0.492   0.227   4.598
 2970TIP3    H2 8852   0.378   0.296   4.669
 2971TIP3   OH2 8853   7.602   0.335   4.126
 2971TIP3    H1 8854   7.632   0.286   4.203
 2971TIP3    H2 8855   7.533   0.392   4.160
 2972TIP3   OH2 8856   4.701   0.944   3.179
 2972TIP3    H1 8857   4.640   0.872   3.163
 2972TIP3    H2 8858   4.788   0.905   3.169
 2973TIP3   OH2 8859   6.394   1.695   5.946
 2973TIP3    H1 8860   6.447   1.670   5.871
 2973TIP3    H2 8861   6.398   1.619   6.004
 2974TIP3   OH2 8862   7.696   2.433   1.690
 2974TIP3    H1 8863   7.771   2.392   1.734
 2974TIP3    H2 8864   7.718   2.526   1.686
 2975TIP3   OH2 8865   8.006   7.344   2.194
 2975TIP3    H1 8866   7.921   7.302   2.212
 2975TIP3    H2 8867   8.030   7.314   2.106
 2976TIP3   OH2 8868   6.004   4.921   3.835
 2976TIP3    H1 8869   6.074   4.857   3.840
 2976TIP3    H2 8870   5.979   4.935   3.927
 2977TIP3   OH2 8871   6.619   1.310   5.472
 2977TIP3    H1 8872   6.603   1.301   5.566
 2977TIP3    H2 8873   6.549   1.260   5.430
 2978TIP3   OH2 8874   5.040   5.807   4.722
 2978TIP3    H1 8875   5.038   5.760   4.806
 2978TIP3    H2 8876   5.130   5.800   4.693
 2979TIP3   OH2 8877   6.755   1.104   0.547
 2979TIP3    H1 8878   6.809   1.167   0.595
 2979TIP3    H2 8879   6.680   1.156   0.516
 2980TIP3   OH2 8880   3.200   4.998   1.462
 2980TIP3    H1 8881   3.148   4.932   1.508
 2980TIP3    H2 8882   3.229   4.954   1.382
 2981TIP3   OH2 8883   2.577   3.643   4.255
 2981TIP3    H1 8884   2.486   3.620   4.272
 2981TIP3    H2 8885   2.585   3.734   4.284
 2982TIP3   OH2 8886   8.064   1.507   4.642
 2982TIP3    H1 8887   8.158   1.497   4.627
 2982TIP3    H2 8888   8.024   1.499   4.556
 2983TIP3   OH2 8889   2.446   4.495   1.599
 2983TIP3    H1 8890   2.398   4.431   1.651
 2983TIP3    H2 8891   2.523   4.516   1.653
 2984TIP3   OH2 8892   7.101   7.598   1.990
 2984TIP3    H1 8893   7.160   7.522   1.988
 2984TIP3    H2 8894   7.117   7.638   2.076
 2985TIP3   OH2 8895   7.686   7.381   2.918
 2985TIP3    H1 8896   7.697   7.358   3.010
 2985TIP3    H2 8897   7.592   7.375   2.903
 2986TIP3   OH2 8898   5.705   2.018   4.196
 2986TIP3    H1 8899   5.688   2.002   4.288
 2986TIP3    H2 8900   5.660   1.946   4.151
 2987TIP3   OH2 8901   5.386   6.513   4.321
 2987TIP3    H1 8902   5.409   6.471   4.238
 2987TIP3    H2 8903   5.421   6.454   4.388
 2988TIP3   OH2 8904   3.797   4.268   2.823
 2988TIP3    H1 8905   3.847   4.293   2.745
 2988TIP3    H2 8906   3.728   4.211   2.791
 2989TIP3   OH2 8907   6.458   4.316   6.791
 2989TIP3    H1 8908   6.530   4.271   6.748
 2989TIP3    H2 8909   6.400   4.247   6.822
 2990TIP3   OH2 8910   6.566   3.589   0.360
 2990TIP3    H1 8911   6.620   3.637   0.298
 2990TIP3    H2 8912   6.626   3.563   0.430
 2991TIP3   OH2 8913   5.716   5.512   5.195
 2991TIP3    H1 8914   5.763   5.431   5.216
 2991TIP3    H2 8915   5.688   5.546   5.280
 2992TIP3   OH2 8916   0.133   4.257   4.967
 2992TIP3    H1 8917   0.075   4.192   4.927
 2992TIP3    H2 8918   0.091   4.341   4.947
 2993TIP3   OH2 8919   3.722   3.852   5.124
 2993TIP3    H1 8920   3.663   3.868   5.197
 2993TIP3    H2 8921   3.801   3.904   5.144
 2994TIP3   OH2 8922   3.032   3.912   6.134
 2994TIP3    H1 8923   3.090   3.907   6.058
 2994TIP3    H2 8924   2.984   3.994   6.122
 2995TIP3   OH2 8925   3.031   4.257   5.739
 2995TIP3    H1 8926   2.941   4.268   5.771
 2995TIP3    H2 8927   3.044   4.162   5.738
 2996TIP3   OH2 8928   8.028   0.356   6.667
 2996TIP3    H1 8929   7.996   0.442   6.640
 2996TIP3    H2 8930   8.043   0.309   6.584
 2997TIP3   OH2 8931   2.031   7.083   4.686
 2997TIP3    H1 8932   1.957   7.080   4.625
 2997TIP3    H2 8933   2.015   7.012   4.747
 2998TIP3   OH2 8934   7.842   4.573   3.368
 2998TIP3    H1 8935   7.800   4.653   3.400
 2998TIP3    H2 8936   7.822   4.507   3.434
 2999TIP3   OH2 8937   5.313   0.175   1.181
 2999TIP3    H1 8938   5.327   0.241   1.249
 2999TIP3    H2 8939   5.327   0.092   1.226
 3000TIP3   OH2 8940   5.067   4.071   3.721
 3000TIP3    H1 8941   4.972   4.082   3.725
 3000TIP3    H2 8942   5.087   4.008   3.790
 3001TIP3   OH2 8943   5.700   7.479   6.712
 3001TIP3    H1 8944   5.789   7.444   6.705
 3001TIP3    H2 8945   5.706   7.549   6.776
 3002TIP3   OH2 8946   0.359   5.026   5.745
 3002TIP3    H1 8947   0.407   4.990   5.820
 3002TIP3    H2 8948   0.384   5.119   5.743
 3003TIP3   OH2 8949   8.175   4.489   0.831
 3003TIP3    H1 8950   8.131   4.552   0.774
 3003TIP3    H2 8951   8.269   4.502   0.813
 3004TIP3   OH2 8952   3.133   7.005   5.251
 3004TIP3    H1 8953   3.219   6.981   5.219
 3004TIP3    H2 8954   3.108   7.080   5.197
 3005TIP3   OH2 8955   3.794   1.703   5.541
 3005TIP3    H1 8956   3.826   1.653   5.466
 3005TIP3    H2 8957   3.699   1.704   5.531
 3006TIP3   OH2 8958   1.720   6.241   1.189
 3006TIP3    H1 8959   1.809   6.230   1.154
 3006TIP3    H2 8960   1.709   6.165   1.248
 3007TIP3   OH2 8961   4.030   0.067   4.296
 3007TIP3    H1 8962   4.099   0.058   4.230
 3007TIP3    H2 8963   3.949   0.074   4.244
 3008TIP3   OH2 8964   4.365   1.626   6.605
 3008TIP3    H1 8965   4.377   1.687   6.533
 3008TIP3    H2 8966   4.272   1.633   6.627
 3009TIP3   OH2 8967   6.314   3.199   6.484
 3009TIP3    H1 8968   6.261   3.149   6.421
 3009TIP3    H2 8969   6.267   3.281   6.494
 3010TIP3   OH2 8970   0.328   1.149   5.435
 3010TIP3    H1 8971   0.354   1.057   5.444
 3010TIP3    H2 8972   0.408   1.194   5.410
 3011TIP3   OH2 8973   2.952   7.522   6.401
 3011TIP3    H1 8974   2.904   7.535   6.482
 3011TIP3    H2 8975   2.899   7.459   6.351
 3012TIP3   OH2 8976   0.578   6.841   4.388
 3012TIP3    H1 8977   0.547   6.931   4.374
 3012TIP3    H2 8978   0.561   6.823   4.480
 3013TIP3   OH2 8979   5.936   2.362   6.758
 3013TIP3    H1 8980   5.981   2.435   6.799
 3013TIP3    H2 8981   6.004   2.315   6.711
 3014TIP3   OH2 8982   0.937   7.881   1.083
 3014TIP3    H1 8983   0.975   7.926   1.007
 3014TIP3    H2 8984   0.887   7.809   1.045
 3015TIP3   OH2 8985   5.689   7.052   0.755
 3015TIP3    H1 8986   5.706   7.021   0.666
 3015TIP3    H2 8987   5.618   7.115   0.745
 3016TIP3   OH2 8988   7.143   4.823   1.370
 3016TIP3    H1 8989   7.074   4.859   1.427
 3016TIP3    H2 8990   7.153   4.887   1.300
 3017TIP3   OH2 8991   0.336   6.644   0.611
 3017TIP3    H1 8992   0.269   6.691   0.660
 3017TIP3    H2 8993   0.328   6.554   0.641
 3018TIP3   OH2 8994   6.822   1.675   4.901
 3018TIP3    H1 8995   6.739   1.645   4.938
 3018TIP3    H2 8996   6.805   1.766   4.876
 3019TIP3   OH2 8997   2.942   0.828   3.400
 3019TIP3    H1 8998   2.951   0.808   3.493
 3019TIP3    H2 8999   2.919   0.745   3.359
 3020TIP3   OH2 9000   4.712   3.663   3.266
 3020TIP3    H1 9001   4.680   3.677   3.177
 3020TIP3    H2 9002   4.640   3.621   3.312
 3021TIP3   OH2 9003   0.449   3.271   1.638
 3021TIP3    H1 9004   0.515   3.223   1.588
 3021TIP3    H2 9005   0.490   3.286   1.723
 3022TIP3   OH2 9006   5.166   7.802   6.733
 3022TIP3    H1 9007   5.229   7.872   6.749
 3022TIP3    H2 9008   5.084   7.847   6.715
 3023TIP3   OH2 9009   4.137   1.493   5.487
 3023TIP3    H1 9010   4.072   1.506   5.418
 3023TIP3    H2 9011   4.088   1.462   5.562
 3024TIP3   OH2 9012   3.465   0.508   3.261
 3024TIP3    H1 9013   3.422   0.558   3.192
 3024TIP3    H2 9014   3.503   0.432   3.216
 3025TIP3   OH2 9015   6.832   3.252   4.239
 3025TIP3    H1 9016   6.764   3.265   4.172
 3025TIP3    H2 9017   6.794   3.190   4.301
 3026TIP3   OH2 9018   4.627   6.505   1.932
 3026TIP3    H1 9019   4.565   6.577   1.940
 3026TIP3    H2 9020   4.577   6.434   1.893
 3027TIP3   OH2 9021   3.136   0.202   1.034
 3027TIP3    H1 9022   3.055   0.182   1.081
 3027TIP3    H2 9023   3.109   0.258   0.961
 3028TIP3   OH2 9024   3.969   7.048   6.670
 3028TIP3    H1 9025   3.920   7.130   6.675
 3028TIP3    H2 9026   3.973   7.028   6.577
 3029TIP3   OH2 9027   6.381   6.318   4.486
 3029TIP3    H1 9028   6.303   6.359   4.522
 3029TIP3    H2 9029   6.453   6.357   4.536
 3030TIP3   OH2 9030   0.957   6.099   5.369
 3030TIP3    H1 9031   0.953   6.172   5.430
 3030TIP3    H2 9032   0.865   6.081   5.346
 3031TIP3   OH2 9033   1.480   6.838   4.048
 3031TIP3    H1 9034   1.412   6.904   4.035
 3031TIP3    H2 9035   1.475   6.783   3.970
 3032TIP3   OH2 9036   5.315   6.549   2.004
 3032TIP3    H1 9037   5.225   6.548   2.034
 3032TIP3    H2 9038   5.339   6.641   2.000
 3033TIP3   OH2 9039   4.760   4.250   1.096
 3033TIP3    H1 9040   4.719   4.164   1.094
 3033TIP3    H2 9041   4.830   4.245   1.031
 3034TIP3   OH2 9042   4.469   7.060   6.006
 3034TIP3    H1 9043   4.516   7.092   6.083
 3034TIP3    H2 9044   4.515   7.100   5.932
 3035TIP3   OH2 9045   1.984   6.217   2.708
 3035TIP3    H1 9046   1.983   6.312   2.719
 3035TIP3    H2 9047   1.903   6.187   2.749
 3036TIP3   OH2 9048   4.182   4.804   6.399
 3036TIP3    H1 9049   4.111   4.779   6.341
 3036TIP3    H2 9050   4.218   4.721   6.430
 3037TIP3   OH2 9051   1.604   1.902   1.024
 3037TIP3    H1 9052   1.662   1.976   1.046
 3037TIP3    H2 9053   1.607   1.845   1.101
 3038TIP3   OH2 9054   0.722   7.415   3.221
 3038TIP3    H1 9055   0.759   7.472   3.154
 3038TIP3    H2 9056   0.661   7.470   3.269
 3039TIP3   OH2 9057   6.066   3.539   4.319
 3039TIP3    H1 9058   6.130   3.479   4.358
 3039TIP3    H2 9059   6.023   3.487   4.252
 3040TIP3   OH2 9060   0.818   3.646   6.472
 3040TIP3    H1 9061   0.903   3.690   6.469
 3040TIP3    H2 9062   0.762   3.704   6.524
 3041TIP3   OH2 9063   0.598   0.313   0.918
 3041TIP3    H1 9064   0.503   0.322   0.913
 3041TIP3    H2 9065   0.629   0.349   0.834
 3042TIP3   OH2 9066   3.635   6.935   5.938
 3042TIP3    H1 9067   3.641   6.875   6.012
 3042TIP3    H2 9068   3.619   6.878   5.863
 3043TIP3   OH2 9069   6.895   7.450   2.598
 3043TIP3    H1 9070   6.968   7.424   2.654
 3043TIP3    H2 9071   6.882   7.543   2.617
 3044TIP3   OH2 9072   6.710   5.408   2.320
 3044TIP3    H1 9073   6.706   5.479   2.384
 3044TIP3    H2 9074   6.778   5.350   2.352
 3045TIP3   OH2 9075   2.894   7.236   0.728
 3045TIP3    H1 9076   2.874   7.208   0.818
 3045TIP3    H2 9077   2.962   7.176   0.698
 3046TIP3   OH2 9078   3.120   3.464   1.276
 3046TIP3    H1 9079   3.154   3.433   1.192
 3046TIP3    H2 9080   3.129   3.559   1.273
 3047TIP3   OH2 9081   7.063   0.058   2.776
 3047TIP3    H1 9082   7.072   0.032   2.868
 3047TIP3    H2 9083   7.132   0.122   2.763
 3048TIP3   OH2 9084   5.295   6.633   0.811
 3048TIP3    H1 9085   5.355   6.677   0.750
 3048TIP3    H2 9086   5.346   6.560   0.846
 3049TIP3   OH2 9087   6.853   2.670   1.366
 3049TIP3    H1 9088   6.856   2.735   1.295
 3049TIP3    H2 9089   6.763   2.637   1.364
 3050TIP3   OH2 9090   4.988   2.636   5.786
 3050TIP3    H1 9091   4.900   2.673   5.777
 3050TIP3    H2 9092   5.045   2.701   5.744
 3051TIP3   OH2 9093   7.901   7.555   2.837
 3051TIP3    H1 9094   7.923   7.617   2.906
 3051TIP3    H2 9095   7.824   7.509   2.870
 3052TIP3   OH2 9096   2.501   2.481   3.200
 3052TIP3    H1 9097   2.579   2.460   3.251
 3052TIP3    H2 9098   2.487   2.405   3.144
 3053TIP3   OH2 9099   2.092   2.658   5.994
 3053TIP3    H1 9100   2.035   2.721   5.950
 3053TIP3    H2 9101   2.034   2.585   6.017
 3054TIP3   OH2 9102   2.609   0.789   3.398
 3054TIP3    H1 9103   2.695   0.831   3.392
 3054TIP3    H2 9104   2.614   0.734   3.476
 3055TIP3   OH2 9105   1.137   6.414   4.837
 3055TIP3    H1 9106   1.201   6.445   4.901
 3055TIP3    H2 9107   1.103   6.333   4.876
 3056TIP3   OH2 9108   4.199   2.485   5.187
 3056TIP3    H1 9109   4.201   2.404   5.238
 3056TIP3    H2 9110   4.187   2.456   5.097
 3057TIP3   OH2 9111   4.746   2.847   0.556
 3057TIP3    H1 9112   4.706   2.763   0.532
 3057TIP3    H2 9113   4.756   2.841   0.651
 3058TIP3   OH2 9114   4.623   4.289   0.512
 3058TIP3    H1 9115   4.627   4.305   0.606
 3058TIP3    H2 9116   4.533   4.306   0.487
 3059TIP3   OH2 9117   2.674   1.831   1.984
 3059TIP3    H1 9118   2.677   1.780   1.903
 3059TIP3    H2 9119   2.639   1.770   2.049
 3060TIP3   OH2 9120   6.162   1.594   0.601
 3060TIP3    H1 9121   6.108   1.629   0.672
 3060TIP3    H2 9122   6.184   1.670   0.547
 3061TIP3   OH2 9123   7.829   0.918   5.173
 3061TIP3    H1 9124   7.734   0.926   5.177
 3061TIP3    H2 9125   7.845   0.860   5.098
 3062TIP3   OH2 9126   1.890   5.244   3.460
 3062TIP3    H1 9127   1.831   5.261   3.534
 3062TIP3    H2 9128   1.857   5.164   3.421
 3063TIP3   OH2 9129   4.004   7.813   1.285
 3063TIP3    H1 9130   3.947   7.809   1.208
 3063TIP3    H2 9131   4.045   7.727   1.289
 3064TIP3   OH2 9132   4.816   3.222   4.763
 3064TIP3    H1 9133   4.816   3.310   4.799
 3064TIP3    H2 9134   4.865   3.170   4.827
 3065TIP3   OH2 9135   5.201   7.837   0.820
 3065TIP3    H1 9136   5.186   7.768   0.885
 3065TIP3    H2 9137   5.296   7.839   0.808
 3066TIP3   OH2 9138   3.918   7.651   5.387
 3066TIP3    H1 9139   4.000   7.619   5.347
 3066TIP3    H2 9140   3.864   7.676   5.312
 3067TIP3   OH2 9141   6.104   2.755   0.556
 3067TIP3    H1 9142   6.023   2.751   0.505
 3067TIP3    H2 9143   6.100   2.839   0.601
 3068TIP3   OH2 9144   7.539   1.079   0.686
 3068TIP3    H1 9145   7.482   1.156   0.678
 3068TIP3    H2 9146   7.601   1.102   0.755
 3069TIP3   OH2 9147   1.523   4.099   5.828
 3069TIP3    H1 9148   1.549   4.033   5.764
 3069TIP3    H2 9149   1.443   4.063   5.868
 3070TIP3   OH2 9150   1.468   6.013   1.009
 3070TIP3    H1 9151   1.463   5.970   1.094
 3070TIP3    H2 9152   1.473   5.941   0.946
 3071TIP3   OH2 9153   1.828   1.208   4.841
 3071TIP3    H1 9154   1.781   1.128   4.863
 3071TIP3    H2 9155   1.762   1.277   4.849
 3072TIP3   OH2 9156   4.808   0.323   0.340
 3072TIP3    H1 9157   4.779   0.247   0.391
 3072TIP3    H2 9158   4.898   0.337   0.369
 3073TIP3   OH2 9159   6.949   6.657   5.951
 3073TIP3    H1 9160   6.999   6.736   5.974
 3073TIP3    H2 9161   6.959   6.650   5.856
 3074TIP3   OH2 9162   5.324   4.783   1.078
 3074TIP3    H1 9163   5.285   4.702   1.045
 3074TIP3    H2 9164   5.381   4.813   1.007
 3075TIP3   OH2 9165   4.338   1.938   6.590
 3075TIP3    H1 9166   4.267   1.982   6.637
 3075TIP3    H2 9167   4.417   1.956   6.642
 3076TIP3   OH2 9168   1.955   1.767   0.233
 3076TIP3    H1 9169   1.865   1.779   0.202
 3076TIP3    H2 9170   1.980   1.852   0.268
 3077TIP3   OH2 9171   4.765   6.634   1.257
 3077TIP3    H1 9172   4.699   6.568   1.235
 3077TIP3    H2 9173   4.782   6.622   1.350
 3078TIP3   OH2 9174   7.167   3.910   4.106
 3078TIP3    H1 9175   7.081   3.870   4.094
 3078TIP3    H2 9176   7.167   3.941   4.197
 3079TIP3   OH2 9177   0.199   3.057   6.158
 3079TIP3    H1 9178   0.269   3.003   6.197
 3079TIP3    H2 9179   0.242   3.105   6.088
 3080TIP3   OH2 9180   4.372   3.893   1.817
 3080TIP3    H1 9181   4.304   3.831   1.792
 3080TIP3    H2 9182   4.388   3.944   1.737
 3081TIP3   OH2 9183   1.481   6.226   2.932
 3081TIP3    H1 9184   1.530   6.232   3.015
 3081TIP3    H2 9185   1.447   6.137   2.930
 3082TIP3   OH2 9186   1.824   1.992   4.933
 3082TIP3    H1 9187   1.807   1.974   5.025
 3082TIP3    H2 9188   1.876   1.917   4.903
 3083TIP3   OH2 9189   4.657   6.041   1.985
 3083TIP3    H1 9190   4.609   6.124   1.979
 3083TIP3    H2 9191   4.681   6.021   1.894
 3084TIP3   OH2 9192   5.246   2.901   3.200
 3084TIP3    H1 9193   5.298   2.947   3.265
 3084TIP3    H2 9194   5.244   2.960   3.124
 3085TIP3   OH2 9195   3.435   5.028   6.177
 3085TIP3    H1 9196   3.402   5.072   6.099
 3085TIP3    H2 9197   3.465   5.099   6.233
 3086TIP3   OH2 9198   2.873   1.752   3.620
 3086TIP3    H1 9199   2.823   1.823   3.579
 3086TIP3    H2 9200   2.812   1.711   3.680
 3087TIP3   OH2 9201   6.913   1.878   0.034
 3087TIP3    H1 9202   6.943   1.951  -0.020
 3087TIP3    H2 9203   6.994   1.841   0.070
 3088TIP3   OH2 9204   4.430   3.460   0.116
 3088TIP3    H1 9205   4.467   3.394   0.058
 3088TIP3    H2 9206   4.382   3.519   0.059
 3089TIP3   OH2 9207   3.574   6.206   3.027
 3089TIP3    H1 9208   3.519   6.152   3.084
 3089TIP3    H2 9209   3.575   6.158   2.943
 3090TIP3   OH2 9210   4.911   7.346   0.337
 3090TIP3    H1 9211   4.939   7.427   0.381
 3090TIP3    H2 9212   4.897   7.372   0.246
 3091TIP3   OH2 9213   5.748   0.584   6.238
 3091TIP3    H1 9214   5.698   0.652   6.284
 3091TIP3    H2 9215   5.838   0.615   6.240
 3092TIP3   OH2 9216   0.579   6.890   2.353
 3092TIP3    H1 9217   0.671   6.865   2.340
 3092TIP3    H2 9218   0.550   6.836   2.427
 3093TIP3   OH2 9219   1.722   0.737   2.973
 3093TIP3    H1 9220   1.680   0.659   2.934
 3093TIP3    H2 9221   1.813   0.711   2.987
 3094TIP3   OH2 9222   5.546   5.855   3.847
 3094TIP3    H1 9223   5.616   5.881   3.787
 3094TIP3    H2 9224   5.548   5.759   3.845
 3095TIP3   OH2 9225   8.360   7.526   4.022
 3095TIP3    H1 9226   8.396   7.440   4.042
 3095TIP3    H2 9227   8.323   7.517   3.934
 3096TIP3   OH2 9228   0.619   3.334   4.985
 3096TIP3    H1 9229   0.623   3.430   4.980
 3096TIP3    H2 9230   0.631   3.305   4.894
 3097TIP3   OH2 9231   4.229   6.445   4.344
 3097TIP3    H1 9232   4.207   6.387   4.271
 3097TIP3    H2 9233   4.148   6.494   4.360
 3098TIP3   OH2 9234   3.342   4.457   5.426
 3098TIP3    H1 9235   3.283   4.503   5.486
 3098TIP3    H2 9236   3.325   4.364   5.442
 3099TIP3   OH2 9237   4.696   3.528   6.138
 3099TIP3    H1 9238   4.607   3.564   6.140
 3099TIP3    H2 9239   4.690   3.448   6.189
 3100TIP3   OH2 9240   3.420   3.481   4.792
 3100TIP3    H1 9241   3.363   3.456   4.865
 3100TIP3    H2 9242   3.366   3.467   4.714
 3101TIP3   OH2 9243   1.078   7.428   2.250
 3101TIP3    H1 9244   1.154   7.485   2.237
 3101TIP3    H2 9245   1.115   7.341   2.265
 3102TIP3   OH2 9246   3.578   1.595   5.224
 3102TIP3    H1 9247   3.491   1.590   5.185
 3102TIP3    H2 9248   3.637   1.611   5.150
 3103TIP3   OH2 9249   7.285   5.556   6.516
 3103TIP3    H1 9250   7.342   5.632   6.529
 3103TIP3    H2 9251   7.274   5.519   6.603
 3104TIP3   OH2 9252   5.367   2.861   2.929
 3104TIP3    H1 9253   5.447   2.808   2.934
 3104TIP3    H2 9254   5.304   2.813   2.982
 3105TIP3   OH2 9255   1.089   6.488   5.527
 3105TIP3    H1 9256   1.185   6.485   5.535
 3105TIP3    H2 9257   1.068   6.581   5.520
 3106TIP3   OH2 9258   1.779   1.024   5.094
 3106TIP3    H1 9259   1.759   0.946   5.146
 3106TIP3    H2 9260   1.845   0.994   5.031
 3107TIP3   OH2 9261   7.645   5.537   4.348
 3107TIP3    H1 9262   7.634   5.512   4.256
 3107TIP3    H2 9263   7.571   5.596   4.366
 3108TIP3   OH2 9264   1.791   5.914   0.772
 3108TIP3    H1 9265   1.787   5.826   0.810
 3108TIP3    H2 9266   1.878   5.918   0.732
 3109TIP3   OH2 9267   3.748   0.031   1.948
 3109TIP3    H1 9268   3.657   0.060   1.940
 3109TIP3    H2 9269   3.783   0.037   1.859
 3110TIP3   OH2 9270   3.570   1.107   5.218
 3110TIP3    H1 9271   3.572   1.167   5.292
 3110TIP3    H2 9272   3.485   1.124   5.176
 3111TIP3   OH2 9273   2.754   3.037   2.616
 3111TIP3    H1 9274   2.662   3.051   2.640
 3111TIP3    H2 9275   2.789   3.125   2.601
 3112TIP3   OH2 9276   0.313   3.774   6.377
 3112TIP3    H1 9277   0.310   3.708   6.308
 3112TIP3    H2 9278   0.322   3.857   6.331
 3113TIP3   OH2 9279   0.957   2.191   3.580
 3113TIP3    H1 9280   0.996   2.169   3.495
 3113TIP3    H2 9281   0.908   2.271   3.563
 3114TIP3   OH2 9282   6.900   1.545   4.409
 3114TIP3    H1 9283   6.921   1.462   4.366
 3114TIP3    H2 9284   6.941   1.611   4.353
 3115TIP3   OH2 9285   7.674   6.369   2.520
 3115TIP3    H1 9286   7.681   6.448   2.466
 3115TIP3    H2 9287   7.589   6.378   2.564
 3116TIP3   OH2 9288   0.843   6.640   0.646
 3116TIP3    H1 9289   0.835   6.545   0.654
 3116TIP3    H2 9290   0.845   6.672   0.736
 3117TIP3   OH2 9291   1.201   7.336   1.172
 3117TIP3    H1 9292   1.167   7.307   1.088
 3117TIP3    H2 9293   1.174   7.427   1.179
 3118TIP3   OH2 9294   1.549   1.017   0.279
 3118TIP3    H1 9295   1.519   1.089   0.223
 3118TIP3    H2 9296   1.640   1.002   0.253
 3119TIP3   OH2 9297   4.170   3.764   2.647
 3119TIP3    H1 9298   4.104   3.817   2.603
 3119TIP3    H2 9299   4.150   3.774   2.740
 3120TIP3   OH2 9300   5.664   0.564   3.722
 3120TIP3    H1 9301   5.654   0.586   3.814
 3120TIP3    H2 9302   5.643   0.471   3.717
 3121TIP3   OH2 9303   3.173   7.820   3.534
 3121TIP3    H1 9304   3.172   7.727   3.559
 3121TIP3    H2 9305   3.153   7.866   3.616
 3122TIP3   OH2 9306   5.118   5.115   0.506
 3122TIP3    H1 9307   5.160   5.036   0.472
 3122TIP3    H2 9308   5.189   5.164   0.547
 3123TIP3   OH2 9309   1.133   0.107   1.432
 3123TIP3    H1 9310   1.169   0.058   1.359
 3123TIP3    H2 9311   1.040   0.115   1.412
 3124TIP3   OH2 9312   5.878   1.694   5.022
 3124TIP3    H1 9313   5.949   1.757   5.033
 3124TIP3    H2 9314   5.848   1.707   4.933
 3125TIP3   OH2 9315   2.384   2.755   5.523
 3125TIP3    H1 9316   2.328   2.713   5.589
 3125TIP3    H2 9317   2.457   2.694   5.511
 3126TIP3   OH2 9318   1.598   7.207   2.663
 3126TIP3    H1 9319   1.617   7.223   2.571
 3126TIP3    H2 9320   1.503   7.192   2.666
 3127TIP3   OH2 9321   1.149   6.140   5.662
 3127TIP3    H1 9322   1.063   6.179   5.644
 3127TIP3    H2 9323   1.133   6.080   5.735
 3128TIP3   OH2 9324   8.169   2.116   2.183
 3128TIP3    H1 9325   8.161   2.189   2.245
 3128TIP3    H2 9326   8.080   2.083   2.173
 3129TIP3   OH2 9327   3.015   5.083   4.247
 3129TIP3    H1 9328   3.004   5.171   4.284
 3129TIP3    H2 9329   2.949   5.030   4.291
 3130TIP3   OH2 9330   3.395   4.483   4.747
 3130TIP3    H1 9331   3.369   4.528   4.828
 3130TIP3    H2 9332   3.447   4.547   4.700
 3131TIP3   OH2 9333   4.099   4.564   4.478
 3131TIP3    H1 9334   4.081   4.470   4.474
 3131TIP3    H2 9335   4.153   4.582   4.400
 3132TIP3   OH2 9336   0.440   3.788   5.065
 3132TIP3    H1 9337   0.496   3.847   5.114
 3132TIP3    H2 9338   0.351   3.808   5.093
 3133TIP3   OH2 9339   6.337   1.411   0.360
 3133TIP3    H1 9340   6.279   1.336   0.375
 3133TIP3    H2 9341   6.277   1.485   0.347
 3134TIP3   OH2 9342   0.962   5.572   3.196
 3134TIP3    H1 9343   0.924   5.659   3.181
 3134TIP3    H2 9344   0.966   5.564   3.292
 3135TIP3   OH2 9345   4.012   2.890   5.543
 3135TIP3    H1 9346   3.924   2.855   5.532
 3135TIP3    H2 9347   4.067   2.835   5.487
 3136TIP3   OH2 9348   2.467   2.809   2.378
 3136TIP3    H1 9349   2.444   2.901   2.393
 3136TIP3    H2 9350   2.521   2.785   2.454
 3137TIP3   OH2 9351   7.081   1.211   5.970
 3137TIP3    H1 9352   7.108   1.217   6.062
 3137TIP3    H2 9353   7.010   1.275   5.963
 3138TIP3   OH2 9354   0.816   7.009   4.635
 3138TIP3    H1 9355   0.790   7.101   4.627
 3138TIP3    H2 9356   0.797   6.986   4.725
 3139TIP3   OH2 9357   7.124   2.042   1.616
 3139TIP3    H1 9358   7.114   1.951   1.644
 3139TIP3    H2 9359   7.068   2.091   1.677
 3140TIP3   OH2 9360   5.919   1.267   2.845
 3140TIP3    H1 9361   6.010   1.254   2.872
 3140TIP3    H2 9362   5.909   1.211   2.767
 3141TIP3   OH2 9363   1.035   1.287   0.225
 3141TIP3    H1 9364   0.968   1.335   0.274
 3141TIP3    H2 9365   1.075   1.352   0.168
 3142TIP3   OH2 9366   3.055   0.163   3.032
 3142TIP3    H1 9367   3.016   0.139   2.948
 3142TIP3    H2 9368   2.981   0.175   3.091
 3143TIP3   OH2 9369   5.262   1.529   4.524
 3143TIP3    H1 9370   5.294   1.607   4.478
 3143TIP3    H2 9371   5.342   1.484   4.552
 3144TIP3   OH2 9372   2.552   5.990   4.472
 3144TIP3    H1 9373   2.507   6.060   4.520
 3144TIP3    H2 9374   2.635   6.029   4.445
 3145TIP3   OH2 9375   5.488   3.572   5.295
 3145TIP3    H1 9376   5.501   3.484   5.331
 3145TIP3    H2 9377   5.533   3.569   5.210
 3146TIP3   OH2 9378   7.898   1.093   1.331
 3146TIP3    H1 9379   7.978   1.134   1.299
 3146TIP3    H2 9380   7.854   1.162   1.380
 3147TIP3   OH2 9381   2.185   6.986   0.520
 3147TIP3    H1 9382   2.133   6.909   0.543
 3147TIP3    H2 9383   2.224   7.014   0.603
 3148TIP3   OH2 9384   0.592   7.449   2.061
 3148TIP3    H1 9385   0.656   7.415   2.124
 3148TIP3    H2 9386   0.629   7.532   2.032
 3149TIP3   OH2 9387   6.573   2.951   0.697
 3149TIP3    H1 9388   6.504   2.964   0.763
 3149TIP3    H2 9389   6.525   2.947   0.614
 3150TIP3   OH2 9390   1.931   1.209   3.595
 3150TIP3    H1 9391   1.958   1.210   3.687
 3150TIP3    H2 9392   1.922   1.116   3.573
 3151TIP3   OH2 9393   7.423   3.673   1.699
 3151TIP3    H1 9394   7.360   3.739   1.672
 3151TIP3    H2 9395   7.482   3.719   1.758
 3152TIP3   OH2 9396   7.774   6.272   4.943
 3152TIP3    H1 9397   7.697   6.217   4.957
 3152TIP3    H2 9398   7.796   6.305   5.030
 3153TIP3   OH2 9399   0.262   5.812   5.734
 3153TIP3    H1 9400   0.346   5.804   5.689
 3153TIP3    H2 9401   0.223   5.726   5.727
 3154TIP3   OH2 9402   6.116   2.989   6.065
 3154TIP3    H1 9403   6.145   3.060   6.123
 3154TIP3    H2 9404   6.153   2.910   6.105
 3155TIP3   OH2 9405   7.301   1.709   5.897
 3155TIP3    H1 9406   7.309   1.620   5.862
 3155TIP3    H2 9407   7.355   1.709   5.976
 3156TIP3   OH2 9408   1.733   4.604   4.458
 3156TIP3    H1 9409   1.713   4.564   4.374
 3156TIP3    H2 9410   1.811   4.558   4.489
 3157TIP3   OH2 9411   3.728   0.882   5.985
 3157TIP3    H1 9412   3.824   0.875   5.983
 3157TIP3    H2 9413   3.703   0.833   6.063
 3158TIP3   OH2 9414   2.666   4.222   0.202
 3158TIP3    H1 9415   2.605   4.285   0.163
 3158TIP3    H2 9416   2.611   4.170   0.261
 3159TIP3   OH2 9417   4.161   7.679   0.264
 3159TIP3    H1 9418   4.140   7.739   0.335
 3159TIP3    H2 9419   4.150   7.592   0.302
 3160TIP3   OH2 9420   7.458   2.477   5.922
 3160TIP3    H1 9421   7.413   2.523   5.851
 3160TIP3    H2 9422   7.530   2.432   5.879
 3161TIP3   OH2 9423   6.116   6.416   5.360
 3161TIP3    H1 9424   6.050   6.392   5.424
 3161TIP3    H2 9425   6.199   6.410   5.407
 3162TIP3   OH2 9426   3.883   2.348   0.716
 3162TIP3    H1 9427   3.794   2.330   0.744
 3162TIP3    H2 9428   3.874   2.390   0.630
 3163TIP3   OH2 9429   4.511   6.007   3.471
 3163TIP3    H1 9430   4.551   6.088   3.504
 3163TIP3    H2 9431   4.516   5.946   3.544
 3164TIP3   OH2 9432   2.564   0.654   4.706
 3164TIP3    H1 9433   2.561   0.690   4.618
 3164TIP3    H2 9434   2.561   0.731   4.763
 3165TIP3   OH2 9435   5.001   3.599   4.265
 3165TIP3    H1 9436   5.005   3.689   4.232
 3165TIP3    H2 9437   5.093   3.573   4.275
 3166TIP3   OH2 9438   3.226   2.141   5.771
 3166TIP3    H1 9439   3.305   2.161   5.822
 3166TIP3    H2 9440   3.219   2.214   5.709
 3167TIP3   OH2 9441   0.438   1.554   1.647
 3167TIP3    H1 9442   0.402   1.466   1.660
 3167TIP3    H2 9443   0.509   1.560   1.710
 3168TIP3   OH2 9444   6.355   1.672   6.715
 3168TIP3    H1 9445   6.312   1.756   6.701
 3168TIP3    H2 9446   6.397   1.681   6.801
 3169TIP3   OH2 9447   7.201   1.278   3.896
 3169TIP3    H1 9448   7.113   1.250   3.871
 3169TIP3    H2 9449   7.228   1.337   3.826
 3170TIP3   OH2 9450   4.038   3.086   3.379
 3170TIP3    H1 9451   4.096   3.080   3.303
 3170TIP3    H2 9452   3.960   3.132   3.346
 3171TIP3   OH2 9453   0.223   7.002   1.297
 3171TIP3    H1 9454   0.287   7.057   1.341
 3171TIP3    H2 9455   0.151   7.061   1.274
 3172TIP3   OH2 9456   1.456   4.585   4.574
 3172TIP3    H1 9457   1.487   4.499   4.601
 3172TIP3    H2 9458   1.524   4.617   4.514
 3173TIP3   OH2 9459   8.281   7.827   4.598
 3173TIP3    H1 9460   8.359   7.785   4.635
 3173TIP3    H2 9461   8.280   7.914   4.639
 3174TIP3   OH2 9462   5.462   6.353   4.530
 3174TIP3    H1 9463   5.467   6.258   4.537
 3174TIP3    H2 9464   5.534   6.385   4.584
 3175TIP3   OH2 9465   5.763   3.370   2.670
 3175TIP3    H1 9466   5.748   3.337   2.759
 3175TIP3    H2 9467   5.754   3.293   2.614
 3176TIP3   OH2 9468   0.295   4.618   1.800
 3176TIP3    H1 9469   0.384   4.644   1.824
 3176TIP3    H2 9470   0.251   4.605   1.884
 3177TIP3   OH2 9471   0.924   3.439   6.105
 3177TIP3    H1 9472   0.881   3.507   6.052
 3177TIP3    H2 9473   0.966   3.487   6.176
 3178TIP3   OH2 9474   5.459   2.275   4.441
 3178TIP3    H1 9475   5.523   2.218   4.398
 3178TIP3    H2 9476   5.406   2.309   4.369
 3179TIP3   OH2 9477   2.474   4.344   4.414
 3179TIP3    H1 9478   2.509   4.419   4.366
 3179TIP3    H2 9479   2.545   4.318   4.473
 3180TIP3   OH2 9480   2.767   2.660   5.006
 3180TIP3    H1 9481   2.833   2.672   5.075
 3180TIP3    H2 9482   2.745   2.567   5.011
 3181TIP3   OH2 9483   0.744   0.140   6.446
 3181TIP3    H1 9484   0.711   0.128   6.357
 3181TIP3    H2 9485   0.838   0.158   6.434
 3182TIP3   OH2 9486   5.828   6.509   0.493
 3182TIP3    H1 9487   5.761   6.530   0.428
 3182TIP3    H2 9488   5.805   6.563   0.569
 3183TIP3   OH2 9489   6.286   7.302   5.174
 3183TIP3    H1 9490   6.210   7.345   5.136
 3183TIP3    H2 9491   6.275   7.312   5.269
 3184TIP3   OH2 9492   6.679   1.857   6.454
 3184TIP3    H1 9493   6.619   1.807   6.399
 3184TIP3    H2 9494   6.692   1.803   6.531
 3185TIP3   OH2 9495   3.172   4.474   0.773
 3185TIP3    H1 9496   3.244   4.425   0.734
 3185TIP3    H2 9497   3.153   4.428   0.855
 3186TIP3   OH2 9498   2.698   0.782   2.640
 3186TIP3    H1 9499   2.708   0.761   2.547
 3186TIP3    H2 9500   2.669   0.873   2.641
 3187TIP3   OH2 9501   7.760   1.248   6.272
 3187TIP3    H1 9502   7.688   1.188   6.255
 3187TIP3    H2 9503   7.775   1.243   6.366
 3188TIP3   OH2 9504   1.116   3.053   2.020
 3188TIP3    H1 9505   1.184   3.027   1.958
 3188TIP3    H2 9506   1.095   2.972   2.067
 3189TIP3   OH2 9507   2.257   1.202   1.290
 3189TIP3    H1 9508   2.308   1.207   1.370
 3189TIP3    H2 9509   2.166   1.213   1.319
 3190TIP3   OH2 9510   6.432   7.301   3.969
 3190TIP3    H1 9511   6.480   7.384   3.964
 3190TIP3    H2 9512   6.460   7.252   3.892
 3191TIP3   OH2 9513   7.548   0.869   0.497
 3191TIP3    H1 9514   7.540   0.952   0.543
 3191TIP3    H2 9515   7.642   0.852   0.494
 3192TIP3   OH2 9516   2.043   6.897   0.036
 3192TIP3    H1 9517   2.071   6.854   0.117
 3192TIP3    H2 9518   2.064   6.990   0.050
 3193TIP3   OH2 9519   7.750   2.103   1.829
 3193TIP3    H1 9520   7.675   2.071   1.879
 3193TIP3    H2 9521   7.775   2.184   1.873
 3194TIP3   OH2 9522   7.924   3.770   5.725
 3194TIP3    H1 9523   7.861   3.802   5.661
 3194TIP3    H2 9524   7.997   3.737   5.673
 3195TIP3   OH2 9525   3.523   2.953   0.409
 3195TIP3    H1 9526   3.604   2.997   0.432
 3195TIP3    H2 9527   3.454   3.016   0.430
 3196TIP3   OH2 9528   5.542   6.544   6.099
 3196TIP3    H1 9529   5.472   6.509   6.044
 3196TIP3    H2 9530   5.612   6.566   6.037
 3197TIP3   OH2 9531   7.878   3.279   1.843
 3197TIP3    H1 9532   7.824   3.317   1.774
 3197TIP3    H2 9533   7.933   3.214   1.798
 3198TIP3   OH2 9534   0.116   1.489   6.463
 3198TIP3    H1 9535   0.061   1.421   6.502
 3198TIP3    H2 9536   0.203   1.474   6.501
 3199TIP3   OH2 9537   3.643   6.083   0.848
 3199TIP3    H1 9538   3.639   6.179   0.855
 3199TIP3    H2 9539   3.554   6.053   0.866
 3200TIP3   OH2 9540   2.319   2.147   3.302
 3200TIP3    H1 9541   2.356   2.084   3.365
 3200TIP3    H2 9542   2.344   2.113   3.216
 3201TIP3   OH2 9543   1.858   5.244   5.077
 3201TIP3    H1 9544   1.853   5.185   5.001
 3201TIP3    H2 9545   1.950   5.268   5.083
 3202TIP3   OH2 9546   7.714   4.264   1.813
 3202TIP3    H1 9547   7.725   4.212   1.892
 3202TIP3    H2 9548   7.630   4.235   1.777
 3203TIP3   OH2 9549   8.257   2.108   6.833
 3203TIP3    H1 9550   8.321   2.088   6.765
 3203TIP3    H2 9551   8.190   2.159   6.788
 3204TIP3   OH2 9552   3.479   4.458   0.826
 3204TIP3    H1 9553   3.463   4.494   0.914
 3204TIP3    H2 9554   3.439   4.521   0.767
 3205TIP3   OH2 9555   4.225   1.765   1.762
 3205TIP3    H1 9556   4.282   1.835   1.730
 3205TIP3    H2 9557   4.199   1.717   1.683
 3206TIP3   OH2 9558   0.264   6.073   5.607
 3206TIP3    H1 9559   0.302   6.131   5.673
 3206TIP3    H2 9560   0.275   5.985   5.644
 3207TIP3   OH2 9561   6.392   5.229   2.732
 3207TIP3    H1 9562   6.360   5.279   2.657
 3207TIP3    H2 9563   6.419   5.145   2.695
 3208TIP3   OH2 9564   4.094   1.637   3.808
 3208TIP3    H1 9565   4.130   1.724   3.825
 3208TIP3    H2 9566   4.099   1.627   3.713
 3209TIP3   OH2 9567   4.765   5.249   3.534
 3209TIP3    H1 9568   4.743   5.203   3.615
 3209TIP3    H2 9569   4.714   5.204   3.467
 3210TIP3   OH2 9570   3.045   2.702   2.032
 3210TIP3    H1 9571   3.105   2.630   2.051
 3210TIP3    H2 9572   2.974   2.662   1.982
 3211TIP3   OH2 9573   0.049   7.594   5.751
 3211TIP3    H1 9574  -0.037   7.618   5.784
 3211TIP3    H2 9575   0.104   7.670   5.769
 3212TIP3   OH2 9576   0.034   2.742   5.058
 3212TIP3    H1 9577   0.041   2.652   5.027
 3212TIP3    H2 9578   0.056   2.796   4.983
 3213TIP3   OH2 9579   8.244   3.297   2.473
 3213TIP3    H1 9580   8.290   3.231   2.524
 3213TIP3    H2 9581   8.305   3.372   2.471
 3214TIP3   OH2 9582   4.403   4.407   4.725
 3214TIP3    H1 9583   4.430   4.315   4.728
 3214TIP3    H2 9584   4.308   4.405   4.720
 3215TIP3   OH2 9585   5.724   0.620   5.936
 3215TIP3    H1 9586   5.740   0.610   6.030
 3215TIP3    H2 9587   5.630   0.605   5.925
 3216TIP3   OH2 9588   1.310   4.201   2.162
 3216TIP3    H1 9589   1.363   4.122   2.174
 3216TIP3    H2 9590   1.373   4.268   2.136
 3217TIP3   OH2 9591   7.631   6.859   1.370
 3217TIP3    H1 9592   7.614   6.856   1.464
 3217TIP3    H2 9593   7.679   6.941   1.357
 3218TIP3   OH2 9594   7.997   6.851   2.564
 3218TIP3    H1 9595   7.958   6.821   2.482
 3218TIP3    H2 9596   8.019   6.943   2.549
 3219TIP3   OH2 9597   7.221   5.720   0.614
 3219TIP3    H1 9598   7.283   5.647   0.607
 3219TIP3    H2 9599   7.160   5.693   0.683
 3220TIP3   OH2 9600   2.198   6.579   1.729
 3220TIP3    H1 9601   2.272   6.523   1.707
 3220TIP3    H2 9602   2.213   6.604   1.820
 3221TIP3   OH2 9603   4.065   3.126   0.233
 3221TIP3    H1 9604   4.136   3.139   0.295
 3221TIP3    H2 9605   3.988   3.109   0.287
 3222TIP3   OH2 9606   6.342   6.621   0.865
 3222TIP3    H1 9607   6.300   6.705   0.845
 3222TIP3    H2 9608   6.296   6.557   0.811
 3223TIP3   OH2 9609   2.357   3.298   3.649
 3223TIP3    H1 9610   2.397   3.242   3.716
 3223TIP3    H2 9611   2.415   3.374   3.643
 3224TIP3   OH2 9612   4.621   7.397   2.014
 3224TIP3    H1 9613   4.636   7.425   2.104
 3224TIP3    H2 9614   4.610   7.478   1.965
 3225TIP3   OH2 9615   2.716   7.420   0.696
 3225TIP3    H1 9616   2.797   7.373   0.716
 3225TIP3    H2 9617   2.721   7.499   0.749
 3226TIP3   OH2 9618   3.724   5.873   5.692
 3226TIP3    H1 9619   3.629   5.865   5.685
 3226TIP3    H2 9620   3.754   5.874   5.601
 3227TIP3   OH2 9621   0.579   6.801   4.024
 3227TIP3    H1 9622   0.534   6.876   4.064
 3227TIP3    H2 9623   0.608   6.833   3.939
 3228TIP3   OH2 9624   4.278   3.583   0.990
 3228TIP3    H1 9625   4.211   3.570   0.923
 3228TIP3    H2 9626   4.360   3.555   0.948
 3229TIP3   OH2 9627   5.627   2.841   1.487
 3229TIP3    H1 9628   5.707   2.868   1.444
 3229TIP3    H2 9629   5.557   2.875   1.431
 3230TIP3   OH2 9630   5.266   6.750   1.591
 3230TIP3    H1 9631   5.201   6.803   1.637
 3230TIP3    H2 9632   5.278   6.794   1.507
 3231TIP3   OH2 9633   3.223   5.277   6.236
 3231TIP3    H1 9634   3.219   5.248   6.145
 3231TIP3    H2 9635   3.305   5.326   6.243
 3232TIP3   OH2 9636   4.462   4.695   5.060
 3232TIP3    H1 9637   4.400   4.730   4.995
 3232TIP3    H2 9638   4.478   4.605   5.031
 3233TIP3   OH2 9639   5.858   2.564   4.644
 3233TIP3    H1 9640   5.853   2.660   4.639
 3233TIP3    H2 9641   5.786   2.533   4.589
 3234TIP3   OH2 9642   2.256   3.713   5.827
 3234TIP3    H1 9643   2.279   3.627   5.862
 3234TIP3    H2 9644   2.291   3.775   5.890
 3235TIP3   OH2 9645   3.415   1.013   3.203
 3235TIP3    H1 9646   3.503   1.052   3.208
 3235TIP3    H2 9647   3.422   0.949   3.132
 3236TIP3   OH2 9648   4.354   1.581   4.345
 3236TIP3    H1 9649   4.428   1.549   4.294
 3236TIP3    H2 9650   4.306   1.501   4.370
 3237TIP3   OH2 9651   4.658   5.897   1.757
 3237TIP3    H1 9652   4.648   5.805   1.735
 3237TIP3    H2 9653   4.741   5.923   1.717
 3238TIP3   OH2 9654   0.037   7.402   3.498
 3238TIP3    H1 9655   0.124   7.421   3.533
 3238TIP3    H2 9656   0.006   7.328   3.551
 3239TIP3   OH2 9657   1.802   0.452   4.301
 3239TIP3    H1 9658   1.713   0.419   4.288
 3239TIP3    H2 9659   1.816   0.446   4.395
 3240TIP3   OH2 9660   1.271   5.881   2.462
 3240TIP3    H1 9661   1.323   5.961   2.474
 3240TIP3    H2 9662   1.230   5.866   2.547
 3241TIP3   OH2 9663   2.935   0.899   4.474
 3241TIP3    H1 9664   2.868   0.967   4.467
 3241TIP3    H2 9665   2.951   0.891   4.568
 3242TIP3   OH2 9666   3.375   0.202   5.792
 3242TIP3    H1 9667   3.342   0.158   5.714
 3242TIP3    H2 9668   3.389   0.293   5.764
 3243TIP3   OH2 9669   5.149   4.329   2.929
 3243TIP3    H1 9670   5.106   4.393   2.872
 3243TIP3    H2 9671   5.111   4.345   3.016
 3244TIP3   OH2 9672   2.877   5.022   3.483
 3244TIP3    H1 9673   2.880   5.018   3.579
 3244TIP3    H2 9674   2.800   5.076   3.463
 3245TIP3   OH2 9675   2.045   0.386   6.212
 3245TIP3    H1 9676   2.049   0.402   6.306
 3245TIP3    H2 9677   2.067   0.471   6.172
 3246TIP3   OH2 9678   1.556   7.361   4.844
 3246TIP3    H1 9679   1.495   7.433   4.860
 3246TIP3    H2 9680   1.500   7.284   4.833
 3247TIP3   OH2 9681   3.765   3.741   4.323
 3247TIP3    H1 9682   3.697   3.729   4.389
 3247TIP3    H2 9683   3.717   3.747   4.240
 3248TIP3   OH2 9684   3.635   6.187   4.167
 3248TIP3    H1 9685   3.566   6.140   4.120
 3248TIP3    H2 9686   3.624   6.278   4.143
 3249TIP3   OH2 9687   1.067   3.718   3.201
 3249TIP3    H1 9688   1.046   3.669   3.281
 3249TIP3    H2 9689   1.150   3.761   3.221
 3250TIP3   OH2 9690   6.247   5.303   6.446
 3250TIP3    H1 9691   6.281   5.374   6.501
 3250TIP3    H2 9692   6.175   5.342   6.398
 3251TIP3   OH2 9693   4.475   1.900   4.214
 3251TIP3    H1 9694   4.567   1.875   4.207
 3251TIP3    H2 9695   4.428   1.829   4.169
 3252TIP3   OH2 9696   2.659   6.665   1.212
 3252TIP3    H1 9697   2.603   6.652   1.135
 3252TIP3    H2 9698   2.631   6.750   1.248
 3253TIP3   OH2 9699   0.331   3.147   3.656
 3253TIP3    H1 9700   0.344   3.137   3.562
 3253TIP3    H2 9701   0.319   3.058   3.689
 3254TIP3   OH2 9702   4.693   2.705   1.835
 3254TIP3    H1 9703   4.745   2.785   1.842
 3254TIP3    H2 9704   4.734   2.656   1.764
 3255TIP3   OH2 9705   6.356   1.624   3.318
 3255TIP3    H1 9706   6.414   1.593   3.388
 3255TIP3    H2 9707   6.269   1.593   3.344
 3256TIP3   OH2 9708   8.092   1.858   3.937
 3256TIP3    H1 9709   8.071   1.862   3.844
 3256TIP3    H2 9710   8.007   1.846   3.980
 3257TIP3   OH2 9711   1.599   1.523   5.198
 3257TIP3    H1 9712   1.610   1.563   5.112
 3257TIP3    H2 9713   1.634   1.435   5.188
 3258TIP3   OH2 9714   6.728   4.694   5.561
 3258TIP3    H1 9715   6.774   4.735   5.635
 3258TIP3    H2 9716   6.636   4.694   5.587
 3259TIP3   OH2 9717   1.999   7.888   1.085
 3259TIP3    H1 9718   1.953   7.960   1.129
 3259TIP3    H2 9719   2.013   7.919   0.996
 3260TIP3   OH2 9720   0.114   7.626   6.154
 3260TIP3    H1 9721   0.145   7.616   6.244
 3260TIP3    H2 9722   0.181   7.678   6.110
 3261TIP3   OH2 9723   2.407   6.235   6.761
 3261TIP3    H1 9724   2.329   6.212   6.711
 3261TIP3    H2 9725   2.443   6.150   6.789
 3262TIP3   OH2 9726   6.106   7.157   0.737
 3262TIP3    H1 9727   6.155   7.232   0.770
 3262TIP3    H2 9728   6.172   7.094   0.710
 3263TIP3   OH2 9729   5.392   0.374   1.354
 3263TIP3    H1 9730   5.307   0.350   1.390
 3263TIP3    H2 9731   5.433   0.427   1.422
 3264TIP3   OH2 9732   2.269   0.544   4.458
 3264TIP3    H1 9733   2.262   0.608   4.528
 3264TIP3    H2 9734   2.210   0.473   4.484
 3265TIP3   OH2 9735   7.422   4.757   5.906
 3265TIP3    H1 9736   7.368   4.711   5.970
 3265TIP3    H2 9737   7.501   4.704   5.898
 3266TIP3   OH2 9738   5.694   0.272   3.862
 3266TIP3    H1 9739   5.636   0.298   3.790
 3266TIP3    H2 9740   5.642   0.209   3.913
 3267TIP3   OH2 9741   1.725   2.798   1.110
 3267TIP3    H1 9742   1.732   2.890   1.137
 3267TIP3    H2 9743   1.814   2.774   1.085
 3268TIP3   OH2 9744   1.975   4.348   0.132
 3268TIP3    H1 9745   1.957   4.268   0.083
 3268TIP3    H2 9746   1.903   4.407   0.108
 3269TIP3   OH2 9747   0.801   1.583   5.539
 3269TIP3    H1 9748   0.839   1.586   5.451
 3269TIP3    H2 9749   0.763   1.496   5.547
 3270TIP3   OH2 9750   2.003   2.811   1.159
 3270TIP3    H1 9751   2.077   2.764   1.197
 3270TIP3    H2 9752   1.991   2.887   1.216
 3271TIP3   OH2 9753   4.170   6.849   4.302
 3271TIP3    H1 9754   4.170   6.840   4.207
 3271TIP3    H2 9755   4.082   6.823   4.329
 3272TIP3   OH2 9756   3.143   4.079   0.900
 3272TIP3    H1 9757   3.050   4.070   0.924
 3272TIP3    H2 9758   3.164   4.170   0.921
 3273TIP3   OH2 9759   6.154   1.212   5.517
 3273TIP3    H1 9760   6.100   1.269   5.463
 3273TIP3    H2 9761   6.233   1.197   5.465
 3274TIP3   OH2 9762   6.267   5.819   3.470
 3274TIP3    H1 9763   6.237   5.871   3.544
 3274TIP3    H2 9764   6.316   5.747   3.509
 3275TIP3   OH2 9765   1.028   2.126   1.065
 3275TIP3    H1 9766   1.004   2.111   1.156
 3275TIP3    H2 9767   1.071   2.212   1.065
 3276TIP3   OH2 9768   3.949   5.001   3.897
 3276TIP3    H1 9769   3.868   4.984   3.849
 3276TIP3    H2 9770   3.983   5.082   3.858
 3277TIP3   OH2 9771   7.858   4.167   1.151
 3277TIP3    H1 9772   7.791   4.234   1.157
 3277TIP3    H2 9773   7.910   4.191   1.075
 3278TIP3   OH2 9774   0.836   7.844   4.702
 3278TIP3    H1 9775   0.770   7.868   4.637
 3278TIP3    H2 9776   0.846   7.923   4.755
 3279TIP3   OH2 9777   1.415   6.254   3.245
 3279TIP3    H1 9778   1.386   6.292   3.329
 3279TIP3    H2 9779   1.502   6.291   3.231
 3280TIP3   OH2 9780   4.684   6.304   5.411
 3280TIP3    H1 9781   4.601   6.268   5.442
 3280TIP3    H2 9782   4.712   6.364   5.480
 3281TIP3   OH2 9783   1.628   7.887   1.124
 3281TIP3    H1 9784   1.673   7.896   1.040
 3281TIP3    H2 9785   1.615   7.792   1.134
 3282TIP3   OH2 9786   3.357   1.922   0.907
 3282TIP3    H1 9787   3.374   1.895   0.817
 3282TIP3    H2 9788   3.344   1.840   0.954
 3283TIP3   OH2 9789   1.670   7.529   5.984
 3283TIP3    H1 9790   1.627   7.476   5.918
 3283TIP3    H2 9791   1.761   7.537   5.955
 3284TIP3   OH2 9792   0.172   4.793   4.498
 3284TIP3    H1 9793   0.202   4.756   4.415
 3284TIP3    H2 9794   0.236   4.861   4.519
 3285TIP3   OH2 9795   4.012   6.179   1.235
 3285TIP3    H1 9796   4.023   6.122   1.158
 3285TIP3    H2 9797   3.989   6.264   1.198
 3286TIP3   OH2 9798   3.007   2.255   0.827
 3286TIP3    H1 9799   3.090   2.230   0.866
 3286TIP3    H2 9800   2.941   2.233   0.894
 3287TIP3   OH2 9801   7.712   0.290   5.905
 3287TIP3    H1 9802   7.650   0.255   5.842
 3287TIP3    H2 9803   7.792   0.240   5.891
 3288TIP3   OH2 9804   1.972   2.007   3.728
 3288TIP3    H1 9805   1.995   1.914   3.729
 3288TIP3    H2 9806   2.000   2.037   3.642
 3289TIP3   OH2 9807   5.388   5.222   5.183
 3289TIP3    H1 9808   5.297   5.205   5.206
 3289TIP3    H2 9809   5.428   5.252   5.265
 3290TIP3   OH2 9810   6.001   0.798   2.730
 3290TIP3    H1 9811   5.911   0.783   2.699
 3290TIP3    H2 9812   6.031   0.873   2.679
 3291TIP3   OH2 9813   6.209   6.197   1.004
 3291TIP3    H1 9814   6.129   6.249   1.001
 3291TIP3    H2 9815   6.183   6.116   1.047
 3292TIP3   OH2 9816   2.762   0.830   1.722
 3292TIP3    H1 9817   2.776   0.922   1.698
 3292TIP3    H2 9818   2.848   0.799   1.749
 3293TIP3   OH2 9819   7.013   5.658   6.578
 3293TIP3    H1 9820   7.099   5.665   6.535
 3293TIP3    H2 9821   7.020   5.579   6.632
 3294TIP3   OH2 9822   0.757   4.506   0.489
 3294TIP3    H1 9823   0.722   4.558   0.416
 3294TIP3    H2 9824   0.847   4.537   0.499
 3295TIP3   OH2 9825   3.705   6.408   4.563
 3295TIP3    H1 9826   3.742   6.376   4.481
 3295TIP3    H2 9827   3.780   6.439   4.613
 3296TIP3   OH2 9828   4.594   3.923   1.992
 3296TIP3    H1 9829   4.623   3.831   1.993
 3296TIP3    H2 9830   4.521   3.925   1.930
 3297TIP3   OH2 9831   2.505   6.363   1.382
 3297TIP3    H1 9832   2.459   6.444   1.360
 3297TIP3    H2 9833   2.478   6.301   1.315
 3298TIP3   OH2 9834   4.053   4.545   3.411
 3298TIP3    H1 9835   4.001   4.497   3.346
 3298TIP3    H2 9836   4.003   4.625   3.427
 3299TIP3   OH2 9837   0.977   6.629   1.979
 3299TIP3    H1 9838   0.943   6.613   2.067
 3299TIP3    H2 9839   0.923   6.699   1.944
 3300TIP3   OH2 9840   7.933   0.694   4.685
 3300TIP3    H1 9841   8.018   0.722   4.651
 3300TIP3    H2 9842   7.879   0.683   4.607
 3301TIP3   OH2 9843   5.358   3.460   0.764
 3301TIP3    H1 9844   5.327   3.479   0.675
 3301TIP3    H2 9845   5.416   3.533   0.785
 3302TIP3   OH2 9846   5.970   0.402   4.005
 3302TIP3    H1 9847   5.942   0.354   3.927
 3302TIP3    H2 9848   6.060   0.372   4.020
 3303TIP3   OH2 9849   1.710   5.240   5.792
 3303TIP3    H1 9850   1.746   5.322   5.825
 3303TIP3    H2 9851   1.682   5.260   5.703
 3304TIP3   OH2 9852   0.214   1.833   4.201
 3304TIP3    H1 9853   0.197   1.910   4.146
 3304TIP3    H2 9854   0.233   1.764   4.138
 3305TIP3   OH2 9855   0.561   3.104   2.025
 3305TIP3    H1 9856   0.600   3.030   2.071
 3305TIP3    H2 9857   0.550   3.074   1.935
 3306TIP3   OH2 9858   1.060   5.217   3.917
 3306TIP3    H1 9859   1.037   5.286   3.980
 3306TIP3    H2 9860   1.074   5.263   3.835
 3307TIP3   OH2 9861   6.980   4.475   2.806
 3307TIP3    H1 9862   7.019   4.559   2.780
 3307TIP3    H2 9863   6.995   4.469   2.900
 3308TIP3   OH2 9864   3.766   7.717   2.264
 3308TIP3    H1 9865   3.798   7.657   2.196
 3308TIP3    H2 9866   3.839   7.777   2.280
 3309TIP3   OH2 9867   1.701   4.878   2.994
 3309TIP3    H1 9868   1.773   4.904   3.051
 3309TIP3    H2 9869   1.696   4.783   3.003
 3310TIP3   OH2 9870   2.134   6.497   5.595
 3310TIP3    H1 9871   2.204   6.476   5.657
 3310TIP3    H2 9872   2.053   6.475   5.643
 3311TIP3   OH2 9873   0.919   1.831   5.294
 3311TIP3    H1 9874   0.983   1.862   5.358
 3311TIP3    H2 9875   0.938   1.738   5.285
 3312TIP3   OH2 9876   7.189   3.385   4.370
 3312TIP3    H1 9877   7.263   3.364   4.426
 3312TIP3    H2 9878   7.126   3.428   4.428
 3313TIP3   OH2 9879   6.550   2.798   2.489
 3313TIP3    H1 9880   6.574   2.709   2.515
 3313TIP3    H2 9881   6.455   2.795   2.477
 3314TIP3   OH2 9882   7.949   1.181   0.033
 3314TIP3    H1 9883   7.931   1.094   0.068
 3314TIP3    H2 9884   8.021   1.214   0.087
 3315TIP3   OH2 9885   3.495   6.422   2.058
 3315TIP3    H1 9886   3.487   6.333   2.091
 3315TIP3    H2 9887   3.579   6.453   2.092
 3316TIP3   OH2 9888   5.142   3.940   0.832
 3316TIP3    H1 9889   5.087   3.938   0.910
 3316TIP3    H2 9890   5.120   3.861   0.784
 3317TIP3   OH2 9891   2.385   5.813   4.329
 3317TIP3    H1 9892   2.463   5.867   4.344
 3317TIP3    H2 9893   2.339   5.859   4.258
 3318TIP3   OH2 9894   2.907   2.170   3.541
 3318TIP3    H1 9895   2.875   2.141   3.627
 3318TIP3    H2 9896   2.882   2.100   3.481
 3319TIP3   OH2 9897   4.368   3.755   3.446
 3319TIP3    H1 9898   4.320   3.745   3.529
 3319TIP3    H2 9899   4.439   3.691   3.452
 3320TIP3   OH2 9900   1.889   1.345   2.099
 3320TIP3    H1 9901   1.845   1.364   2.016
 3320TIP3    H2 9902   1.971   1.303   2.074
 3321TIP3   OH2 9903   1.865   2.946   5.255
 3321TIP3    H1 9904   1.941   2.933   5.198
 3321TIP3    H2 9905   1.902   2.976   5.338
 3322TIP3   OH2 9906   2.899   2.351   2.076
 3322TIP3    H1 9907   2.966   2.320   2.137
 3322TIP3    H2 9908   2.827   2.288   2.086
 3323TIP3   OH2 9909   7.577   5.562   6.484
 3323TIP3    H1 9910   7.516   5.505   6.438
 3323TIP3    H2 9911   7.656   5.561   6.431
 3324TIP3   OH2 9912   7.121   3.735   4.672
 3324TIP3    H1 9913   7.067   3.734   4.751
 3324TIP3    H2 9914   7.105   3.650   4.631
 3325TIP3   OH2 9915   6.764   2.313   2.576
 3325TIP3    H1 9916   6.724   2.233   2.543
 3325TIP3    H2 9917   6.839   2.328   2.519
 3326TIP3   OH2 9918   0.791   5.419   3.004
 3326TIP3    H1 9919   0.741   5.426   3.085
 3326TIP3    H2 9920   0.856   5.489   3.009
 3327TIP3   OH2 9921   6.422   2.845   4.404
 3327TIP3    H1 9922   6.438   2.890   4.487
 3327TIP3    H2 9923   6.327   2.852   4.391
 3328TIP3   OH2 9924   1.048   2.517   5.276
 3328TIP3    H1 9925   1.122   2.519   5.336
 3328TIP3    H2 9926   0.985   2.456   5.316
 3329TIP3   OH2 9927   6.698   6.083   5.857
 3329TIP3    H1 9928   6.667   6.052   5.772
 3329TIP3    H2 9929   6.769   6.022   5.880
 3330TIP3   OH2 9930   1.543   0.054   6.643
 3330TIP3    H1 9931   1.453   0.087   6.646
 3330TIP3    H2 9932   1.591   0.119   6.593
 3331TIP3   OH2 9933   4.153   2.585   6.295
 3331TIP3    H1 9934   4.185   2.599   6.384
 3331TIP3    H2 9935   4.060   2.568   6.305
 3332TIP3   OH2 9936   1.752   0.406   4.836
 3332TIP3    H1 9937   1.688   0.389   4.905
 3332TIP3    H2 9938   1.831   0.361   4.864
 3333TIP3   OH2 9939   5.964   6.105   6.158
 3333TIP3    H1 9940   5.900   6.062   6.214
 3333TIP3    H2 9941   5.921   6.187   6.131
 3334TIP3   OH2 9942   1.124   7.730   1.936
 3334TIP3    H1 9943   1.063   7.791   1.978
 3334TIP3    H2 9944   1.074   7.650   1.923
 3335TIP3   OH2 9945   0.835   3.909   2.407
 3335TIP3    H1 9946   0.777   3.975   2.369
 3335TIP3    H2 9947   0.915   3.915   2.355
 3336TIP3   OH2 9948   1.214   5.740   3.023
 3336TIP3    H1 9949   1.176   5.770   2.940
 3336TIP3    H2 9950   1.218   5.645   3.015
 3337TIP3   OH2 9951   4.451   5.319   4.178
 3337TIP3    H1 9952   4.364   5.294   4.148
 3337TIP3    H2 9953   4.483   5.243   4.226
 3338TIP3   OH2 9954   2.487   2.824   3.926
 3338TIP3    H1 9955   2.545   2.804   4.000
 3338TIP3    H2 9956   2.496   2.748   3.868
 3339TIP3   OH2 9957   5.465   7.872   3.800
 3339TIP3    H1 9958   5.537   7.845   3.857
 3339TIP3    H2 9959   5.390   7.819   3.829
 3340TIP3   OH2 9960   5.674   7.812   3.971
 3340TIP3    H1 9961   5.677   7.725   4.011
 3340TIP3    H2 9962   5.762   7.847   3.983
 3341TIP3   OH2 9963   3.185   3.580   6.648
 3341TIP3    H1 9964   3.222   3.497   6.678
 3341TIP3    H2 9965   3.105   3.591   6.699
 3342TIP3   OH2 9966   6.221   5.686   4.757
 3342TIP3    H1 9967   6.306   5.728   4.743
 3342TIP3    H2 9968   6.199   5.706   4.848
 3343TIP3   OH2 9969   4.241   7.064   4.938
 3343TIP3    H1 9970   4.168   7.084   4.997
 3343TIP3    H2 9971   4.232   6.970   4.920
 3344TIP3   OH2 9972   1.054   4.914   5.715
 3344TIP3    H1 9973   0.966   4.951   5.708
 3344TIP3    H2 9974   1.103   4.978   5.767
 3345TIP3   OH2 9975   0.185   1.149   6.258
 3345TIP3    H1 9976   0.219   1.176   6.343
 3345TIP3    H2 9977   0.131   1.073   6.276
 3346TIP3   OH2 9978   1.461   7.828   3.315
 3346TIP3    H1 9979   1.513   7.767   3.367
 3346TIP3    H2 9980   1.474   7.913   3.357
 3347TIP3   OH2 9981   0.096   5.872   4.893
 3347TIP3    H1 9982   0.088   5.809   4.822
 3347TIP3    H2 9983   0.006   5.891   4.918
 3348TIP3   OH2 9984   7.373   0.379   5.803
 3348TIP3    H1 9985   7.457   0.417   5.779
 3348TIP3    H2 9986   7.384   0.351   5.894
 3349TIP3   OH2 9987   1.316   2.988   0.304
 3349TIP3    H1 9988   1.350   2.935   0.376
 3349TIP3    H2 9989   1.386   2.988   0.239
 3350TIP3   OH2 9990   1.905   7.770   2.473
 3350TIP3    H1 9991   1.867   7.702   2.417
 3350TIP3    H2 9992   1.855   7.765   2.554
 3351TIP3   OH2 9993   2.344   3.825   2.690
 3351TIP3    H1 9994   2.372   3.799   2.602
 3351TIP3    H2 9995   2.425   3.852   2.734
 3352TIP3   OH2 9996   4.333   7.066   6.416
 3352TIP3    H1 9997   4.415   7.092   6.375
 3352TIP3    H2 9998   4.329   6.971   6.405
 3353TIP3   OH2 9999   4.663   5.362   5.852
 3353TIP3    H110000   4.652   5.279   5.898
 3353TIP3    H210001   4.748   5.395   5.880
 3354TIP3   OH210002   5.761   1.012   6.609
 3354TIP3    H110003   5.801   1.050   6.686
 3354TIP3    H210004   5.831   0.959   6.570
 3355TIP3   OH210005   1.983   5.362   4.364
 3355TIP3    H110006   2.066   5.379   4.320
 3355TIP3    H210007   1.987   5.416   4.443
 3356TIP3   OH210008   1.636   7.380   2.184
 3356TIP3    H110009   1.660   7.362   2.093
 3356TIP3    H210010   1.541   7.395   2.180
 3357TIP3   OH210011   4.270   7.256   0.844
 3357TIP3    H110012   4.256   7.164   0.866
 3357TIP3    H210013   4.287   7.298   0.928
 3358TIP3   OH210014   0.893   1.629   6.580
 3358TIP3    H110015   0.986   1.648   6.588
 3358TIP3    H210016   0.871   1.581   6.660
 3359TIP3   OH210017   6.097   0.765   4.487
 3359TIP3    H110018   6.159   0.773   4.560
 3359TIP3    H210019   6.061   0.677   4.496
 3360TIP3   OH210020   4.246   3.611   4.279
 3360TIP3    H110021   4.174   3.658   4.321
 3360TIP3    H210022   4.317   3.674   4.275
 3361TIP3   OH210023   4.682   6.158   1.057
 3361TIP3    H110024   4.763   6.175   1.011
 3361TIP3    H210025   4.628   6.108   0.996
 3362TIP3   OH210026   1.227   6.424   5.831
 3362TIP3    H110027   1.307   6.398   5.877
 3362TIP3    H210028   1.257   6.446   5.742
 3363TIP3   OH210029   2.713   0.069   0.947
 3363TIP3    H110030   2.691   0.062   1.040
 3363TIP3    H210031   2.668  -0.005   0.906
 3364TIP3   OH210032   0.921   6.456   6.528
 3364TIP3    H110033   0.864   6.508   6.585
 3364TIP3    H210034   1.006   6.499   6.533
 3365TIP3   OH210035   7.132   0.560   2.553
 3365TIP3    H110036   7.118   0.648   2.589
 3365TIP3    H210037   7.110   0.569   2.460
 3366TIP3   OH210038   4.199   2.427   2.853
 3366TIP3    H110039   4.148   2.365   2.905
 3366TIP3    H210040   4.278   2.379   2.831
 3367TIP3   OH210041   0.522   0.713   2.325
 3367TIP3    H110042   0.608   0.746   2.299
 3367TIP3    H210043   0.533   0.688   2.417
 3368TIP3   OH210044   2.027   6.881   5.438
 3368TIP3    H110045   2.095   6.822   5.468
 3368TIP3    H210046   2.013   6.940   5.512
 3369TIP3   OH210047   3.150   1.661   3.822
 3369TIP3    H110048   3.151   1.718   3.746
 3369TIP3    H210049   3.223   1.691   3.876
 3370TIP3   OH210050   4.914   1.257   0.888
 3370TIP3    H110051   4.859   1.179   0.879
 3370TIP3    H210052   5.002   1.225   0.870
 3371TIP3   OH210053   4.382   6.165   6.486
 3371TIP3    H110054   4.468   6.207   6.481
 3371TIP3    H210055   4.322   6.229   6.446
 3372TIP3   OH210056   8.065   7.635   0.136
 3372TIP3    H110057   8.107   7.556   0.170
 3372TIP3    H210058   8.137   7.688   0.101
 3373TIP3   OH210059   5.568   2.597   5.401
 3373TIP3    H110060   5.517   2.561   5.474
 3373TIP3    H210061   5.659   2.582   5.425
 3374TIP3   OH210062   4.098   7.442   0.376
 3374TIP3    H110063   4.005   7.427   0.392
 3374TIP3    H210064   4.142   7.407   0.454
 3375TIP3   OH210065   5.150   6.771   5.243
 3375TIP3    H110066   5.186   6.683   5.255
 3375TIP3    H210067   5.092   6.783   5.318
 3376TIP3   OH210068   1.789   7.334   4.647
 3376TIP3    H110069   1.720   7.380   4.695
 3376TIP3    H210070   1.761   7.243   4.645
 3377TIP3   OH210071   1.151   4.181   5.544
 3377TIP3    H110072   1.224   4.219   5.495
 3377TIP3    H210073   1.092   4.254   5.561
 3378TIP3   OH210074   6.072   6.996   3.401
 3378TIP3    H110075   6.069   6.901   3.384
 3378TIP3    H210076   5.985   7.016   3.435
 3379TIP3   OH210077   5.405   7.814   2.965
 3379TIP3    H110078   5.383   7.907   2.960
 3379TIP3    H210079   5.330   7.770   2.925
 3380TIP3   OH210080   6.094   6.556   0.544
 3380TIP3    H110081   6.001   6.535   0.547
 3380TIP3    H210082   6.131   6.515   0.622
 3381TIP3   OH210083   1.530   2.708   2.876
 3381TIP3    H110084   1.484   2.631   2.843
 3381TIP3    H210085   1.621   2.680   2.886
 3382TIP3   OH210086   4.594   7.536   5.035
 3382TIP3    H110087   4.610   7.597   5.107
 3382TIP3    H210088   4.549   7.462   5.076
 3383TIP3   OH210089   6.082   5.603   6.069
 3383TIP3    H110090   6.098   5.589   5.975
 3383TIP3    H210091   6.071   5.697   6.078
 3384TIP3   OH210092   5.347   1.155   0.803
 3384TIP3    H110093   5.365   1.249   0.804
 3384TIP3    H210094   5.430   1.116   0.776
 3385TIP3   OH210095   6.555   7.791   3.606
 3385TIP3    H110096   6.555   7.701   3.574
 3385TIP3    H210097   6.585   7.783   3.697
 3386TIP3   OH210098   2.701   1.514   1.027
 3386TIP3    H110099   2.725   1.514   0.934
 3386TIP3    H210100   2.779   1.480   1.072
 3387TIP3   OH210101   7.559   4.926   4.760
 3387TIP3    H110102   7.640   4.939   4.711
 3387TIP3    H210103   7.584   4.939   4.851
 3388TIP3   OH210104   6.459   4.258   0.853
 3388TIP3    H110105   6.382   4.218   0.892
 3388TIP3    H210106   6.435   4.350   0.840
 3389TIP3   OH210107   3.506   4.268   2.205
 3389TIP3    H110108   3.566   4.233   2.138
 3389TIP3    H210109   3.499   4.361   2.184
 3390TIP3   OH210110   8.167   0.054   6.817
 3390TIP3    H110111   8.190   0.136   6.774
 3390TIP3    H210112   8.163   0.075   6.910
 3391TIP3   OH210113   7.119   0.377   0.053
 3391TIP3    H110114   7.169   0.372   0.134
 3391TIP3    H210115   7.180   0.414  -0.011
 3392TIP3   OH210116   3.439   4.037   1.005
 3392TIP3    H110117   3.359   4.066   0.961
 3392TIP3    H210118   3.418   4.041   1.098
 3393TIP3   OH210119   6.441   0.545   2.474
 3393TIP3    H110120   6.525   0.582   2.446
 3393TIP3    H210121   6.448   0.540   2.570
 3394TIP3   OH210122   1.586   2.995   2.623
 3394TIP3    H110123   1.525   2.944   2.570
 3394TIP3    H210124   1.591   2.946   2.706
 3395TIP3   OH210125   1.071   5.540   3.485
 3395TIP3    H110126   1.131   5.532   3.559
 3395TIP3    H210127   0.984   5.534   3.524
 3396TIP3   OH210128   0.322   2.411   2.476
 3396TIP3    H110129   0.382   2.485   2.476
 3396TIP3    H210130   0.305   2.394   2.569
 3397TIP3   OH210131   1.762   3.358   3.562
 3397TIP3    H110132   1.826   3.353   3.491
 3397TIP3    H210133   1.768   3.273   3.605
 3398TIP3   OH210134   7.407   5.694   0.867
 3398TIP3    H110135   7.362   5.636   0.805
 3398TIP3    H210136   7.360   5.778   0.860
 3399TIP3   OH210137   3.801   4.730   3.788
 3399TIP3    H110138   3.784   4.689   3.872
 3399TIP3    H210139   3.814   4.657   3.727
 3400TIP3   OH210140   3.356   7.465   2.009
 3400TIP3    H110141   3.359   7.525   1.935
 3400TIP3    H210142   3.263   7.444   2.019
 3401TIP3   OH210143   0.805   0.640   6.722
 3401TIP3    H110144   0.801   0.609   6.812
 3401TIP3    H210145   0.844   0.727   6.727
 3402TIP3   OH210146   2.952   3.332   0.728
 3402TIP3    H110147   2.885   3.268   0.752
 3402TIP3    H210148   3.034   3.284   0.734
 3403TIP3   OH210149   1.637   7.255   2.967
 3403TIP3    H110150   1.625   7.228   2.877
 3403TIP3    H210151   1.672   7.177   3.011
 3404TIP3   OH210152   3.905   1.537   5.322
 3404TIP3    H110153   3.914   1.442   5.332
 3404TIP3    H210154   3.908   1.551   5.227
 3405TIP3   OH210155   3.284   1.157   3.583
 3405TIP3    H110156   3.225   1.233   3.579
 3405TIP3    H210157   3.371   1.193   3.567
 3406TIP3   OH210158   7.957   3.132   0.740
 3406TIP3    H110159   8.026   3.142   0.675
 3406TIP3    H210160   8.002   3.102   0.819
 3407TIP3   OH210161   1.221   2.253   2.974
 3407TIP3    H110162   1.275   2.319   2.931
 3407TIP3    H210163   1.172   2.301   3.040
 3408TIP3   OH210164   5.606   2.944   1.736
 3408TIP3    H110165   5.560   3.028   1.734
 3408TIP3    H210166   5.605   2.915   1.645
 3409TIP3   OH210167   5.612   4.649   4.832
 3409TIP3    H110168   5.659   4.575   4.795
 3409TIP3    H210169   5.635   4.649   4.925
 3410TIP3   OH210170   4.978   4.570   2.178
 3410TIP3    H110171   4.992   4.491   2.125
 3410TIP3    H210172   5.066   4.606   2.191
 3411TIP3   OH210173   5.882   3.358   2.051
 3411TIP3    H110174   5.787   3.351   2.054
 3411TIP3    H210175   5.911   3.277   2.009
 3412TIP3   OH210176   1.921   3.339   4.921
 3412TIP3    H110177   1.882   3.391   4.991
 3412TIP3    H210178   1.884   3.252   4.932
 3413TIP3   OH210179   7.066   2.304   4.264
 3413TIP3    H110180   7.107   2.313   4.350
 3413TIP3    H210181   7.126   2.250   4.214
 3414TIP3   OH210182   4.776   0.802   2.423
 3414TIP3    H110183   4.712   0.735   2.400
 3414TIP3    H210184   4.816   0.771   2.504
 3415TIP3   OH210185   5.399   7.182   6.009
 3415TIP3    H110186   5.322   7.128   5.993
 3415TIP3    H210187   5.416   7.225   5.925
 3416TIP3   OH210188   0.752   1.231   0.894
 3416TIP3    H110189   0.662   1.234   0.862
 3416TIP3    H210190   0.789   1.316   0.869
 3417TIP3   OH210191   4.126   2.383   6.022
 3417TIP3    H110192   4.055   2.330   5.986
 3417TIP3    H210193   4.131   2.459   5.963
 3418TIP3   OH210194   0.071   4.454   0.780
 3418TIP3    H110195   0.121   4.508   0.842
 3418TIP3    H210196   0.136   4.398   0.739
 3419TIP3   OH210197   7.529   6.682   3.770
 3419TIP3    H110198   7.590   6.731   3.715
 3419TIP3    H210199   7.452   6.738   3.776
 3420TIP3   OH210200   7.878   5.827   2.990
 3420TIP3    H110201   7.854   5.813   2.899
 3420TIP3    H210202   7.914   5.743   3.018
 3421TIP3   OH210203   4.305   5.328   3.487
 3421TIP3    H110204   4.301   5.417   3.450
 3421TIP3    H210205   4.216   5.296   3.481
 3422TIP3   OH210206   0.597   5.617   0.751
 3422TIP3    H110207   0.631   5.585   0.668
 3422TIP3    H210208   0.613   5.711   0.750
 3423TIP3   OH210209   0.522   5.279   5.790
 3423TIP3    H110210   0.577   5.270   5.713
 3423TIP3    H210211   0.556   5.356   5.835
 3424TIP3   OH210212   3.513   0.482   0.147
 3424TIP3    H110213   3.455   0.515   0.079
 3424TIP3    H210214   3.581   0.434   0.100
 3425TIP3   OH210215   6.076   4.936   2.987
 3425TIP3    H110216   6.165   4.952   2.956
 3425TIP3    H210217   6.059   4.845   2.964
 3426TIP3   OH210218   8.290   0.741   4.284
 3426TIP3    H110219   8.369   0.693   4.262
 3426TIP3    H210220   8.219   0.687   4.249
 3427TIP3   OH210221   7.657   2.291   2.422
 3427TIP3    H110222   7.724   2.320   2.362
 3427TIP3    H210223   7.691   2.210   2.459
 3428TIP3   OH210224   1.965   4.954   0.543
 3428TIP3    H110225   1.987   4.875   0.494
 3428TIP3    H210226   1.999   5.026   0.490
 3429TIP3   OH210227   1.150   7.139   0.880
 3429TIP3    H110228   1.071   7.097   0.846
 3429TIP3    H210229   1.127   7.232   0.884
 3430TIP3   OH210230   0.477   5.937   6.757
 3430TIP3    H110231   0.459   6.019   6.712
 3430TIP3    H210232   0.485   5.962   6.849
 3431TIP3   OH210233   4.241   2.220   5.289
 3431TIP3    H110234   4.160   2.169   5.290
 3431TIP3    H210235   4.310   2.157   5.271
 3432TIP3   OH210236   6.363   2.277   0.971
 3432TIP3    H110237   6.404   2.355   1.007
 3432TIP3    H210238   6.385   2.208   1.033
 3433TIP3   OH210239   6.976   5.267   5.169
 3433TIP3    H110240   6.962   5.322   5.092
 3433TIP3    H210241   6.900   5.208   5.170
 3434TIP3   OH210242   8.106   5.102   0.257
 3434TIP3    H110243   8.162   5.075   0.185
 3434TIP3    H210244   8.146   5.183   0.289
 3435TIP3   OH210245   1.741   7.700   0.529
 3435TIP3    H110246   1.658   7.735   0.561
 3435TIP3    H210247   1.802   7.711   0.602
 3436TIP3   OH210248   2.754   2.390   0.951
 3436TIP3    H110249   2.808   2.432   0.884
 3436TIP3    H210250   2.764   2.297   0.935
 3437TIP3   OH210251   2.119   7.684   5.161
 3437TIP3    H110252   2.026   7.676   5.183
 3437TIP3    H210253   2.155   7.596   5.176
 3438TIP3   OH210254   2.298   0.979   6.304
 3438TIP3    H110255   2.334   1.029   6.377
 3438TIP3    H210256   2.357   0.904   6.294
 3439TIP3   OH210257   1.487   2.966   4.665
 3439TIP3    H110258   1.447   2.890   4.623
 3439TIP3    H210259   1.453   2.965   4.754
 3440TIP3   OH210260   3.053   6.435   5.108
 3440TIP3    H110261   3.013   6.407   5.190
 3440TIP3    H210262   3.143   6.401   5.113
 3441TIP3   OH210263   6.515   2.696   5.462
 3441TIP3    H110264   6.607   2.673   5.479
 3441TIP3    H210265   6.487   2.635   5.394
 3442TIP3   OH210266   7.809   6.954   1.053
 3442TIP3    H110267   7.747   6.927   0.985
 3442TIP3    H210268   7.891   6.971   1.006
 3443TIP3   OH210269   0.428   1.770   3.485
 3443TIP3    H110270   0.505   1.787   3.430
 3443TIP3    H210271   0.425   1.675   3.494
 3444TIP3   OH210272   7.731   0.915   4.264
 3444TIP3    H110273   7.706   0.955   4.181
 3444TIP3    H210274   7.683   0.964   4.331
 3445TIP3   OH210275   1.418   4.948   0.239
 3445TIP3    H110276   1.454   4.893   0.169
 3445TIP3    H210277   1.494   4.978   0.287
 3446TIP3   OH210278   6.226   5.340   1.294
 3446TIP3    H110279   6.292   5.409   1.301
 3446TIP3    H210280   6.192   5.348   1.205
 3447TIP3   OH210281   6.247   4.556   5.039
 3447TIP3    H110282   6.254   4.479   4.984
 3447TIP3    H210283   6.168   4.600   5.009
 3448TIP3   OH210284   2.989   7.210   3.182
 3448TIP3    H110285   3.022   7.124   3.207
 3448TIP3    H210286   3.064   7.269   3.195
 3449TIP3   OH210287   1.690   2.813   2.336
 3449TIP3    H110288   1.679   2.903   2.306
 3449TIP3    H210289   1.782   2.807   2.359
 3450TIP3   OH210290   6.477   7.411   5.480
 3450TIP3    H110291   6.475   7.449   5.568
 3450TIP3    H210292   6.385   7.403   5.455
 3451TIP3   OH210293   7.320   5.673   6.111
 3451TIP3    H110294   7.249   5.700   6.053
 3451TIP3    H210295   7.282   5.603   6.165
 3452TIP3   OH210296   2.406   7.662   4.193
 3452TIP3    H110297   2.445   7.594   4.138
 3452TIP3    H210298   2.313   7.642   4.194
 3453TIP3   OH210299   2.279   5.074   3.135
 3453TIP3    H110300   2.358   5.127   3.123
 3453TIP3    H210301   2.300   4.990   3.094
 3454TIP3   OH210302   7.912   0.288   3.579
 3454TIP3    H110303   7.991   0.235   3.574
 3454TIP3    H210304   7.930   0.353   3.647
 3455TIP3   OH210305   7.818   2.072   2.502
 3455TIP3    H110306   7.888   2.027   2.455
 3455TIP3    H210307   7.760   2.002   2.532
 3456TIP3   OH210308   1.836   6.257   3.333
 3456TIP3    H110309   1.877   6.335   3.294
 3456TIP3    H210310   1.910   6.205   3.364
 3457TIP3   OH210311   1.561   5.219   2.460
 3457TIP3    H110312   1.620   5.151   2.491
 3457TIP3    H210313   1.570   5.216   2.364
 3458TIP3   OH210314   6.116   1.231   0.289
 3458TIP3    H110315   6.126   1.153   0.234
 3458TIP3    H210316   6.078   1.198   0.370
 3459TIP3   OH210317   6.090   3.780   4.094
 3459TIP3    H110318   6.177   3.808   4.122
 3459TIP3    H210319   6.029   3.830   4.150
 3460TIP3   OH210320   6.238   7.477   1.886
 3460TIP3    H110321   6.297   7.421   1.837
 3460TIP3    H210322   6.263   7.464   1.978
 3461TIP3   OH210323   5.062   3.676   1.151
 3461TIP3    H110324   5.033   3.626   1.228
 3461TIP3    H210325   5.156   3.689   1.166
 3462TIP3   OH210326   0.938   0.499   1.433
 3462TIP3    H110327   1.007   0.434   1.443
 3462TIP3    H210328   0.984   0.583   1.425
 3463TIP3   OH210329   3.577   4.602   2.165
 3463TIP3    H110330   3.585   4.610   2.070
 3463TIP3    H210331   3.499   4.653   2.187
 3464TIP3   OH210332   2.430   0.308   3.683
 3464TIP3    H110333   2.512   0.304   3.732
 3464TIP3    H210334   2.364   0.271   3.742
 3465TIP3   OH210335   3.783   5.779   5.147
 3465TIP3    H110336   3.846   5.756   5.078
 3465TIP3    H210337   3.704   5.730   5.124
 3466TIP3   OH210338   8.151   0.383   0.042
 3466TIP3    H110339   8.111   0.469   0.050
 3466TIP3    H210340   8.140   0.360  -0.050
 3467TIP3   OH210341   0.992   7.526   6.430
 3467TIP3    H110342   1.049   7.454   6.405
 3467TIP3    H210343   0.979   7.577   6.350
 3468TIP3   OH210344   6.617   1.742   3.041
 3468TIP3    H110345   6.589   1.694   3.119
 3468TIP3    H210346   6.582   1.692   2.967
 3469TIP3   OH210347   7.509   6.790   3.046
 3469TIP3    H110348   7.589   6.833   3.018
 3469TIP3    H210349   7.444   6.816   2.980
 3470TIP3   OH210350   8.053   7.762   1.255
 3470TIP3    H110351   7.973   7.730   1.295
 3470TIP3    H210352   8.118   7.695   1.275
 3471TIP3   OH210353   4.840   7.569   0.196
 3471TIP3    H110354   4.910   7.594   0.136
 3471TIP3    H210355   4.797   7.652   0.219
 3472TIP3   OH210356   5.450   6.386   5.893
 3472TIP3    H110357   5.422   6.438   5.817
 3472TIP3    H210358   5.377   6.328   5.911
 3473TIP3   OH210359   7.116   7.325   0.872
 3473TIP3    H110360   7.156   7.266   0.936
 3473TIP3    H210361   7.053   7.270   0.825
 3474TIP3   OH210362   7.097   3.049   3.946
 3474TIP3    H110363   7.172   3.075   3.892
 3474TIP3    H210364   7.119   3.081   4.034
 3475TIP3   OH210365   4.651   2.013   1.077
 3475TIP3    H110366   4.704   1.970   1.010
 3475TIP3    H210367   4.680   2.104   1.076
 3476TIP3   OH210368   4.629   2.957   1.164
 3476TIP3    H110369   4.567   2.990   1.229
 3476TIP3    H210370   4.640   2.865   1.186
 3477TIP3   OH210371   6.542   4.965   6.364
 3477TIP3    H110372   6.598   5.024   6.414
 3477TIP3    H210373   6.578   4.878   6.381
 3478TIP3   OH210374   7.032   2.549   2.204
 3478TIP3    H110375   6.985   2.585   2.129
 3478TIP3    H210376   7.050   2.625   2.260
 3479TIP3   OH210377   0.049   7.267   1.355
 3479TIP3    H110378   0.118   7.296   1.415
 3479TIP3    H210379   0.087   7.277   1.268
 3480TIP3   OH210380   0.758   2.946   2.106
 3480TIP3    H110381   0.853   2.940   2.120
 3480TIP3    H210382   0.723   2.872   2.156
 3481TIP3   OH210383   3.158   6.084   6.050
 3481TIP3    H110384   3.243   6.051   6.079
 3481TIP3    H210385   3.169   6.100   5.956
 3482TIP3   OH210386   1.194   6.668   2.162
 3482TIP3    H110387   1.189   6.713   2.078
 3482TIP3    H210388   1.288   6.657   2.178
 3483TIP3   OH210389   5.674   6.866   6.537
 3483TIP3    H110390   5.740   6.820   6.485
 3483TIP3    H210391   5.601   6.805   6.542
 3484TIP3   OH210392   2.947   7.029   2.112
 3484TIP3    H110393   3.028   7.074   2.090
 3484TIP3    H210394   2.907   7.083   2.179
 3485TIP3   OH210395   1.561   2.745   5.778
 3485TIP3    H110396   1.562   2.831   5.736
 3485TIP3    H210397   1.469   2.719   5.779
 3486TIP3   OH210398   6.269   5.633   1.873
 3486TIP3    H110399   6.178   5.657   1.885
 3486TIP3    H210400   6.305   5.627   1.961
 3487TIP3   OH210401   4.717   3.137   1.470
 3487TIP3    H110402   4.760   3.209   1.424
 3487TIP3    H210403   4.761   3.134   1.555
 3488TIP3   OH210404   8.370   3.595   0.314
 3488TIP3    H110405   8.313   3.634   0.380
 3488TIP3    H210406   8.418   3.669   0.276
 3489TIP3   OH210407   5.796   4.762   2.922
 3489TIP3    H110408   5.728   4.700   2.945
 3489TIP3    H210409   5.871   4.708   2.895
 3490TIP3   OH210410   4.015   5.238   3.768
 3490TIP3    H110411   4.025   5.331   3.789
 3490TIP3    H210412   4.017   5.235   3.673
 3491TIP3   OH210413   5.565   1.198   1.107
 3491TIP3    H110414   5.606   1.113   1.094
 3491TIP3    H210415   5.482   1.179   1.150
 3492TIP3   OH210416   6.792   0.318   6.109
 3492TIP3    H110417   6.749   0.364   6.181
 3492TIP3    H210418   6.865   0.374   6.084
 3493TIP3   OH210419   1.570   0.964   2.804
 3493TIP3    H110420   1.488   0.927   2.838
 3493TIP3    H210421   1.617   0.889   2.767
 3494TIP3   OH210422   5.347   0.581   3.172
 3494TIP3    H110423   5.381   0.523   3.240
 3494TIP3    H210424   5.426   0.614   3.127
 3495TIP3   OH210425   2.520   5.015   4.101
 3495TIP3    H110426   2.458   4.942   4.102
 3495TIP3    H210427   2.604   4.974   4.082
 3496TIP3   OH210428   4.429   1.123   2.314
 3496TIP3    H110429   4.467   1.042   2.282
 3496TIP3    H210430   4.442   1.120   2.409
 3497TIP3   OH210431   0.634   7.706   6.331
 3497TIP3    H110432   0.649   7.800   6.326
 3497TIP3    H210433   0.694   7.669   6.266
 3498TIP3   OH210434   2.176   1.000   5.876
 3498TIP3    H110435   2.170   1.095   5.873
 3498TIP3    H210436   2.090   0.972   5.907
 3499TIP3   OH210437   4.861   6.106   6.281
 3499TIP3    H110438   4.916   6.031   6.302
 3499TIP3    H210439   4.885   6.173   6.345
 3500TIP3   OH210440   5.268   7.708   3.912
 3500TIP3    H110441   5.213   7.723   3.989
 3500TIP3    H210442   5.299   7.618   3.921
 3501TIP3   OH210443   2.168   1.756   5.719
 3501TIP3    H110444   2.238   1.811   5.684
 3501TIP3    H210445   2.120   1.813   5.778
 3502TIP3   OH210446   5.838   3.988   3.884
 3502TIP3    H110447   5.846   4.049   3.956
 3502TIP3    H210448   5.786   3.916   3.919
 3503TIP3   OH210449   4.848   7.162   4.666
 3503TIP3    H110450   4.888   7.233   4.616
 3503TIP3    H210451   4.901   7.085   4.644
 3504TIP3   OH210452   2.491   1.499   1.868
 3504TIP3    H110453   2.550   1.563   1.828
 3504TIP3    H210454   2.528   1.415   1.844
 3505TIP3   OH210455   0.135   6.438   4.456
 3505TIP3    H110456   0.167   6.370   4.516
 3505TIP3    H210457   0.063   6.396   4.408
 3506TIP3   OH210458   3.177   3.567   4.263
 3506TIP3    H110459   3.271   3.584   4.266
 3506TIP3    H210460   3.170   3.474   4.240
 3507TIP3   OH210461   2.914   0.571   1.071
 3507TIP3    H110462   2.873   0.513   1.008
 3507TIP3    H210463   2.845   0.632   1.097
 3508TIP3   OH210464   5.077   0.402   4.994
 3508TIP3    H110465   5.158   0.354   4.974
 3508TIP3    H210466   5.057   0.380   5.085
 3509TIP3   OH210467   4.954   4.801   1.157
 3509TIP3    H110468   4.992   4.796   1.244
 3509TIP3    H210469   4.998   4.876   1.116
 3510TIP3   OH210470   7.898   0.576   6.593
 3510TIP3    H110471   7.900   0.603   6.501
 3510TIP3    H210472   7.893   0.659   6.642
 3511TIP3   OH210473   4.692   6.799   5.776
 3511TIP3    H110474   4.721   6.859   5.845
 3511TIP3    H210475   4.766   6.740   5.763
 3512TIP3   OH210476   6.650  -0.035   1.077
 3512TIP3    H110477   6.700   0.047   1.068
 3512TIP3    H210478   6.560  -0.011   1.056
 3513TIP3   OH210479   8.000   5.302   0.026
 3513TIP3    H110480   8.036   5.390   0.034
 3513TIP3    H210481   8.071   5.245   0.056
 3514TIP3   OH210482   7.078   3.526   5.572
 3514TIP3    H110483   7.084   3.435   5.601
 3514TIP3    H210484   7.036   3.572   5.645
 3515TIP3   OH210485   2.136   2.769   4.332
 3515TIP3    H110486   2.147   2.804   4.244
 3515TIP3    H210487   2.194   2.822   4.387
 3516TIP3   OH210488   1.404   7.835   4.816
 3516TIP3    H110489   1.330   7.789   4.778
 3516TIP3    H210490   1.383   7.928   4.804
 3517TIP3   OH210491   0.037   7.142   0.961
 3517TIP3    H110492  -0.016   7.063   0.972
 3517TIP3    H210493   0.091   7.124   0.884
 3518TIP3   OH210494   6.770   0.838   0.435
 3518TIP3    H110495   6.682   0.806   0.416
 3518TIP3    H210496   6.756   0.929   0.462
 3519TIP3   OH210497   5.583   6.513   3.573
 3519TIP3    H110498   5.639   6.590   3.574
 3519TIP3    H210499   5.495   6.546   3.591
 3520TIP3   OH210500   4.945   7.757   1.414
 3520TIP3    H110501   4.942   7.738   1.508
 3520TIP3    H210502   4.857   7.789   1.393
 3521TIP3   OH210503   3.539   7.258   0.229
 3521TIP3    H110504   3.568   7.328   0.171
 3521TIP3    H210505   3.474   7.299   0.286
 3522TIP3   OH210506   7.265   7.047   1.346
 3522TIP3    H110507   7.217   7.027   1.426
 3522TIP3    H210508   7.289   6.961   1.311
 3523TIP3   OH210509   6.200   5.175   0.841
 3523TIP3    H110510   6.267   5.108   0.855
 3523TIP3    H210511   6.119   5.125   0.829
 3524TIP3   OH210512   6.255   4.730   6.870
 3524TIP3    H110513   6.186   4.670   6.840
 3524TIP3    H210514   6.301   4.755   6.790
 3525TIP3   OH210515   2.778   7.692   0.853
 3525TIP3    H110516   2.732   7.749   0.790
 3525TIP3    H210517   2.723   7.694   0.931
 3526TIP3   OH210518   8.241   1.257   0.691
 3526TIP3    H110519   8.279   1.328   0.640
 3526TIP3    H210520   8.302   1.245   0.765
 3527TIP3   OH210521   2.292   5.414   2.428
 3527TIP3    H110522   2.364   5.434   2.487
 3527TIP3    H210523   2.315   5.330   2.388
 3528TIP3   OH210524   1.873   5.782   5.657
 3528TIP3    H110525   1.818   5.858   5.674
 3528TIP3    H210526   1.862   5.765   5.564
 3529TIP3   OH210527   3.813   0.762   6.706
 3529TIP3    H110528   3.866   0.835   6.736
 3529TIP3    H210529   3.853   0.736   6.622
 3530TIP3   OH210530   3.558   2.847   0.160
 3530TIP3    H110531   3.549   2.894   0.243
 3530TIP3    H210532   3.633   2.889   0.117
 3531TIP3   OH210533   4.857   6.332   3.610
 3531TIP3    H110534   4.926   6.274   3.579
 3531TIP3    H210535   4.815   6.364   3.530
 3532TIP3   OH210536   0.970   0.122   4.064
 3532TIP3    H110537   0.892   0.106   4.117
 3532TIP3    H210538   1.033   0.160   4.126
 3533TIP3   OH210539   1.507   7.915   0.192
 3533TIP3    H110540   1.477   7.833   0.231
 3533TIP3    H210541   1.603   7.907   0.192
 3534TIP3   OH210542   5.632   1.181   5.071
 3534TIP3    H110543   5.618   1.178   5.166
 3534TIP3    H210544   5.673   1.097   5.050
 3535TIP3   OH210545   1.163   1.573   5.257
 3535TIP3    H110546   1.078   1.547   5.222
 3535TIP3    H210547   1.226   1.519   5.210
 3536TIP3   OH210548   3.949   0.014   5.195
 3536TIP3    H110549   3.953   0.101   5.155
 3536TIP3    H210550   3.858   0.005   5.223
 3537TIP3   OH210551   5.023   1.761   3.109
 3537TIP3    H110552   5.032   1.685   3.166
 3537TIP3    H210553   4.989   1.830   3.166
 3538TIP3   OH210554   1.041   3.084   5.657
 3538TIP3    H110555   1.133   3.067   5.638
 3538TIP3    H210556   1.042   3.130   5.741
 3539TIP3   OH210557   3.061   7.760   2.595
 3539TIP3    H110558   3.074   7.698   2.667
 3539TIP3    H210559   3.129   7.826   2.607
 3540TIP3   OH210560   6.633   5.696   0.844
 3540TIP3    H110561   6.705   5.678   0.904
 3540TIP3    H210562   6.660   5.776   0.798
 3541TIP3   OH210563   8.208   4.020   6.853
 3541TIP3    H110564   8.244   3.953   6.795
 3541TIP3    H210565   8.117   4.030   6.826
 3542TIP3   OH210566   3.695   6.535   5.436
 3542TIP3    H110567   3.682   6.627   5.412
 3542TIP3    H210568   3.723   6.493   5.355
 3543TIP3   OH210569   5.617   4.502   0.121
 3543TIP3    H110570   5.541   4.525   0.067
 3543TIP3    H210571   5.691   4.507   0.061
 3544TIP3   OH210572   0.094   5.639   6.255
 3544TIP3    H110573   0.127   5.549   6.263
 3544TIP3    H210574   0.157   5.692   6.304
 3545TIP3   OH210575   0.682   5.796   4.406
 3545TIP3    H110576   0.601   5.771   4.452
 3545TIP3    H210577   0.664   5.883   4.372
 3546TIP3   OH210578   1.053   2.146   0.057
 3546TIP3    H110579   0.965   2.179   0.045
 3546TIP3    H210580   1.086   2.192   0.135
 3547TIP3   OH210581   5.698   1.931   5.321
 3547TIP3    H110582   5.654   1.956   5.240
 3547TIP3    H210583   5.684   2.005   5.380
 3548TIP3   OH210584   0.506   4.292   1.361
 3548TIP3    H110585   0.497   4.350   1.285
 3548TIP3    H210586   0.597   4.262   1.357
 3549TIP3   OH210587   2.558   1.937   0.393
 3549TIP3    H110588   2.623   1.910   0.328
 3549TIP3    H210589   2.499   1.995   0.345
 3550TIP3   OH210590   5.574   0.748   2.363
 3550TIP3    H110591   5.515   0.743   2.289
 3550TIP3    H210592   5.638   0.679   2.348
 3551TIP3   OH210593   1.536   6.867   0.083
 3551TIP3    H110594   1.452   6.911   0.070
 3551TIP3    H210595   1.597   6.939   0.104
 3552TIP3   OH210596   2.530   6.655   1.785
 3552TIP3    H110597   2.596   6.605   1.834
 3552TIP3    H210598   2.501   6.595   1.716
 3553TIP3   OH210599   5.902   3.586   6.143
 3553TIP3    H110600   5.815   3.624   6.137
 3553TIP3    H210601   5.939   3.622   6.224
 3554TIP3   OH210602   6.197   2.440   4.974
 3554TIP3    H110603   6.252   2.518   4.982
 3554TIP3    H210604   6.112   2.474   4.945
 3555TIP3   OH210605   0.734   6.658   5.089
 3555TIP3    H110606   0.786   6.665   5.009
 3555TIP3    H210607   0.656   6.609   5.062
 3556TIP3   OH210608   2.163   7.116   5.350
 3556TIP3    H110609   2.178   7.142   5.441
 3556TIP3    H210610   2.117   7.032   5.357
 3557TIP3   OH210611   4.272   4.519   6.414
 3557TIP3    H110612   4.309   4.563   6.337
 3557TIP3    H210613   4.208   4.458   6.378
 3558TIP3   OH210614   0.397   6.973   4.982
 3558TIP3    H110615   0.450   6.962   4.903
 3558TIP3    H210616   0.447   6.930   5.051
 3559TIP3   OH210617   6.450   5.663   0.077
 3559TIP3    H110618   6.415   5.720   0.145
 3559TIP3    H210619   6.380   5.600   0.060
 3560TIP3   OH210620   3.187   2.153   5.175
 3560TIP3    H110621   3.113   2.119   5.224
 3560TIP3    H210622   3.149   2.215   5.113
 3561TIP3   OH210623   0.457   1.055   2.822
 3561TIP3    H110624   0.462   1.084   2.913
 3561TIP3    H210625   0.370   1.080   2.793
 3562TIP3   OH210626   5.729   1.571   0.533
 3562TIP3    H110627   5.787   1.646   0.547
 3562TIP3    H210628   5.661   1.605   0.474
 3563TIP3   OH210629   7.263   4.662   0.677
 3563TIP3    H110630   7.357   4.644   0.685
 3563TIP3    H210631   7.258   4.731   0.611
 3564TIP3   OH210632   1.542   5.733   5.725
 3564TIP3    H110633   1.604   5.714   5.654
 3564TIP3    H210634   1.474   5.786   5.684
 3565TIP3   OH210635   1.012   2.401   5.045
 3565TIP3    H110636   1.003   2.313   5.081
 3565TIP3    H210637   1.039   2.455   5.119
 3566TIP3   OH210638   4.744   3.508   2.321
 3566TIP3    H110639   4.762   3.416   2.301
 3566TIP3    H210640   4.809   3.556   2.269
 3567TIP3   OH210641   2.185   5.094   6.459
 3567TIP3    H110642   2.259   5.068   6.513
 3567TIP3    H210643   2.152   5.011   6.424
 3568TIP3   OH210644   4.818   6.045   2.416
 3568TIP3    H110645   4.860   6.039   2.331
 3568TIP3    H210646   4.732   6.006   2.404
 3569TIP3   OH210647   0.564  -0.041   4.254
 3569TIP3    H110648   0.638   0.018   4.261
 3569TIP3    H210649   0.556  -0.059   4.160
 3570TIP3   OH210650   6.095   5.207   2.804
 3570TIP3    H110651   6.077   5.280   2.863
 3570TIP3    H210652   6.119   5.135   2.863
 3571TIP3   OH210653   1.581   6.388   0.797
 3571TIP3    H110654   1.597   6.448   0.869
 3571TIP3    H210655   1.612   6.303   0.829
 3572TIP3   OH210656   1.648   5.259   5.473
 3572TIP3    H110657   1.712   5.238   5.406
 3572TIP3    H210658   1.564   5.230   5.437
 3573TIP3   OH210659   6.082   1.268   3.554
 3573TIP3    H110660   5.992   1.297   3.538
 3573TIP3    H210661   6.091   1.187   3.504
 3574TIP3   OH210662   0.972   3.848   6.096
 3574TIP3    H110663   0.986   3.853   6.191
 3574TIP3    H210664   0.953   3.939   6.070
 3575TIP3   OH210665   0.345   7.769   6.121
 3575TIP3    H110666   0.400   7.728   6.187
 3575TIP3    H210667   0.373   7.730   6.038
 3576TIP3   OH210668   5.697   7.222   3.383
 3576TIP3    H110669   5.731   7.289   3.442
 3576TIP3    H210670   5.727   7.139   3.421
 3577TIP3   OH210671   7.709   1.038   6.683
 3577TIP3    H110672   7.633   1.087   6.650
 3577TIP3    H210673   7.782   1.100   6.676
 3578TIP3   OH210674   2.565   2.225   3.731
 3578TIP3    H110675   2.537   2.316   3.720
 3578TIP3    H210676   2.506   2.176   3.674
 3579TIP3   OH210677   0.854   2.554   1.653
 3579TIP3    H110678   0.855   2.526   1.745
 3579TIP3    H210679   0.943   2.583   1.635
 3580TIP3   OH210680   8.268   3.512   4.573
 3580TIP3    H110681   8.286   3.589   4.519
 3580TIP3    H210682   8.267   3.545   4.662
 3581TIP3   OH210683   5.892   1.748   2.460
 3581TIP3    H110684   5.920   1.832   2.426
 3581TIP3    H210685   5.880   1.693   2.383
 3582TIP3   OH210686   3.703   7.174   0.618
 3582TIP3    H110687   3.629   7.167   0.678
 3582TIP3    H210688   3.780   7.171   0.674
 3583TIP3   OH210689   0.661   3.264   4.717
 3583TIP3    H110690   0.659   3.349   4.673
 3583TIP3    H210691   0.736   3.219   4.679
 3584TIP3   OH210692   7.435   5.803   1.561
 3584TIP3    H110693   7.367   5.806   1.628
 3584TIP3    H210694   7.451   5.710   1.546
 3585TIP3   OH210695   0.818   7.457   6.685
 3585TIP3    H110696   0.844   7.436   6.595
 3585TIP3    H210697   0.755   7.389   6.708
 3586TIP3   OH210698   0.939   6.429   4.364
 3586TIP3    H110699   0.940   6.525   4.370
 3586TIP3    H210700   0.854   6.409   4.324
 3587TIP3   OH210701   3.568   6.341   4.828
 3587TIP3    H110702   3.548   6.248   4.839
 3587TIP3    H210703   3.637   6.343   4.762
 3588TIP3   OH210704   6.138   6.813   0.755
 3588TIP3    H110705   6.115   6.777   0.669
 3588TIP3    H210706   6.056   6.849   0.788
 3589TIP3   OH210707   0.620   1.171   4.132
 3589TIP3    H110708   0.599   1.191   4.041
 3589TIP3    H210709   0.541   1.128   4.166
 3590TIP3   OH210710   5.368   6.129   6.483
 3590TIP3    H110711   5.446   6.183   6.471
 3590TIP3    H210712   5.339   6.149   6.572
 3591TIP3   OH210713   4.517   4.808   1.821
 3591TIP3    H110714   4.603   4.769   1.807
 3591TIP3    H210715   4.490   4.837   1.733
 3592TIP3   OH210716   7.143   7.466   4.975
 3592TIP3    H110717   7.134   7.557   4.945
 3592TIP3    H210718   7.157   7.416   4.895
 3593TIP3   OH210719   8.243   1.209   4.856
 3593TIP3    H110720   8.223   1.185   4.765
 3593TIP3    H210721   8.159   1.208   4.901
 3594TIP3   OH210722   3.104   1.682   1.403
 3594TIP3    H110723   3.024   1.711   1.358
 3594TIP3    H210724   3.153   1.635   1.336
 3595TIP3   OH210725   0.049   2.466   1.651
 3595TIP3    H110726  -0.024   2.527   1.662
 3595TIP3    H210727   0.118   2.519   1.611
 3596TIP3   OH210728   7.630   3.539   2.652
 3596TIP3    H110729   7.601   3.592   2.726
 3596TIP3    H210730   7.621   3.596   2.576
 3597TIP3   OH210731   1.132   3.015   6.100
 3597TIP3    H110732   1.081   3.033   6.021
 3597TIP3    H210733   1.134   3.098   6.147
 3598TIP3   OH210734   3.064   3.065   6.363
 3598TIP3    H110735   3.020   3.124   6.302
 3598TIP3    H210736   3.009   2.987   6.364
 3599TIP3   OH210737   7.176   6.612   5.367
 3599TIP3    H110738   7.117   6.671   5.320
 3599TIP3    H210739   7.118   6.553   5.414
 3600TIP3   OH210740   4.420   4.410   3.839
 3600TIP3    H110741   4.477   4.374   3.770
 3600TIP3    H210742   4.347   4.449   3.792
 3601TIP3   OH210743   0.638   6.029   0.402
 3601TIP3    H110744   0.690   5.979   0.339
 3601TIP3    H210745   0.650   5.982   0.485
 3602TIP3   OH210746   0.191   6.704   4.475
 3602TIP3    H110747   0.225   6.700   4.386
 3602TIP3    H210748   0.183   6.612   4.501
 3603TIP3   OH210749   3.696   4.132   4.849
 3603TIP3    H110750   3.676   4.215   4.808
 3603TIP3    H210751   3.647   4.133   4.932
 3604TIP3   OH210752   6.644   7.318   2.190
 3604TIP3    H110753   6.702   7.338   2.117
 3604TIP3    H210754   6.703   7.294   2.262
 3605TIP3   OH210755   7.917   5.361   6.157
 3605TIP3    H110756   7.875   5.346   6.242
 3605TIP3    H210757   7.846   5.394   6.102
 3606TIP3   OH210758   0.730   1.975   5.142
 3606TIP3    H110759   0.783   1.919   5.198
 3606TIP3    H210760   0.664   1.917   5.104
 3607TIP3   OH210761   0.661   2.440   5.779
 3607TIP3    H110762   0.622   2.488   5.706
 3607TIP3    H210763   0.716   2.505   5.824
 3608TIP3   OH210764   4.364   7.173   3.466
 3608TIP3    H110765   4.409   7.257   3.478
 3608TIP3    H210766   4.359   7.163   3.371
 3609TIP3   OH210767   8.330   0.933   2.496
 3609TIP3    H110768   8.314   0.843   2.525
 3609TIP3    H210769   8.387   0.924   2.419
 3610TIP3   OH210770   7.199   1.992   3.814
 3610TIP3    H110771   7.207   2.051   3.738
 3610TIP3    H210772   7.288   1.965   3.833
 3611TIP3   OH210773   1.985   7.355   5.371
 3611TIP3    H110774   1.972   7.261   5.357
 3611TIP3    H210775   1.902   7.395   5.343
 3612TIP3   OH210776   4.386   5.017   5.077
 3612TIP3    H110777   4.357   4.968   5.001
 3612TIP3    H210778   4.310   5.070   5.103
 3613TIP3   OH210779   6.791   7.667   6.679
 3613TIP3    H110780   6.886   7.668   6.665
 3613TIP3    H210781   6.779   7.701   6.768
 3614TIP3   OH210782   1.229   3.996   5.043
 3614TIP3    H110783   1.136   4.018   5.038
 3614TIP3    H210784   1.241   3.926   4.979
 3615TIP3   OH210785   5.791   1.379   5.181
 3615TIP3    H110786   5.749   1.312   5.128
 3615TIP3    H210787   5.719   1.425   5.223
 3616TIP3   OH210788   4.562   5.115   6.732
 3616TIP3    H110789   4.638   5.064   6.705
 3616TIP3    H210790   4.546   5.089   6.823
 3617TIP3   OH210791   7.737   0.366   4.548
 3617TIP3    H110792   7.686   0.421   4.607
 3617TIP3    H210793   7.716   0.276   4.576
 3618TIP3   OH210794   6.311   6.653   1.974
 3618TIP3    H110795   6.264   6.610   1.902
 3618TIP3    H210796   6.260   6.630   2.052
 3619TIP3   OH210797   6.321   3.777   6.147
 3619TIP3    H110798   6.308   3.687   6.178
 3619TIP3    H210799   6.269   3.831   6.207
 3620TIP3   OH210800   3.225   7.392   3.196
 3620TIP3    H110801   3.293   7.391   3.263
 3620TIP3    H210802   3.165   7.462   3.224
 3621TIP3   OH210803   2.609   4.978   3.690
 3621TIP3    H110804   2.699   5.011   3.696
 3621TIP3    H210805   2.555   5.056   3.677
 3622TIP3   OH210806   1.206   5.555   5.909
 3622TIP3    H110807   1.288   5.514   5.935
 3622TIP3    H210808   1.214   5.646   5.938
 3623TIP3   OH210809   2.419   7.748   5.915
 3623TIP3    H110810   2.336   7.732   5.959
 3623TIP3    H210811   2.413   7.700   5.833
 3624TIP3   OH210812   4.830   0.832   6.001
 3624TIP3    H110813   4.753   0.852   5.948
 3624TIP3    H210814   4.833   0.901   6.067
 3625TIP3   OH210815   4.112   3.191   2.350
 3625TIP3    H110816   4.057   3.238   2.413
 3625TIP3    H210817   4.104   3.099   2.375
 3626TIP3   OH210818   3.487   7.489   5.966
 3626TIP3    H110819   3.494   7.427   6.039
 3626TIP3    H210820   3.504   7.435   5.888
 3627TIP3   OH210821   3.812   6.887   0.868
 3627TIP3    H110822   3.807   6.816   0.932
 3627TIP3    H210823   3.756   6.956   0.904
 3628TIP3   OH210824   4.974   0.732   4.036
 3628TIP3    H110825   5.062   0.767   4.026
 3628TIP3    H210826   4.929   0.757   3.956
 3629TIP3   OH210827   6.509   1.694   1.958
 3629TIP3    H110828   6.436   1.657   2.007
 3629TIP3    H210829   6.565   1.619   1.939
 3630TIP3   OH210830   8.354   3.022   2.267
 3630TIP3    H110831   8.269   3.065   2.262
 3630TIP3    H210832   8.392   3.053   2.350
 3631TIP3   OH210833   2.636   4.851   1.509
 3631TIP3    H110834   2.628   4.809   1.594
 3631TIP3    H210835   2.652   4.943   1.528
 3632TIP3   OH210836   7.004   3.709   2.477
 3632TIP3    H110837   6.995   3.682   2.385
 3632TIP3    H210838   6.934   3.773   2.490
 3633TIP3   OH210839   8.240   2.723   1.132
 3633TIP3    H110840   8.292   2.701   1.209
 3633TIP3    H210841   8.261   2.814   1.113
 3634TIP3   OH210842   6.459   1.784   3.760
 3634TIP3    H110843   6.407   1.863   3.765
 3634TIP3    H210844   6.501   1.788   3.674
 3635TIP3   OH210845   6.999   5.957   3.401
 3635TIP3    H110846   6.967   5.884   3.348
 3635TIP3    H210847   7.004   6.031   3.341
 3636TIP3   OH210848   5.726   6.927   4.435
 3636TIP3    H110849   5.724   6.882   4.520
 3636TIP3    H210850   5.652   6.988   4.439
 3637TIP3   OH210851   8.407   4.844   5.881
 3637TIP3    H110852   8.376   4.906   5.947
 3637TIP3    H210853   8.402   4.891   5.798
 3638TIP3   OH210854   5.046   6.883   0.360
 3638TIP3    H110855   5.123   6.856   0.309
 3638TIP3    H210856   4.980   6.816   0.340
 3639TIP3   OH210857   4.582   6.445   1.537
 3639TIP3    H110858   4.633   6.523   1.515
 3639TIP3    H210859   4.628   6.374   1.491
 3640TIP3   OH210860   2.365   4.389   2.610
 3640TIP3    H110861   2.377   4.324   2.679
 3640TIP3    H210862   2.443   4.379   2.555
 3641TIP3   OH210863   6.126   7.158   4.276
 3641TIP3    H110864   6.052   7.098   4.279
 3641TIP3    H210865   6.199   7.108   4.312
 3642TIP3   OH210866   7.726   4.387   0.530
 3642TIP3    H110867   7.728   4.335   0.610
 3642TIP3    H210868   7.818   4.402   0.509
 3643TIP3   OH210869   6.217   6.217   6.176
 3643TIP3    H110870   6.219   6.304   6.214
 3643TIP3    H210871   6.126   6.190   6.181
 3644TIP3   OH210872   6.927   1.794   2.234
 3644TIP3    H110873   6.938   1.876   2.283
 3644TIP3    H210874   6.844   1.805   2.188
 3645TIP3   OH210875   6.556   6.253   2.228
 3645TIP3    H110876   6.626   6.195   2.197
 3645TIP3    H210877   6.556   6.326   2.165
 3646TIP3   OH210878   1.810   4.994   3.347
 3646TIP3    H110879   1.902   4.968   3.341
 3646TIP3    H210880   1.761   4.914   3.332
 3647TIP3   OH210881   6.525   2.353   3.831
 3647TIP3    H110882   6.581   2.411   3.883
 3647TIP3    H210883   6.485   2.411   3.766
 3648TIP3   OH210884   8.216   1.893   4.322
 3648TIP3    H110885   8.309   1.873   4.318
 3648TIP3    H210886   8.176   1.815   4.362
 3649TIP3   OH210887   2.559   6.428   5.642
 3649TIP3    H110888   2.528   6.404   5.554
 3649TIP3    H210889   2.612   6.506   5.629
 3650TIP3   OH210890   0.119   4.730   1.585
 3650TIP3    H110891   0.034   4.688   1.572
 3650TIP3    H210892   0.171   4.665   1.632
 3651TIP3   OH210893   2.613   1.935   6.055
 3651TIP3    H110894   2.634   1.928   6.148
 3651TIP3    H210895   2.664   2.011   6.025
 3652TIP3   OH210896   2.490   3.954   0.252
 3652TIP3    H110897   2.477   4.010   0.329
 3652TIP3    H210898   2.403   3.942   0.215
 3653TIP3   OH210899   4.762   6.705   5.343
 3653TIP3    H110900   4.853   6.677   5.345
 3653TIP3    H210901   4.713   6.625   5.324
 3654TIP3   OH210902   7.992   5.722   2.478
 3654TIP3    H110903   8.064   5.724   2.540
 3654TIP3    H210904   7.935   5.652   2.510
 3655TIP3   OH210905   2.003   5.086   4.070
 3655TIP3    H110906   1.983   5.158   4.010
 3655TIP3    H210907   1.920   5.039   4.080
 3656TIP3   OH210908   7.166   1.004   5.602
 3656TIP3    H110909   7.166   0.991   5.697
 3656TIP3    H210910   7.256   0.984   5.575
 3657TIP3   OH210911   6.822   2.407   4.169
 3657TIP3    H110912   6.843   2.474   4.104
 3657TIP3    H210913   6.905   2.362   4.185
 3658TIP3   OH210914   1.599   6.090   4.231
 3658TIP3    H110915   1.565   6.178   4.248
 3658TIP3    H210916   1.692   6.096   4.254
 3659TIP3   OH210917   0.274   6.026   0.023
 3659TIP3    H110918   0.367   6.032   0.046
 3659TIP3    H210919   0.255   6.107  -0.024
 3660TIP3   OH210920   2.235   0.751   3.124
 3660TIP3    H110921   2.328   0.735   3.107
 3660TIP3    H210922   2.199   0.664   3.143
 3661TIP3   OH210923   6.030   1.484   3.068
 3661TIP3    H110924   6.110   1.489   3.120
 3661TIP3    H210925   6.036   1.400   3.022
 3662TIP3   OH210926   0.789   5.639   4.943
 3662TIP3    H110927   0.847   5.708   4.911
 3662TIP3    H210928   0.734   5.618   4.868
 3663TIP3   OH210929   2.171   7.585   5.952
 3663TIP3    H110930   2.084   7.600   5.915
 3663TIP3    H210931   2.180   7.490   5.956
 3664TIP3   OH210932   4.481   4.156   5.267
 3664TIP3    H110933   4.496   4.127   5.357
 3664TIP3    H210934   4.483   4.076   5.215
 3665TIP3   OH210935   1.966   7.164   1.137
 3665TIP3    H110936   1.915   7.149   1.057
 3665TIP3    H210937   2.043   7.214   1.108
 3666TIP3   OH210938   4.765   3.512   5.206
 3666TIP3    H110939   4.676   3.526   5.174
 3666TIP3    H210940   4.757   3.444   5.273
 3667TIP3   OH210941   5.352   1.130   1.591
 3667TIP3    H110942   5.369   1.222   1.570
 3667TIP3    H210943   5.262   1.115   1.561
 3668TIP3   OH210944   0.511   7.831   5.128
 3668TIP3    H110945   0.591   7.802   5.085
 3668TIP3    H210946   0.441   7.806   5.069
 3669TIP3   OH210947   5.512   5.520   4.231
 3669TIP3    H110948   5.604   5.509   4.206
 3669TIP3    H210949   5.485   5.433   4.261
 3670TIP3   OH210950   2.732   0.804   1.070
 3670TIP3    H110951   2.639   0.826   1.064
 3670TIP3    H210952   2.776   0.889   1.072
 3671TIP3   OH210953   1.007   7.139   2.242
 3671TIP3    H110954   0.969   7.112   2.326
 3671TIP3    H210955   0.990   7.065   2.184
 3672TIP3   OH210956   1.147   1.733   6.628
 3672TIP3    H110957   1.112   1.810   6.585
 3672TIP3    H210958   1.236   1.757   6.653
 3673TIP3   OH210959   4.210   5.142   2.978
 3673TIP3    H110960   4.152   5.068   2.993
 3673TIP3    H210961   4.267   5.144   3.055
 3674TIP3   OH210962   7.502   1.343   4.542
 3674TIP3    H110963   7.436   1.326   4.475
 3674TIP3    H210964   7.473   1.291   4.617
 3675TIP3   OH210965   1.371   3.522   0.248
 3675TIP3    H110966   1.348   3.434   0.278
 3675TIP3    H210967   1.430   3.555   0.317
 3676TIP3   OH210968   2.121   0.500   5.533
 3676TIP3    H110969   2.061   0.430   5.560
 3676TIP3    H210970   2.206   0.475   5.569
 3677TIP3   OH210971   3.311   5.157   4.539
 3677TIP3    H110972   3.287   5.072   4.501
 3677TIP3    H210973   3.262   5.160   4.621
 3678TIP3   OH210974   1.013   7.719   3.585
 3678TIP3    H110975   0.979   7.746   3.500
 3678TIP3    H210976   0.974   7.633   3.601
 3679TIP3   OH210977   4.666   0.911   3.458
 3679TIP3    H110978   4.658   0.930   3.364
 3679TIP3    H210979   4.761   0.914   3.474
 3680TIP3   OH210980   6.893   6.363   1.437
 3680TIP3    H110981   6.890   6.448   1.392
 3680TIP3    H210982   6.815   6.361   1.491
 3681TIP3   OH210983   7.983   5.090   5.960
 3681TIP3    H110984   7.925   5.138   6.019
 3681TIP3    H210985   7.963   4.998   5.976
 3682TIP3   OH210986   8.312   6.891   0.627
 3682TIP3    H110987   8.364   6.963   0.592
 3682TIP3    H210988   8.286   6.840   0.550
 3683TIP3   OH210989   4.918   4.291   5.799
 3683TIP3    H110990   4.844   4.310   5.742
 3683TIP3    H210991   4.972   4.370   5.795
 3684TIP3   OH210992   1.167   6.642   0.726
 3684TIP3    H110993   1.252   6.686   0.733
 3684TIP3    H210994   1.123   6.660   0.809
 3685TIP3   OH210995   4.037   5.694   6.584
 3685TIP3    H110996   4.071   5.771   6.630
 3685TIP3    H210997   4.114   5.650   6.549
 3686TIP3   OH210998   7.663   5.327   0.589
 3686TIP3    H110999   7.643   5.420   0.581
 3686TIP3    H211000   7.713   5.306   0.511
 3687TIP3   OH211001   7.510   2.611   5.543
 3687TIP3    H111002   7.595   2.568   5.543
 3687TIP3    H211003   7.527   2.699   5.578
 3688TIP3   OH211004   1.135   2.227   5.571
 3688TIP3    H111005   1.092   2.147   5.542
 3688TIP3    H211006   1.216   2.198   5.613
 3689TIP3   OH211007   7.936   4.919   1.184
 3689TIP3    H111008   7.860   4.905   1.126
 3689TIP3    H211009   8.012   4.898   1.129
 3690TIP3   OH211010   5.945   6.969   5.541
 3690TIP3    H111011   5.867   6.972   5.486
 3690TIP3    H211012   6.008   6.918   5.490
 3691TIP3   OH211013   1.859   0.239   3.560
 3691TIP3    H111014   1.919   0.185   3.612
 3691TIP3    H211015   1.899   0.327   3.562
 3692TIP3   OH211016   1.736   3.127   6.407
 3692TIP3    H111017   1.667   3.094   6.466
 3692TIP3    H211018   1.688   3.169   6.336
 3693TIP3   OH211019   2.335   0.587   6.114
 3693TIP3    H111020   2.246   0.593   6.080
 3693TIP3    H211021   2.386   0.549   6.043
 3694TIP3   OH211022   7.890   0.858   0.943
 3694TIP3    H111023   7.970   0.895   0.980
 3694TIP3    H211024   7.858   0.925   0.882
 3695TIP3   OH211025   7.048   7.097   3.187
 3695TIP3    H111026   7.077   7.179   3.227
 3695TIP3    H211027   6.958   7.114   3.160
 3696TIP3   OH211028   2.798   1.318   4.551
 3696TIP3    H111029   2.892   1.334   4.540
 3696TIP3    H211030   2.760   1.406   4.559
 3697TIP3   OH211031   7.506   3.360   2.225
 3697TIP3    H111032   7.595   3.345   2.192
 3697TIP3    H211033   7.497   3.299   2.298
 3698TIP3   OH211034   1.930   2.452   6.163
 3698TIP3    H111035   1.853   2.425   6.213
 3698TIP3    H211036   2.004   2.427   6.218
 3699TIP3   OH211037   7.513   7.390   2.089
 3699TIP3    H111038   7.441   7.393   2.152
 3699TIP3    H211039   7.518   7.479   2.054
 3700TIP3   OH211040   6.857   2.430   4.466
 3700TIP3    H111041   6.835   2.421   4.374
 3700TIP3    H211042   6.876   2.340   4.495
 3701TIP3   OH211043   1.944   1.694   1.599
 3701TIP3    H111044   2.020   1.722   1.548
 3701TIP3    H211045   1.947   1.599   1.596
 3702TIP3   OH211046   2.521   0.268   1.607
 3702TIP3    H111047   2.476   0.282   1.690
 3702TIP3    H211048   2.503   0.176   1.586
 3703TIP3   OH211049   8.125   6.480   4.551
 3703TIP3    H111050   8.034   6.477   4.579
 3703TIP3    H211051   8.173   6.432   4.618
 3704TIP3   OH211052   4.660   3.961   3.640
 3704TIP3    H111053   4.653   3.875   3.682
 3704TIP3    H211054   4.688   3.941   3.551
 3705TIP3   OH211055   3.035   0.273   1.625
 3705TIP3    H111056   2.980   0.218   1.680
 3705TIP3    H211057   2.985   0.355   1.615
 3706TIP3   OH211058   7.891   6.721   0.173
 3706TIP3    H111059   7.818   6.705   0.233
 3706TIP3    H211060   7.925   6.634   0.152
 3707TIP3   OH211061   1.149   3.322   4.019
 3707TIP3    H111062   1.072   3.368   3.986
 3707TIP3    H211063   1.114   3.257   4.079
 3708TIP3   OH211064   3.763   5.558   2.306
 3708TIP3    H111065   3.695   5.622   2.326
 3708TIP3    H211066   3.811   5.548   2.388
 3709TIP3   OH211067   6.733   3.177   2.612
 3709TIP3    H111068   6.771   3.094   2.641
 3709TIP3    H211069   6.648   3.181   2.655
 3710TIP3   OH211070   8.069   5.165   3.295
 3710TIP3    H111071   8.126   5.160   3.217
 3710TIP3    H211072   8.061   5.258   3.313
 3711TIP3   OH211073   0.362   3.536   5.904
 3711TIP3    H111074   0.282   3.531   5.851
 3711TIP3    H211075   0.431   3.551   5.840
 3712TIP3   OH211076   4.336   6.990   2.004
 3712TIP3    H111077   4.389   6.993   1.925
 3712TIP3    H211078   4.378   7.053   2.063
 3713TIP3   OH211079   1.616   7.392   6.228
 3713TIP3    H111080   1.684   7.432   6.283
 3713TIP3    H211081   1.633   7.425   6.140
 3714TIP3   OH211082   5.707   1.453   2.757
 3714TIP3    H111083   5.755   1.419   2.832
 3714TIP3    H211084   5.772   1.462   2.688
 3715TIP3   OH211085   3.012   5.289   0.294
 3715TIP3    H111086   3.022   5.380   0.265
 3715TIP3    H211087   3.101   5.262   0.317
 3716TIP3   OH211088   1.354   1.813   0.601
 3716TIP3    H111089   1.444   1.802   0.633
 3716TIP3    H211090   1.300   1.808   0.679
 3717TIP3   OH211091   4.091   7.863   0.460
 3717TIP3    H111092   4.025   7.927   0.433
 3717TIP3    H211093   4.175   7.908   0.450
 3718TIP3   OH211094   8.088   5.090   4.998
 3718TIP3    H111095   8.141   5.127   5.069
 3718TIP3    H211096   8.064   5.003   5.030
 3719TIP3   OH211097   7.163   1.217   3.140
 3719TIP3    H111098   7.093   1.262   3.093
 3719TIP3    H211099   7.134   1.125   3.144
 3720TIP3   OH211100   1.851   2.016   6.614
 3720TIP3    H111101   1.893   1.939   6.576
 3720TIP3    H211102   1.899   2.031   6.696
 3721TIP3   OH211103   4.956   7.613   4.645
 3721TIP3    H111104   4.866   7.630   4.672
 3721TIP3    H211105   5.000   7.584   4.725
 3722TIP3   OH211106   6.386   5.951   5.396
 3722TIP3    H111107   6.400   6.030   5.449
 3722TIP3    H211108   6.422   5.880   5.449
 3723TIP3   OH211109   7.516   3.594   6.600
 3723TIP3    H111110   7.482   3.645   6.673
 3723TIP3    H211111   7.469   3.510   6.606
 3724TIP3   OH211112   5.435   4.146   2.758
 3724TIP3    H111113   5.412   4.145   2.665
 3724TIP3    H211114   5.476   4.232   2.771
 3725TIP3   OH211115   6.087   2.361   5.949
 3725TIP3    H111116   6.097   2.325   6.038
 3725TIP3    H211117   6.091   2.456   5.961
 3726TIP3   OH211118   3.675   6.992   6.735
 3726TIP3    H111119   3.648   6.980   6.826
 3726TIP3    H211120   3.658   6.907   6.693
 3727TIP3   OH211121   5.456   6.132   4.226
 3727TIP3    H111122   5.468   6.055   4.281
 3727TIP3    H211123   5.535   6.184   4.239
 3728TIP3   OH211124   6.668   3.258   6.611
 3728TIP3    H111125   6.646   3.281   6.521
 3728TIP3    H211126   6.744   3.200   6.604
 3729TIP3   OH211127   4.882   5.778   5.097
 3729TIP3    H111128   4.960   5.735   5.063
 3729TIP3    H211129   4.810   5.740   5.046
 3730TIP3   OH211130   3.643   1.685   0.822
 3730TIP3    H111131   3.692   1.612   0.861
 3730TIP3    H211132   3.554   1.675   0.856
 3731TIP3   OH211133   3.240   7.480   5.332
 3731TIP3    H111134   3.260   7.479   5.238
 3731TIP3    H211135   3.200   7.395   5.349
 3732TIP3   OH211136   8.064   6.699   4.089
 3732TIP3    H111137   8.142   6.717   4.036
 3732TIP3    H211138   8.084   6.737   4.175
 3733TIP3   OH211139   7.088   7.024   0.846
 3733TIP3    H111140   6.993   7.014   0.851
 3733TIP3    H211141   7.109   7.010   0.754
 3734TIP3   OH211142   4.651   6.191   1.505
 3734TIP3    H111143   4.606   6.134   1.442
 3734TIP3    H211144   4.743   6.170   1.493
 3735TIP3   OH211145   1.370   1.948   6.202
 3735TIP3    H111146   1.433   1.988   6.263
 3735TIP3    H211147   1.423   1.900   6.139
 3736TIP3   OH211148   1.313   1.235   6.132
 3736TIP3    H111149   1.249   1.294   6.171
 3736TIP3    H211150   1.305   1.154   6.183
 3737TIP3   OH211151   7.285   5.974   4.217
 3737TIP3    H111152   7.243   5.896   4.253
 3737TIP3    H211153   7.224   6.045   4.236
 3738TIP3   OH211154   4.200   1.490   2.184
 3738TIP3    H111155   4.165   1.564   2.234
 3738TIP3    H211156   4.233   1.529   2.103
 3739TIP3   OH211157   6.189   7.500   6.730
 3739TIP3    H111158   6.153   7.562   6.793
 3739TIP3    H211159   6.134   7.422   6.739
 3740TIP3   OH211160   5.794   5.439   4.144
 3740TIP3    H111161   5.843   5.485   4.076
 3740TIP3    H211162   5.861   5.389   4.192
 3741TIP3   OH211163   2.962   7.175   2.387
 3741TIP3    H111164   2.949   7.267   2.413
 3741TIP3    H211165   2.902   7.125   2.442
 3742TIP3   OH211166   4.168   0.175   4.739
 3742TIP3    H111167   4.160   0.129   4.655
 3742TIP3    H211168   4.124   0.259   4.723
 3743TIP3   OH211169   5.010   6.563   5.451
 3743TIP3    H111170   4.951   6.505   5.499
 3743TIP3    H211171   5.094   6.517   5.450
 3744TIP3   OH211172   1.488   0.123   3.895
 3744TIP3    H111173   1.399   0.094   3.874
 3744TIP3    H211174   1.476   0.210   3.934
 3745TIP3   OH211175   1.100   5.600   4.703
 3745TIP3    H111176   1.131   5.524   4.653
 3745TIP3    H211177   1.128   5.581   4.793
 3746TIP3   OH211178   5.432   6.093   2.885
 3746TIP3    H111179   5.518   6.134   2.875
 3746TIP3    H211180   5.384   6.153   2.942
 3747TIP3   OH211181   4.659   0.191   4.663
 3747TIP3    H111182   4.603   0.114   4.675
 3747TIP3    H211183   4.680   0.220   4.752
 3748TIP3   OH211184   6.490   5.664   3.585
 3748TIP3    H111185   6.497   5.569   3.579
 3748TIP3    H211186   6.564   5.690   3.640
 3749TIP3   OH211187   6.628   1.410   1.219
 3749TIP3    H111188   6.549   1.459   1.196
 3749TIP3    H211189   6.595   1.327   1.254
 3750TIP3   OH211190   8.308   2.997   6.308
 3750TIP3    H111191   8.320   3.074   6.253
 3750TIP3    H211192   8.346   3.022   6.392
 3751TIP3   OH211193   3.406   6.128   6.485
 3751TIP3    H111194   3.359   6.185   6.546
 3751TIP3    H211195   3.397   6.040   6.521
 3752TIP3   OH211196   0.821   6.419   3.733
 3752TIP3    H111197   0.754   6.468   3.780
 3752TIP3    H211198   0.861   6.483   3.674
 3753TIP3   OH211199   7.792   1.241   5.460
 3753TIP3    H111200   7.810   1.159   5.413
 3753TIP3    H211201   7.708   1.225   5.503
 3754TIP3   OH211202   5.197   7.463   2.965
 3754TIP3    H111203   5.261   7.438   3.032
 3754TIP3    H211204   5.164   7.380   2.930
 3755TIP3   OH211205   3.135   7.052   1.196
 3755TIP3    H111206   3.231   7.055   1.194
 3755TIP3    H211207   3.109   7.130   1.244
 3756TIP3   OH211208   2.392   3.177   1.005
 3756TIP3    H111209   2.324   3.230   0.963
 3756TIP3    H211210   2.407   3.105   0.944
 3757TIP3   OH211211   0.695   5.628   0.456
 3757TIP3    H111212   0.742   5.696   0.407
 3757TIP3    H211213   0.762   5.562   0.476
 3758TIP3   OH211214   0.869   0.103   1.465
 3758TIP3    H111215   0.873   0.019   1.510
 3758TIP3    H211216   0.843   0.165   1.533
 3759TIP3   OH211217   3.548   6.433   1.742
 3759TIP3    H111218   3.503   6.454   1.824
 3759TIP3    H211219   3.551   6.516   1.694
 3760TIP3   OH211220   3.622   6.811   2.338
 3760TIP3    H111221   3.618   6.717   2.321
 3760TIP3    H211222   3.532   6.837   2.354
 3761TIP3   OH211223   3.866   5.227   1.680
 3761TIP3    H111224   3.922   5.167   1.730
 3761TIP3    H211225   3.819   5.277   1.747
 3762TIP3   OH211226   0.591   4.333   0.037
 3762TIP3    H111227   0.612   4.265  -0.027
 3762TIP3    H211228   0.640   4.410   0.008
 3763TIP3   OH211229   5.658   1.949   0.666
 3763TIP3    H111230   5.612   1.967   0.584
 3763TIP3    H211231   5.665   2.034   0.710
 3764TIP3   OH211232   6.474   5.817   2.341
 3764TIP3    H111233   6.525   5.898   2.338
 3764TIP3    H211234   6.535   5.751   2.374
 3765TIP3   OH211235   4.105   4.181   0.770
 3765TIP3    H111236   4.158   4.104   0.793
 3765TIP3    H211237   4.058   4.203   0.850
 3766TIP3   OH211238   1.231   2.398   5.992
 3766TIP3    H111239   1.181   2.340   5.936
 3766TIP3    H211240   1.266   2.342   6.061
 3767TIP3   OH211241   3.789   6.472   1.468
 3767TIP3    H111242   3.776   6.378   1.454
 3767TIP3    H211243   3.727   6.514   1.409
 3768TIP3   OH211244   2.311   7.529   3.234
 3768TIP3    H111245   2.324   7.559   3.144
 3768TIP3    H211246   2.234   7.472   3.230
 3769TIP3   OH211247   1.901   4.348   0.427
 3769TIP3    H111248   1.899   4.436   0.465
 3769TIP3    H211249   1.977   4.348   0.369
 3770TIP3   OH211250   3.455   1.364   5.648
 3770TIP3    H111251   3.433   1.288   5.594
 3770TIP3    H211252   3.386   1.367   5.714
 3771TIP3   OH211253   7.260   2.517   6.597
 3771TIP3    H111254   7.278   2.585   6.532
 3771TIP3    H211255   7.278   2.559   6.681
 3772TIP3   OH211256   0.859   5.759   4.167
 3772TIP3    H111257   0.810   5.719   4.095
 3772TIP3    H211258   0.795   5.768   4.237
 3773TIP3   OH211259   3.898   3.554   1.219
 3773TIP3    H111260   3.946   3.500   1.155
 3773TIP3    H211261   3.827   3.593   1.168
 3774TIP3   OH211262   3.657   2.270   5.437
 3774TIP3    H111263   3.674   2.180   5.464
 3774TIP3    H211264   3.582   2.264   5.378
 3775TIP3   OH211265   6.273   0.895   3.131
 3775TIP3    H111266   6.363   0.925   3.141
 3775TIP3    H211267   6.269   0.862   3.041
 3776TIP3   OH211268   1.295   0.805   2.516
 3776TIP3    H111269   1.376   0.754   2.523
 3776TIP3    H211270   1.319   0.881   2.465
 3777TIP3   OH211271   6.414   2.767   1.146
 3777TIP3    H111272   6.356   2.694   1.127
 3777TIP3    H211273   6.378   2.806   1.226
 3778TIP3   OH211274   2.487   1.093   3.464
 3778TIP3    H111275   2.533   1.030   3.408
 3778TIP3    H211276   2.415   1.043   3.503
 3779TIP3   OH211277   5.306   1.312   1.958
 3779TIP3    H111278   5.320   1.353   2.043
 3779TIP3    H211279   5.232   1.358   1.919
 3780TIP3   OH211280   2.412   4.080   4.353
 3780TIP3    H111281   2.433   4.173   4.345
 3780TIP3    H211282   2.355   4.075   4.429
 3781TIP3   OH211283   5.206   2.082   5.065
 3781TIP3    H111284   5.125   2.108   5.021
 3781TIP3    H211285   5.275   2.100   5.001
 3782TIP3   OH211286   2.852   6.533   6.136
 3782TIP3    H111287   2.849   6.567   6.047
 3782TIP3    H211288   2.919   6.464   6.134
 3783TIP3   OH211289   7.255   7.342   4.752
 3783TIP3    H111290   7.331   7.288   4.730
 3783TIP3    H211291   7.274   7.427   4.712
 3784TIP3   OH211292   3.845   2.859   6.121
 3784TIP3    H111293   3.772   2.848   6.061
 3784TIP3    H211294   3.861   2.953   6.125
 3785TIP3   OH211295   7.574   6.408   0.837
 3785TIP3    H111296   7.527   6.490   0.821
 3785TIP3    H211297   7.514   6.355   0.889
 3786TIP3   OH211298   2.947   5.293   6.191
 3786TIP3    H111299   2.924   5.331   6.106
 3786TIP3    H211300   3.043   5.296   6.193
 3787TIP3   OH211301   0.370   4.188   4.474
 3787TIP3    H111302   0.423   4.137   4.413
 3787TIP3    H211303   0.310   4.124   4.513
 3788TIP3   OH211304   6.191   0.419   2.435
 3788TIP3    H111305   6.165   0.428   2.343
 3788TIP3    H211306   6.275   0.466   2.440
 3789TIP3   OH211307   2.582   7.512   5.656
 3789TIP3    H111308   2.494   7.539   5.629
 3789TIP3    H211309   2.568   7.452   5.729
 3790TIP3   OH211310   3.317   7.570   0.430
 3790TIP3    H111311   3.273   7.623   0.496
 3790TIP3    H211312   3.370   7.509   0.481
 3791TIP3   OH211313   0.178   5.187   6.691
 3791TIP3    H111314   0.262   5.197   6.647
 3791TIP3    H211315   0.196   5.208   6.783
 3792TIP3   OH211316   7.140   6.993   0.581
 3792TIP3    H111317   7.169   7.031   0.498
 3792TIP3    H211318   7.134   6.899   0.564
 3793TIP3   OH211319   6.830   5.089   3.178
 3793TIP3    H111320   6.873   5.005   3.164
 3793TIP3    H211321   6.753   5.087   3.121
 3794TIP3   OH211322   0.061   4.126   0.111
 3794TIP3    H111323   0.114   4.199   0.144
 3794TIP3    H211324   0.014   4.094   0.188
 3795TIP3   OH211325   2.856   0.115   2.555
 3795TIP3    H111326   2.892   0.201   2.534
 3795TIP3    H211327   2.931   0.056   2.553
 3796TIP3   OH211328   5.137   2.684   6.006
 3796TIP3    H111329   5.106   2.765   6.049
 3796TIP3    H211330   5.067   2.662   5.945
 3797TIP3   OH211331   4.445   6.386   4.722
 3797TIP3    H111332   4.434   6.471   4.763
 3797TIP3    H211333   4.393   6.326   4.775
 3798TIP3   OH211334   4.395   7.528   0.656
 3798TIP3    H111335   4.452   7.516   0.731
 3798TIP3    H211336   4.308   7.543   0.693
 3799TIP3   OH211337   5.083   6.391   4.533
 3799TIP3    H111338   5.074   6.433   4.447
 3799TIP3    H211339   5.041   6.306   4.522
 3800TIP3   OH211340   5.126   3.167   3.934
 3800TIP3    H111341   5.093   3.107   3.867
 3800TIP3    H211342   5.197   3.215   3.891
 3801TIP3   OH211343   3.649   2.088   2.931
 3801TIP3    H111344   3.600   2.006   2.932
 3801TIP3    H211345   3.718   2.075   2.997
 3802TIP3   OH211346   5.902   0.397   1.390
 3802TIP3    H111347   5.814   0.360   1.401
 3802TIP3    H211348   5.933   0.360   1.308
 3803TIP3   OH211349   1.008   6.258   0.682
 3803TIP3    H111350   1.078   6.249   0.747
 3803TIP3    H211351   0.927   6.242   0.731
 3804TIP3   OH211352   4.634   7.041   0.079
 3804TIP3    H111353   4.559   7.065   0.025
 3804TIP3    H211354   4.596   7.015   0.163
 3805TIP3   OH211355   1.775   3.099   4.966
 3805TIP3    H111356   1.703   3.140   5.013
 3805TIP3    H211357   1.750   3.007   4.959
 3806TIP3   OH211358   6.210   2.898   4.007
 3806TIP3    H111359   6.231   2.808   3.981
 3806TIP3    H211360   6.150   2.888   4.081
 3807TIP3   OH211361   1.360   1.550   4.220
 3807TIP3    H111362   1.324   1.639   4.224
 3807TIP3    H211363   1.285   1.496   4.194
 3808TIP3   OH211364   2.376   2.924   5.248
 3808TIP3    H111365   2.422   2.880   5.176
 3808TIP3    H211366   2.433   2.911   5.324
 3809TIP3   OH211367   8.306   3.250   3.951
 3809TIP3    H111368   8.343   3.176   3.998
 3809TIP3    H211369   8.372   3.271   3.884
 3810TIP3   OH211370   5.503   7.253   1.001
 3810TIP3    H111371   5.451   7.316   0.951
 3810TIP3    H211372   5.523   7.298   1.083
 3811TIP3   OH211373   7.565   5.328   4.853
 3811TIP3    H111374   7.651   5.308   4.818
 3811TIP3    H211375   7.540   5.250   4.903
 3812TIP3   OH211376   5.774   5.232   1.342
 3812TIP3    H111377   5.797   5.147   1.379
 3812TIP3    H211378   5.690   5.253   1.382
 3813TIP3   OH211379   3.013   4.348   3.601
 3813TIP3    H111380   2.957   4.279   3.638
 3813TIP3    H211381   3.033   4.405   3.675
 3814TIP3   OH211382   5.528   2.117   6.664
 3814TIP3    H111383   5.586   2.182   6.703
 3814TIP3    H211384   5.461   2.101   6.731
 3815TIP3   OH211385   4.166   6.387   2.716
 3815TIP3    H111386   4.215   6.311   2.685
 3815TIP3    H211387   4.183   6.454   2.651
 3816TIP3   OH211388   7.581   1.731   3.216
 3816TIP3    H111389   7.572   1.650   3.266
 3816TIP3    H211390   7.638   1.786   3.269
 3817TIP3   OH211391   1.276   5.088   2.299
 3817TIP3    H111392   1.246   5.011   2.250
 3817TIP3    H211393   1.250   5.070   2.390
 3818TIP3   OH211394   1.486   5.824   1.211
 3818TIP3    H111395   1.403   5.804   1.169
 3818TIP3    H211396   1.530   5.739   1.218
 3819TIP3   OH211397   4.157   0.556   6.683
 3819TIP3    H111398   4.236   0.549   6.736
 3819TIP3    H211399   4.085   0.558   6.747
 3820TIP3   OH211400   7.583   2.258   6.302
 3820TIP3    H111401   7.562   2.279   6.393
 3820TIP3    H211402   7.631   2.175   6.306
 3821TIP3   OH211403   0.964   0.004   3.131
 3821TIP3    H111404   0.966   0.096   3.160
 3821TIP3    H211405   1.004  -0.044   3.203
 3822TIP3   OH211406   3.518   5.881   0.303
 3822TIP3    H111407   3.434   5.888   0.350
 3822TIP3    H211408   3.493   5.869   0.212
 3823TIP3   OH211409   2.819   1.054   5.165
 3823TIP3    H111410   2.820   1.078   5.257
 3823TIP3    H211411   2.734   1.084   5.133
 3824TIP3   OH211412   3.336   2.897   0.714
 3824TIP3    H111413   3.377   2.841   0.647
 3824TIP3    H211414   3.397   2.893   0.788
 3825TIP3   OH211415   7.186   4.270   1.882
 3825TIP3    H111416   7.117   4.254   1.946
 3825TIP3    H211417   7.231   4.348   1.913
 3826TIP3   OH211418   4.472   3.850   5.182
 3826TIP3    H111419   4.378   3.832   5.179
 3826TIP3    H211420   4.504   3.821   5.096
 3827TIP3   OH211421   4.092   5.837   3.155
 3827TIP3    H111422   4.003   5.864   3.178
 3827TIP3    H211423   4.138   5.832   3.239
 3828TIP3   OH211424   0.560   5.343   1.486
 3828TIP3    H111425   0.503   5.268   1.504
 3828TIP3    H211426   0.501   5.416   1.470
 3829TIP3   OH211427   0.500   3.804   3.413
 3829TIP3    H111428   0.540   3.886   3.441
 3829TIP3    H211429   0.571   3.755   3.372
 3830TIP3   OH211430   5.496   7.491   6.498
 3830TIP3    H111431   5.425   7.506   6.436
 3830TIP3    H211432   5.454   7.494   6.584
 3831TIP3   OH211433   2.647   1.578   3.796
 3831TIP3    H111434   2.599   1.528   3.731
 3831TIP3    H211435   2.724   1.524   3.815
 3832TIP3   OH211436   4.420   1.630   5.713
 3832TIP3    H111437   4.457   1.570   5.778
 3832TIP3    H211438   4.496   1.664   5.666
 3833TIP3   OH211439   2.980   5.398   6.694
 3833TIP3    H111440   2.928   5.430   6.620
 3833TIP3    H211441   3.022   5.319   6.661
 3834TIP3   OH211442   4.169   7.782   3.664
 3834TIP3    H111443   4.077   7.809   3.660
 3834TIP3    H211444   4.181   7.729   3.585
 3835TIP3   OH211445   2.865   7.097   6.520
 3835TIP3    H111446   2.803   7.035   6.559
 3835TIP3    H211447   2.939   7.044   6.494
 3836TIP3   OH211448   6.979   7.758   2.827
 3836TIP3    H111449   7.061   7.711   2.844
 3836TIP3    H211450   6.985   7.837   2.880
 3837TIP3   OH211451   7.086   3.208   4.172
 3837TIP3    H111452   7.112   3.209   4.264
 3837TIP3    H211453   6.993   3.228   4.172
 3838TIP3   OH211454   8.081   7.216   5.782
 3838TIP3    H111455   8.083   7.275   5.858
 3838TIP3    H211456   8.124   7.136   5.813
 3839TIP3   OH211457   5.188   1.385   0.267
 3839TIP3    H111458   5.109   1.332   0.274
 3839TIP3    H211459   5.239   1.365   0.345
 3840TIP3   OH211460   5.422   1.140   4.457
 3840TIP3    H111461   5.372   1.174   4.383
 3840TIP3    H211462   5.374   1.170   4.534
 3841TIP3   OH211463   1.526   7.846   0.610
 3841TIP3    H111464   1.481   7.905   0.550
 3841TIP3    H211465   1.519   7.888   0.696
 3842TIP3   OH211466   4.059   1.295   2.860
 3842TIP3    H111467   4.098   1.338   2.784
 3842TIP3    H211468   3.976   1.342   2.875
 3843TIP3   OH211469   4.361   2.663   5.518
 3843TIP3    H111470   4.282   2.671   5.464
 3843TIP3    H211471   4.355   2.576   5.557
 3844TIP3   OH211472   0.138   2.897   5.773
 3844TIP3    H111473   0.231   2.918   5.769
 3844TIP3    H211474   0.131   2.832   5.843
 3845TIP3   OH211475   4.201   5.717   0.033
 3845TIP3    H111476   4.164   5.795   0.076
 3845TIP3    H211477   4.237   5.750  -0.049
 3846TIP3   OH211478   3.302   2.247   0.866
 3846TIP3    H111479   3.376   2.191   0.842
 3846TIP3    H211480   3.300   2.244   0.962
 3847TIP3   OH211481   3.728   0.360   1.111
 3847TIP3    H111482   3.754   0.446   1.077
 3847TIP3    H211483   3.680   0.319   1.039
 3848TIP3   OH211484   2.428   0.804   1.446
 3848TIP3    H111485   2.513   0.773   1.414
 3848TIP3    H211486   2.414   0.755   1.527
 3849TIP3   OH211487   0.165   6.077   3.689
 3849TIP3    H111488   0.191   6.077   3.597
 3849TIP3    H211489   0.078   6.037   3.689
 3850TIP3   OH211490   3.401   4.391   5.165
 3850TIP3    H111491   3.496   4.381   5.173
 3850TIP3    H211492   3.371   4.411   5.254
 3851TIP3   OH211493   0.491   5.159   1.726
 3851TIP3    H111494   0.513   5.244   1.765
 3851TIP3    H211495   0.397   5.164   1.709
 3852TIP3   OH211496   1.073   3.140   3.639
 3852TIP3    H111497   1.022   3.081   3.584
 3852TIP3    H211498   1.157   3.149   3.594
 3853TIP3   OH211499   4.752   4.716   5.468
 3853TIP3    H111500   4.839   4.756   5.473
 3853TIP3    H211501   4.743   4.690   5.376
 3854TIP3   OH211502   3.054   2.608   4.135
 3854TIP3    H111503   3.030   2.643   4.221
 3854TIP3    H211504   3.065   2.514   4.150
 3855TIP3   OH211505   4.223   4.211   5.598
 3855TIP3    H111506   4.288   4.140   5.591
 3855TIP3    H211507   4.155   4.175   5.656
 3856TIP3   OH211508   6.797   7.811   4.610
 3856TIP3    H111509   6.893   7.818   4.619
 3856TIP3    H211510   6.784   7.781   4.520
 3857TIP3   OH211511   6.674   0.198   3.612
 3857TIP3    H111512   6.633   0.170   3.529
 3857TIP3    H211513   6.707   0.117   3.650
 3858TIP3   OH211514   2.644   5.497   4.036
 3858TIP3    H111515   2.671   5.537   3.953
 3858TIP3    H211516   2.636   5.404   4.016
 3859TIP3   OH211517   3.771   0.429   3.196
 3859TIP3    H111518   3.857   0.423   3.154
 3859TIP3    H211519   3.743   0.519   3.179
 3860TIP3   OH211520   2.538   6.238   4.346
 3860TIP3    H111521   2.631   6.223   4.327
 3860TIP3    H211522   2.536   6.324   4.388
 3861TIP3   OH211523   6.809   2.260   2.137
 3861TIP3    H111524   6.810   2.352   2.110
 3861TIP3    H211525   6.898   2.229   2.120
 3862TIP3   OH211526   7.230   2.303   0.281
 3862TIP3    H111527   7.196   2.334   0.364
 3862TIP3    H211528   7.312   2.351   0.268
 3863TIP3   OH211529   2.261   4.331   0.497
 3863TIP3    H111530   2.197   4.291   0.557
 3863TIP3    H211531   2.216   4.407   0.462
 3864TIP3   OH211532   5.352   3.401   4.509
 3864TIP3    H111533   5.268   3.395   4.554
 3864TIP3    H211534   5.358   3.493   4.482
 3865TIP3   OH211535   1.324   5.678   4.369
 3865TIP3    H111536   1.240   5.705   4.333
 3865TIP3    H211537   1.375   5.759   4.373
 3866TIP3   OH211538   2.583   3.888   2.813
 3866TIP3    H111539   2.598   3.982   2.815
 3866TIP3    H211540   2.577   3.862   2.905
 3867TIP3   OH211541   3.097   2.173   2.157
 3867TIP3    H111542   3.159   2.212   2.096
 3867TIP3    H211543   3.097   2.080   2.135
 3868TIP3   OH211544   0.664   3.608   4.966
 3868TIP3    H111545   0.588   3.655   4.999
 3868TIP3    H211546   0.698   3.663   4.895
 3869TIP3   OH211547   5.503   7.406   3.048
 3869TIP3    H111548   5.523   7.365   3.132
 3869TIP3    H211549   5.457   7.339   2.998
 3870TIP3   OH211550   6.748   0.474   1.735
 3870TIP3    H111551   6.684   0.486   1.804
 3870TIP3    H211552   6.720   0.394   1.690
 3871TIP3   OH211553   3.985   1.411   5.694
 3871TIP3    H111554   3.996   1.318   5.716
 3871TIP3    H211555   3.892   1.428   5.705
 3872TIP3   OH211556   8.127   6.338   2.173
 3872TIP3    H111557   8.037   6.351   2.202
 3872TIP3    H211558   8.180   6.393   2.230
 3873TIP3   OH211559   4.716   0.342   4.144
 3873TIP3    H111560   4.764   0.361   4.225
 3873TIP3    H211561   4.673   0.258   4.162
 3874TIP3   OH211562   3.687   2.082   5.849
 3874TIP3    H111563   3.597   2.111   5.863
 3874TIP3    H211564   3.697   2.007   5.907
 3875TIP3   OH211565   2.215   1.741   3.296
 3875TIP3    H111566   2.258   1.690   3.365
 3875TIP3    H211567   2.156   1.679   3.254
 3876TIP3   OH211568   8.336   0.140   4.515
 3876TIP3    H111569   8.321   0.136   4.420
 3876TIP3    H211570   8.329   0.049   4.544
 3877TIP3   OH211571   0.723   1.952   1.568
 3877TIP3    H111572   0.665   1.977   1.496
 3877TIP3    H211573   0.666   1.913   1.634
 3878TIP3   OH211574   5.665   4.477   3.846
 3878TIP3    H111575   5.724   4.449   3.917
 3878TIP3    H211576   5.690   4.568   3.830
 3879TIP3   OH211577   8.408   5.230   1.555
 3879TIP3    H111578   8.339   5.254   1.618
 3879TIP3    H211579   8.362   5.206   1.475
 3880TIP3   OH211580   2.614   1.330   3.658
 3880TIP3    H111581   2.621   1.254   3.716
 3880TIP3    H211582   2.653   1.301   3.575
 3881TIP3   OH211583   4.096   5.259   1.227
 3881TIP3    H111584   4.005   5.254   1.197
 3881TIP3    H211585   4.099   5.334   1.285
 3882TIP3   OH211586   7.353   1.580   4.108
 3882TIP3    H111587   7.437   1.606   4.070
 3882TIP3    H211588   7.290   1.590   4.036
 3883TIP3   OH211589   4.570   6.515   5.279
 3883TIP3    H111590   4.571   6.479   5.190
 3883TIP3    H211591   4.613   6.448   5.332
 3884TIP3   OH211592   5.619   2.942   3.422
 3884TIP3    H111593   5.551   2.992   3.378
 3884TIP3    H211594   5.665   2.898   3.350
 3885TIP3   OH211595   3.334   3.136   0.466
 3885TIP3    H111596   3.400   3.170   0.526
 3885TIP3    H211597   3.260   3.197   0.474
 3886TIP3   OH211598   5.466   6.055   0.442
 3886TIP3    H111599   5.534   6.098   0.389
 3886TIP3    H211600   5.476   5.962   0.421
 3887TIP3   OH211601   3.859   7.253   2.159
 3887TIP3    H111602   3.829   7.319   2.096
 3887TIP3    H211603   3.806   7.176   2.139
 3888TIP3   OH211604   6.505   0.400   3.224
 3888TIP3    H111605   6.492   0.308   3.249
 3888TIP3    H211606   6.436   0.447   3.272
 3889TIP3   OH211607   6.660   2.689   0.152
 3889TIP3    H111608   6.692   2.608   0.111
 3889TIP3    H211609   6.565   2.682   0.149
 3890TIP3   OH211610   4.880   4.584   0.441
 3890TIP3    H111611   4.880   4.490   0.460
 3890TIP3    H211612   4.798   4.599   0.393
 3891TIP3   OH211613   1.304   1.348   6.819
 3891TIP3    H111614   1.321   1.377   6.729
 3891TIP3    H211615   1.249   1.417   6.856
 3892TIP3   OH211616   1.184   2.889   4.310
 3892TIP3    H111617   1.128   2.966   4.319
 3892TIP3    H211618   1.125   2.814   4.313
 3893TIP3   OH211619   6.233   2.250   2.083
 3893TIP3    H111620   6.166   2.276   2.020
 3893TIP3    H211621   6.218   2.157   2.098
 3894TIP3   OH211622   7.680   4.475   4.853
 3894TIP3    H111623   7.632   4.556   4.833
 3894TIP3    H211624   7.613   4.412   4.877
 3895TIP3   OH211625   5.088   2.141   3.128
 3895TIP3    H111626   5.120   2.117   3.041
 3895TIP3    H211627   4.995   2.159   3.115
 3896TIP3   OH211628   3.010   5.512   4.353
 3896TIP3    H111629   2.952   5.588   4.359
 3896TIP3    H211630   2.964   5.452   4.294
 3897TIP3   OH211631   6.475   7.682   4.767
 3897TIP3    H111632   6.557   7.634   4.769
 3897TIP3    H211633   6.446   7.683   4.858
 3898TIP3   OH211634   5.392   3.077   3.327
 3898TIP3    H111635   5.371   3.120   3.410
 3898TIP3    H211636   5.420   3.148   3.269
 3899TIP3   OH211637   1.400   0.694   4.294
 3899TIP3    H111638   1.410   0.761   4.226
 3899TIP3    H211639   1.366   0.618   4.248
 3900TIP3   OH211640   4.578   2.348   0.194
 3900TIP3    H111641   4.539   2.333   0.280
 3900TIP3    H211642   4.642   2.417   0.208
 3901TIP3   OH211643   4.260   6.500   0.203
 3901TIP3    H111644   4.205   6.562   0.155
 3901TIP3    H211645   4.248   6.525   0.295
 3902TIP3   OH211646   8.087   3.404   1.611
 3902TIP3    H111647   8.017   3.399   1.546
 3902TIP3    H211648   8.155   3.455   1.568
 3903TIP3   OH211649   5.109   7.407   2.375
 3903TIP3    H111650   5.183   7.348   2.363
 3903TIP3    H211651   5.073   7.419   2.287
 3904TIP3   OH211652   4.759   2.408   3.843
 3904TIP3    H111653   4.722   2.335   3.892
 3904TIP3    H211654   4.848   2.417   3.877
 3905TIP3   OH211655   5.278   7.827   4.375
 3905TIP3    H111656   5.265   7.737   4.346
 3905TIP3    H211657   5.360   7.854   4.334
 3906TIP3   OH211658   2.794   5.682   4.413
 3906TIP3    H111659   2.751   5.713   4.334
 3906TIP3    H211660   2.729   5.693   4.482
 3907TIP3   OH211661   4.783   6.741   0.735
 3907TIP3    H111662   4.843   6.719   0.806
 3907TIP3    H211663   4.839   6.781   0.668
 3908TIP3   OH211664   7.590   5.206   5.841
 3908TIP3    H111665   7.506   5.174   5.809
 3908TIP3    H211666   7.648   5.130   5.838
 3909TIP3   OH211667   1.141   2.179   5.864
 3909TIP3    H111668   1.086   2.111   5.824
 3909TIP3    H211669   1.219   2.182   5.810
 3910TIP3   OH211670   7.668   5.270   0.158
 3910TIP3    H111671   7.588   5.316   0.133
 3910TIP3    H211672   7.653   5.179   0.131
 3911TIP3   OH211673  -0.023   2.081   1.733
 3911TIP3    H111674   0.055   2.120   1.771
 3911TIP3    H211675  -0.032   2.122   1.647
 3912TIP3   OH211676   4.339   0.657   4.788
 3912TIP3    H111677   4.357   0.750   4.771
 3912TIP3    H211678   4.244   0.650   4.783
 3913TIP3   OH211679   5.097   2.271   4.840
 3913TIP3    H111680   5.168   2.236   4.786
 3913TIP3    H211681   5.032   2.304   4.777
 3914TIP3   OH211682   0.530   6.266   1.555
 3914TIP3    H111683   0.622   6.282   1.578
 3914TIP3    H211684   0.484   6.344   1.588
 3915TIP3   OH211685   0.683   2.075   1.273
 3915TIP3    H111686   0.649   2.140   1.211
 3915TIP3    H211687   0.760   2.117   1.313
 3916TIP3   OH211688   0.643   7.105   3.162
 3916TIP3    H111689   0.677   7.193   3.179
 3916TIP3    H211690   0.612   7.108   3.071
 3917TIP3   OH211691   0.342   3.068   4.057
 3917TIP3    H111692   0.399   3.144   4.064
 3917TIP3    H211693   0.314   3.051   4.147
 3918TIP3   OH211694   7.855   4.334   2.550
 3918TIP3    H111695   7.830   4.279   2.624
 3918TIP3    H211696   7.778   4.388   2.533
 3919TIP3   OH211697   3.541   6.663   1.599
 3919TIP3    H111698   3.582   6.634   1.517
 3919TIP3    H211699   3.502   6.748   1.577
 3920TIP3   OH211700   1.998   7.210   6.234
 3920TIP3    H111701   1.921   7.174   6.279
 3920TIP3    H211702   1.988   7.182   6.143
 3921TIP3   OH211703   2.021   3.004   4.887
 3921TIP3    H111704   1.966   3.070   4.929
 3921TIP3    H211705   1.978   2.921   4.907
 3922TIP3   OH211706   3.555   0.248   3.172
 3922TIP3    H111707   3.572   0.191   3.096
 3922TIP3    H211708   3.638   0.294   3.185
 3923TIP3   OH211709   4.213   1.548   1.234
 3923TIP3    H111710   4.117   1.544   1.241
 3923TIP3    H211711   4.229   1.598   1.154
 3924TIP3   OH211712   3.210   0.212   1.971
 3924TIP3    H111713   3.244   0.182   2.056
 3924TIP3    H211714   3.249   0.299   1.959
 3925TIP3   OH211715   2.738   5.797   2.939
 3925TIP3    H111716   2.693   5.849   2.873
 3925TIP3    H211717   2.678   5.796   3.014
 3926TIP3   OH211718   5.943   1.077   5.172
 3926TIP3    H111719   5.916   1.018   5.242
 3926TIP3    H211720   5.917   1.164   5.202
 3927TIP3   OH211721   7.721   2.301   3.747
 3927TIP3    H111722   7.639   2.255   3.767
 3927TIP3    H211723   7.759   2.319   3.833
 3928TIP3   OH211724   7.513   1.361   2.532
 3928TIP3    H111725   7.558   1.393   2.610
 3928TIP3    H211726   7.435   1.417   2.525
 3929TIP3   OH211727   2.726   7.759   6.803
 3929TIP3    H111728   2.811   7.788   6.835
 3929TIP3    H211729   2.672   7.839   6.804
 3930TIP3   OH211730   3.299   7.803   1.585
 3930TIP3    H111731   3.266   7.881   1.631
 3930TIP3    H211732   3.237   7.791   1.512
 3931TIP3   OH211733   6.595   7.686   0.324
 3931TIP3    H111734   6.559   7.753   0.267
 3931TIP3    H211735   6.690   7.700   0.323
 3932TIP3   OH211736   0.306   3.776   4.797
 3932TIP3    H111737   0.332   3.735   4.879
 3932TIP3    H211738   0.244   3.714   4.758
 3933TIP3   OH211739   4.253   3.252   0.919
 3933TIP3    H111740   4.347   3.265   0.931
 3933TIP3    H211741   4.246   3.171   0.868
 3934TIP3   OH211742   2.054   3.714   5.626
 3934TIP3    H111743   2.053   3.810   5.623
 3934TIP3    H211744   2.134   3.692   5.673
 3935TIP3   OH211745   1.481   4.233   1.307
 3935TIP3    H111746   1.391   4.263   1.299
 3935TIP3    H211747   1.475   4.138   1.311
 3936TIP3   OH211748   7.477   0.468   1.878
 3936TIP3    H111749   7.523   0.458   1.794
 3936TIP3    H211750   7.539   0.515   1.934
 3937TIP3   OH211751   0.125   3.583   5.730
 3937TIP3    H111752   0.037   3.551   5.711
 3937TIP3    H211753   0.127   3.671   5.692
 3938TIP3   OH211754   7.043   1.738   5.570
 3938TIP3    H111755   6.999   1.743   5.655
 3938TIP3    H211756   7.085   1.653   5.569
 3939TIP3   OH211757   7.780   1.283   4.881
 3939TIP3    H111758   7.815   1.213   4.826
 3939TIP3    H211759   7.710   1.242   4.932
 3940TIP3   OH211760   6.642   4.318   4.570
 3940TIP3    H111761   6.619   4.238   4.616
 3940TIP3    H211762   6.581   4.322   4.496
 3941TIP3   OH211763   1.324   3.811   6.404
 3941TIP3    H111764   1.316   3.866   6.482
 3941TIP3    H211765   1.417   3.789   6.399
 3942TIP3   OH211766   7.411   5.893   6.272
 3942TIP3    H111767   7.370   5.819   6.228
 3942TIP3    H211768   7.338   5.946   6.304
 3943TIP3   OH211769   5.651   5.193   1.904
 3943TIP3    H111770   5.577   5.133   1.908
 3943TIP3    H211771   5.611   5.280   1.896
 3944TIP3   OH211772   1.550   3.762   0.212
 3944TIP3    H111773   1.638   3.799   0.212
 3944TIP3    H211774   1.526   3.755   0.119
 3945TIP3   OH211775   0.750   1.056   1.330
 3945TIP3    H111776   0.663   1.077   1.296
 3945TIP3    H211777   0.801   1.136   1.317
 3946TIP3   OH211778   3.006   3.376   5.030
 3946TIP3    H111779   2.937   3.415   4.977
 3946TIP3    H211780   2.962   3.347   5.110
 3947TIP3   OH211781   7.256   0.941   4.739
 3947TIP3    H111782   7.281   0.875   4.675
 3947TIP3    H211783   7.226   0.891   4.814
 3948TIP3   OH211784   2.294   2.941   0.005
 3948TIP3    H111785   2.210   2.985   0.014
 3948TIP3    H211786   2.357   3.012  -0.003
 3949TIP3   OH211787   5.424   6.133   5.078
 3949TIP3    H111788   5.517   6.122   5.095
 3949TIP3    H211789   5.389   6.044   5.076
 3950TIP3   OH211790   1.443   6.760   0.758
 3950TIP3    H111791   1.489   6.704   0.819
 3950TIP3    H211792   1.438   6.845   0.802
 3951TIP3   OH211793   7.999   4.818   6.642
 3951TIP3    H111794   7.980   4.909   6.664
 3951TIP3    H211795   7.928   4.792   6.583
 3952TIP3   OH211796   7.150   1.716   6.651
 3952TIP3    H111797   7.080   1.660   6.619
 3952TIP3    H211798   7.169   1.685   6.739
 3953TIP3   OH211799   6.013   4.179   2.400
 3953TIP3    H111800   5.941   4.176   2.463
 3953TIP3    H211801   6.090   4.154   2.450
 3954TIP3   OH211802   0.714   4.604   4.225
 3954TIP3    H111803   0.744   4.691   4.199
 3954TIP3    H211804   0.750   4.545   4.159
 3955TIP3   OH211805   6.176   3.304   3.381
 3955TIP3    H111806   6.111   3.313   3.451
 3955TIP3    H211807   6.260   3.306   3.426
 3956TIP3   OH211808   5.029   6.872   1.987
 3956TIP3    H111809   5.020   6.946   2.047
 3956TIP3    H211810   5.116   6.882   1.949
 3957TIP3   OH211811   5.451   2.272   2.607
 3957TIP3    H111812   5.477   2.187   2.572
 3957TIP3    H211813   5.423   2.253   2.697
 3958TIP3   OH211814   2.958   1.402   3.312
 3958TIP3    H111815   2.941   1.461   3.385
 3958TIP3    H211816   3.021   1.448   3.257
 3959TIP3   OH211817   0.973   7.327   2.562
 3959TIP3    H111818   0.920   7.258   2.524
 3959TIP3    H211819   0.961   7.402   2.504
 3960TIP3   OH211820   0.800   3.156   6.120
 3960TIP3    H111821   0.816   3.250   6.123
 3960TIP3    H211822   0.859   3.119   6.187
 3961TIP3   OH211823   3.477   7.316   5.152
 3961TIP3    H111824   3.554   7.331   5.098
 3961TIP3    H211825   3.507   7.330   5.242
 3962TIP3   OH211826   4.194   3.393   3.408
 3962TIP3    H111827   4.132   3.336   3.363
 3962TIP3    H211828   4.148   3.419   3.488
 3963TIP3   OH211829   7.928   0.465   0.306
 3963TIP3    H111830   7.856   0.414   0.270
 3963TIP3    H211831   7.971   0.504   0.229
 3964TIP3   OH211832   4.770   1.593   2.533
 3964TIP3    H111833   4.802   1.524   2.475
 3964TIP3    H211834   4.719   1.650   2.475
 3965TIP3   OH211835   6.440   4.407   1.343
 3965TIP3    H111836   6.404   4.446   1.263
 3965TIP3    H211837   6.488   4.478   1.385
 3966TIP3   OH211838   7.784   0.497   1.469
 3966TIP3    H111839   7.865   0.503   1.419
 3966TIP3    H211840   7.715   0.519   1.406
 3967TIP3   OH211841   3.207   7.789   4.435
 3967TIP3    H111842   3.113   7.778   4.450
 3967TIP3    H211843   3.237   7.840   4.510
 3968TIP3   OH211844   4.302   0.218   4.974
 3968TIP3    H111845   4.243   0.216   4.898
 3968TIP3    H211846   4.385   0.251   4.939
 3969TIP3   OH211847   4.007   6.545   4.518
 3969TIP3    H111848   4.038   6.608   4.583
 3969TIP3    H211849   4.024   6.459   4.558
 3970TIP3   OH211850   7.708   1.975   3.751
 3970TIP3    H111851   7.750   2.044   3.802
 3970TIP3    H211852   7.763   1.898   3.764
 3971TIP3   OH211853   0.042   5.927   0.133
 3971TIP3    H111854   0.003   6.010   0.160
 3971TIP3    H211855   0.128   5.952   0.098
 3972TIP3   OH211856   7.240   0.116   4.659
 3972TIP3    H111857   7.323   0.075   4.636
 3972TIP3    H211858   7.251   0.142   4.750
 3973TIP3   OH211859   7.392   6.385   0.229
 3973TIP3    H111860   7.462   6.450   0.229
 3973TIP3    H211861   7.313   6.436   0.211
 3974TIP3   OH211862   2.170   1.703   6.244
 3974TIP3    H111863   2.181   1.788   6.287
 3974TIP3    H211864   2.243   1.698   6.183
 3975TIP3   OH211865   8.353   5.357   3.356
 3975TIP3    H111866   8.412   5.294   3.398
 3975TIP3    H211867   8.410   5.410   3.301
 3976TIP3   OH211868   2.134   2.963   5.794
 3976TIP3    H111869   2.070   2.937   5.727
 3976TIP3    H211870   2.210   2.992   5.744
 3977TIP3   OH211871   2.921   1.889   4.849
 3977TIP3    H111872   2.858   1.948   4.889
 3977TIP3    H211873   2.984   1.946   4.806
 3978TIP3   OH211874   7.758   5.137   1.464
 3978TIP3    H111875   7.804   5.180   1.391
 3978TIP3    H211876   7.721   5.210   1.514
 3979TIP3   OH211877   1.819   2.163   0.422
 3979TIP3    H111878   1.772   2.244   0.402
 3979TIP3    H211879   1.775   2.128   0.499
 3980TIP3   OH211880   5.372   5.520   0.904
 3980TIP3    H111881   5.298   5.581   0.909
 3980TIP3    H211882   5.387   5.493   0.994
 3981TIP3   OH211883   8.028   4.152   4.017
 3981TIP3    H111884   7.979   4.229   3.988
 3981TIP3    H211885   8.087   4.185   4.084
 3982TIP3   OH211886   0.474   4.098   5.109
 3982TIP3    H111887   0.487   4.122   5.017
 3982TIP3    H211888   0.383   4.119   5.126
 3983TIP3   OH211889   0.970   3.488   1.469
 3983TIP3    H111890   0.883   3.472   1.505
 3983TIP3    H211891   1.023   3.416   1.503
 3984TIP3   OH211892   7.374   3.426   1.253
 3984TIP3    H111893   7.309   3.415   1.323
 3984TIP3    H211894   7.323   3.429   1.173
 3985TIP3   OH211895   3.012   3.693   2.587
 3985TIP3    H111896   3.070   3.679   2.512
 3985TIP3    H211897   3.006   3.607   2.629
 3986TIP3   OH211898   7.939   1.643   1.376
 3986TIP3    H111899   7.992   1.674   1.449
 3986TIP3    H211900   7.868   1.707   1.369
 3987TIP3   OH211901   0.884   3.466   3.176
 3987TIP3    H111902   0.938   3.395   3.210
 3987TIP3    H211903   0.947   3.534   3.151
 3988TIP3   OH211904   1.831   1.920   3.002
 3988TIP3    H111905   1.795   1.832   3.017
 3988TIP3    H211906   1.888   1.936   3.077
 3989TIP3   OH211907   7.858   1.935   4.238
 3989TIP3    H111908   7.884   1.843   4.249
 3989TIP3    H211909   7.879   1.976   4.322
 3990TIP3   OH211910   2.227   2.203   4.596
 3990TIP3    H111911   2.131   2.199   4.601
 3990TIP3    H211912   2.245   2.261   4.522
 3991TIP3   OH211913   6.300   7.543   2.304
 3991TIP3    H111914   6.209   7.537   2.333
 3991TIP3    H211915   6.318   7.637   2.303
 3992TIP3   OH211916   4.072   2.395   1.263
 3992TIP3    H111917   3.980   2.408   1.240
 3992TIP3    H211918   4.087   2.302   1.246
 3993TIP3   OH211919   0.997   2.544   1.009
 3993TIP3    H111920   0.993   2.483   0.936
 3993TIP3    H211921   1.088   2.574   1.010
 3994TIP3   OH211922   6.872   6.168   4.111
 3994TIP3    H111923   6.783   6.196   4.132
 3994TIP3    H211924   6.885   6.088   4.161
 3995TIP3   OH211925   1.526   3.713   1.067
 3995TIP3    H111926   1.436   3.684   1.052
 3995TIP3    H211927   1.580   3.636   1.048
 3996TIP3   OH211928   2.358   3.206   5.395
 3996TIP3    H111929   2.369   3.171   5.483
 3996TIP3    H211930   2.264   3.216   5.385
 3997TIP3   OH211931   1.874   4.021   0.944
 3997TIP3    H111932   1.965   4.037   0.971
 3997TIP3    H211933   1.821   4.068   1.008
 3998TIP3   OH211934   2.054   7.287   4.954
 3998TIP3    H111935   1.959   7.288   4.964
 3998TIP3    H211936   2.076   7.197   4.931
 3999TIP3   OH211937   7.069   2.361   4.789
 3999TIP3    H111938   6.988   2.311   4.780
 3999TIP3    H211939   7.053   2.419   4.863
 4000TIP3   OH211940   2.293   5.948   3.020
 4000TIP3    H111941   2.307   6.007   3.095
 4000TIP3    H211942   2.320   5.862   3.052
 4001TIP3   OH211943   5.843   4.782   1.718
 4001TIP3    H111944   5.821   4.875   1.710
 4001TIP3    H211945   5.758   4.738   1.730
 4002TIP3   OH211946   6.227   4.149   4.414
 4002TIP3    H111947   6.270   4.163   4.499
 4002TIP3    H211948   6.214   4.237   4.379
 4003TIP3   OH211949   4.766   0.729   1.551
 4003TIP3    H111950   4.677   0.749   1.523
 4003TIP3    H211951   4.764   0.635   1.573
 4004TIP3   OH211952   5.353   4.730   6.184
 4004TIP3    H111953   5.327   4.706   6.095
 4004TIP3    H211954   5.444   4.760   6.174
 4005TIP3   OH211955   6.245   2.661   1.744
 4005TIP3    H111956   6.263   2.600   1.815
 4005TIP3    H211957   6.164   2.706   1.771
 4006TIP3   OH211958   2.954   4.785   0.243
 4006TIP3    H111959   3.044   4.816   0.242
 4006TIP3    H211960   2.930   4.776   0.151
 4007TIP3   OH211961   2.206   4.485   0.140
 4007TIP3    H111962   2.133   4.426   0.122
 4007TIP3    H211963   2.201   4.502   0.234
 4008TIP3   OH211964   0.481   5.165   3.966
 4008TIP3    H111965   0.558   5.164   4.023
 4008TIP3    H211966   0.496   5.239   3.907
 4009TIP3   OH211967   4.300   3.692   0.047
 4009TIP3    H111968   4.328   3.774   0.087
 4009TIP3    H211969   4.228   3.662   0.102
 4010TIP3   OH211970   6.355   1.651   2.617
 4010TIP3    H111971   6.264   1.669   2.641
 4010TIP3    H211972   6.406   1.714   2.668
 4011TIP3   OH211973   4.206   0.250   0.219
 4011TIP3    H111974   4.269   0.178   0.218
 4011TIP3    H211975   4.171   0.250   0.308
 4012TIP3   OH211976   8.117   6.840   5.832
 4012TIP3    H111977   8.140   6.747   5.837
 4012TIP3    H211978   8.170   6.873   5.759
 4013TIP3   OH211979   5.028   1.405   3.007
 4013TIP3    H111980   5.008   1.458   2.929
 4013TIP3    H211981   5.123   1.413   3.017
 4014TIP3   OH211982   4.356   0.193   3.406
 4014TIP3    H111983   4.410   0.218   3.481
 4014TIP3    H211984   4.420   0.174   3.337
 4015TIP3   OH211985   2.853   3.844   1.377
 4015TIP3    H111986   2.869   3.751   1.362
 4015TIP3    H211987   2.766   3.847   1.417
 4016TIP3   OH211988   3.306   4.539   1.388
 4016TIP3    H111989   3.232   4.520   1.330
 4016TIP3    H211990   3.364   4.463   1.377
 4017TIP3   OH211991   0.593   5.311   6.086
 4017TIP3    H111992   0.562   5.272   6.004
 4017TIP3    H211993   0.671   5.261   6.108
 4018TIP3   OH211994   3.994   2.919   4.660
 4018TIP3    H111995   3.980   2.906   4.753
 4018TIP3    H211996   4.067   2.980   4.655
 4019TIP3   OH211997   3.777   2.326   2.589
 4019TIP3    H111998   3.852   2.288   2.545
 4019TIP3    H211999   3.709   2.328   2.521
 4020TIP3   OH212000   7.967   2.334   4.685
 4020TIP3    H112001   7.925   2.255   4.717
 4020TIP3    H212002   8.000   2.377   4.764
 4021TIP3   OH212003   0.275   1.925   4.708
 4021TIP3    H112004   0.242   1.859   4.646
 4021TIP3    H212005   0.257   1.887   4.794
 4022TIP3   OH212006   0.255   7.764   4.955
 4022TIP3    H112007   0.272   7.836   4.894
 4022TIP3    H212008   0.181   7.795   5.008
 4023TIP3   OH212009   4.517   1.886   4.923
 4023TIP3    H112010   4.545   1.794   4.927
 4023TIP3    H212011   4.454   1.889   4.851
 4024TIP3   OH212012   5.876   1.397   2.534
 4024TIP3    H112013   5.809   1.422   2.470
 4024TIP3    H212014   5.877   1.302   2.532
 4025TIP3   OH212015   7.262   3.039   2.042
 4025TIP3    H112016   7.335   3.049   1.981
 4025TIP3    H212017   7.295   2.980   2.109
 4026TIP3   OH212018   4.852   2.704   3.250
 4026TIP3    H112019   4.851   2.790   3.292
 4026TIP3    H212020   4.760   2.687   3.228
 4027TIP3   OH212021   3.753   5.910   2.934
 4027TIP3    H112022   3.760   5.914   3.029
 4027TIP3    H212023   3.811   5.979   2.903
 4028TIP3   OH212024   3.659   2.598   1.758
 4028TIP3    H112025   3.570   2.586   1.725
 4028TIP3    H212026   3.647   2.636   1.845
 4029TIP3   OH212027   5.678   5.742   5.024
 4029TIP3    H112028   5.690   5.655   5.061
 4029TIP3    H212029   5.669   5.728   4.930
 4030TIP3   OH212030   8.268   1.717   3.249
 4030TIP3    H112031   8.224   1.645   3.205
 4030TIP3    H212032   8.318   1.760   3.179
 4031TIP3   OH212033   2.677   1.402   2.264
 4031TIP3    H112034   2.726   1.480   2.237
 4031TIP3    H212035   2.595   1.406   2.215
 4032TIP3   OH212036   3.861   2.591   0.116
 4032TIP3    H112037   3.864   2.594   0.020
 4032TIP3    H212038   3.769   2.574   0.136
 4033TIP3   OH212039   6.144   6.608   5.159
 4033TIP3    H112040   6.233   6.611   5.125
 4033TIP3    H212041   6.149   6.547   5.233
 4034TIP3   OH212042   4.453   7.463   5.411
 4034TIP3    H112043   4.367   7.429   5.437
 4034TIP3    H212044   4.442   7.558   5.410
 4035TIP3   OH212045   0.628   3.981   4.094
 4035TIP3    H112046   0.655   4.071   4.111
 4035TIP3    H212047   0.624   3.974   3.999
 4036TIP3   OH212048   5.372   4.250   5.681
 4036TIP3    H112049   5.416   4.211   5.605
 4036TIP3    H212050   5.279   4.243   5.661
 4037TIP3   OH212051   5.979   1.988   2.333
 4037TIP3    H112052   6.016   2.069   2.368
 4037TIP3    H212053   6.012   1.983   2.243
 4038TIP3   OH212054   2.834   1.697   2.629
 4038TIP3    H112055   2.887   1.641   2.573
 4038TIP3    H212056   2.759   1.722   2.574
 4039TIP3   OH212057   6.053   7.563   3.355
 4039TIP3    H112058   6.098   7.537   3.435
 4039TIP3    H212059   6.079   7.499   3.290
 4040TIP3   OH212060   0.087   2.745   1.805
 4040TIP3    H112061   0.168   2.788   1.778
 4040TIP3    H212062   0.077   2.767   1.897
 4041TIP3   OH212063   2.247   0.117   1.478
 4041TIP3    H112064   2.310   0.045   1.482
 4041TIP3    H212065   2.173   0.081   1.429
 4042TIP3   OH212066   4.698   6.827   2.046
 4042TIP3    H112067   4.787   6.860   2.044
 4042TIP3    H212068   4.675   6.812   1.954
 4043TIP3   OH212069   5.643   3.655   0.006
 4043TIP3    H112070   5.586   3.675  -0.068
 4043TIP3    H212071   5.698   3.733   0.016
 4044TIP3   OH212072   3.673   1.704   3.737
 4044TIP3    H112073   3.721   1.703   3.654
 4044TIP3    H212074   3.710   1.633   3.788
 4045TIP3   OH212075   2.647   5.691   1.379
 4045TIP3    H112076   2.650   5.669   1.472
 4045TIP3    H212077   2.713   5.760   1.369
 4046TIP3   OH212078   1.184   7.178   5.776
 4046TIP3    H112079   1.201   7.167   5.683
 4046TIP3    H212080   1.186   7.089   5.812
 4047TIP3   OH212081   4.033   7.838   0.066
 4047TIP3    H112082   3.980   7.898   0.119
 4047TIP3    H212083   4.069   7.776   0.129
 4048TIP3   OH212084   1.087   4.763   3.611
 4048TIP3    H112085   1.035   4.770   3.531
 4048TIP3    H212086   1.051   4.830   3.669
 4049TIP3   OH212087   0.891   0.919   3.250
 4049TIP3    H112088   0.905   0.991   3.188
 4049TIP3    H212089   0.912   0.956   3.335
 4050TIP3   OH212090   2.698   3.923   5.151
 4050TIP3    H112091   2.690   4.006   5.104
 4050TIP3    H212092   2.610   3.908   5.187
 4051TIP3   OH212093   2.905   2.182   1.337
 4051TIP3    H112094   2.951   2.099   1.349
 4051TIP3    H212095   2.974   2.247   1.335
 4052TIP3   OH212096   5.064   3.677   5.656
 4052TIP3    H112097   5.075   3.771   5.645
 4052TIP3    H212098   5.153   3.642   5.655
 4053TIP3   OH212099   6.870   6.793   4.666
 4053TIP3    H112100   6.908   6.717   4.623
 4053TIP3    H212101   6.831   6.759   4.747
 4054TIP3   OH212102   4.247   4.543   0.834
 4054TIP3    H112103   4.155   4.556   0.858
 4054TIP3    H212104   4.295   4.558   0.915
 4055TIP3   OH212105   0.088   7.722   2.680
 4055TIP3    H112106   0.057   7.700   2.592
 4055TIP3    H212107   0.179   7.748   2.668
 4056TIP3   OH212108   0.183   2.559   6.222
 4056TIP3    H112109   0.184   2.644   6.178
 4056TIP3    H212110   0.262   2.559   6.276
 4057TIP3   OH212111   0.212   3.384   1.857
 4057TIP3    H112112   0.275   3.337   1.911
 4057TIP3    H212113   0.161   3.435   1.920
 4058TIP3   OH212114   6.978   2.813   4.268
 4058TIP3    H112115   7.049   2.748   4.269
 4058TIP3    H212116   7.008   2.882   4.328
 4059TIP3   OH212117   3.007   5.935   4.090
 4059TIP3    H112118   3.101   5.921   4.099
 4059TIP3    H212119   2.999   6.025   4.058
 4060TIP3   OH212120   5.798   2.524   0.655
 4060TIP3    H112121   5.704   2.543   0.651
 4060TIP3    H212122   5.831   2.547   0.568
 4061TIP3   OH212123   7.301   3.699   0.669
 4061TIP3    H112124   7.379   3.702   0.613
 4061TIP3    H212125   7.233   3.660   0.613
 4062TIP3   OH212126   1.448   3.266   5.867
 4062TIP3    H112127   1.460   3.328   5.796
 4062TIP3    H212128   1.385   3.308   5.925
 4063TIP3   OH212129   7.442   2.407   1.847
 4063TIP3    H112130   7.492   2.400   1.766
 4063TIP3    H212131   7.508   2.401   1.916
 4064TIP3   OH212132   4.063   3.684   3.670
 4064TIP3    H112133   4.090   3.595   3.690
 4064TIP3    H212134   4.060   3.728   3.755
 4065TIP3   OH212135   2.802   6.830   3.357
 4065TIP3    H112136   2.775   6.793   3.441
 4065TIP3    H212137   2.810   6.924   3.374
 4066TIP3   OH212138   1.001   1.803   2.719
 4066TIP3    H112139   0.937   1.871   2.699
 4066TIP3    H212140   1.073   1.850   2.761
 4067TIP3   OH212141   6.696   3.507   4.336
 4067TIP3    H112142   6.735   3.593   4.353
 4067TIP3    H212143   6.770   3.452   4.312
 4068TIP3   OH212144  -0.052   6.320   1.765
 4068TIP3    H112145  -0.002   6.371   1.828
 4068TIP3    H212146  -0.058   6.233   1.804
 4069TIP3   OH212147   7.443   2.440   0.186
 4069TIP3    H112148   7.383   2.514   0.177
 4069TIP3    H212149   7.530   2.478   0.170
 4070TIP3   OH212150   5.262   2.502   0.490
 4070TIP3    H112151   5.235   2.414   0.465
 4070TIP3    H212152   5.185   2.556   0.473
 4071TIP3   OH212153   7.711   2.178   4.190
 4071TIP3    H112154   7.738   2.086   4.184
 4071TIP3    H212155   7.789   2.227   4.166
 4072TIP3   OH212156   2.641   7.922   5.213
 4072TIP3    H112157   2.661   7.975   5.290
 4072TIP3    H212158   2.674   7.835   5.234
 4073TIP3   OH212159   2.534   1.896   3.098
 4073TIP3    H112160   2.511   1.805   3.080
 4073TIP3    H212161   2.454   1.945   3.081
 4074TIP3   OH212162   6.358   1.227   1.647
 4074TIP3    H112163   6.374   1.184   1.732
 4074TIP3    H212164   6.289   1.290   1.665
 4075TIP3   OH212165   1.297   2.311   6.744
 4075TIP3    H112166   1.247   2.322   6.663
 4075TIP3    H212167   1.250   2.364   6.809
 4076TIP3   OH212168   5.860   3.900   1.371
 4076TIP3    H112169   5.786   3.842   1.354
 4076TIP3    H212170   5.838   3.982   1.327
 4077TIP3   OH212171   8.393   3.505   3.092
 4077TIP3    H112172   8.325   3.505   3.158
 4077TIP3    H212173   8.354   3.548   3.016
 4078TIP3   OH212174   8.197   3.851   4.451
 4078TIP3    H112175   8.249   3.887   4.523
 4078TIP3    H212176   8.254   3.787   4.410
 4079TIP3   OH212177   5.970   2.312   3.679
 4079TIP3    H112178   5.911   2.238   3.689
 4079TIP3    H212179   5.912   2.388   3.668
 4080TIP3   OH212180   7.442   0.760   6.319
 4080TIP3    H112181   7.374   0.808   6.271
 4080TIP3    H212182   7.518   0.760   6.260
 4081TIP3   OH212183   5.682   1.688   6.207
 4081TIP3    H112184   5.747   1.719   6.144
 4081TIP3    H212185   5.714   1.719   6.292
 4082TIP3   OH212186   4.153   0.300   0.903
 4082TIP3    H112187   4.086   0.285   0.836
 4082TIP3    H212188   4.104   0.300   0.985
 4083TIP3   OH212189   7.213   7.332   3.626
 4083TIP3    H112190   7.238   7.390   3.698
 4083TIP3    H212191   7.195   7.390   3.553
 4084TIP3   OH212192   0.673   5.943   2.809
 4084TIP3    H112193   0.651   5.892   2.887
 4084TIP3    H212194   0.591   5.951   2.761
 4085TIP3   OH212195   2.632   0.770   6.553
 4085TIP3    H112196   2.676   0.854   6.539
 4085TIP3    H212197   2.698   0.704   6.529
 4086TIP3   OH212198   3.591   5.777   2.260
 4086TIP3    H112199   3.511   5.727   2.243
 4086TIP3    H212200   3.582   5.856   2.207
 4087TIP3   OH212201   6.730   2.063   5.578
 4087TIP3    H112202   6.734   2.028   5.489
 4087TIP3    H212203   6.820   2.090   5.597
 4088TIP3   OH212204   2.346   4.229   1.682
 4088TIP3    H112205   2.324   4.249   1.773
 4088TIP3    H212206   2.276   4.269   1.631
 4089TIP3   OH212207   3.506   2.994   5.791
 4089TIP3    H112208   3.453   3.040   5.726
 4089TIP3    H212209   3.443   2.956   5.852
 4090TIP3   OH212210   7.072   4.269   6.625
 4090TIP3    H112211   7.008   4.284   6.695
 4090TIP3    H212212   7.018   4.246   6.549
 4091TIP3   OH212213   1.068   5.459   5.311
 4091TIP3    H112214   1.108   5.539   5.276
 4091TIP3    H212215   1.042   5.482   5.400
 4092TIP3   OH212216   2.137   1.096   1.031
 4092TIP3    H112217   2.172   1.081   1.119
 4092TIP3    H212218   2.155   1.188   1.013
 4093TIP3   OH212219   2.991   5.952   0.586
 4093TIP3    H112220   3.045   5.946   0.508
 4093TIP3    H212221   2.938   6.031   0.573
 4094TIP3   OH212222   3.726   2.996   5.220
 4094TIP3    H112223   3.660   3.008   5.152
 4094TIP3    H212224   3.707   3.064   5.284
 4095TIP3   OH212225   3.010   5.297   4.570
 4095TIP3    H112226   3.093   5.272   4.611
 4095TIP3    H212227   3.035   5.362   4.504
 4096TIP3   OH212228   7.439   4.325   0.365
 4096TIP3    H112229   7.498   4.315   0.440
 4096TIP3    H212230   7.369   4.381   0.398
 4097TIP3   OH212231   3.154   6.382   6.414
 4097TIP3    H112232   3.126   6.442   6.483
 4097TIP3    H212233   3.107   6.300   6.433
 4098TIP3   OH212234   6.719   6.227   6.625
 4098TIP3    H112235   6.781   6.247   6.556
 4098TIP3    H212236   6.642   6.280   6.605
 4099TIP3   OH212237   4.620   6.040   5.316
 4099TIP3    H112238   4.526   6.034   5.303
 4099TIP3    H212239   4.652   5.951   5.300
 4100TIP3   OH212240   3.567   2.736   6.248
 4100TIP3    H112241   3.598   2.761   6.160
 4100TIP3    H212242   3.496   2.798   6.266
 4101TIP3   OH212243   4.075   1.561   0.374
 4101TIP3    H112244   4.010   1.535   0.308
 4101TIP3    H212245   4.022   1.581   0.452
 4102TIP3   OH212246   1.446   5.508   4.602
 4102TIP3    H112247   1.541   5.498   4.593
 4102TIP3    H212248   1.424   5.584   4.548
 4103TIP3   OH212249   2.753   6.632   4.392
 4103TIP3    H112250   2.767   6.703   4.329
 4103TIP3    H212251   2.814   6.651   4.463
 4104TIP3   OH212252   1.741   7.641   6.249
 4104TIP3    H112253   1.777   7.679   6.169
 4104TIP3    H212254   1.811   7.587   6.284
 4105TIP3   OH212255   4.006   1.149   5.758
 4105TIP3    H112256   4.038   1.175   5.844
 4105TIP3    H212257   4.038   1.059   5.747
 4106TIP3   OH212258   2.490   1.315   6.443
 4106TIP3    H112259   2.424   1.378   6.415
 4106TIP3    H212260   2.566   1.369   6.467
 4107TIP3   OH212261   0.913   0.577   4.419
 4107TIP3    H112262   0.865   0.626   4.485
 4107TIP3    H212263   1.003   0.608   4.426
 4108TIP3   OH212264   8.137   2.569   4.795
 4108TIP3    H112265   8.097   2.611   4.719
 4108TIP3    H212266   8.125   2.631   4.867
 4109TIP3   OH212267   2.142   4.001   1.900
 4109TIP3    H112268   2.112   4.015   1.989
 4109TIP3    H212269   2.092   4.062   1.847
 4110TIP3   OH212270   4.640   4.099   2.653
 4110TIP3    H112271   4.630   4.138   2.566
 4110TIP3    H212272   4.551   4.101   2.691
 4111TIP3   OH212273   6.004   3.926   5.422
 4111TIP3    H112274   6.085   3.969   5.447
 4111TIP3    H212275   6.030   3.836   5.401
 4112TIP3   OH212276   7.321   1.501   4.670
 4112TIP3    H112277   7.396   1.459   4.628
 4112TIP3    H212278   7.329   1.593   4.646
 4113TIP3   OH212279   6.552   6.471   4.619
 4113TIP3    H112280   6.476   6.513   4.660
 4113TIP3    H212281   6.617   6.465   4.689
 4114TIP3   OH212282   2.658   3.737   4.919
 4114TIP3    H112283   2.688   3.780   4.999
 4114TIP3    H212284   2.718   3.769   4.851
 4115TIP3   OH212285   2.722   0.164   2.246
 4115TIP3    H112286   2.668   0.119   2.310
 4115TIP3    H212287   2.800   0.108   2.238
 4116TIP3   OH212288   4.880   4.168   2.805
 4116TIP3    H112289   4.856   4.237   2.867
 4116TIP3    H212290   4.799   4.150   2.757
 4117TIP3   OH212291   4.719   7.701   5.552
 4117TIP3    H112292   4.711   7.609   5.579
 4117TIP3    H212293   4.791   7.735   5.605
 4118TIP3   OH212294   0.735   5.743   5.471
 4118TIP3    H112295   0.745   5.670   5.411
 4118TIP3    H212296   0.691   5.706   5.548
 4119TIP3   OH212297   1.444   2.080   1.460
 4119TIP3    H112298   1.407   2.004   1.416
 4119TIP3    H212299   1.430   2.063   1.554
 4120TIP3   OH212300   0.106   1.636   5.635
 4120TIP3    H112301   0.145   1.590   5.710
 4120TIP3    H212302   0.076   1.565   5.577
 4121TIP3   OH212303   1.110   7.584   6.715
 4121TIP3    H112304   1.040   7.560   6.775
 4121TIP3    H212305   1.071   7.575   6.628
 4122TIP3   OH212306   3.794   0.494   2.807
 4122TIP3    H112307   3.726   0.427   2.797
 4122TIP3    H212308   3.768   0.563   2.746
 4123TIP3   OH212309   2.612   1.126   5.002
 4123TIP3    H112310   2.614   1.176   4.920
 4123TIP3    H212311   2.520   1.101   5.013
 4124TIP3   OH212312   1.446   0.932   2.005
 4124TIP3    H112313   1.356   0.914   2.034
 4124TIP3    H212314   1.441   1.018   1.963
 4125TIP3   OH212315   1.356   7.136   0.637
 4125TIP3    H112316   1.319   7.201   0.696
 4125TIP3    H212317   1.400   7.074   0.694
 4126TIP3   OH212318   1.589   0.180   1.095
 4126TIP3    H112319   1.524   0.246   1.068
 4126TIP3    H212320   1.574   0.106   1.037
 4127TIP3   OH212321   0.696   1.779   6.168
 4127TIP3    H112322   0.668   1.793   6.259
 4127TIP3    H212323   0.651   1.698   6.142
 4128TIP3   OH212324   4.370   5.659   4.681
 4128TIP3    H112325   4.381   5.694   4.593
 4128TIP3    H212326   4.442   5.697   4.731
 4129TIP3   OH212327   4.600   6.024   1.285
 4129TIP3    H112328   4.636   5.935   1.294
 4129TIP3    H212329   4.645   6.060   1.208
 4130TIP3   OH212330   0.425   5.925   4.749
 4130TIP3    H112331   0.428   5.974   4.667
 4130TIP3    H212332   0.450   5.836   4.725
 4131TIP3   OH212333   0.658   6.354   0.517
 4131TIP3    H112334   0.624   6.395   0.596
 4131TIP3    H212335   0.676   6.263   0.543
 4132TIP3   OH212336   7.892   3.593   6.329
 4132TIP3    H112337   7.894   3.545   6.412
 4132TIP3    H212338   7.855   3.678   6.352
 4133TIP3   OH212339   0.251   3.857   4.013
 4133TIP3    H112340   0.247   3.891   3.924
 4133TIP3    H212341   0.197   3.779   4.012
 4134TIP3   OH212342   1.188   5.098   2.833
 4134TIP3    H112343   1.266   5.051   2.864
 4134TIP3    H212344   1.207   5.190   2.851
 4135TIP3   OH212345   6.698   6.567   6.329
 4135TIP3    H112346   6.720   6.574   6.236
 4135TIP3    H212347   6.604   6.584   6.334
 4136TIP3   OH212348   3.029   3.083   5.236
 4136TIP3    H112349   3.121   3.062   5.248
 4136TIP3    H212350   3.004   3.130   5.316
 4137TIP3   OH212351   3.533   4.370   4.410
 4137TIP3    H112352   3.580   4.313   4.349
 4137TIP3    H212353   3.601   4.427   4.446
 4138TIP3   OH212354   0.892   4.710   1.284
 4138TIP3    H112355   0.840   4.667   1.215
 4138TIP3    H212356   0.883   4.803   1.265
 4139TIP3   OH212357   6.366   4.820   5.337
 4139TIP3    H112358   6.394   4.847   5.424
 4139TIP3    H212359   6.282   4.776   5.351
 4140TIP3   OH212360   4.596   7.758   6.362
 4140TIP3    H112361   4.667   7.820   6.378
 4140TIP3    H212362   4.558   7.787   6.279
 4141TIP3   OH212363   0.109   0.086   0.819
 4141TIP3    H112364   0.114   0.115   0.910
 4141TIP3    H212365   0.036   0.136   0.782
 4142TIP3   OH212366   6.210   1.424   5.702
 4142TIP3    H112367   6.150   1.427   5.776
 4142TIP3    H212368   6.199   1.337   5.665
 4143TIP3   OH212369   2.209   6.217   0.141
 4143TIP3    H112370   2.234   6.306   0.164
 4143TIP3    H212371   2.264   6.195   0.066
 4144TIP3   OH212372   3.012   5.505   1.185
 4144TIP3    H112373   3.039   5.476   1.273
 4144TIP3    H212374   2.978   5.426   1.143
 4145TIP3   OH212375   7.722   6.493   3.848
 4145TIP3    H112376   7.658   6.564   3.842
 4145TIP3    H212377   7.765   6.492   3.763
 4146TIP3   OH212378   8.337   1.526   4.121
 4146TIP3    H112379   8.288   1.452   4.083
 4146TIP3    H212380   8.409   1.484   4.169
 4147TIP3   OH212381   0.540   2.293   4.881
 4147TIP3    H112382   0.590   2.360   4.928
 4147TIP3    H212383   0.462   2.280   4.935
 4148TIP3   OH212384   4.886   6.308   3.227
 4148TIP3    H112385   4.833   6.229   3.241
 4148TIP3    H212386   4.846   6.374   3.283
 4149TIP3   OH212387   2.442   5.121   1.418
 4149TIP3    H112388   2.528   5.133   1.458
 4149TIP3    H212389   2.387   5.187   1.460
 4150TIP3   OH212390   5.045   7.307   0.980
 4150TIP3    H112391   5.058   7.333   0.889
 4150TIP3    H212392   5.046   7.211   0.979
 4151TIP3   OH212393   0.789   7.786   5.057
 4151TIP3    H112394   0.764   7.720   4.993
 4151TIP3    H212395   0.837   7.852   5.007
 4152TIP3   OH212396   1.512   1.815   4.288
 4152TIP3    H112397   1.498   1.803   4.382
 4152TIP3    H212398   1.550   1.732   4.259
 4153TIP3   OH212399   5.032   5.522   6.310
 4153TIP3    H112400   5.036   5.427   6.322
 4153TIP3    H212401   4.955   5.549   6.360
 4154TIP3   OH212402   1.519   4.654   5.473
 4154TIP3    H112403   1.505   4.735   5.424
 4154TIP3    H212404   1.443   4.647   5.530
 4155TIP3   OH212405   0.665   3.523   4.610
 4155TIP3    H112406   0.647   3.538   4.517
 4155TIP3    H212407   0.644   3.607   4.652
 4156TIP3   OH212408   5.977   3.107   1.961
 4156TIP3    H112409   6.049   3.147   2.009
 4156TIP3    H212410   6.019   3.054   1.893
 4157TIP3   OH212411   1.753   4.499   5.045
 4157TIP3    H112412   1.754   4.583   5.090
 4157TIP3    H212413   1.819   4.446   5.090
 4158TIP3   OH212414   2.298   7.797   4.421
 4158TIP3    H112415   2.218   7.840   4.391
 4158TIP3    H212416   2.339   7.764   4.341
 4159TIP3   OH212417   2.115   6.380   3.435
 4159TIP3    H112418   2.068   6.416   3.360
 4159TIP3    H212419   2.156   6.457   3.477
 4160TIP3   OH212420   0.823   6.832   1.916
 4160TIP3    H112421   0.837   6.926   1.899
 4160TIP3    H212422   0.794   6.797   1.832
 4161TIP3   OH212423   3.688   4.912   6.265
 4161TIP3    H112424   3.670   4.924   6.358
 4161TIP3    H212425   3.606   4.936   6.222
 4162TIP3   OH212426   7.113   1.736   1.784
 4162TIP3    H112427   7.066   1.653   1.785
 4162TIP3    H212428   7.204   1.712   1.765
 4163TIP3   OH212429   1.293   7.848   2.736
 4163TIP3    H112430   1.233   7.892   2.795
 4163TIP3    H212431   1.325   7.773   2.785
 4164TIP3   OH212432   1.066   1.614   1.641
 4164TIP3    H112433   1.063   1.533   1.692
 4164TIP3    H212434   0.997   1.605   1.576
 4165TIP3   OH212435   7.765   5.716   1.336
 4165TIP3    H112436   7.720   5.644   1.380
 4165TIP3    H212437   7.747   5.702   1.243
 4166TIP3   OH212438   0.559   6.352   5.629
 4166TIP3    H112439   0.635   6.295   5.640
 4166TIP3    H212440   0.502   6.331   5.703
 4167TIP3   OH212441   4.088   3.102   6.263
 4167TIP3    H112442   4.104   3.008   6.254
 4167TIP3    H212443   4.032   3.109   6.341
 4168TIP3   OH212444   5.924   0.976   5.633
 4168TIP3    H112445   5.836   0.948   5.657
 4168TIP3    H212446   5.935   1.061   5.676
 4169TIP3   OH212447   0.255   3.306   1.476
 4169TIP3    H112448   0.240   3.217   1.446
 4169TIP3    H212449   0.321   3.298   1.544
 4170TIP3   OH212450   5.155   3.944   5.672
 4170TIP3    H112451   5.178   3.993   5.751
 4170TIP3    H212452   5.118   4.010   5.613
 4171TIP3   OH212453   0.874   6.011   3.647
 4171TIP3    H112454   0.925   5.990   3.568
 4171TIP3    H212455   0.915   5.960   3.716
 4172TIP3   OH212456   3.607   5.144   4.736
 4172TIP3    H112457   3.540   5.087   4.773
 4172TIP3    H212458   3.638   5.196   4.810
 4173TIP3   OH212459   8.190   3.048   4.991
 4173TIP3    H112460   8.283   3.044   4.968
 4173TIP3    H212461   8.187   3.100   5.071
 4174TIP3   OH212462   1.558   4.265   2.859
 4174TIP3    H112463   1.477   4.218   2.838
 4174TIP3    H212464   1.592   4.293   2.774
 4175TIP3   OH212465   2.875   1.718   5.343
 4175TIP3    H112466   2.938   1.760   5.284
 4175TIP3    H212467   2.846   1.789   5.401
 4176TIP3   OH212468   4.587   1.911   0.625
 4176TIP3    H112469   4.676   1.932   0.655
 4176TIP3    H212470   4.529   1.960   0.684
 4177TIP3   OH212471   1.018   0.670   1.076
 4177TIP3    H112472   1.073   0.601   1.113
 4177TIP3    H212473   1.068   0.751   1.090
 4178TIP3   OH212474   3.096   2.590   1.732
 4178TIP3    H112475   3.050   2.584   1.816
 4178TIP3    H212476   3.034   2.555   1.668
 4179TIP3   OH212477   0.754   5.961   2.478
 4179TIP3    H112478   0.682   5.908   2.512
 4179TIP3    H212479   0.755   5.943   2.384
 4180TIP3   OH212480   4.696   6.964   1.731
 4180TIP3    H112481   4.666   7.008   1.651
 4180TIP3    H212482   4.718   7.035   1.791
 4181TIP3   OH212483   6.503   7.676   0.856
 4181TIP3    H112484   6.522   7.682   0.762
 4181TIP3    H212485   6.489   7.582   0.872
 4182TIP3   OH212486   7.664   5.377   6.057
 4182TIP3    H112487   7.604   5.306   6.033
 4182TIP3    H212488   7.625   5.416   6.135
 4183TIP3   OH212489   2.793   7.243   5.153
 4183TIP3    H112490   2.774   7.270   5.063
 4183TIP3    H212491   2.872   7.291   5.176
 4184TIP3   OH212492   0.570   3.593   5.276
 4184TIP3    H112493   0.619   3.511   5.266
 4184TIP3    H212494   0.507   3.592   5.204
 4185TIP3   OH212495   6.155   4.748   0.110
 4185TIP3    H112496   6.127   4.657   0.100
 4185TIP3    H212497   6.228   4.757   0.048
 4186TIP3   OH212498   0.536   0.250   1.522
 4186TIP3    H112499   0.576   0.334   1.500
 4186TIP3    H212500   0.575   0.226   1.607
 4187TIP3   OH212501   3.502   7.434   4.662
 4187TIP3    H112502   3.499   7.380   4.583
 4187TIP3    H212503   3.454   7.383   4.728
 4188TIP3   OH212504   2.501   2.370   1.699
 4188TIP3    H112505   2.456   2.324   1.770
 4188TIP3    H212506   2.582   2.322   1.686
 4189TIP3   OH212507   1.808   3.744   6.114
 4189TIP3    H112508   1.821   3.758   6.020
 4189TIP3    H212509   1.732   3.796   6.136
 4190TIP3   OH212510   6.460   4.192   3.298
 4190TIP3    H112511   6.517   4.267   3.317
 4190TIP3    H212512   6.497   4.153   3.219
 4191TIP3   OH212513   7.622   3.120   5.944
 4191TIP3    H112514   7.566   3.138   5.869
 4191TIP3    H212515   7.567   3.069   6.004
 4192TIP3   OH212516   1.156   3.051   1.641
 4192TIP3    H112517   1.185   2.960   1.630
 4192TIP3    H212518   1.077   3.044   1.694
 4193TIP3   OH212519   7.504   6.871   5.250
 4193TIP3    H112520   7.462   6.817   5.183
 4193TIP3    H212521   7.482   6.828   5.333
 4194TIP3   OH212522   5.848   5.872   4.606
 4194TIP3    H112523   5.756   5.847   4.618
 4194TIP3    H212524   5.852   5.904   4.516
 4195TIP3   OH212525   7.698   7.292   6.316
 4195TIP3    H112526   7.650   7.214   6.345
 4195TIP3    H212527   7.789   7.274   6.339
 4196TIP3   OH212528   1.800   4.794   2.034
 4196TIP3    H112529   1.806   4.841   2.118
 4196TIP3    H212530   1.746   4.718   2.053
 4197TIP3   OH212531   2.121   5.801   1.455
 4197TIP3    H112532   2.180   5.729   1.474
 4197TIP3    H212533   2.035   5.770   1.483
 4198TIP3   OH212534   7.952   7.687   6.236
 4198TIP3    H112535   7.984   7.744   6.166
 4198TIP3    H212536   7.916   7.746   6.302
 4199TIP3   OH212537   4.901   5.502   5.965
 4199TIP3    H112538   4.854   5.564   6.021
 4199TIP3    H212539   4.982   5.483   6.012
 4200TIP3   OH212540   4.787   6.896   1.296
 4200TIP3    H112541   4.778   6.804   1.270
 4200TIP3    H212542   4.810   6.942   1.215
 4201TIP3   OH212543   8.063   2.817   0.182
 4201TIP3    H112544   8.004   2.867   0.125
 4201TIP3    H212545   8.048   2.852   0.269
 4202TIP3   OH212546   7.800   6.778   3.017
 4202TIP3    H112547   7.842   6.862   3.001
 4202TIP3    H212548   7.790   6.774   3.112
 4203TIP3   OH212549   2.463   3.675   2.512
 4203TIP3    H112550   2.445   3.695   2.420
 4203TIP3    H212551   2.557   3.659   2.515
 4204TIP3   OH212552   3.183   3.759   1.071
 4204TIP3    H112553   3.262   3.773   1.018
 4204TIP3    H212554   3.113   3.748   1.007
 4205TIP3   OH212555   5.831   0.945   0.822
 4205TIP3    H112556   5.873   0.869   0.782
 4205TIP3    H212557   5.903   1.007   0.838
 4206TIP3   OH212558   2.293   5.803   5.669
 4206TIP3    H112559   2.334   5.739   5.612
 4206TIP3    H212560   2.366   5.840   5.719
 4207TIP3   OH212561   6.084   5.416   2.204
 4207TIP3    H112562   6.092   5.341   2.145
 4207TIP3    H212563   6.162   5.411   2.259
 4208TIP3   OH212564   0.245   3.899   2.606
 4208TIP3    H112565   0.228   3.838   2.678
 4208TIP3    H212566   0.158   3.923   2.574
 4209TIP3   OH212567   0.050   5.344   1.848
 4209TIP3    H112568   0.083   5.306   1.930
 4209TIP3    H212569   0.128   5.376   1.803
 4210TIP3   OH212570   6.950   6.931   5.223
 4210TIP3    H112571   6.878   6.986   5.192
 4210TIP3    H212572   7.029   6.978   5.195
 4211TIP3   OH212573   4.923   5.744   5.574
 4211TIP3    H112574   4.990   5.811   5.560
 4211TIP3    H212575   4.955   5.667   5.529
 4212TIP3   OH212576   4.775   2.539   1.632
 4212TIP3    H112577   4.828   2.582   1.565
 4212TIP3    H212578   4.807   2.448   1.633
 4213TIP3   OH212579   7.228   7.853   5.346
 4213TIP3    H112580   7.296   7.795   5.311
 4213TIP3    H212581   7.146   7.817   5.312
 4214TIP3   OH212582   0.069   3.497   6.445
 4214TIP3    H112583   0.148   3.502   6.391
 4214TIP3    H212584   0.079   3.416   6.495
 4215TIP3   OH212585   0.421   5.536   6.514
 4215TIP3    H112586   0.477   5.592   6.568
 4215TIP3    H212587   0.477   5.509   6.442
 4216TIP3   OH212588   1.429   2.286   1.286
 4216TIP3    H112589   1.471   2.255   1.205
 4216TIP3    H212590   1.411   2.206   1.336
 4217TIP3   OH212591   0.622   4.814   0.817
 4217TIP3    H112592   0.653   4.839   0.731
 4217TIP3    H212593   0.625   4.895   0.868
 4218TIP3   OH212594   6.404   3.794   2.637
 4218TIP3    H112595   6.329   3.832   2.592
 4218TIP3    H212596   6.410   3.705   2.602
 4219TIP3   OH212597   4.784   2.713   5.146
 4219TIP3    H112598   4.775   2.626   5.184
 4219TIP3    H212599   4.710   2.720   5.086
 4220TIP3   OH212600   1.117   1.393   6.232
 4220TIP3    H112601   1.081   1.358   6.313
 4220TIP3    H212602   1.048   1.449   6.198
 4221TIP3   OH212603   3.694   7.827   4.394
 4221TIP3    H112604   3.712   7.796   4.482
 4221TIP3    H212605   3.614   7.780   4.368
 4222TIP3   OH212606   1.485   5.918   0.304
 4222TIP3    H112607   1.573   5.949   0.282
 4222TIP3    H212608   1.488   5.905   0.398
 4223TIP3   OH212609   5.947   7.762   2.078
 4223TIP3    H112610   5.940   7.805   2.163
 4223TIP3    H212611   5.872   7.795   2.028
 4224TIP3   OH212612   3.814   1.116   2.226
 4224TIP3    H112613   3.889   1.174   2.208
 4224TIP3    H212614   3.825   1.043   2.165
 4225TIP3   OH212615   3.095   4.982   3.341
 4225TIP3    H112616   3.081   5.052   3.277
 4225TIP3    H212617   3.031   5.000   3.410
 4226TIP3   OH212618   6.272   5.896   2.601
 4226TIP3    H112619   6.329   5.913   2.526
 4226TIP3    H212620   6.332   5.889   2.675
 4227TIP3   OH212621   0.024   4.169   0.678
 4227TIP3    H112622   0.117   4.163   0.699
 4227TIP3    H212623  -0.015   4.093   0.721
 4228TIP3   OH212624   5.195   3.951   6.781
 4228TIP3    H112625   5.261   3.964   6.849
 4228TIP3    H212626   5.113   3.940   6.829
 4229TIP3   OH212627   7.430   3.704   3.441
 4229TIP3    H112628   7.421   3.669   3.530
 4229TIP3    H212629   7.415   3.629   3.384
 4230TIP3   OH212630   0.894   1.610   2.253
 4230TIP3    H112631   0.854   1.533   2.294
 4230TIP3    H212632   0.948   1.649   2.322
 4231TIP3   OH212633   4.507   4.115   4.869
 4231TIP3    H112634   4.574   4.098   4.803
 4231TIP3    H212635   4.544   4.186   4.922
 4232TIP3   OH212636   3.480   2.406   0.547
 4232TIP3    H112637   3.406   2.345   0.546
 4232TIP3    H212638   3.543   2.369   0.486
 4233TIP3   OH212639   4.921   3.830   4.856
 4233TIP3    H112640   4.986   3.897   4.875
 4233TIP3    H212641   4.911   3.781   4.937
 4234TIP3   OH212642   1.223   2.262   4.199
 4234TIP3    H112643   1.242   2.180   4.155
 4234TIP3    H212644   1.304   2.285   4.244
 4235TIP3   OH212645   4.102   4.535   1.281
 4235TIP3    H112646   4.119   4.549   1.374
 4235TIP3    H212647   4.060   4.449   1.277
 4236TIP3   OH212648   2.478   6.215   1.132
 4236TIP3    H112649   2.501   6.156   1.061
 4236TIP3    H212650   2.459   6.299   1.089
 4237TIP3   OH212651   4.715   1.847   5.190
 4237TIP3    H112652   4.682   1.775   5.244
 4237TIP3    H212653   4.793   1.877   5.236
 4238TIP3   OH212654   6.199   2.474   2.867
 4238TIP3    H112655   6.116   2.464   2.914
 4238TIP3    H212656   6.205   2.396   2.812
 4239TIP3   OH212657   6.627   4.405   3.401
 4239TIP3    H112658   6.692   4.421   3.332
 4239TIP3    H212659   6.676   4.365   3.472
 4240TIP3   OH212660   3.503   4.078   5.350
 4240TIP3    H112661   3.506   3.983   5.333
 4240TIP3    H212662   3.478   4.116   5.265
 4241TIP3   OH212663   1.948   6.425   5.398
 4241TIP3    H112664   2.003   6.396   5.326
 4241TIP3    H212665   2.010   6.455   5.465
 4242TIP3   OH212666   6.833   7.766   3.176
 4242TIP3    H112667   6.798   7.828   3.111
 4242TIP3    H212668   6.800   7.798   3.260
 4243TIP3   OH212669   1.155   0.681   4.455
 4243TIP3    H112670   1.131   0.768   4.486
 4243TIP3    H212671   1.211   0.697   4.379
 4244TIP3   OH212672   6.819   2.068   0.970
 4244TIP3    H112673   6.768   2.148   0.980
 4244TIP3    H212674   6.909   2.098   0.960
 4245TIP3   OH212675   0.056   2.761   0.649
 4245TIP3    H112676   0.043   2.731   0.739
 4245TIP3    H212677   0.149   2.781   0.643
 4246TIP3   OH212678   3.575   2.001   3.354
 4246TIP3    H112679   3.636   2.015   3.427
 4246TIP3    H212680   3.496   2.049   3.380
 4247TIP3   OH212681   3.689   4.494   6.336
 4247TIP3    H112682   3.655   4.420   6.286
 4247TIP3    H212683   3.705   4.562   6.270
 4248TIP3   OH212684   5.536   1.729   1.457
 4248TIP3    H112685   5.527   1.802   1.396
 4248TIP3    H212686   5.458   1.675   1.443
 4249TIP3   OH212687   1.827   4.515   0.643
 4249TIP3    H112688   1.783   4.439   0.680
 4249TIP3    H212689   1.801   4.588   0.699
 4250TIP3   OH212690   0.757   0.755   3.525
 4250TIP3    H112691   0.759   0.801   3.609
 4250TIP3    H212692   0.741   0.664   3.548
 4251TIP3   OH212693   6.769   1.430   4.628
 4251TIP3    H112694   6.800   1.478   4.551
 4251TIP3    H212695   6.849   1.404   4.674
 4252TIP3   OH212696   6.981   7.794   5.917
 4252TIP3    H112697   6.904   7.767   5.967
 4252TIP3    H212698   6.945   7.830   5.836
 4253TIP3   OH212699   5.832   2.903   5.424
 4253TIP3    H112700   5.781   2.865   5.496
 4253TIP3    H212701   5.906   2.843   5.413
 4254TIP3   OH212702   0.523   4.663   5.410
 4254TIP3    H112703   0.451   4.682   5.350
 4254TIP3    H212704   0.587   4.732   5.392
 4255TIP3   OH212705   5.301   1.122   6.287
 4255TIP3    H112706   5.378   1.177   6.272
 4255TIP3    H212707   5.321   1.072   6.367
 4256TIP3   OH212708   4.009   3.965   6.431
 4256TIP3    H112709   4.015   3.988   6.338
 4256TIP3    H212710   3.957   3.885   6.432
 4257TIP3   OH212711   2.061   5.628   1.967
 4257TIP3    H112712   1.982   5.673   1.996
 4257TIP3    H212713   2.107   5.605   2.048
 4258TIP3   OH212714   3.180   6.580   2.814
 4258TIP3    H112715   3.227   6.662   2.830
 4258TIP3    H212716   3.088   6.605   2.813
 4259TIP3   OH212717   4.289   3.148   4.805
 4259TIP3    H112718   4.350   3.108   4.743
 4259TIP3    H212719   4.336   3.149   4.888
 4260TIP3   OH212720   0.531   2.341   1.208
 4260TIP3    H112721   0.474   2.365   1.134
 4260TIP3    H212722   0.614   2.385   1.188
 4261TIP3   OH212723   4.167   7.872   2.535
 4261TIP3    H112724   4.205   7.915   2.611
 4261TIP3    H212725   4.223   7.795   2.521
 4262TIP3   OH212726   6.645   4.509   1.650
 4262TIP3    H112727   6.659   4.493   1.743
 4262TIP3    H212728   6.673   4.428   1.607
 4263TIP3   OH212729   4.462   5.783   4.461
 4263TIP3    H112730   4.535   5.777   4.400
 4263TIP3    H212731   4.411   5.858   4.431
 4264TIP3   OH212732   3.926   1.825   2.421
 4264TIP3    H112733   4.003   1.830   2.364
 4264TIP3    H212734   3.943   1.750   2.477
 4265TIP3   OH212735   2.395   5.619   0.613
 4265TIP3    H112736   2.446   5.569   0.676
 4265TIP3    H212737   2.444   5.613   0.531
 4266TIP3   OH212738   1.069   0.793   0.732
 4266TIP3    H112739   0.974   0.805   0.732
 4266TIP3    H212740   1.086   0.737   0.808
 4267TIP3   OH212741   5.309   2.250   5.265
 4267TIP3    H112742   5.302   2.189   5.192
 4267TIP3    H212743   5.226   2.298   5.264
 4268TIP3   OH212744   1.473   7.114   4.716
 4268TIP3    H112745   1.477   7.117   4.621
 4268TIP3    H212746   1.525   7.037   4.740
 4269TIP3   OH212747   4.186   5.272   4.048
 4269TIP3    H112748   4.233   5.287   3.966
 4269TIP3    H212749   4.152   5.183   4.039
 4270TIP3   OH212750   3.042   6.464   1.112
 4270TIP3    H112751   3.102   6.473   1.038
 4270TIP3    H212752   3.078   6.523   1.179
 4271TIP3   OH212753   7.590   6.778   2.405
 4271TIP3    H112754   7.568   6.782   2.498
 4271TIP3    H212755   7.538   6.848   2.365
 4272TIP3   OH212756   1.313   2.511   6.315
 4272TIP3    H112757   1.371   2.450   6.361
 4272TIP3    H212758   1.346   2.598   6.340
 4273TIP3   OH212759   7.898   6.161   1.381
 4273TIP3    H112760   7.972   6.207   1.421
 4273TIP3    H212761   7.915   6.068   1.399
 4274TIP3   OH212762   0.235   5.105   3.144
 4274TIP3    H112763   0.155   5.075   3.100
 4274TIP3    H212764   0.285   5.149   3.075
 4275TIP3   OH212765   5.356   1.851   0.459
 4275TIP3    H112766   5.266   1.842   0.429
 4275TIP3    H212767   5.361   1.799   0.538
 4276TIP3   OH212768   0.762   2.352   6.160
 4276TIP3    H112769   0.840   2.407   6.155
 4276TIP3    H212770   0.791   2.266   6.130
 4277TIP3   OH212771   6.289   5.529   6.644
 4277TIP3    H112772   6.228   5.598   6.617
 4277TIP3    H212773   6.346   5.571   6.709
 4278TIP3   OH212774   5.559   0.683   6.498
 4278TIP3    H112775   5.545   0.751   6.564
 4278TIP3    H212776   5.475   0.677   6.453
 4279TIP3   OH212777   6.498   2.952   0.435
 4279TIP3    H112778   6.480   3.045   0.421
 4279TIP3    H212779   6.428   2.907   0.388
 4280TIP3   OH212780   1.130   5.926   1.295
 4280TIP3    H112781   1.168   6.009   1.323
 4280TIP3    H212782   1.074   5.900   1.368
 4281TIP3   OH212783   3.578   0.999   6.276
 4281TIP3    H112784   3.513   0.959   6.218
 4281TIP3    H212785   3.639   1.044   6.217
 4282TIP3   OH212786   4.111   4.598   5.537
 4282TIP3    H112787   4.129   4.691   5.545
 4282TIP3    H212788   4.135   4.577   5.446
 4283TIP3   OH212789   4.292   7.387   3.768
 4283TIP3    H112790   4.324   7.472   3.799
 4283TIP3    H212791   4.356   7.361   3.702
 4284TIP3   OH212792   3.271   2.242   0.564
 4284TIP3    H112793   3.270   2.148   0.546
 4284TIP3    H212794   3.254   2.248   0.658
 4285TIP3   OH212795   5.298   4.763   4.060
 4285TIP3    H112796   5.352   4.811   3.998
 4285TIP3    H212797   5.232   4.826   4.089
 4286TIP3   OH212798   6.369   2.393   0.205
 4286TIP3    H112799   6.419   2.385   0.286
 4286TIP3    H212800   6.397   2.477   0.168
 4287TIP3   OH212801   7.270   4.737   6.492
 4287TIP3    H112802   7.266   4.641   6.495
 4287TIP3    H212803   7.314   4.761   6.574
 4288TIP3   OH212804   1.200   0.385   1.460
 4288TIP3    H112805   1.176   0.372   1.552
 4288TIP3    H212806   1.203   0.296   1.424
 4289TIP3   OH212807   6.187   1.066   4.826
 4289TIP3    H112808   6.105   1.107   4.852
 4289TIP3    H212809   6.254   1.109   4.880
 4290TIP3   OH212810   1.312   5.252   1.336
 4290TIP3    H112811   1.397   5.292   1.355
 4290TIP3    H212812   1.334   5.170   1.292
 4291TIP3   OH212813   8.090   7.336   0.400
 4291TIP3    H112814   8.019   7.349   0.339
 4291TIP3    H212815   8.162   7.302   0.347
 4292TIP3   OH212816   2.375   3.000   5.669
 4292TIP3    H112817   2.378   2.929   5.605
 4292TIP3    H212818   2.467   3.021   5.686
 4293TIP3   OH212819   1.969   0.668   6.672
 4293TIP3    H112820   2.037   0.702   6.613
 4293TIP3    H212821   2.002   0.688   6.760
 4294TIP3   OH212822   4.223   4.884   6.089
 4294TIP3    H112823   4.142   4.835   6.080
 4294TIP3    H212824   4.273   4.836   6.156
 4295TIP3   OH212825   4.407   4.526   1.728
 4295TIP3    H112826   4.383   4.618   1.735
 4295TIP3    H212827   4.421   4.498   1.818
 4296TIP3   OH212828   0.995   4.514   4.566
 4296TIP3    H112829   1.054   4.582   4.596
 4296TIP3    H212830   1.032   4.433   4.601
 4297TIP3   OH212831   2.272   4.482   5.067
 4297TIP3    H112832   2.263   4.474   4.972
 4297TIP3    H212833   2.282   4.576   5.083
 4298TIP3   OH212834   5.641   5.492   2.378
 4298TIP3    H112835   5.715   5.538   2.338
 4298TIP3    H212836   5.648   5.512   2.471
 4299TIP3   OH212837   1.547   5.358   6.092
 4299TIP3    H112838   1.640   5.377   6.075
 4299TIP3    H212839   1.501   5.400   6.019
 4300TIP3   OH212840   2.841   2.928   3.935
 4300TIP3    H112841   2.860   2.834   3.939
 4300TIP3    H212842   2.821   2.945   3.843
 4301TIP3   OH212843   5.682   1.615   3.572
 4301TIP3    H112844   5.605   1.600   3.518
 4301TIP3    H212845   5.753   1.626   3.509
 4302TIP3   OH212846   4.386   1.784   6.373
 4302TIP3    H112847   4.307   1.804   6.322
 4302TIP3    H212848   4.383   1.845   6.446
 4303TIP3   OH212849   8.098   1.717   0.081
 4303TIP3    H112850   8.076   1.701   0.173
 4303TIP3    H212851   8.131   1.633   0.049
 4304TIP3   OH212852   4.663   4.850   3.796
 4304TIP3    H112853   4.602   4.921   3.814
 4304TIP3    H212854   4.721   4.848   3.872
 4305TIP3   OH212855   3.946   4.078   2.628
 4305TIP3    H112856   3.868   4.112   2.585
 4305TIP3    H212857   4.016   4.088   2.562
 4306TIP3   OH212858   3.642   5.045   1.820
 4306TIP3    H112859   3.732   5.031   1.847
 4306TIP3    H212860   3.643   5.128   1.773
 4307TIP3   OH212861   5.281   1.630   2.584
 4307TIP3    H112862   5.241   1.677   2.510
 4307TIP3    H212863   5.206   1.600   2.636
 4308TIP3   OH212864   0.647   7.041   5.681
 4308TIP3    H112865   0.713   7.109   5.695
 4308TIP3    H212866   0.634   7.040   5.586
 4309TIP3   OH212867   7.397   4.657   1.432
 4309TIP3    H112868   7.440   4.603   1.498
 4309TIP3    H212869   7.461   4.663   1.361
 4310TIP3   OH212870   1.855   7.818   6.094
 4310TIP3    H112871   1.929   7.838   6.037
 4310TIP3    H212872   1.786   7.878   6.065
 4311TIP3   OH212873   5.641   4.309   2.164
 4311TIP3    H112874   5.705   4.368   2.203
 4311TIP3    H212875   5.594   4.272   2.239
 4312TIP3   OH212876   2.605   1.090   6.708
 4312TIP3    H112877   2.649   1.170   6.682
 4312TIP3    H212878   2.669   1.021   6.690
 4313TIP3   OH212879   5.724   7.327   5.879
 4313TIP3    H112880   5.764   7.287   5.802
 4313TIP3    H212881   5.689   7.254   5.929
 4314TIP3   OH212882   3.720   4.787   2.993
 4314TIP3    H112883   3.654   4.791   3.062
 4314TIP3    H212884   3.775   4.712   3.017
 4315TIP3   OH212885   5.280   5.222   2.188
 4315TIP3    H112886   5.284   5.135   2.148
 4315TIP3    H212887   5.197   5.223   2.235
 4316TIP3   OH212888   3.813   2.438   1.330
 4316TIP3    H112889   3.750   2.369   1.307
 4316TIP3    H212890   3.760   2.504   1.374
 4317TIP3   OH212891   1.364   3.184   4.281
 4317TIP3    H112892   1.373   3.091   4.258
 4317TIP3    H212893   1.427   3.198   4.350
 4318TIP3   OH212894   3.357   7.833   3.307
 4318TIP3    H112895   3.294   7.852   3.237
 4318TIP3    H212896   3.303   7.826   3.386
 4319TIP3   OH212897   1.439   1.870   5.801
 4319TIP3    H112898   1.530   1.877   5.775
 4319TIP3    H212899   1.442   1.849   5.895
 4320TIP3   OH212900   6.840   2.849   0.583
 4320TIP3    H112901   6.810   2.912   0.518
 4320TIP3    H212902   6.764   2.834   0.639
 4321TIP3   OH212903   2.330   0.990   5.023
 4321TIP3    H112904   2.263   1.057   5.039
 4321TIP3    H212905   2.309   0.919   5.083
 4322TIP3   OH212906   3.007   0.828   4.749
 4322TIP3    H112907   3.016   0.739   4.781
 4322TIP3    H212908   2.918   0.854   4.773
 4323TIP3   OH212909   6.969   0.143   1.211
 4323TIP3    H112910   6.904   0.085   1.251
 4323TIP3    H212911   7.049   0.127   1.260
 4324TIP3   OH212912   1.258   0.098   3.745
 4324TIP3    H112913   1.307   0.165   3.698
 4324TIP3    H212914   1.281   0.016   3.702
 4325TIP3   OH212915   4.602   2.453   5.630
 4325TIP3    H112916   4.532   2.456   5.564
 4325TIP3    H212917   4.648   2.535   5.620
 4326TIP3   OH212918   3.655   2.598   3.576
 4326TIP3    H112919   3.711   2.656   3.524
 4326TIP3    H212920   3.566   2.631   3.562
 4327TIP3   OH212921   2.760   7.591   6.580
 4327TIP3    H112922   2.774   7.654   6.651
 4327TIP3    H212923   2.685   7.539   6.609
 4328TIP3   OH212924   4.515   1.277   6.134
 4328TIP3    H112925   4.513   1.346   6.200
 4328TIP3    H212926   4.589   1.221   6.161
 4329TIP3   OH212927   1.369   4.600   2.601
 4329TIP3    H112928   1.330   4.532   2.656
 4329TIP3    H212929   1.394   4.669   2.661
 4330TIP3   OH212930   3.990   5.260   3.241
 4330TIP3    H112931   3.972   5.185   3.183
 4330TIP3    H212932   3.903   5.293   3.263
 4331TIP3   OH212933   2.558   3.696   5.791
 4331TIP3    H112934   2.635   3.750   5.807
 4331TIP3    H212935   2.522   3.679   5.878
 4332TIP3   OH212936   8.004   2.439   5.992
 4332TIP3    H112937   7.912   2.414   6.002
 4332TIP3    H212938   8.051   2.356   6.000
 4333TIP3   OH212939   7.834   7.484   4.117
 4333TIP3    H112940   7.777   7.448   4.185
 4333TIP3    H212941   7.904   7.528   4.165
 4334TIP3   OH212942   3.910   3.887   4.731
 4334TIP3    H112943   3.989   3.917   4.686
 4334TIP3    H212944   3.898   3.950   4.803
 4335TIP3   OH212945   3.463   2.325   6.827
 4335TIP3    H112946   3.546   2.357   6.793
 4335TIP3    H212947   3.404   2.400   6.824
 4336TIP3   OH212948   8.182   3.594   2.899
 4336TIP3    H112949   8.133   3.599   2.981
 4336TIP3    H212950   8.134   3.530   2.847
 4337TIP3   OH212951   5.038   0.648   1.404
 4337TIP3    H112952   4.943   0.661   1.412
 4337TIP3    H212953   5.047   0.554   1.388
 4338TIP3   OH212954   7.448   3.394   0.784
 4338TIP3    H112955   7.371   3.450   0.778
 4338TIP3    H212956   7.490   3.402   0.699
 4339TIP3   OH212957   7.942   7.215   6.432
 4339TIP3    H112958   7.953   7.296   6.482
 4339TIP3    H212959   8.030   7.191   6.405
 4340TIP3   OH212960   1.741   0.544   2.343
 4340TIP3    H112961   1.722   0.450   2.334
 4340TIP3    H212962   1.661   0.587   2.313
 4341TIP3   OH212963   6.475   4.319   4.907
 4341TIP3    H112964   6.426   4.311   4.825
 4341TIP3    H212965   6.496   4.412   4.914
 4342TIP3   OH212966   2.777   3.664   3.650
 4342TIP3    H112967   2.858   3.649   3.601
 4342TIP3    H212968   2.806   3.678   3.740
 4343TIP3   OH212969   7.722   4.210   6.638
 4343TIP3    H112970   7.721   4.265   6.560
 4343TIP3    H212971   7.646   4.152   6.627
 4344TIP3   OH212972   4.663   1.795   6.318
 4344TIP3    H112973   4.722   1.835   6.382
 4344TIP3    H212974   4.577   1.800   6.359
 4345TIP3   OH212975   4.449   2.262   4.251
 4345TIP3    H112976   4.448   2.326   4.322
 4345TIP3    H212977   4.419   2.180   4.292
 4346TIP3   OH212978   6.836   1.588   1.751
 4346TIP3    H112979   6.790   1.517   1.796
 4346TIP3    H212980   6.766   1.643   1.717
 4347TIP3   OH212981   3.020   0.649   0.579
 4347TIP3    H112982   2.925   0.654   0.575
 4347TIP3    H212983   3.049   0.670   0.490
 4348TIP3   OH212984   0.484   6.085   1.369
 4348TIP3    H112985   0.443   6.150   1.312
 4348TIP3    H212986   0.508   6.135   1.448
 4349TIP3   OH212987   3.894   5.867   6.384
 4349TIP3    H112988   3.944   5.817   6.449
 4349TIP3    H212989   3.921   5.958   6.398
 4350TIP3   OH212990   8.106   0.015   1.345
 4350TIP3    H112991   8.116  -0.051   1.276
 4350TIP3    H212992   8.174   0.080   1.326
 4351TIP3   OH212993   6.769   7.050   0.665
 4351TIP3    H112994   6.817   7.091   0.593
 4351TIP3    H212995   6.695   7.109   0.681
 4352TIP3   OH212996   3.780   0.506   3.477
 4352TIP3    H112997   3.734   0.429   3.510
 4352TIP3    H212998   3.836   0.473   3.407
 4353TIP3   OH212999   1.660   4.489   4.204
 4353TIP3    H113000   1.715   4.413   4.221
 4353TIP3    H213001   1.570   4.455   4.206
 4354TIP3   OH213002   2.432   2.888   0.249
 4354TIP3    H113003   2.510   2.858   0.204
 4354TIP3    H213004   2.374   2.921   0.180
 4355TIP3   OH213005   1.962   1.721   2.319
 4355TIP3    H113006   1.998   1.810   2.312
 4355TIP3    H213007   1.939   1.712   2.411
 4356TIP3   OH213008   5.338   3.671   4.413
 4356TIP3    H113009   5.320   3.611   4.341
 4356TIP3    H213010   5.423   3.709   4.392
 4357TIP3   OH213011   6.113   0.556   5.858
 4357TIP3    H113012   6.137   0.480   5.912
 4357TIP3    H213013   6.038   0.526   5.807
 4358TIP3   OH213014   2.419   2.302   1.145
 4358TIP3    H113015   2.411   2.341   1.058
 4358TIP3    H213016   2.426   2.378   1.204
 4359TIP3   OH213017   6.392   2.300   2.616
 4359TIP3    H113018   6.432   2.310   2.703
 4359TIP3    H213019   6.381   2.205   2.606
 4360TIP3   OH213020   7.177   4.724   5.720
 4360TIP3    H113021   7.262   4.731   5.678
 4360TIP3    H213022   7.161   4.630   5.728
 4361TIP3   OH213023   0.428   1.930   5.168
 4361TIP3    H113024   0.409   1.864   5.234
 4361TIP3    H213025   0.468   1.880   5.096
 4362TIP3   OH213026   6.168   3.428   4.850
 4362TIP3    H113027   6.189   3.520   4.867
 4362TIP3    H213028   6.245   3.395   4.802
 4363TIP3   OH213029   0.669   3.732   2.492
 4363TIP3    H113030   0.746   3.785   2.470
 4363TIP3    H213031   0.604   3.795   2.522
 4364TIP3   OH213032   0.141   1.524   5.215
 4364TIP3    H113033   0.234   1.505   5.226
 4364TIP3    H213034   0.119   1.485   5.130
 4365TIP3   OH213035   3.888   5.392   6.562
 4365TIP3    H113036   3.845   5.478   6.560
 4365TIP3    H213037   3.909   5.374   6.471
 4366TIP3   OH213038   3.860   3.903   3.280
 4366TIP3    H113039   3.910   3.982   3.299
 4366TIP3    H213040   3.900   3.836   3.336
 4367TIP3   OH213041   7.990   3.590   5.333
 4367TIP3    H113042   7.996   3.658   5.399
 4367TIP3    H213043   8.008   3.509   5.381
 4368TIP3   OH213044   1.517   6.420   6.208
 4368TIP3    H113045   1.430   6.391   6.232
 4368TIP3    H213046   1.553   6.458   6.288
 4369TIP3   OH213047   6.233   3.913   6.692
 4369TIP3    H113048   6.327   3.894   6.686
 4369TIP3    H213049   6.210   3.947   6.606
 4370TIP3   OH213050   2.402   4.335   1.368
 4370TIP3    H113051   2.442   4.319   1.454
 4370TIP3    H213052   2.400   4.249   1.327
 4371TIP3   OH213053   4.760   5.471   1.501
 4371TIP3    H113054   4.758   5.399   1.564
 4371TIP3    H213055   4.670   5.476   1.468
 4372TIP3   OH213056   1.018   1.964   5.747
 4372TIP3    H113057   0.928   1.970   5.716
 4372TIP3    H213058   1.066   1.923   5.675
 4373TIP3   OH213059   3.922   4.063   2.280
 4373TIP3    H113060   3.944   4.048   2.188
 4373TIP3    H213061   3.870   4.144   2.279
 4374TIP3   OH213062   2.540   4.889   2.018
 4374TIP3    H113063   2.564   4.980   1.999
 4374TIP3    H213064   2.527   4.887   2.113
 4375TIP3   OH213065   2.365   6.457   0.389
 4375TIP3    H113066   2.356   6.465   0.294
 4375TIP3    H213067   2.276   6.459   0.422
 4376TIP3   OH213068   4.055   3.135   5.022
 4376TIP3    H113069   4.085   3.064   4.966
 4376TIP3    H213070   4.131   3.192   5.034
 4377TIP3   OH213071   5.519   6.947   5.897
 4377TIP3    H113072   5.482   6.989   5.820
 4377TIP3    H213073   5.443   6.905   5.939
 4378TIP3   OH213074   4.898   4.126   4.074
 4378TIP3    H113075   4.827   4.181   4.041
 4378TIP3    H213076   4.976   4.180   4.064
 4379TIP3   OH213077   6.063   6.771   2.277
 4379TIP3    H113078   5.998   6.835   2.249
 4379TIP3    H213079   6.145   6.819   2.279
 4380TIP3   OH213080   3.364   5.600   0.746
 4380TIP3    H113081   3.396   5.685   0.716
 4380TIP3    H213082   3.439   5.541   0.736
 4381TIP3   OH213083   5.823   1.278   6.425
 4381TIP3    H113084   5.861   1.343   6.484
 4381TIP3    H213085   5.841   1.194   6.468
 4382TIP3   OH213086   4.913   5.309   0.456
 4382TIP3    H113087   4.872   5.309   0.543
 4382TIP3    H213088   4.978   5.239   0.461
 4383TIP3   OH213089   0.498   1.152   0.275
 4383TIP3    H113090   0.558   1.219   0.242
 4383TIP3    H213091   0.421   1.201   0.303
 4384TIP3   OH213092   4.680   2.116   4.409
 4384TIP3    H113093   4.704   2.199   4.451
 4384TIP3    H213094   4.703   2.129   4.317
 4385TIP3   OH213095   1.415   7.031   3.133
 4385TIP3    H113096   1.450   7.120   3.138
 4385TIP3    H213097   1.395   7.020   3.040
 4386TIP3   OH213098   2.073   1.661   0.537
 4386TIP3    H113099   2.169   1.666   0.537
 4386TIP3    H213100   2.045   1.737   0.486
 4387TIP3   OH213101   4.882   2.209   1.728
 4387TIP3    H113102   4.884   2.249   1.641
 4387TIP3    H213103   4.972   2.179   1.743
 4388TIP3   OH213104   3.692   3.594   1.007
 4388TIP3    H113105   3.730   3.598   0.919
 4388TIP3    H213106   3.621   3.657   1.006
 4389TIP3   OH213107   4.756   3.872   0.101
 4389TIP3    H113108   4.690   3.868   0.031
 4389TIP3    H213109   4.709   3.906   0.177
 4390TIP3   OH213110   7.847   4.537   6.725
 4390TIP3    H113111   7.819   4.613   6.674
 4390TIP3    H213112   7.871   4.471   6.660
 4391TIP3   OH213113   7.243   4.514   0.433
 4391TIP3    H113114   7.155   4.503   0.469
 4391TIP3    H213115   7.277   4.593   0.475
 4392TIP3   OH213116   7.725   2.425   5.797
 4392TIP3    H113117   7.690   2.443   5.709
 4392TIP3    H213118   7.802   2.480   5.804
 4393TIP3   OH213119   3.814   2.673   6.371
 4393TIP3    H113120   3.839   2.581   6.374
 4393TIP3    H213121   3.725   2.673   6.334
 4394TIP3   OH213122   0.124   0.339   2.021
 4394TIP3    H113123   0.073   0.326   1.941
 4394TIP3    H213124   0.147   0.432   2.020
 4395TIP3   OH213125   4.937   1.234   3.384
 4395TIP3    H113126   4.887   1.245   3.303
 4395TIP3    H213127   4.886   1.279   3.450
 4396TIP3   OH213128   3.635   6.110   3.669
 4396TIP3    H113129   3.669   6.086   3.582
 4396TIP3    H213130   3.653   6.204   3.677
 4397TIP3   OH213131   4.062   2.345   1.519
 4397TIP3    H113132   4.061   2.355   1.424
 4397TIP3    H213133   3.984   2.391   1.550
 4398TIP3   OH213134   7.904   6.371   6.597
 4398TIP3    H113135   7.828   6.352   6.542
 4398TIP3    H213136   7.871   6.369   6.686
 4399TIP3   OH213137   1.468   3.713   3.624
 4399TIP3    H113138   1.473   3.798   3.669
 4399TIP3    H213139   1.374   3.702   3.606
 4400TIP3   OH213140   7.807   1.730   3.899
 4400TIP3    H113141   7.767   1.662   3.845
 4400TIP3    H213142   7.792   1.701   3.989
 4401TIP3   OH213143   1.660   3.634   1.950
 4401TIP3    H113144   1.609   3.687   2.012
 4401TIP3    H213145   1.604   3.560   1.930
 4402TIP3   OH213146   1.465   3.503   6.745
 4402TIP3    H113147   1.412   3.500   6.666
 4402TIP3    H213148   1.423   3.441   6.805
 4403TIP3   OH213149   7.061   3.984   1.118
 4403TIP3    H113150   7.094   4.017   1.202
 4403TIP3    H213151   6.985   3.931   1.142
 4404TIP3   OH213152   5.611   5.044   3.761
 4404TIP3    H113153   5.623   5.113   3.695
 4404TIP3    H213154   5.631   5.087   3.844
 4405TIP3   OH213155   2.706   6.722   2.644
 4405TIP3    H113156   2.634   6.674   2.603
 4405TIP3    H213157   2.666   6.770   2.716
 4406TIP3   OH213158   5.692   1.027   2.856
 4406TIP3    H113159   5.673   0.955   2.795
 4406TIP3    H213160   5.736   1.092   2.802
 4407TIP3   OH213161   8.305   1.840   1.002
 4407TIP3    H113162   8.219   1.866   1.036
 4407TIP3    H213163   8.340   1.781   1.069
 4408TIP3   OH213164   3.012   2.710   3.546
 4408TIP3    H113165   3.052   2.672   3.467
 4408TIP3    H213166   2.922   2.678   3.545
 4409TIP3   OH213167   1.749   2.478   6.568
 4409TIP3    H113168   1.803   2.406   6.601
 4409TIP3    H213169   1.721   2.448   6.481
 4410TIP3   OH213170   6.590   3.632   0.770
 4410TIP3    H113171   6.584   3.537   0.768
 4410TIP3    H213172   6.663   3.654   0.712
 4411TIP3   OH213173   4.276   3.055   1.941
 4411TIP3    H113174   4.289   3.096   2.027
 4411TIP3    H213175   4.288   3.127   1.879
 4412TIP3   OH213176   7.302   1.911   1.987
 4412TIP3    H113177   7.214   1.945   2.004
 4412TIP3    H213178   7.302   1.888   1.894
 4413TIP3   OH213179   1.841   7.000   0.306
 4413TIP3    H113180   1.777   6.941   0.346
 4413TIP3    H213181   1.925   6.957   0.321
 4414TIP3   OH213182   6.931   0.455   4.841
 4414TIP3    H113183   6.937   0.443   4.747
 4414TIP3    H213184   7.021   0.454   4.872
 4415TIP3   OH213185   0.458   5.322   4.965
 4415TIP3    H113186   0.485   5.339   5.055
 4415TIP3    H213187   0.527   5.266   4.929
 4416TIP3   OH213188   2.576   2.429   6.741
 4416TIP3    H113189   2.663   2.400   6.769
 4416TIP3    H213190   2.522   2.350   6.745
 4417TIP3   OH213191   7.133   6.186   4.322
 4417TIP3    H113192   7.088   6.120   4.374
 4417TIP3    H213193   7.126   6.267   4.373
 4418TIP3   OH213194   5.553   3.845   6.809
 4418TIP3    H113195   5.591   3.874   6.725
 4418TIP3    H213196   5.515   3.924   6.846
 4419TIP3   OH213197   6.007   5.698   1.858
 4419TIP3    H113198   5.998   5.729   1.769
 4419TIP3    H213199   5.948   5.623   1.864
 4420TIP3   OH213200   3.837   2.068   6.344
 4420TIP3    H113201   3.864   1.979   6.369
 4420TIP3    H213202   3.804   2.106   6.426
 4421TIP3   OH213203   3.284   2.522   6.465
 4421TIP3    H113204   3.207   2.476   6.499
 4421TIP3    H213205   3.289   2.497   6.373
 4422TIP3   OH213206   6.860   2.136   1.272
 4422TIP3    H113207   6.801   2.065   1.296
 4422TIP3    H213208   6.948   2.098   1.282
 4423TIP3   OH213209   0.217   6.846   0.260
 4423TIP3    H113210   0.285   6.807   0.314
 4423TIP3    H213211   0.262   6.875   0.181
 4424TIP3   OH213212   3.052   0.666   4.362
 4424TIP3    H113213   3.033   0.759   4.377
 4424TIP3    H213214   3.068   0.660   4.268
 4425TIP3   OH213215   7.519   6.080   5.253
 4425TIP3    H113216   7.597   6.026   5.240
 4425TIP3    H213217   7.552   6.164   5.285
 4426TIP3   OH213218   4.375   6.785   6.403
 4426TIP3    H113219   4.375   6.742   6.317
 4426TIP3    H213220   4.350   6.716   6.464
 4427TIP3   OH213221   1.139   5.409   6.179
 4427TIP3    H113222   1.142   5.429   6.085
 4427TIP3    H213223   1.055   5.445   6.209
 4428TIP3   OH213224   2.387   2.913   4.831
 4428TIP3    H113225   2.469   2.925   4.782
 4428TIP3    H213226   2.347   3.000   4.831
 4429TIP3   OH213227   0.267   2.263   6.332
 4429TIP3    H113228   0.362   2.253   6.328
 4429TIP3    H213229   0.252   2.330   6.399
 4430TIP3   OH213230   3.448   2.840   4.227
 4430TIP3    H113231   3.458   2.748   4.253
 4430TIP3    H213232   3.519   2.855   4.164
 4431TIP3   OH213233   2.819   5.644   2.224
 4431TIP3    H113234   2.876   5.571   2.199
 4431TIP3    H213235   2.747   5.640   2.160
 4432TIP3   OH213236   6.348   7.767   4.048
 4432TIP3    H113237   6.409   7.727   3.986
 4432TIP3    H213238   6.354   7.712   4.126
 4433TIP3   OH213239   7.613   5.562   2.092
 4433TIP3    H113240   7.610   5.519   2.178
 4433TIP3    H213241   7.646   5.650   2.111
 4434TIP3   OH213242   7.359   4.013   2.521
 4434TIP3    H113243   7.332   3.921   2.522
 4434TIP3    H213244   7.327   4.047   2.437
 4435TIP3   OH213245   4.194   3.666   4.724
 4435TIP3    H113246   4.124   3.647   4.662
 4435TIP3    H213247   4.275   3.648   4.676
 4436TIP3   OH213248   3.896   4.703   4.249
 4436TIP3    H113249   3.932   4.784   4.287
 4436TIP3    H213250   3.965   4.638   4.264
 4437TIP3   OH213251   5.433   3.232   6.787
 4437TIP3    H113252   5.457   3.144   6.760
 4437TIP3    H213253   5.372   3.263   6.721
 4438TIP3   OH213254   7.469   7.651   2.018
 4438TIP3    H113255   7.549   7.703   2.027
 4438TIP3    H213256   7.445   7.659   1.926
 4439TIP3   OH213257   6.995   7.558   3.051
 4439TIP3    H113258   6.914   7.517   3.020
 4439TIP3    H213259   6.968   7.647   3.076
 4440TIP3   OH213260   3.838   2.466   0.479
 4440TIP3    H113261   3.799   2.433   0.398
 4440TIP3    H213262   3.820   2.560   0.479
 4441TIP3   OH213263   6.488   2.258   4.444
 4441TIP3    H113264   6.496   2.201   4.520
 4441TIP3    H213265   6.537   2.337   4.468
 4442TIP3   OH213266   5.514   2.914   5.007
 4442TIP3    H113267   5.597   2.880   5.040
 4442TIP3    H213268   5.452   2.842   5.019
 4443TIP3   OH213269   1.976   6.352   4.844
 4443TIP3    H113270   1.893   6.306   4.830
 4443TIP3    H213271   2.035   6.317   4.777
 4444TIP3   OH213272   6.848   7.156   1.093
 4444TIP3    H113273   6.826   7.079   1.040
 4444TIP3    H213274   6.838   7.230   1.034
 4445TIP3   OH213275   5.795   2.565   2.916
 4445TIP3    H113276   5.858   2.504   2.953
 4445TIP3    H213277   5.743   2.512   2.856
 4446TIP3   OH213278   6.435   3.309   3.542
 4446TIP3    H113279   6.528   3.307   3.565
 4446TIP3    H213280   6.391   3.332   3.624
 4447TIP3   OH213281   2.793   6.801   2.341
 4447TIP3    H113282   2.829   6.763   2.421
 4447TIP3    H213283   2.755   6.727   2.293
 4448TIP3   OH213284   2.006   4.765   3.622
 4448TIP3    H113285   2.032   4.846   3.666
 4448TIP3    H213286   1.986   4.792   3.532
 4449TIP3   OH213287   1.797   2.158   1.925
 4449TIP3    H113288   1.805   2.127   1.835
 4449TIP3    H213289   1.771   2.080   1.975
 4450TIP3   OH213290   0.226   3.618   2.019
 4450TIP3    H113291   0.176   3.624   2.101
 4450TIP3    H213292   0.311   3.657   2.040
 4451TIP3   OH213293   7.412   7.871   6.707
 4451TIP3    H113294   7.472   7.944   6.717
 4451TIP3    H213295   7.325   7.908   6.721
 4452TIP3   OH213296   4.147   6.865   4.029
 4452TIP3    H113297   4.138   6.789   3.972
 4452TIP3    H213298   4.215   6.919   3.989
 4453TIP3   OH213299   3.468   0.636   3.685
 4453TIP3    H113300   3.408   0.653   3.613
 4453TIP3    H213301   3.511   0.720   3.701
 4454TIP3   OH213302   2.982   3.693   4.443
 4454TIP3    H113303   3.008   3.649   4.523
 4454TIP3    H213304   3.031   3.648   4.374
 4455TIP3   OH213305   4.127   4.179   2.804
 4455TIP3    H113306   4.069   4.184   2.728
 4455TIP3    H213307   4.083   4.117   2.863
 4456TIP3   OH213308   1.985   6.535   2.766
 4456TIP3    H113309   2.058   6.485   2.801
 4456TIP3    H213310   1.942   6.572   2.843
 4457TIP3   OH213311   5.728   3.119   3.616
 4457TIP3    H113312   5.789   3.071   3.672
 4457TIP3    H213313   5.697   3.054   3.553
 4458TIP3   OH213314   1.581   2.275   5.902
 4458TIP3    H113315   1.536   2.258   5.819
 4458TIP3    H213316   1.530   2.345   5.943
 4459TIP3   OH213317   1.688   6.485   2.730
 4459TIP3    H113318   1.706   6.513   2.820
 4459TIP3    H213319   1.763   6.518   2.680
 4460TIP3   OH213320   5.473   0.356   4.095
 4460TIP3    H113321   5.568   0.367   4.088
 4460TIP3    H213322   5.461   0.266   4.126
 4461TIP3   OH213323   5.437   5.047   4.960
 4461TIP3    H113324   5.460   5.122   5.014
 4461TIP3    H213325   5.510   5.039   4.898
 4462TIP3   OH213326   3.361   3.679   4.585
 4462TIP3    H113327   3.317   3.763   4.569
 4462TIP3    H213328   3.422   3.698   4.656
 4463TIP3   OH213329   0.211   5.736   6.819
 4463TIP3    H113330   0.269   5.807   6.793
 4463TIP3    H213331   0.123   5.774   6.816
 4464TIP3   OH213332   5.281   3.152   0.607
 4464TIP3    H113333   5.310   3.116   0.690
 4464TIP3    H213334   5.346   3.219   0.585
 4465TIP3   OH213335   2.649   2.547   6.330
 4465TIP3    H113336   2.624   2.455   6.329
 4465TIP3    H213337   2.741   2.547   6.356
 4466TIP3   OH213338   3.469   1.276   6.059
 4466TIP3    H113339   3.383   1.310   6.035
 4466TIP3    H213340   3.531   1.344   6.034
 4467TIP3   OH213341   3.186   6.727   0.809
 4467TIP3    H113342   3.196   6.755   0.900
 4467TIP3    H213343   3.124   6.789   0.772
 4468TIP3   OH213344   2.058   2.135   2.947
 4468TIP3    H113345   2.021   2.069   3.005
 4468TIP3    H213346   2.044   2.101   2.859
 4469TIP3   OH213347   6.907   7.776   3.620
 4469TIP3    H113348   6.946   7.729   3.546
 4469TIP3    H213349   6.950   7.739   3.697
 4470TIP3   OH213350   4.825   4.797   4.052
 4470TIP3    H113351   4.777   4.879   4.062
 4470TIP3    H213352   4.844   4.770   4.142
 4471TIP3   OH213353   6.647   4.119   4.781
 4471TIP3    H113354   6.678   4.052   4.842
 4471TIP3    H213355   6.558   4.137   4.809
 4472TIP3   OH213356   3.109   0.654   0.290
 4472TIP3    H113357   3.089   0.573   0.244
 4472TIP3    H213358   3.205   0.656   0.293
 4473TIP3   OH213359   7.126   6.354   2.350
 4473TIP3    H113360   7.172   6.323   2.428
 4473TIP3    H213361   7.072   6.427   2.382
 4474TIP3   OH213362   3.632   1.056   2.780
 4474TIP3    H113363   3.674   0.978   2.744
 4474TIP3    H213364   3.568   1.022   2.843
 4475TIP3   OH213365   3.527   6.334   5.893
 4475TIP3    H113366   3.433   6.337   5.876
 4475TIP3    H213367   3.553   6.426   5.902
 4476TIP3   OH213368   2.772   0.431   5.084
 4476TIP3    H113369   2.707   0.428   5.154
 4476TIP3    H213370   2.787   0.524   5.068
 4477TIP3   OH213371   4.344   6.342   4.006
 4477TIP3    H113372   4.354   6.435   3.986
 4477TIP3    H213373   4.401   6.327   4.081
 4478TIP3   OH213374   6.896   4.983   4.074
 4478TIP3    H113375   6.916   4.957   4.164
 4478TIP3    H213376   6.866   5.073   4.082
 4479TIP3   OH213377   2.294   5.268   1.586
 4479TIP3    H113378   2.368   5.293   1.642
 4479TIP3    H213379   2.234   5.221   1.645
 4480TIP3   OH213380   7.645   2.340   4.429
 4480TIP3    H113381   7.666   2.263   4.377
 4480TIP3    H213382   7.555   2.363   4.404
 4481TIP3   OH213383   2.980   4.520   2.175
 4481TIP3    H113384   2.983   4.570   2.094
 4481TIP3    H213385   3.025   4.575   2.239
 4482TIP3   OH213386   4.310   5.265   5.554
 4482TIP3    H113387   4.262   5.238   5.633
 4482TIP3    H213388   4.253   5.330   5.513
 4483TIP3   OH213389   3.802   4.987   2.817
 4483TIP3    H113390   3.768   4.914   2.868
 4483TIP3    H213391   3.757   4.981   2.733
 4484TIP3   OH213392   3.796   2.141   4.185
 4484TIP3    H113393   3.885   2.151   4.149
 4484TIP3    H213394   3.739   2.152   4.109
 4485TIP3   OH213395   0.772   1.076   6.295
 4485TIP3    H113396   0.765   1.076   6.200
 4485TIP3    H213397   0.695   1.029   6.325
 4486TIP3   OH213398   3.043   6.828   0.061
 4486TIP3    H113399   3.076   6.784  -0.018
 4486TIP3    H213400   3.120   6.873   0.097
 4487TIP3   OH213401   3.872   5.517   2.600
 4487TIP3    H113402   3.843   5.528   2.691
 4487TIP3    H213403   3.967   5.510   2.606
 4488TIP3   OH213404   6.807   0.900   4.469
 4488TIP3    H113405   6.808   0.986   4.511
 4488TIP3    H213406   6.831   0.839   4.539
 4489TIP3   OH213407   8.277   4.193   0.950
 4489TIP3    H113408   8.237   4.126   0.896
 4489TIP3    H213409   8.282   4.270   0.894
 4490TIP3   OH213410   5.537   4.260   3.247
 4490TIP3    H113411   5.606   4.285   3.186
 4490TIP3    H213412   5.533   4.165   3.241
 4491TIP3   OH213413   8.257   3.830   6.624
 4491TIP3    H113414   8.265   3.807   6.532
 4491TIP3    H213415   8.163   3.834   6.640
 4492TIP3   OH213416   0.507   0.988   6.282
 4492TIP3    H113417   0.555   0.906   6.273
 4492TIP3    H213418   0.471   1.005   6.195
 4493TIP3   OH213419   5.464   7.837   2.070
 4493TIP3    H113420   5.384   7.784   2.071
 4493TIP3    H213421   5.432   7.927   2.081
 4494TIP3   OH213422   1.832   3.147   0.157
 4494TIP3    H113423   1.803   3.200   0.084
 4494TIP3    H213424   1.752   3.108   0.192
 4495TIP3   OH213425   0.443   5.539   0.400
 4495TIP3    H113426   0.404   5.624   0.417
 4495TIP3    H213427   0.537   5.555   0.398
 4496TIP3   OH213428   4.987   0.953   1.843
 4496TIP3    H113429   5.024   0.925   1.759
 4496TIP3    H213430   4.895   0.970   1.824
 4497TIP3   OH213431   2.949   0.128   0.576
 4497TIP3    H113432   2.932   0.079   0.657
 4497TIP3    H213433   2.874   0.187   0.568
 4498TIP3   OH213434   0.223   7.166   0.135
 4498TIP3    H113435   0.313   7.151   0.161
 4498TIP3    H213436   0.203   7.094   0.075
 4499TIP3   OH213437   2.657   7.765   1.658
 4499TIP3    H113438   2.616   7.851   1.644
 4499TIP3    H213439   2.589   7.702   1.632
 4500TIP3   OH213440   2.719   5.202   1.246
 4500TIP3    H113441   2.791   5.190   1.184
 4500TIP3    H213442   2.671   5.278   1.212
 4501TIP3   OH213443   4.805   0.614   4.450
 4501TIP3    H113444   4.794   0.519   4.459
 4501TIP3    H213445   4.885   0.623   4.398
 4502TIP3   OH213446   2.551   7.600   1.342
 4502TIP3    H113447   2.503   7.531   1.296
 4502TIP3    H213448   2.560   7.569   1.432
 4503TIP3   OH213449   3.779   5.877   4.506
 4503TIP3    H113450   3.755   5.890   4.414
 4503TIP3    H213451   3.718   5.810   4.537
 4504TIP3   OH213452   7.956   6.938   5.358
 4504TIP3    H113453   7.996   6.971   5.278
 4504TIP3    H213454   8.019   6.957   5.427
 4505TIP3   OH213455   0.264   2.742   5.937
 4505TIP3    H113456   0.328   2.803   5.901
 4505TIP3    H213457   0.224   2.789   6.011
 4506TIP3   OH213458   1.249   7.500   3.934
 4506TIP3    H113459   1.315   7.435   3.958
 4506TIP3    H213460   1.167   7.450   3.930
 4507TIP3   OH213461   6.007   1.512   3.687
 4507TIP3    H113462   5.943   1.523   3.758
 4507TIP3    H213463   6.086   1.556   3.719
 4508TIP3   OH213464   1.373   6.617   0.066
 4508TIP3    H113465   1.295   6.619   0.121
 4508TIP3    H213466   1.408   6.706   0.071
 4509TIP3   OH213467   6.178   7.858   3.177
 4509TIP3    H113468   6.098   7.828   3.219
 4509TIP3    H213469   6.246   7.799   3.210
 4510TIP3   OH213470   7.756   5.161   2.820
 4510TIP3    H113471   7.757   5.179   2.914
 4510TIP3    H213472   7.793   5.073   2.813
 4511TIP3   OH213473   0.642   4.645   1.047
 4511TIP3    H113474   0.598   4.699   0.982
 4511TIP3    H213475   0.704   4.592   0.997
 4512TIP3   OH213476   1.232   4.138   0.927
 4512TIP3    H113477   1.197   4.218   0.968
 4512TIP3    H213478   1.180   4.128   0.847
 4513TIP3   OH213479   4.010   2.350   6.615
 4513TIP3    H113480   4.002   2.365   6.521
 4513TIP3    H213481   4.009   2.255   6.624
 4514TIP3   OH213482   7.060   0.889   3.739
 4514TIP3    H113483   7.112   0.866   3.662
 4514TIP3    H213484   6.980   0.838   3.730
 4515TIP3   OH213485   3.906   1.023   4.777
 4515TIP3    H113486   3.974   1.090   4.783
 4515TIP3    H213487   3.897   1.007   4.683
 4516TIP3   OH213488   1.328   7.136   2.561
 4516TIP3    H113489   1.290   7.156   2.646
 4516TIP3    H213490   1.327   7.219   2.514
 4517TIP3   OH213491   6.989   1.044   0.009
 4517TIP3    H113492   7.072   0.997   0.008
 4517TIP3    H213493   6.928   0.983   0.051
 4518TIP3   OH213494   2.213   5.373   2.858
 4518TIP3    H113495   2.145   5.418   2.907
 4518TIP3    H213496   2.178   5.364   2.769
 4519TIP3   OH213497   7.583   5.328   1.138
 4519TIP3    H113498   7.579   5.399   1.074
 4519TIP3    H213499   7.636   5.260   1.096
 4520TIP3   OH213500   3.794   7.475   4.240
 4520TIP3    H113501   3.818   7.486   4.332
 4520TIP3    H213502   3.698   7.467   4.241
 4521TIP3   OH213503   3.148   0.126   6.664
 4521TIP3    H113504   3.235   0.167   6.666
 4521TIP3    H213505   3.136   0.091   6.752
 4522TIP3   OH213506   1.773   2.124   2.491
 4522TIP3    H113507   1.717   2.097   2.419
 4522TIP3    H213508   1.840   2.057   2.497
 4523TIP3   OH213509   7.702   7.400   4.776
 4523TIP3    H113510   7.630   7.458   4.751
 4523TIP3    H213511   7.765   7.407   4.705
 4524TIP3   OH213512   7.441   2.204   4.199
 4524TIP3    H113513   7.427   2.134   4.263
 4524TIP3    H213514   7.533   2.196   4.173
 4525TIP3   OH213515   1.584   2.080   5.499
 4525TIP3    H113516   1.658   2.029   5.534
 4525TIP3    H213517   1.611   2.171   5.510
 4526TIP3   OH213518   4.775   1.255   6.356
 4526TIP3    H113519   4.767   1.339   6.400
 4526TIP3    H213520   4.869   1.237   6.354
 4527TIP3   OH213521   5.197   5.696   1.121
 4527TIP3    H113522   5.288   5.725   1.114
 4527TIP3    H213523   5.167   5.688   1.030
 4528TIP3   OH213524   6.350   0.623   6.507
 4528TIP3    H113525   6.405   0.699   6.486
 4528TIP3    H213526   6.410   0.548   6.503
 4529TIP3   OH213527   5.606   6.238   6.657
 4529TIP3    H113528   5.540   6.307   6.666
 4529TIP3    H213529   5.562   6.158   6.686
 4530TIP3   OH213530   6.984   3.961   3.752
 4530TIP3    H113531   7.022   4.041   3.789
 4530TIP3    H213532   6.953   3.912   3.828
 4531TIP3   OH213533   2.724   3.004   6.339
 4531TIP3    H113534   2.655   2.937   6.334
 4531TIP3    H213535   2.744   3.024   6.248
 4532TIP3   OH213536   8.131   5.715   0.540
 4532TIP3    H113537   8.169   5.677   0.461
 4532TIP3    H213538   8.061   5.655   0.565
 4533TIP3   OH213539   4.927   4.181   1.882
 4533TIP3    H113540   4.934   4.194   1.787
 4533TIP3    H213541   4.988   4.245   1.919
 4534TIP3   OH213542   7.920   6.461   5.137
 4534TIP3    H113543   7.963   6.465   5.222
 4534TIP3    H213544   7.938   6.547   5.097
 4535TIP3   OH213545   6.660   3.003   4.708
 4535TIP3    H113546   6.744   3.050   4.715
 4535TIP3    H213547   6.625   3.030   4.623
 4536TIP3   OH213548   5.145   2.684   0.844
 4536TIP3    H113549   5.151   2.653   0.753
 4536TIP3    H213550   5.235   2.689   0.874
 4537TIP3   OH213551   6.450   5.068   1.954
 4537TIP3    H113552   6.524   5.119   1.985
 4537TIP3    H213553   6.477   4.977   1.967
 4538TIP3   OH213554   4.184   7.747   5.995
 4538TIP3    H113555   4.199   7.665   6.043
 4538TIP3    H213556   4.130   7.800   6.053
 4539TIP3   OH213557   6.526   4.343   6.280
 4539TIP3    H113558   6.451   4.378   6.233
 4539TIP3    H213559   6.545   4.259   6.237
 4540TIP3   OH213560   3.529   5.489   0.517
 4540TIP3    H113561   3.511   5.398   0.492
 4540TIP3    H213562   3.587   5.482   0.593
 4541TIP3   OH213563   6.200   5.578   2.655
 4541TIP3    H113564   6.154   5.495   2.643
 4541TIP3    H213565   6.250   5.590   2.574
 4542TIP3   OH213566   6.856   4.960   1.856
 4542TIP3    H113567   6.921   4.910   1.807
 4542TIP3    H213568   6.776   4.952   1.805
 4543TIP3   OH213569   0.986   6.827   5.060
 4543TIP3    H113570   0.937   6.777   4.995
 4543TIP3    H213571   0.918   6.867   5.116
 4544TIP3   OH213572   7.863   7.241   2.645
 4544TIP3    H113573   7.862   7.312   2.581
 4544TIP3    H213574   7.780   7.195   2.631
 4545TIP3   OH213575   3.546   7.249   6.136
 4545TIP3    H113576   3.534   7.203   6.053
 4545TIP3    H213577   3.630   7.217   6.169
 4546TIP3   OH213578   7.516   1.227   3.474
 4546TIP3    H113579   7.576   1.269   3.535
 4546TIP3    H213580   7.453   1.181   3.529
 4547TIP3   OH213581   4.527   3.275   0.901
 4547TIP3    H113582   4.561   3.359   0.869
 4547TIP3    H213583   4.537   3.215   0.828
 4548TIP3   OH213584   5.568   2.003   5.104
 4548TIP3    H113585   5.569   2.099   5.107
 4548TIP3    H213586   5.595   1.982   5.014
 4549TIP3   OH213587   1.142   1.891   5.516
 4549TIP3    H113588   1.229   1.887   5.476
 4549TIP3    H213589   1.122   1.800   5.538
 4550TIP3   OH213590   5.347   5.849   3.075
 4550TIP3    H113591   5.262   5.883   3.101
 4550TIP3    H213592   5.347   5.759   3.108
 4551TIP3   OH213593   7.092   0.629   5.309
 4551TIP3    H113594   7.062   0.538   5.315
 4551TIP3    H213595   7.026   0.679   5.357
 4552TIP3   OH213596   2.193   1.022   1.677
 4552TIP3    H113597   2.193   0.951   1.742
 4552TIP3    H213598   2.126   0.996   1.614
 4553TIP3   OH213599  -0.005   3.181   3.062
 4553TIP3    H113600   0.023   3.225   3.142
 4553TIP3    H213601   0.029   3.235   2.991
 4554TIP3   OH213602   7.501   1.591   3.777
 4554TIP3    H113603   7.439   1.534   3.732
 4554TIP3    H213604   7.467   1.679   3.763
 4555TIP3   OH213605   3.962   6.534   0.365
 4555TIP3    H113606   3.963   6.567   0.276
 4555TIP3    H213607   4.050   6.551   0.398
 4556TIP3   OH213608   6.815   0.201   1.865
 4556TIP3    H113609   6.770   0.123   1.831
 4556TIP3    H213610   6.868   0.231   1.791
 4557TIP3   OH213611   7.872   2.132   3.939
 4557TIP3    H113612   7.908   2.084   4.013
 4557TIP3    H213613   7.883   2.225   3.963
 4558TIP3   OH213614   2.535   6.452   2.286
 4558TIP3    H113615   2.529   6.391   2.359
 4558TIP3    H213616   2.559   6.398   2.210
 4559TIP3   OH213617   3.747   4.523   1.917
 4559TIP3    H113618   3.753   4.546   1.824
 4559TIP3    H213619   3.737   4.428   1.918
 4560TIP3   OH213620   7.475   6.572   3.266
 4560TIP3    H113621   7.484   6.644   3.204
 4560TIP3    H213622   7.410   6.603   3.330
 4561TIP3   OH213623   5.179   2.993   5.094
 4561TIP3    H113624   5.106   3.042   5.131
 4561TIP3    H213625   5.193   2.921   5.156
 4562TIP3   OH213626   3.699   0.864   5.135
 4562TIP3    H113627   3.648   0.806   5.193
 4562TIP3    H213628   3.698   0.949   5.178
 4563TIP3   OH213629   6.475   0.857   0.906
 4563TIP3    H113630   6.386   0.892   0.911
 4563TIP3    H213631   6.492   0.823   0.994
 4564TIP3   OH213632   4.004   3.763   5.620
 4564TIP3    H113633   3.921   3.804   5.599
 4564TIP3    H213634   4.052   3.762   5.538
 4565TIP3   OH213635   1.542   3.272   4.026
 4565TIP3    H113636   1.462   3.300   4.070
 4565TIP3    H213637   1.547   3.326   3.948
 4566TIP3   OH213638   4.888   6.756   3.237
 4566TIP3    H113639   4.824   6.793   3.297
 4566TIP3    H213640   4.875   6.802   3.155
 4567TIP3   OH213641   6.997   0.945   0.304
 4567TIP3    H113642   7.057   1.014   0.332
 4567TIP3    H213643   6.938   0.933   0.379
 4568TIP3   OH213644   6.721   5.202   3.405
 4568TIP3    H113645   6.804   5.234   3.439
 4568TIP3    H213646   6.745   5.154   3.325
 4569TIP3   OH213647   5.721   1.323   3.055
 4569TIP3    H113648   5.770   1.286   2.981
 4569TIP3    H213649   5.654   1.258   3.073
 4570TIP3   OH213650   0.634   3.354   6.322
 4570TIP3    H113651   0.554   3.301   6.333
 4570TIP3    H213652   0.629   3.386   6.232
 4571TIP3   OH213653   4.782   5.696   6.189
 4571TIP3    H113654   4.688   5.707   6.197
 4571TIP3    H213655   4.801   5.615   6.236
 4572TIP3   OH213656   0.201   5.335   2.735
 4572TIP3    H113657   0.108   5.354   2.720
 4572TIP3    H213658   0.247   5.406   2.690
 4573TIP3   OH213659   2.637   7.480   4.076
 4573TIP3    H113660   2.646   7.396   4.030
 4573TIP3    H213661   2.650   7.457   4.168
 4574TIP3   OH213662   2.648   3.260   4.922
 4574TIP3    H113663   2.721   3.212   4.961
 4574TIP3    H213664   2.578   3.254   4.986
 4575TIP3   OH213665   6.836   3.455   6.041
 4575TIP3    H113666   6.912   3.452   6.099
 4575TIP3    H213667   6.761   3.439   6.098
 4576TIP3   OH213668   6.746   2.113   3.626
 4576TIP3    H113669   6.661   2.127   3.669
 4576TIP3    H213670   6.748   2.179   3.557
 4577TIP3   OH213671   5.874   0.494   5.742
 4577TIP3    H113672   5.840   0.529   5.825
 4577TIP3    H213673   5.799   0.449   5.703
 4578TIP3   OH213674   5.163   0.465   2.426
 4578TIP3    H113675   5.169   0.490   2.334
 4578TIP3    H213676   5.074   0.429   2.435
 4579TIP3   OH213677   5.516   5.059   6.768
 4579TIP3    H113678   5.493   5.121   6.838
 4579TIP3    H213679   5.474   4.977   6.796
 4580TIP3   OH213680   5.572   5.131   6.028
 4580TIP3    H113681   5.629   5.191   6.076
 4580TIP3    H213682   5.538   5.182   5.955
 4581TIP3   OH213683   5.033   3.774   0.645
 4581TIP3    H113684   5.048   3.765   0.551
 4581TIP3    H213685   4.999   3.689   0.671
 4582TIP3   OH213686   0.224   1.533   0.103
 4582TIP3    H113687   0.228   1.446   0.144
 4582TIP3    H213688   0.231   1.516   0.009
 4583TIP3   OH213689   2.294   0.507   1.069
 4583TIP3    H113690   2.268   0.503   0.977
 4583TIP3    H213691   2.256   0.429   1.108
 4584TIP3   OH213692   1.684   2.784   0.350
 4584TIP3    H113693   1.746   2.847   0.387
 4584TIP3    H213694   1.627   2.761   0.423
 4585TIP3   OH213695   7.291   1.260   1.556
 4585TIP3    H113696   7.245   1.344   1.551
 4585TIP3    H213697   7.384   1.283   1.548
 4586TIP3   OH213698   1.110   4.785   2.964
 4586TIP3    H113699   1.200   4.774   2.935
 4586TIP3    H213700   1.066   4.704   2.937
 4587TIP3   OH213701   3.594   0.887   4.669
 4587TIP3    H113702   3.570   0.978   4.690
 4587TIP3    H213703   3.542   0.866   4.591
 4588TIP3   OH213704   7.883   7.198   0.844
 4588TIP3    H113705   7.944   7.124   0.842
 4588TIP3    H213706   7.808   7.168   0.792
 4589TIP3   OH213707   8.331   2.170   0.460
 4589TIP3    H113708   8.278   2.102   0.420
 4589TIP3    H213709   8.381   2.208   0.388
 4590TIP3   OH213710   4.800   5.585   0.348
 4590TIP3    H113711   4.732   5.558   0.285
 4590TIP3    H213712   4.756   5.581   0.433
 4591TIP3   OH213713   6.334   2.213   4.875
 4591TIP3    H113714   6.281   2.291   4.886
 4591TIP3    H213715   6.309   2.155   4.947
 4592TIP3   OH213716   8.305   7.843   2.836
 4592TIP3    H113717   8.373   7.883   2.890
 4592TIP3    H213718   8.352   7.800   2.765
 4593TIP3   OH213719   3.163   2.252   2.449
 4593TIP3    H113720   3.216   2.181   2.413
 4593TIP3    H213721   3.085   2.254   2.394
 4594TIP3   OH213722   5.303   3.327   0.996
 4594TIP3    H113723   5.313   3.384   0.919
 4594TIP3    H213724   5.315   3.386   1.071
 4595TIP3   OH213725   5.006   7.168   3.214
 4595TIP3    H113726   5.074   7.227   3.247
 4595TIP3    H213727   4.924   7.216   3.226
 4596TIP3   OH213728   2.338   5.299   6.349
 4596TIP3    H113729   2.305   5.215   6.316
 4596TIP3    H213730   2.341   5.289   6.444
 4597TIP3   OH213731   3.073   1.451   2.472
 4597TIP3    H113732   3.012   1.385   2.506
 4597TIP3    H213733   3.093   1.420   2.384
 4598TIP3   OH213734   5.694   4.246   4.355
 4598TIP3    H113735   5.613   4.235   4.404
 4598TIP3    H213736   5.738   4.161   4.362
 4599TIP3   OH213737   5.022   3.482   3.884
 4599TIP3    H113738   4.966   3.520   3.952
 4599TIP3    H213739   4.989   3.393   3.873
 4600TIP3   OH213740   3.411   2.802   3.632
 4600TIP3    H113741   3.405   2.738   3.702
 4600TIP3    H213742   3.413   2.887   3.676
 4601TIP3   OH213743   5.700   4.699   6.830
 4601TIP3    H113744   5.612   4.701   6.791
 4601TIP3    H213745   5.685   4.710   6.924
 4602TIP3   OH213746   2.093   6.972   3.833
 4602TIP3    H113747   2.086   7.067   3.836
 4602TIP3    H213748   2.007   6.941   3.862
 4603TIP3   OH213749   5.350   3.813   1.116
 4603TIP3    H113750   5.355   3.904   1.145
 4603TIP3    H213751   5.442   3.785   1.109
 4604TIP3   OH213752   4.250   0.427   5.636
 4604TIP3    H113753   4.337   0.399   5.607
 4604TIP3    H213754   4.222   0.360   5.698
 4605TIP3   OH213755   0.697   0.401   4.470
 4605TIP3    H113756   0.778   0.447   4.447
 4605TIP3    H213757   0.692   0.408   4.565
 4606TIP3   OH213758   4.979   0.804   6.419
 4606TIP3    H113759   4.995   0.879   6.362
 4606TIP3    H213760   4.945   0.736   6.360
 4607TIP3   OH213761   0.537   5.674   5.665
 4607TIP3    H113762   0.548   5.619   5.742
 4607TIP3    H213763   0.465   5.634   5.616
 4608TIP3   OH213764   2.056   4.683   1.540
 4608TIP3    H113765   2.140   4.726   1.529
 4608TIP3    H213766   2.012   4.734   1.609
 4609TIP3   OH213767   0.986   4.111   6.648
 4609TIP3    H113768   1.040   4.189   6.654
 4609TIP3    H213769   0.959   4.107   6.556
 4610TIP3   OH213770   4.773   0.241   6.482
 4610TIP3    H113771   4.859   0.247   6.441
 4610TIP3    H213772   4.785   0.180   6.555
 4611TIP3   OH213773   4.484   7.399   6.162
 4611TIP3    H113774   4.511   7.357   6.243
 4611TIP3    H213775   4.554   7.378   6.100
 4612TIP3   OH213776   6.543   7.831   0.112
 4612TIP3    H113777   6.476   7.879   0.063
 4612TIP3    H213778   6.625   7.872   0.086
 4613TIP3   OH213779   3.991   2.960   1.945
 4613TIP3    H113780   4.083   2.984   1.944
 4613TIP3    H213781   3.958   2.988   1.860
 4614TIP3   OH213782   4.897   3.351   2.017
 4614TIP3    H113783   4.983   3.326   1.984
 4614TIP3    H213784   4.862   3.409   1.949
 4615TIP3   OH213785   2.609   0.868   5.323
 4615TIP3    H113786   2.699   0.889   5.296
 4615TIP3    H213787   2.563   0.952   5.315
 4616TIP3   OH213788   3.708   7.056   4.047
 4616TIP3    H113789   3.803   7.064   4.050
 4616TIP3    H213790   3.678   7.092   4.130
 4617TIP3   OH213791   0.190   6.513   0.374
 4617TIP3    H113792   0.190   6.501   0.469
 4617TIP3    H213793   0.129   6.585   0.359
 4618TIP3   OH213794   1.855   2.380   3.829
 4618TIP3    H113795   1.776   2.433   3.822
 4618TIP3    H213796   1.837   2.321   3.902
 4619TIP3   OH213797   4.588   0.592   6.090
 4619TIP3    H113798   4.582   0.683   6.063
 4619TIP3    H213799   4.529   0.545   6.031
 4620TIP3   OH213800   7.297   2.956   2.590
 4620TIP3    H113801   7.363   2.914   2.646
 4620TIP3    H213802   7.225   2.978   2.649
 4621TIP3   OH213803   4.904   7.675   0.797
 4621TIP3    H113804   4.983   7.708   0.840
 4621TIP3    H213805   4.894   7.731   0.719
 4622TIP3   OH213806   3.439   6.510   4.228
 4622TIP3    H113807   3.490   6.584   4.261
 4622TIP3    H213808   3.454   6.509   4.134
 4623TIP3   OH213809   1.799   3.072   3.554
 4623TIP3    H113810   1.831   2.995   3.506
 4623TIP3    H213811   1.866   3.090   3.619
 4624TIP3   OH213812   3.687   7.379   5.007
 4624TIP3    H113813   3.765   7.403   5.056
 4624TIP3    H213814   3.713   7.388   4.915
 4625TIP3   OH213815   7.932   6.893   4.552
 4625TIP3    H113816   7.991   6.903   4.627
 4625TIP3    H213817   7.849   6.866   4.590
 4626TIP3   OH213818   6.486   3.272   1.667
 4626TIP3    H113819   6.524   3.345   1.619
 4626TIP3    H213820   6.422   3.234   1.607
 4627TIP3   OH213821   3.959   2.762   4.119
 4627TIP3    H113822   4.018   2.836   4.134
 4627TIP3    H213823   3.962   2.748   4.024
 4628TIP3   OH213824   2.709   0.329   3.763
 4628TIP3    H113825   2.725   0.390   3.835
 4628TIP3    H213826   2.776   0.262   3.774
 4629TIP3   OH213827   1.447   2.904   4.932
 4629TIP3    H113828   1.464   2.908   5.026
 4629TIP3    H213829   1.476   2.817   4.905
 4630TIP3   OH213830   5.380   5.209   3.583
 4630TIP3    H113831   5.465   5.202   3.540
 4630TIP3    H213832   5.338   5.124   3.568
 4631TIP3   OH213833   2.622   6.051   3.086
 4631TIP3    H113834   2.620   5.959   3.061
 4631TIP3    H213835   2.647   6.098   3.006
 4632TIP3   OH213836   5.960   4.052   5.920
 4632TIP3    H113837   5.942   4.014   5.834
 4632TIP3    H213838   5.920   4.139   5.917
 4633TIP3   OH213839   3.676   0.822   4.234
 4633TIP3    H113840   3.742   0.800   4.300
 4633TIP3    H213841   3.726   0.843   4.156
 4634TIP3   OH213842   6.082   2.071   0.336
 4634TIP3    H113843   6.152   2.107   0.281
 4634TIP3    H213844   6.097   2.109   0.422
 4635TIP3   OH213845   6.973   5.560   6.182
 4635TIP3    H113846   6.898   5.585   6.236
 4635TIP3    H213847   6.963   5.466   6.170
 4636TIP3   OH213848   4.980   2.863   0.124
 4636TIP3    H113849   4.995   2.784   0.176
 4636TIP3    H213850   5.068   2.891   0.097
 4637TIP3   OH213851   1.253   1.435   4.991
 4637TIP3    H113852   1.331   1.473   4.952
 4637TIP3    H213853   1.191   1.508   4.996
 4638TIP3   OH213854   7.606   0.897   4.525
 4638TIP3    H113855   7.523   0.921   4.485
 4638TIP3    H213856   7.584   0.876   4.615
 4639TIP3   OH213857   7.207   4.936   3.980
 4639TIP3    H113858   7.186   5.029   3.975
 4639TIP3    H213859   7.125   4.892   3.957
 4640TIP3   OH213860   7.660   7.870   5.057
 4640TIP3    H113861   7.571   7.836   5.055
 4640TIP3    H213862   7.676   7.891   5.149
 4641TIP3   OH213863   0.624   6.313   6.162
 4641TIP3    H113864   0.681   6.350   6.230
 4641TIP3    H213865   0.549   6.372   6.158
 4642TIP3   OH213866   4.211   4.956   4.621
 4642TIP3    H113867   4.224   4.862   4.636
 4642TIP3    H213868   4.296   4.995   4.638
 4643TIP3   OH213869   8.336   3.647   4.812
 4643TIP3    H113870   8.291   3.579   4.863
 4643TIP3    H213871   8.367   3.709   4.878
 4644TIP3   OH213872   7.619   0.802   5.788
 4644TIP3    H113873   7.634   0.884   5.742
 4644TIP3    H213874   7.695   0.791   5.845
 4645TIP3   OH213875   3.478   5.208   0.683
 4645TIP3    H113876   3.542   5.244   0.744
 4645TIP3    H213877   3.409   5.172   0.738
 4646TIP3   OH213878   5.589   4.760   1.409
 4646TIP3    H113879   5.600   4.697   1.480
 4646TIP3    H213880   5.588   4.707   1.329
 4647TIP3   OH213881   3.810   5.017   0.994
 4647TIP3    H113882   3.734   4.965   0.968
 4647TIP3    H213883   3.806   5.095   0.939
 4648TIP3   OH213884   5.113   1.978   4.418
 4648TIP3    H113885   5.149   1.928   4.344
 4648TIP3    H213886   5.109   1.915   4.490
 4649TIP3   OH213887   4.360   1.634   2.441
 4649TIP3    H113888   4.402   1.560   2.486
 4649TIP3    H213889   4.434   1.682   2.403
 4650TIP3   OH213890   4.447   5.704   5.348
 4650TIP3    H113891   4.532   5.740   5.325
 4650TIP3    H213892   4.450   5.693   5.443
 4651TIP3   OH213893   6.829   6.125   4.502
 4651TIP3    H113894   6.873   6.210   4.496
 4651TIP3    H213895   6.831   6.090   4.413
 4652TIP3   OH213896   1.367   0.414   6.319
 4652TIP3    H113897   1.346   0.502   6.290
 4652TIP3    H213898   1.427   0.426   6.392
 4653TIP3   OH213899   0.388   4.332   3.241
 4653TIP3    H113900   0.299   4.300   3.224
 4653TIP3    H213901   0.391   4.417   3.198
 4654TIP3   OH213902   4.481   2.952   2.247
 4654TIP3    H113903   4.530   2.924   2.170
 4654TIP3    H213904   4.423   3.021   2.215
 4655TIP3   OH213905   1.800   1.276   6.037
 4655TIP3    H113906   1.862   1.308   6.102
 4655TIP3    H213907   1.725   1.336   6.044
 4656TIP3   OH213908   2.170   0.169   6.115
 4656TIP3    H113909   2.126   0.245   6.152
 4656TIP3    H213910   2.237   0.205   6.057
 4657TIP3   OH213911   5.310   5.604   1.461
 4657TIP3    H113912   5.308   5.594   1.556
 4657TIP3    H213913   5.323   5.697   1.446
 4658TIP3   OH213914   1.064   1.357   5.545
 4658TIP3    H113915   1.151   1.379   5.578
 4658TIP3    H213916   1.074   1.271   5.504
 4659TIP3   OH213917   1.566   3.699   4.689
 4659TIP3    H113918   1.564   3.674   4.597
 4659TIP3    H213919   1.617   3.630   4.732
 4660TIP3   OH213920   3.911   6.427   6.637
 4660TIP3    H113921   3.878   6.477   6.712
 4660TIP3    H213922   3.996   6.393   6.666
 4661TIP3   OH213923   8.103   2.080   1.301
 4661TIP3    H113924   8.030   2.075   1.362
 4661TIP3    H213925   8.169   2.021   1.337
 4662TIP3   OH213926   4.353   0.503   4.392
 4662TIP3    H113927   4.352   0.436   4.459
 4662TIP3    H213928   4.394   0.579   4.434
 4663TIP3   OH213929   1.076   6.858   0.573
 4663TIP3    H113930   1.055   6.765   0.572
 4663TIP3    H213931   1.140   6.869   0.503
 4664TIP3   OH213932   5.814   0.340   0.785
 4664TIP3    H113933   5.881   0.395   0.828
 4664TIP3    H213934   5.797   0.384   0.702
 4665TIP3   OH213935   4.733   4.686   6.145
 4665TIP3    H113936   4.680   4.704   6.066
 4665TIP3    H213937   4.824   4.694   6.115
 4666TIP3   OH213938   0.009   2.943   3.707
 4666TIP3    H113939   0.088   2.962   3.757
 4666TIP3    H213940  -0.003   2.848   3.716
 4667TIP3   OH213941   4.783   5.801   3.359
 4667TIP3    H113942   4.844   5.733   3.329
 4667TIP3    H213943   4.733   5.759   3.429
 4668TIP3   OH213944   7.634   2.758   2.582
 4668TIP3    H113945   7.664   2.670   2.603
 4668TIP3    H213946   7.582   2.784   2.657
 4669TIP3   OH213947   4.660   1.164   5.436
 4669TIP3    H113948   4.748   1.161   5.473
 4669TIP3    H213949   4.659   1.244   5.384
 4670TIP3   OH213950   7.919   7.810   1.879
 4670TIP3    H113951   7.945   7.796   1.788
 4670TIP3    H213952   8.001   7.833   1.924
 4671TIP3   OH213953   7.206   6.258   0.029
 4671TIP3    H113954   7.268   6.261  -0.044
 4671TIP3    H213955   7.256   6.289   0.104
 4672TIP3   OH213956   4.838   6.522   2.366
 4672TIP3    H113957   4.806   6.436   2.340
 4672TIP3    H213958   4.761   6.567   2.401
 4673TIP3   OH213959   2.639   2.143   3.207
 4673TIP3    H113960   2.664   2.188   3.126
 4673TIP3    H213961   2.608   2.057   3.178
 4674TIP3   OH213962   6.735   6.039   1.534
 4674TIP3    H113963   6.649   6.079   1.547
 4674TIP3    H213964   6.718   5.967   1.473
 4675TIP3   OH213965   3.144   7.858   1.304
 4675TIP3    H113966   3.121   7.921   1.236
 4675TIP3    H213967   3.218   7.808   1.268
 4676TIP3   OH213968   3.044   4.293   2.300
 4676TIP3    H113969   3.045   4.383   2.269
 4676TIP3    H213970   3.044   4.300   2.396
 4677TIP3   OH213971   3.406   4.574   6.791
 4677TIP3    H113972   3.464   4.561   6.716
 4677TIP3    H213973   3.427   4.662   6.822
 4678TIP3   OH213974   6.511   0.067   5.113
 4678TIP3    H113975   6.519   0.066   5.209
 4678TIP3    H213976   6.422   0.097   5.097
 4679TIP3   OH213977   6.799   5.378   5.435
 4679TIP3    H113978   6.775   5.369   5.343
 4679TIP3    H213979   6.868   5.445   5.436
 4680TIP3   OH213980   7.043   1.824   3.654
 4680TIP3    H113981   6.976   1.799   3.717
 4680TIP3    H213982   7.081   1.904   3.689
 4681TIP3   OH213983   6.269   2.901   0.249
 4681TIP3    H113984   6.224   2.873   0.329
 4681TIP3    H213985   6.199   2.939   0.195
 4682TIP3   OH213986   0.299   0.157   3.473
 4682TIP3    H113987   0.363   0.167   3.543
 4682TIP3    H213988   0.337   0.092   3.414
 4683TIP3   OH213989   6.252   4.859   5.096
 4683TIP3    H113990   6.172   4.812   5.072
 4683TIP3    H213991   6.247   4.869   5.191
 4684TIP3   OH213992   1.285   7.569   2.823
 4684TIP3    H113993   1.342   7.526   2.888
 4684TIP3    H213994   1.203   7.584   2.869
 4685TIP3   OH213995   1.909   2.589   3.528
 4685TIP3    H113996   1.817   2.587   3.555
 4685TIP3    H213997   1.930   2.498   3.509
 4686TIP3   OH213998   4.060   1.197   6.021
 4686TIP3    H113999   3.973   1.193   6.060
 4686TIP3    H214000   4.120   1.194   6.095
 4687TIP3   OH214001   1.441   3.109   1.047
 4687TIP3    H114002   1.501   3.109   0.972
 4687TIP3    H214003   1.498   3.096   1.123
 4688TIP3   OH214004   2.431   6.509   5.161
 4688TIP3    H114005   2.443   6.595   5.122
 4688TIP3    H214006   2.336   6.495   5.161
 4689TIP3   OH214007   7.529   0.438   1.603
 4689TIP3    H114008   7.620   0.419   1.627
 4689TIP3    H214009   7.505   0.368   1.542
 4690TIP3   OH214010   2.514   1.791   4.377
 4690TIP3    H114011   2.443   1.743   4.335
 4690TIP3    H214012   2.577   1.808   4.307
 4691TIP3   OH214013   6.616   1.801   3.545
 4691TIP3    H114014   6.685   1.867   3.560
 4691TIP3    H214015   6.663   1.718   3.540
 4692TIP3   OH214016   7.950   5.968   6.113
 4692TIP3    H114017   7.873   5.940   6.164
 4692TIP3    H214018   7.917   5.977   6.024
 4693TIP3   OH214019   0.334   3.358   6.344
 4693TIP3    H114020   0.296   3.311   6.270
 4693TIP3    H214021   0.343   3.449   6.314
 4694TIP3   OH214022   3.306   5.066   3.111
 4694TIP3    H114023   3.247   5.050   3.038
 4694TIP3    H214024   3.276   5.149   3.148
 4695TIP3   OH214025   2.299   0.411   5.303
 4695TIP3    H114026   2.361   0.434   5.373
 4695TIP3    H214027   2.221   0.463   5.322
 4696TIP3   OH214028   0.629   6.155   4.942
 4696TIP3    H114029   0.647   6.133   4.851
 4696TIP3    H214030   0.550   6.208   4.939
 4697TIP3   OH214031   6.807   1.404   3.779
 4697TIP3    H114032   6.713   1.387   3.784
 4697TIP3    H214033   6.843   1.324   3.741
 4698TIP3   OH214034   0.132   6.078   3.423
 4698TIP3    H114035   0.188   6.132   3.368
 4698TIP3    H214036   0.066   6.138   3.456
 4699TIP3   OH214037   5.245   1.572   6.311
 4699TIP3    H114038   5.152   1.589   6.300
 4699TIP3    H214039   5.288   1.642   6.262
 4700TIP3   OH214040   1.241   6.927   5.043
 4700TIP3    H114041   1.155   6.889   5.026
 4700TIP3    H214042   1.255   6.989   4.971
 4701TIP3   OH214043   3.285   5.413   4.845
 4701TIP3    H114044   3.241   5.446   4.766
 4701TIP3    H214045   3.294   5.319   4.830
 4702TIP3   OH214046   2.469  -0.013   3.557
 4702TIP3    H114047   2.535   0.015   3.493
 4702TIP3    H214048   2.520  -0.057   3.626
 4703TIP3   OH214049   5.628   4.162   6.679
 4703TIP3    H114050   5.548   4.110   6.685
 4703TIP3    H214051   5.625   4.200   6.591
 4704TIP3   OH214052   1.052   2.478   5.625
 4704TIP3    H114053   1.124   2.515   5.574
 4704TIP3    H214054   1.054   2.384   5.605
 4705TIP3   OH214055   8.088   4.020   1.255
 4705TIP3    H114056   8.032   4.097   1.250
 4705TIP3    H214057   8.066   3.969   1.178
 4706TIP3   OH214058   0.477   2.895   3.356
 4706TIP3    H114059   0.449   2.879   3.266
 4706TIP3    H214060   0.455   2.815   3.403
 4707TIP3   OH214061   5.996   6.587   2.007
 4707TIP3    H114062   6.055   6.563   2.079
 4707TIP3    H214063   5.989   6.507   1.955
 4708TIP3   OH214064   6.433   7.368   1.698
 4708TIP3    H114065   6.462   7.351   1.608
 4708TIP3    H214066   6.512   7.398   1.743
 4709TIP3   OH214067   7.634   7.908   4.347
 4709TIP3    H114068   7.657   7.903   4.255
 4709TIP3    H214069   7.707   7.866   4.393
 4710TIP3   OH214070   6.619   4.505   0.558
 4710TIP3    H114071   6.648   4.414   0.568
 4710TIP3    H214072   6.647   4.548   0.638
 4711TIP3   OH214073   3.985   0.278   1.118
 4711TIP3    H114074   4.014   0.296   1.207
 4711TIP3    H214075   3.896   0.315   1.113
 4712TIP3   OH214076   0.043   1.758   5.355
 4712TIP3    H114077   0.089   1.698   5.297
 4712TIP3    H214078   0.040   1.713   5.440
 4713TIP3   OH214079   4.952   5.385   0.207
 4713TIP3    H114080   4.913   5.472   0.201
 4713TIP3    H214081   4.920   5.351   0.291
 4714TIP3   OH214082   2.650   1.951   2.811
 4714TIP3    H114083   2.676   1.979   2.898
 4714TIP3    H214084   2.679   2.021   2.753
 4715TIP3   OH214085   1.176   7.295   2.736
 4715TIP3    H114086   1.117   7.295   2.661
 4715TIP3    H214087   1.215   7.382   2.736
 4716TIP3   OH214088   2.847   5.824   5.787
 4716TIP3    H114089   2.808   5.900   5.830
 4716TIP3    H214090   2.812   5.748   5.835
 4717TIP3   OH214091   2.170   2.824   0.407
 4717TIP3    H114092   2.239   2.835   0.341
 4717TIP3    H214093   2.183   2.896   0.469
 4718TIP3   OH214094   1.814   3.733   4.407
 4718TIP3    H114095   1.737   3.678   4.391
 4718TIP3    H214096   1.806   3.804   4.343
 4719TIP3   OH214097   0.899   6.284   5.541
 4719TIP3    H114098   0.940   6.370   5.543
 4719TIP3    H214099   0.851   6.279   5.624
 4720TIP3   OH214100   1.063   4.395   2.426
 4720TIP3    H114101   1.045   4.411   2.333
 4720TIP3    H214102   1.028   4.308   2.442
 4721TIP3   OH214103   2.638   1.385   5.525
 4721TIP3    H114104   2.704   1.357   5.588
 4721TIP3    H214105   2.555   1.358   5.564
 4722TIP3   OH214106   1.406   1.929   5.371
 4722TIP3    H114107   1.443   2.008   5.411
 4722TIP3    H214108   1.473   1.863   5.384
 4723TIP3   OH214109   5.670   7.124   5.367
 4723TIP3    H114110   5.662   7.029   5.377
 4723TIP3    H214111   5.680   7.137   5.273
 4724TIP3   OH214112   4.155   2.011   4.862
 4724TIP3    H114113   4.226   1.958   4.824
 4724TIP3    H214114   4.176   2.101   4.835
 4725TIP3   OH214115   6.142   4.684   6.056
 4725TIP3    H114116   6.156   4.719   5.968
 4725TIP3    H214117   6.229   4.656   6.084
 4726TIP3   OH214118   3.262   6.126   2.096
 4726TIP3    H114119   3.219   6.163   2.173
 4726TIP3    H214120   3.199   6.062   2.062
 4727TIP3   OH214121   5.177   6.816   0.968
 4727TIP3    H114122   5.222   6.900   0.967
 4727TIP3    H214123   5.208   6.771   0.889
 4728TIP3   OH214124   6.480   0.377   1.974
 4728TIP3    H114125   6.428   0.363   2.053
 4728TIP3    H214126   6.441   0.318   1.909
 4729TIP3   OH214127   6.909   0.603   0.674
 4729TIP3    H114128   6.863   0.631   0.595
 4729TIP3    H214129   6.985   0.661   0.680
 4730TIP3   OH214130   3.380   4.475   3.512
 4730TIP3    H114131   3.303   4.425   3.536
 4730TIP3    H214132   3.454   4.424   3.547
 4731TIP3   OH214133   3.071   1.132   3.873
 4731TIP3    H114134   3.108   1.219   3.854
 4731TIP3    H214135   3.039   1.140   3.963
 4732TIP3   OH214136   5.704   6.409   1.273
 4732TIP3    H114137   5.665   6.485   1.317
 4732TIP3    H214138   5.660   6.405   1.189
 4733TIP3   OH214139   3.533   0.257   5.188
 4733TIP3    H114140   3.464   0.269   5.252
 4733TIP3    H214141   3.591   0.332   5.201
 4734TIP3   OH214142   0.286   2.898   2.169
 4734TIP3    H114143   0.296   2.940   2.083
 4734TIP3    H214144   0.235   2.819   2.150
 4735TIP3   OH214145   7.599   5.509   0.938
 4735TIP3    H114146   7.672   5.543   0.990
 4735TIP3    H214147   7.549   5.587   0.913
 4736TIP3   OH214148   4.680   5.297   6.536
 4736TIP3    H114149   4.650   5.283   6.446
 4736TIP3    H214150   4.608   5.265   6.590
 4737TIP3   OH214151   3.947   0.248   0.710
 4737TIP3    H114152   3.944   0.203   0.625
 4737TIP3    H214153   3.864   0.295   0.715
 4738TIP3   OH214154   3.799   5.623   2.846
 4738TIP3    H114155   3.715   5.594   2.883
 4738TIP3    H214156   3.804   5.715   2.869
 4739TIP3   OH214157   1.380   5.442   0.583
 4739TIP3    H114158   1.400   5.376   0.650
 4739TIP3    H214159   1.452   5.504   0.588
 4740TIP3   OH214160   1.441   3.982   2.075
 4740TIP3    H114161   1.424   3.939   1.991
 4740TIP3    H214162   1.481   3.914   2.129
 4741TIP3   OH214163   3.204   4.841   5.822
 4741TIP3    H114164   3.267   4.892   5.771
 4741TIP3    H214165   3.251   4.762   5.846
 4742TIP3   OH214166   4.797   6.585   6.435
 4742TIP3    H114167   4.780   6.678   6.418
 4742TIP3    H214168   4.804   6.545   6.348
 4743TIP3   OH214169   4.155   1.611   5.825
 4743TIP3    H114170   4.100   1.555   5.769
 4743TIP3    H214171   4.229   1.634   5.769
 4744TIP3   OH214172   2.015   1.948   0.463
 4744TIP3    H114173   1.937   1.999   0.485
 4744TIP3    H214174   2.088   2.007   0.483
 4745TIP3   OH214175   5.159   5.638   4.492
 4745TIP3    H114176   5.069   5.622   4.519
 4745TIP3    H214177   5.167   5.593   4.409
 4746TIP3   OH214178   6.719   6.930   1.907
 4746TIP3    H114179   6.722   6.958   1.816
 4746TIP3    H214180   6.765   6.998   1.955
 4747TIP3   OH214181   6.974   6.570   1.676
 4747TIP3    H114182   6.999   6.486   1.713
 4747TIP3    H214183   6.967   6.629   1.751
 4748TIP3   OH214184   2.865   6.113   2.130
 4748TIP3    H114185   2.934   6.062   2.088
 4748TIP3    H214186   2.788   6.055   2.127
 4749TIP3   OH214187   8.288   3.053   5.985
 4749TIP3    H114188   8.352   3.004   6.037
 4749TIP3    H214189   8.277   3.001   5.906
 4750TIP3   OH214190   7.032   4.295   2.362
 4750TIP3    H114191   7.031   4.236   2.437
 4750TIP3    H214192   6.973   4.366   2.387
 4751TIP3   OH214193   5.124   0.677   1.718
 4751TIP3    H114194   5.064   0.629   1.776
 4751TIP3    H214195   5.183   0.723   1.778
 4752TIP3   OH214196   5.210   2.963   6.085
 4752TIP3    H114197   5.293   2.930   6.117
 4752TIP3    H214198   5.146   2.934   6.150
 4753TIP3   OH214199   5.658   5.197   2.276
 4753TIP3    H114200   5.600   5.246   2.335
 4753TIP3    H214201   5.614   5.113   2.264
 4754TIP3   OH214202   3.800   0.762   5.719
 4754TIP3    H114203   3.863   0.701   5.758
 4754TIP3    H214204   3.839   0.788   5.636
 4755TIP3   OH214205   3.342   2.500   1.130
 4755TIP3    H114206   3.408   2.516   1.063
 4755TIP3    H214207   3.338   2.405   1.139
 4756TIP3   OH214208   2.268   5.440   1.228
 4756TIP3    H114209   2.245   5.401   1.144
 4756TIP3    H214210   2.358   5.412   1.244
 4757TIP3   OH214211   5.924   3.455   4.769
 4757TIP3    H114212   5.902   3.548   4.758
 4757TIP3    H214213   6.014   3.456   4.801
 4758TIP3   OH214214   8.128   5.897   5.201
 4758TIP3    H114215   8.155   5.920   5.290
 4758TIP3    H214216   8.097   5.980   5.163
 4759TIP3   OH214217   5.054   4.942   5.683
 4759TIP3    H114218   5.095   4.896   5.756
 4759TIP3    H214219   5.027   4.873   5.623
 4760TIP3   OH214220   4.651   0.101   0.490
 4760TIP3    H114221   4.614   0.016   0.468
 4760TIP3    H214222   4.578   0.162   0.484
 4761TIP3   OH214223   1.481   4.700   2.360
 4761TIP3    H114224   1.425   4.677   2.434
 4761TIP3    H214225   1.523   4.782   2.386
 4762TIP3   OH214226   2.015   6.907   4.468
 4762TIP3    H114227   1.943   6.846   4.486
 4762TIP3    H214228   1.972   6.991   4.451
 4763TIP3   OH214229   1.104   7.569   5.508
 4763TIP3    H114230   1.130   7.539   5.595
 4763TIP3    H214231   1.039   7.637   5.524
 4764TIP3   OH214232   5.130   6.183   3.432
 4764TIP3    H114233   5.185   6.180   3.353
 4764TIP3    H214234   5.111   6.091   3.450
 4765TIP3   OH214235   3.760   2.438   2.018
 4765TIP3    H114236   3.759   2.534   2.007
 4765TIP3    H214237   3.681   2.419   2.069
 4766TIP3   OH214238   4.448   7.796   1.729
 4766TIP3    H114239   4.489   7.766   1.649
 4766TIP3    H214240   4.359   7.760   1.726
 4767TIP3   OH214241   5.961   7.610   6.102
 4767TIP3    H114242   5.999   7.566   6.026
 4767TIP3    H214243   5.876   7.567   6.116
 4768TIP3   OH214244   0.479   6.854   6.143
 4768TIP3    H114245   0.564   6.858   6.188
 4768TIP3    H214246   0.416   6.882   6.209
 4769TIP3   OH214247   1.353   2.729   6.844
 4769TIP3    H114248   1.328   2.719   6.752
 4769TIP3    H214249   1.430   2.787   6.842
 4770TIP3   OH214250   4.131   2.676   4.570
 4770TIP3    H114251   4.078   2.755   4.580
 4770TIP3    H214252   4.198   2.683   4.638
 4771TIP3   OH214253   1.657   6.117   2.261
 4771TIP3    H114254   1.622   6.034   2.229
 4771TIP3    H214255   1.690   6.097   2.349
 4772TIP3   OH214256   5.231   1.099   3.977
 4772TIP3    H114257   5.230   1.037   4.050
 4772TIP3    H214258   5.323   1.125   3.970
 4773TIP3   OH214259   7.146   5.271   2.006
 4773TIP3    H114260   7.198   5.290   1.927
 4773TIP3    H214261   7.055   5.277   1.976
 4774TIP3   OH214262   7.667   7.317   3.233
 4774TIP3    H114263   7.750   7.279   3.264
 4774TIP3    H214264   7.659   7.399   3.281
 4775TIP3   OH214265   0.183   4.303   2.420
 4775TIP3    H114266   0.092   4.285   2.442
 4775TIP3    H214267   0.209   4.230   2.364
 4776TIP3   OH214268   8.253   7.514   0.600
 4776TIP3    H114269   8.332   7.468   0.629
 4776TIP3    H214270   8.208   7.452   0.544
 4777TIP3   OH214271   7.633   0.165   6.710
 4777TIP3    H114272   7.674   0.250   6.726
 4777TIP3    H214273   7.600   0.139   6.796
 4778TIP3   OH214274   1.060   3.740   3.703
 4778TIP3    H114275   0.967   3.738   3.679
 4778TIP3    H214276   1.083   3.648   3.716
 4779TIP3   OH214277   4.513   6.343   0.179
 4779TIP3    H114278   4.498   6.311   0.268
 4779TIP3    H214279   4.437   6.398   0.161
 4780TIP3   OH214280   7.211   4.518   2.573
 4780TIP3    H114281   7.269   4.582   2.531
 4780TIP3    H214282   7.123   4.546   2.548
 4781TIP3   OH214283   2.720   7.660   4.945
 4781TIP3    H114284   2.765   7.681   5.027
 4781TIP3    H214285   2.736   7.567   4.931
 4782TIP3   OH214286   0.365   3.595   2.531
 4782TIP3    H114287   0.439   3.655   2.541
 4782TIP3    H214288   0.371   3.566   2.440
 4783TIP3   OH214289   6.637   5.411   3.586
 4783TIP3    H114290   6.700   5.413   3.658
 4783TIP3    H214291   6.670   5.343   3.527
 4784TIP3   OH214292   2.105   2.357   1.990
 4784TIP3    H114293   2.154   2.313   1.921
 4784TIP3    H214294   2.034   2.401   1.945
 4785TIP3   OH214295   3.947   7.927   4.279
 4785TIP3    H114296   3.966   7.888   4.194
 4785TIP3    H214297   3.874   7.875   4.314
 4786TIP3   OH214298   3.026   7.526   0.842
 4786TIP3    H114299   3.062   7.558   0.925
 4786TIP3    H214300   2.935   7.555   0.842
 4787TIP3   OH214301   4.620   3.403   0.564
 4787TIP3    H114302   4.642   3.310   0.574
 4787TIP3    H214303   4.574   3.408   0.480
 4788TIP3   OH214304   4.408   4.216   5.975
 4788TIP3    H114305   4.461   4.294   5.962
 4788TIP3    H214306   4.461   4.160   6.031
 4789TIP3   OH214307   2.982   2.418   5.774
 4789TIP3    H114308   2.917   2.350   5.790
 4789TIP3    H214309   3.048   2.405   5.842
 4790TIP3   OH214310   7.365   6.571   6.292
 4790TIP3    H114311   7.309   6.603   6.362
 4790TIP3    H214312   7.360   6.475   6.300
 4791TIP3   OH214313   5.386   6.084   3.832
 4791TIP3    H114314   5.314   6.053   3.777
 4791TIP3    H214315   5.441   6.007   3.846
 4792TIP3   OH214316   6.481   5.424   5.355
 4792TIP3    H114317   6.524   5.362   5.296
 4792TIP3    H214318   6.499   5.510   5.317
 4793TIP3   OH214319   6.016   2.213   4.565
 4793TIP3    H114320   5.947   2.233   4.502
 4793TIP3    H214321   6.093   2.258   4.532
 4794TIP3   OH214322   2.931   2.772   0.076
 4794TIP3    H114323   2.994   2.757   0.006
 4794TIP3    H214324   2.893   2.686   0.093
 4795TIP3   OH214325   1.391   2.481   2.536
 4795TIP3    H114326   1.419   2.572   2.532
 4795TIP3    H214327   1.358   2.462   2.449
 4796TIP3   OH214328   7.536   0.052   1.699
 4796TIP3    H114329   7.588  -0.029   1.701
 4796TIP3    H214330   7.446   0.022   1.684
 4797TIP3   OH214331   1.414   6.198   5.525
 4797TIP3    H114332   1.328   6.164   5.547
 4797TIP3    H214333   1.470   6.174   5.599
 4798TIP3   OH214334   3.957   5.067   1.893
 4798TIP3    H114335   3.952   4.972   1.899
 4798TIP3    H214336   4.030   5.091   1.950
 4799TIP3   OH214337   3.942   6.274   0.410
 4799TIP3    H114338   3.933   6.361   0.371
 4799TIP3    H214339   3.865   6.265   0.467
 4800TIP3   OH214340   4.086   0.740   3.958
 4800TIP3    H114341   3.997   0.712   3.978
 4800TIP3    H214342   4.140   0.663   3.977
 4801TIP3   OH214343   4.679   5.520   4.457
 4801TIP3    H114344   4.691   5.460   4.384
 4801TIP3    H214345   4.657   5.604   4.415
 4802TIP3   OH214346   1.561   5.595   5.261
 4802TIP3    H114347   1.578   5.689   5.266
 4802TIP3    H214348   1.496   5.578   5.329
 4803TIP3   OH214349   4.486   2.765   6.389
 4803TIP3    H114350   4.474   2.692   6.328
 4803TIP3    H214351   4.434   2.741   6.466
 4804TIP3   OH214352   7.362   3.382   6.063
 4804TIP3    H114353   7.435   3.398   6.122
 4804TIP3    H214354   7.289   3.432   6.099
 4805TIP3   OH214355   0.483   6.367   5.217
 4805TIP3    H114356   0.467   6.273   5.217
 4805TIP3    H214357   0.560   6.378   5.274
 4806TIP3   OH214358   6.895   6.736   1.880
 4806TIP3    H114359   6.828   6.799   1.907
 4806TIP3    H214360   6.852   6.651   1.886
 4807TIP3   OH214361   7.038   2.176   0.844
 4807TIP3    H114362   7.006   2.150   0.758
 4807TIP3    H214363   7.043   2.271   0.841
 4808TIP3   OH214364   1.285   7.275   4.168
 4808TIP3    H114365   1.363   7.281   4.112
 4808TIP3    H214366   1.318   7.289   4.256
 4809TIP3   OH214367   1.523   0.431   4.339
 4809TIP3    H114368   1.492   0.521   4.328
 4809TIP3    H214369   1.448   0.376   4.315
 4810TIP3   OH214370   0.184   3.559   4.665
 4810TIP3    H114371   0.184   3.542   4.571
 4810TIP3    H214372   0.095   3.536   4.694
 4811TIP3   OH214373   6.469   2.955   5.092
 4811TIP3    H114374   6.444   2.874   5.047
 4811TIP3    H214375   6.403   2.965   5.161
 4812TIP3   OH214376   8.032   0.978   1.615
 4812TIP3    H114377   7.986   0.895   1.599
 4812TIP3    H214378   8.037   1.020   1.529
 4813TIP3   OH214379   2.853   3.201   3.058
 4813TIP3    H114380   2.770   3.166   3.023
 4813TIP3    H214381   2.849   3.181   3.152
 4814TIP3   OH214382   6.642   0.983   6.726
 4814TIP3    H114383   6.623   0.954   6.815
 4814TIP3    H214384   6.582   1.055   6.711
 4815TIP3   OH214385   6.886   4.807   5.357
 4815TIP3    H114386   6.955   4.741   5.363
 4815TIP3    H214387   6.822   4.780   5.424
 4816TIP3   OH214388   8.346   7.622   2.107
 4816TIP3    H114389   8.350   7.534   2.144
 4816TIP3    H214390   8.276   7.666   2.155
 4817TIP3   OH214391   0.610   1.841   2.898
 4817TIP3    H114392   0.699   1.850   2.932
 4817TIP3    H214393   0.561   1.801   2.970
 4818TIP3   OH214394   7.854   2.190   0.298
 4818TIP3    H114395   7.842   2.114   0.242
 4818TIP3    H214396   7.880   2.260   0.239
 4819TIP3   OH214397   8.357   0.155   2.706
 4819TIP3    H114398   8.394   0.068   2.720
 4819TIP3    H214399   8.431   0.215   2.717
 4820TIP3   OH214400   4.578   7.846   6.820
 4820TIP3    H114401   4.522   7.837   6.743
 4820TIP3    H214402   4.657   7.797   6.798
 4821TIP3   OH214403   5.981   2.121   6.320
 4821TIP3    H114404   5.912   2.162   6.372
 4821TIP3    H214405   5.939   2.099   6.237
 4822TIP3   OH214406   0.698   3.304   5.241
 4822TIP3    H114407   0.719   3.211   5.246
 4822TIP3    H214408   0.670   3.318   5.151
 4823TIP3   OH214409   7.619   7.635   3.161
 4823TIP3    H114410   7.572   7.564   3.117
 4823TIP3    H214411   7.640   7.599   3.248
 4824TIP3   OH214412   7.265   1.486   2.566
 4824TIP3    H114413   7.260   1.567   2.617
 4824TIP3    H214414   7.175   1.470   2.538
 4825TIP3   OH214415   3.433   2.804   3.344
 4825TIP3    H114416   3.437   2.822   3.438
 4825TIP3    H214417   3.373   2.870   3.309
 4826TIP3   OH214418   4.660   6.702   4.166
 4826TIP3    H114419   4.599   6.659   4.227
 4826TIP3    H214420   4.736   6.644   4.163
 4827TIP3   OH214421   3.213   7.299   0.883
 4827TIP3    H114422   3.138   7.348   0.847
 4827TIP3    H214423   3.205   7.310   0.978
 4828TIP3   OH214424   4.059   0.574   4.608
 4828TIP3    H114425   4.058   0.520   4.529
 4828TIP3    H214426   3.995   0.643   4.592
 4829TIP3   OH214427   2.571   0.232   6.330
 4829TIP3    H114428   2.509   0.305   6.338
 4829TIP3    H214429   2.644   0.268   6.281
 4830TIP3   OH214430   5.441   0.312   5.825
 4830TIP3    H114431   5.534   0.290   5.816
 4830TIP3    H214432   5.400   0.231   5.855
 4831TIP3   OH214433   0.228   1.365   3.833
 4831TIP3    H114434   0.316   1.339   3.863
 4831TIP3    H214435   0.170   1.336   3.902
 4832TIP3   OH214436   7.189   3.438   0.265
 4832TIP3    H114437   7.207   3.484   0.182
 4832TIP3    H214438   7.107   3.392   0.248
 4833TIP3   OH214439   8.221   0.264   1.132
 4833TIP3    H114440   8.143   0.256   1.078
 4833TIP3    H214441   8.293   0.266   1.068
 4834TIP3   OH214442   0.613   1.511   4.507
 4834TIP3    H114443   0.535   1.517   4.451
 4834TIP3    H214444   0.684   1.493   4.445
 4835TIP3   OH214445   7.878   2.492   0.346
 4835TIP3    H114446   7.915   2.540   0.420
 4835TIP3    H214447   7.836   2.415   0.386
 4836TIP3   OH214448   1.466   2.377   6.497
 4836TIP3    H114449   1.460   2.285   6.521
 4836TIP3    H214450   1.472   2.424   6.580
 4837TIP3   OH214451   3.636   4.587   6.066
 4837TIP3    H114452   3.556   4.554   6.106
 4837TIP3    H214453   3.607   4.639   5.991
 4838TIP3   OH214454   4.914   4.530   4.265
 4838TIP3    H114455   4.865   4.597   4.313
 4838TIP3    H214456   4.887   4.447   4.304
 4839TIP3   OH214457   0.053   0.253   5.077
 4839TIP3    H114458  -0.010   0.204   5.024
 4839TIP3    H214459   0.104   0.185   5.122
 4840TIP3   OH214460   7.023   2.826   0.240
 4840TIP3    H114461   6.945   2.856   0.286
 4840TIP3    H214462   6.992   2.753   0.186
 4841TIP3   OH214463   1.767   6.896   3.941
 4841TIP3    H114464   1.768   6.803   3.918
 4841TIP3    H214465   1.686   6.907   3.991
 4842TIP3   OH214466   5.204   7.062   0.072
 4842TIP3    H114467   5.270   7.052   0.140
 4842TIP3    H214468   5.254   7.060  -0.010
 4843TIP3   OH214469   0.487   4.175   5.406
 4843TIP3    H114470   0.471   4.081   5.417
 4843TIP3    H214471   0.470   4.191   5.313
 4844TIP3   OH214472   1.203   7.468   5.760
 4844TIP3    H114473   1.289   7.470   5.719
 4844TIP3    H214474   1.192   7.377   5.791
 4845TIP3   OH214475   3.762   4.126   3.673
 4845TIP3    H114476   3.720   4.184   3.610
 4845TIP3    H214477   3.734   4.038   3.646
 4846TIP3   OH214478   2.964   7.577   4.326
 4846TIP3    H114479   3.055   7.568   4.301
 4846TIP3    H214480   2.955   7.525   4.406
 4847TIP3   OH214481   1.872   5.946   1.340
 4847TIP3    H114482   1.892   5.931   1.247
 4847TIP3    H214483   1.958   5.951   1.382
 4848TIP3   OH214484   4.788   0.420   1.236
 4848TIP3    H114485   4.844   0.428   1.159
 4848TIP3    H214486   4.739   0.502   1.239
 4849TIP3   OH214487   4.283   0.726   0.990
 4849TIP3    H114488   4.291   0.655   1.054
 4849TIP3    H214489   4.364   0.721   0.938
 4850TIP3   OH214490   0.533   0.621   0.209
 4850TIP3    H114491   0.557   0.622   0.117
 4850TIP3    H214492   0.615   0.634   0.256
 4851TIP3   OH214493   5.090   4.824   6.270
 4851TIP3    H114494   5.109   4.917   6.265
 4851TIP3    H214495   5.172   4.781   6.246
 4852TIP3   OH214496   4.962   5.612   3.235
 4852TIP3    H114497   4.914   5.576   3.160
 4852TIP3    H214498   4.967   5.539   3.297
 4853TIP3   OH214499   0.037   3.290   4.270
 4853TIP3    H114500  -0.030   3.256   4.329
 4853TIP3    H214501   0.053   3.220   4.207
 4854TIP3   OH214502   2.701   4.558   0.402
 4854TIP3    H114503   2.750   4.639   0.420
 4854TIP3    H214504   2.738   4.526   0.320
 4855TIP3   OH214505   7.160   2.981   2.890
 4855TIP3    H114506   7.237   3.017   2.933
 4855TIP3    H214507   7.161   2.888   2.912
 4856TIP3   OH214508   5.211   0.849   4.470
 4856TIP3    H114509   5.252   0.794   4.537
 4856TIP3    H214510   5.127   0.876   4.509
 4857TIP3   OH214511   1.914   7.274   0.443
 4857TIP3    H114512   1.824   7.244   0.459
 4857TIP3    H214513   1.968   7.197   0.458
 4858TIP3   OH214514   6.943   5.581   3.982
 4858TIP3    H114515   6.914   5.519   4.049
 4858TIP3    H214516   7.039   5.581   3.989
 4859TIP3   OH214517   5.103   3.380   5.539
 4859TIP3    H114518   5.027   3.322   5.536
 4859TIP3    H214519   5.066   3.468   5.544
 4860TIP3   OH214520   7.663   7.861   4.084
 4860TIP3    H114521   7.598   7.896   4.023
 4860TIP3    H214522   7.621   7.784   4.121
 4861TIP3   OH214523   4.979   2.705   6.606
 4861TIP3    H114524   5.062   2.729   6.647
 4861TIP3    H214525   4.915   2.765   6.646
 4862TIP3   OH214526   5.955   3.131   1.500
 4862TIP3    H114527   5.940   3.040   1.477
 4862TIP3    H214528   5.871   3.162   1.533
 4863TIP3   OH214529   2.508   4.082   3.026
 4863TIP3    H114530   2.501   4.002   3.079
 4863TIP3    H214531   2.588   4.124   3.057
 4864TIP3   OH214532   0.136   7.382   5.607
 4864TIP3    H114533   0.118   7.467   5.647
 4864TIP3    H214534   0.227   7.363   5.630
 4865TIP3   OH214535   1.313   2.983   6.763
 4865TIP3    H114536   1.243   3.031   6.808
 4865TIP3    H214537   1.308   2.894   6.798
 4866TIP3   OH214538   6.637   6.427   2.798
 4866TIP3    H114539   6.629   6.435   2.703
 4866TIP3    H214540   6.603   6.340   2.818
 4867TIP3   OH214541   3.266   5.573   0.475
 4867TIP3    H114542   3.239   5.665   0.488
 4867TIP3    H214543   3.307   5.548   0.558
 4868TIP3   OH214544   0.049   6.538   4.821
 4868TIP3    H114545  -0.024   6.585   4.861
 4868TIP3    H214546   0.009   6.461   4.781
 4869TIP3   OH214547   4.473   3.815   4.245
 4869TIP3    H114548   4.521   3.870   4.183
 4869TIP3    H214549   4.531   3.740   4.261
 4870TIP3   OH214550   3.617   5.255   6.071
 4870TIP3    H114551   3.609   5.258   6.167
 4870TIP3    H214552   3.671   5.178   6.054
 4871TIP3   OH214553   3.912   5.759   3.890
 4871TIP3    H114554   3.830   5.721   3.923
 4871TIP3    H214555   3.981   5.702   3.924
 4872TIP3   OH214556   1.479   0.208   1.630
 4872TIP3    H114557   1.398   0.172   1.666
 4872TIP3    H214558   1.461   0.220   1.537
 4873TIP3   OH214559   0.068   5.954   6.170
 4873TIP3    H114560  -0.024   5.967   6.146
 4873TIP3    H214561   0.068   5.951   6.266
 4874TIP3   OH214562   3.403   0.876   1.439
 4874TIP3    H114563   3.476   0.828   1.399
 4874TIP3    H214564   3.425   0.880   1.532
 4875TIP3   OH214565   2.928   0.458   5.455
 4875TIP3    H114566   2.874   0.469   5.376
 4875TIP3    H214567   2.906   0.370   5.487
 4876TIP3   OH214568   4.487   3.113   3.948
 4876TIP3    H114569   4.494   3.190   4.004
 4876TIP3    H214570   4.433   3.141   3.874
 4877TIP3   OH214571   3.218   5.276   3.249
 4877TIP3    H114572   3.173   5.267   3.333
 4877TIP3    H214573   3.249   5.367   3.248
 4878TIP3   OH214574   2.149   2.265   1.197
 4878TIP3    H114575   2.150   2.221   1.283
 4878TIP3    H214576   2.233   2.311   1.193
 4879TIP3   OH214577   6.618   3.361   0.803
 4879TIP3    H114578   6.645   3.275   0.770
 4879TIP3    H214579   6.526   3.350   0.828
 4880TIP3   OH214580   0.248   0.865   2.650
 4880TIP3    H114581   0.222   0.957   2.654
 4880TIP3    H214582   0.274   0.852   2.558
 4881TIP3   OH214583   5.007   2.138   3.969
 4881TIP3    H114584   4.927   2.096   4.000
 4881TIP3    H214585   5.016   2.216   4.024
 4882TIP3   OH214586   4.955   3.136   6.277
 4882TIP3    H114587   4.949   3.224   6.240
 4882TIP3    H214588   4.957   3.150   6.372
 4883TIP3   OH214589   5.357   1.529   6.735
 4883TIP3    H114590   5.416   1.551   6.663
 4883TIP3    H214591   5.366   1.601   6.797
 4884TIP3   OH214592   1.715   1.851   5.686
 4884TIP3    H114593   1.774   1.780   5.660
 4884TIP3    H214594   1.742   1.873   5.775
 4885TIP3   OH214595   2.244   7.094   5.610
 4885TIP3    H114596   2.188   7.154   5.659
 4885TIP3    H214597   2.325   7.143   5.596
 4886TIP3   OH214598   5.688   2.179   3.007
 4886TIP3    H114599   5.712   2.158   3.097
 4886TIP3    H214600   5.597   2.208   3.012
 4887TIP3   OH214601   3.317   6.438   3.900
 4887TIP3    H114602   3.269   6.364   3.864
 4887TIP3    H214603   3.257   6.478   3.962
 4888TIP3   OH214604   6.566   6.872   0.366
 4888TIP3    H114605   6.625   6.873   0.442
 4888TIP3    H214606   6.511   6.950   0.377
 4889TIP3   OH214607   4.024   1.278   2.157
 4889TIP3    H114608   4.033   1.276   2.062
 4889TIP3    H214609   4.070   1.358   2.184
 4890TIP3   OH214610   3.761   2.015   1.972
 4890TIP3    H114611   3.727   2.069   1.900
 4890TIP3    H214612   3.791   2.078   2.037
 4891TIP3   OH214613   6.619   1.215   0.979
 4891TIP3    H114614   6.558   1.199   0.907
 4891TIP3    H214615   6.637   1.309   0.975
 4892TIP3   OH214616   0.902   3.347   6.394
 4892TIP3    H114617   0.807   3.346   6.380
 4892TIP3    H214618   0.926   3.440   6.392
 4893TIP3   OH214619   1.665   0.601   3.570
 4893TIP3    H114620   1.614   0.676   3.539
 4893TIP3    H214621   1.702   0.630   3.653
 4894TIP3   OH214622   5.459   0.583   5.963
 4894TIP3    H114623   5.420   0.589   6.051
 4894TIP3    H214624   5.405   0.518   5.918
 4895TIP3   OH214625   2.020   1.905   1.071
 4895TIP3    H114626   1.994   1.824   1.114
 4895TIP3    H214627   2.111   1.892   1.047
 4896TIP3   OH214628   4.729   6.901   6.823
 4896TIP3    H114629   4.787   6.958   6.873
 4896TIP3    H214630   4.755   6.914   6.732
 4897TIP3   OH214631   3.477   7.175   2.987
 4897TIP3    H114632   3.390   7.187   3.027
 4897TIP3    H214633   3.470   7.216   2.901
 4898TIP3   OH214634   3.302   5.052   2.757
 4898TIP3    H114635   3.242   5.120   2.727
 4898TIP3    H214636   3.379   5.100   2.788
 4899TIP3   OH214637   4.411   6.765   5.656
 4899TIP3    H114638   4.361   6.840   5.625
 4899TIP3    H214639   4.496   6.801   5.680
 4900TIP3   OH214640   6.991   7.924   6.233
 4900TIP3    H114641   6.934   7.933   6.310
 4900TIP3    H214642   6.967   7.840   6.196
 4901TIP3   OH214643   4.687   5.495   5.376
 4901TIP3    H114644   4.640   5.476   5.457
 4901TIP3    H214645   4.734   5.414   5.357
 4902TIP3   OH214646   8.265   5.879   5.787
 4902TIP3    H114647   8.295   5.838   5.868
 4902TIP3    H214648   8.177   5.843   5.773
 4903TIP3   OH214649   0.348   2.487   5.865
 4903TIP3    H114650   0.297   2.563   5.894
 4903TIP3    H214651   0.424   2.485   5.924
 4904TIP3   OH214652   4.460   2.969   4.682
 4904TIP3    H114653   4.529   2.930   4.628
 4904TIP3    H214654   4.452   2.910   4.756
 4905TIP3   OH214655   3.043   6.346   0.494
 4905TIP3    H114656   3.030   6.330   0.588
 4905TIP3    H214657   3.098   6.424   0.491
 4906TIP3   OH214658   6.548   5.178   2.328
 4906TIP3    H114659   6.601   5.257   2.323
 4906TIP3    H214660   6.587   5.118   2.264
 4907TIP3   OH214661   4.858   1.377   1.968
 4907TIP3    H114662   4.864   1.461   1.923
 4907TIP3    H214663   4.943   1.335   1.954
 4908TIP3   OH214664   5.984   1.787   2.962
 4908TIP3    H114665   5.921   1.716   2.963
 4908TIP3    H214666   6.060   1.753   3.010
 4909TIP3   OH214667   3.289   5.908   5.460
 4909TIP3    H114668   3.349   5.913   5.534
 4909TIP3    H214669   3.302   5.989   5.412
 4910TIP3   OH214670   3.156   7.509   3.593
 4910TIP3    H114671   3.251   7.507   3.598
 4910TIP3    H214672   3.136   7.505   3.499
 4911TIP3   OH214673   6.793   6.762   0.204
 4911TIP3    H114674   6.741   6.795   0.277
 4911TIP3    H214675   6.737   6.775   0.127
 4912TIP3   OH214676   6.788   2.591   0.507
 4912TIP3    H114677   6.816   2.681   0.525
 4912TIP3    H214678   6.694   2.598   0.488
 4913TIP3   OH214679   8.303   0.602   0.454
 4913TIP3    H114680   8.357   0.591   0.375
 4913TIP3    H214681   8.238   0.667   0.430
 4914TIP3   OH214682   1.565   0.786   1.787
 4914TIP3    H114683   1.511   0.820   1.859
 4914TIP3    H214684   1.577   0.861   1.729
 4915TIP3   OH214685   5.427   6.777   6.596
 4915TIP3    H114686   5.339   6.784   6.558
 4915TIP3    H214687   5.440   6.861   6.640
 4916TIP3   OH214688   4.009   3.410   3.050
 4916TIP3    H114689   3.969   3.482   3.001
 4916TIP3    H214690   4.092   3.446   3.081
 4917TIP3   OH214691   7.600   6.463   4.397
 4917TIP3    H114692   7.591   6.460   4.301
 4917TIP3    H214693   7.521   6.508   4.427
 4918TIP3   OH214694   0.912   5.723   0.091
 4918TIP3    H114695   0.839   5.781   0.114
 4918TIP3    H214696   0.990   5.775   0.111
 4919TIP3   OH214697   1.166   7.114   5.517
 4919TIP3    H114698   1.074   7.133   5.535
 4919TIP3    H214699   1.164   7.030   5.471
 4920TIP3   OH214700   2.388   6.596   6.489
 4920TIP3    H114701   2.469   6.614   6.536
 4920TIP3    H214702   2.397   6.644   6.407
 4921TIP3   OH214703   3.948   4.009   6.786
 4921TIP3    H114704   4.037   4.033   6.761
 4921TIP3    H214705   3.892   4.070   6.737
 4922TIP3   OH214706   2.447   1.113   2.167
 4922TIP3    H114707   2.506   1.056   2.117
 4922TIP3    H214708   2.472   1.201   2.141
 4923TIP3   OH214709   0.408   2.546   3.184
 4923TIP3    H114710   0.315   2.558   3.205
 4923TIP3    H214711   0.445   2.508   3.264
 4924TIP3   OH214712   2.649   1.799   3.357
 4924TIP3    H114713   2.657   1.713   3.398
 4924TIP3    H214714   2.582   1.788   3.290
 4925TIP3   OH214715   0.554   4.829   2.282
 4925TIP3    H114716   0.644   4.838   2.314
 4925TIP3    H214717   0.556   4.749   2.229
 4926TIP3   OH214718   5.164   0.683   4.951
 4926TIP3    H114719   5.122   0.600   4.972
 4926TIP3    H214720   5.118   0.748   5.004
 4927TIP3   OH214721   5.818   6.832   0.257
 4927TIP3    H114722   5.749   6.866   0.200
 4927TIP3    H214723   5.895   6.885   0.237
 4928TIP3   OH214724   1.643   4.802   1.794
 4928TIP3    H114725   1.671   4.810   1.885
 4928TIP3    H214726   1.689   4.872   1.749
 4929TIP3   OH214727   1.690   4.006   1.501
 4929TIP3    H114728   1.613   4.036   1.452
 4929TIP3    H214729   1.669   3.916   1.525
 4930TIP3   OH214730   0.662   4.686   5.637
 4930TIP3    H114731   0.655   4.647   5.725
 4930TIP3    H214732   0.573   4.686   5.603
 4931TIP3   OH214733   1.289   0.268   2.005
 4931TIP3    H114734   1.340   0.213   2.065
 4931TIP3    H214735   1.351   0.335   1.976
 4932TIP3   OH214736   5.791   4.775   0.571
 4932TIP3    H114737   5.812   4.868   0.564
 4932TIP3    H214738   5.876   4.731   0.570
 4933TIP3   OH214739   7.169   1.201   0.204
 4933TIP3    H114740   7.075   1.185   0.208
 4933TIP3    H214741   7.198   1.154   0.126
 4934TIP3   OH214742   3.652   2.296   3.201
 4934TIP3    H114743   3.566   2.254   3.206
 4934TIP3    H214744   3.633   2.386   3.178
 4935TIP3   OH214745   8.339   0.222   1.842
 4935TIP3    H114746   8.290   0.176   1.774
 4935TIP3    H214747   8.273   0.272   1.890
 4936TIP3   OH214748   8.398   0.920   6.366
 4936TIP3    H114749   8.364   0.932   6.278
 4936TIP3    H214750   8.321   0.907   6.421
 4937TIP3   OH214751   5.758   5.859   2.431
 4937TIP3    H114752   5.837   5.872   2.484
 4937TIP3    H214753   5.764   5.925   2.362
 4938TIP3   OH214754   6.314   0.844   0.170
 4938TIP3    H114755   6.336   0.889   0.252
 4938TIP3    H214756   6.397   0.841   0.121
 4939TIP3   OH214757   3.007   3.578   4.691
 4939TIP3    H114758   3.090   3.532   4.695
 4939TIP3    H214759   2.947   3.525   4.743
 4940TIP3   OH214760   4.716   1.649   3.845
 4940TIP3    H114761   4.692   1.721   3.787
 4940TIP3    H214762   4.648   1.583   3.830
 4941TIP3   OH214763   2.432   6.747   4.194
 4941TIP3    H114764   2.346   6.778   4.168
 4941TIP3    H214765   2.493   6.801   4.144
 4942TIP3   OH214766   6.360   5.714   1.588
 4942TIP3    H114767   6.352   5.783   1.654
 4942TIP3    H214768   6.414   5.647   1.630
 4943TIP3   OH214769   0.703   0.846   0.286
 4943TIP3    H114770   0.690   0.916   0.349
 4943TIP3    H214771   0.792   0.814   0.303
 4944TIP3   OH214772   0.459   5.803   1.424
 4944TIP3    H114773   0.477   5.883   1.376
 4944TIP3    H214774   0.407   5.831   1.499
 4945TIP3   OH214775   0.701   1.645   1.379
 4945TIP3    H114776   0.744   1.585   1.440
 4945TIP3    H214777   0.722   1.610   1.292
 4946TIP3   OH214778   2.163   4.989   1.815
 4946TIP3    H114779   2.198   4.915   1.864
 4946TIP3    H214780   2.174   4.965   1.723
 4947TIP3   OH214781   7.096   5.637   3.301
 4947TIP3    H114782   7.001   5.630   3.291
 4947TIP3    H214783   7.112   5.628   3.395
 4948TIP3   OH214784   7.966   5.125   4.577
 4948TIP3    H114785   8.028   5.163   4.515
 4948TIP3    H214786   7.902   5.194   4.594
 4949TIP3   OH214787   3.723   3.056   0.622
 4949TIP3    H114788   3.683   2.977   0.658
 4949TIP3    H214789   3.729   3.115   0.697
 4950TIP3   OH214790   7.833   3.964   2.680
 4950TIP3    H114791   7.760   3.913   2.646
 4950TIP3    H214792   7.799   4.053   2.688
 4951TIP3   OH214793   5.975   2.497   0.986
 4951TIP3    H114794   5.942   2.452   0.908
 4951TIP3    H214795   5.933   2.453   1.059
 4952TIP3   OH214796   1.547   4.181   1.881
 4952TIP3    H114797   1.548   4.125   1.959
 4952TIP3    H214798   1.506   4.262   1.911
 4953TIP3   OH214799   1.422   6.350   1.217
 4953TIP3    H114800   1.446   6.326   1.306
 4953TIP3    H214801   1.506   6.358   1.171
 4954TIP3   OH214802   3.445   4.533   3.026
 4954TIP3    H114803   3.501   4.455   3.029
 4954TIP3    H214804   3.476   4.582   2.950
 4955TIP3   OH214805   0.437   0.397   0.332
 4955TIP3    H114806   0.467   0.483   0.304
 4955TIP3    H214807   0.394   0.360   0.255
 4956TIP3   OH214808   4.511   0.216   1.432
 4956TIP3    H114809   4.451   0.264   1.375
 4956TIP3    H214810   4.453   0.176   1.498
 4957TIP3   OH214811   6.049   7.530   2.432
 4957TIP3    H114812   5.994   7.609   2.432
 4957TIP3    H214813   5.991   7.461   2.398
 4958TIP3   OH214814   4.476   0.726   4.508
 4958TIP3    H114815   4.452   0.786   4.579
 4958TIP3    H214816   4.550   0.769   4.465
 4959TIP3   OH214817   6.335   0.031   1.620
 4959TIP3    H114818   6.374  -0.045   1.664
 4959TIP3    H214819   6.261  -0.004   1.571
 4960TIP3   OH214820   6.000   5.284   5.100
 4960TIP3    H114821   6.089   5.303   5.129
 4960TIP3    H214822   5.944   5.312   5.172
 4961TIP3   OH214823   0.429   1.914   1.977
 4961TIP3    H114824   0.334   1.914   1.986
 4961TIP3    H214825   0.460   1.860   2.050
 4962TIP3   OH214826   5.840   6.859   1.069
 4962TIP3    H114827   5.773   6.925   1.088
 4962TIP3    H214828   5.923   6.904   1.081
 4963TIP3   OH214829   0.733   6.685   1.707
 4963TIP3    H114830   0.640   6.706   1.706
 4963TIP3    H214831   0.757   6.679   1.614
 4964TIP3   OH214832   8.264   2.317   2.719
 4964TIP3    H114833   8.180   2.311   2.674
 4964TIP3    H214834   8.310   2.236   2.695
 4965TIP3   OH214835   3.618   6.840   5.105
 4965TIP3    H114836   3.616   6.794   5.021
 4965TIP3    H214837   3.637   6.931   5.081
 4966TIP3   OH214838   5.447   0.161   3.186
 4966TIP3    H114839   5.500   0.220   3.240
 4966TIP3    H214840   5.420   0.214   3.112
 4967TIP3   OH214841   3.586   1.519   1.710
 4967TIP3    H114842   3.650   1.590   1.708
 4967TIP3    H214843   3.577   1.496   1.802
 4968TIP3   OH214844   4.773   2.231   5.660
 4968TIP3    H114845   4.826   2.255   5.584
 4968TIP3    H214846   4.715   2.306   5.674
 4969TIP3   OH214847   7.291   0.222   3.764
 4969TIP3    H114848   7.297   0.205   3.858
 4969TIP3    H214849   7.382   0.217   3.733
 4970TIP3   OH214850   5.910   6.805   3.808
 4970TIP3    H114851   5.934   6.879   3.863
 4970TIP3    H214852   5.822   6.781   3.838
 4971TIP3   OH214853   4.892   2.432   3.395
 4971TIP3    H114854   4.972   2.466   3.434
 4971TIP3    H214855   4.831   2.506   3.394
 4972TIP3   OH214856   6.897   4.632   1.537
 4972TIP3    H114857   6.918   4.691   1.609
 4972TIP3    H214858   6.806   4.606   1.554
 4973TIP3   OH214859   6.579   2.871   3.959
 4973TIP3    H114860   6.666   2.900   3.985
 4973TIP3    H214861   6.529   2.952   3.949
 4974TIP3   OH214862   5.860   5.184   2.103
 4974TIP3    H114863   5.800   5.194   2.176
 4974TIP3    H214864   5.803   5.185   2.025
 4975TIP3   OH214865   5.284   3.426   3.395
 4975TIP3    H114866   5.358   3.424   3.456
 4975TIP3    H214867   5.285   3.515   3.359
 4976TIP3   OH214868   6.302   0.153   2.557
 4976TIP3    H114869   6.324   0.103   2.478
 4976TIP3    H214870   6.300   0.244   2.528
 4977TIP3   OH214871   4.216   2.821   3.797
 4977TIP3    H114872   4.202   2.867   3.880
 4977TIP3    H214873   4.239   2.890   3.735
 4978TIP3   OH214874   1.343   4.793   5.841
 4978TIP3    H114875   1.361   4.866   5.782
 4978TIP3    H214876   1.357   4.829   5.929
 4979TIP3   OH214877   4.285   6.902   2.597
 4979TIP3    H114878   4.219   6.925   2.663
 4979TIP3    H214879   4.368   6.904   2.644
 4980TIP3   OH214880   6.204   0.614   2.073
 4980TIP3    H114881   6.278   0.665   2.041
 4980TIP3    H214882   6.127   0.662   2.042
 4981TIP3   OH214883   5.170   0.573   2.670
 4981TIP3    H114884   5.255   0.616   2.683
 4981TIP3    H214885   5.184   0.515   2.596
 4982TIP3   OH214886   3.197   6.795   1.892
 4982TIP3    H114887   3.151   6.775   1.973
 4982TIP3    H214888   3.263   6.860   1.917
 4983TIP3   OH214889   8.165   7.894   2.014
 4983TIP3    H114890   8.167   7.990   2.011
 4983TIP3    H214891   8.253   7.867   1.989
 4984TIP3   OH214892   1.165   4.450   1.852
 4984TIP3    H114893   1.110   4.415   1.782
 4984TIP3    H214894   1.122   4.532   1.878
 4985TIP3   OH214895   1.190   4.677   0.785
 4985TIP3    H114896   1.094   4.681   0.785
 4985TIP3    H214897   1.214   4.687   0.877
 4986TIP3   OH214898   6.612   0.606   3.029
 4986TIP3    H114899   6.699   0.643   3.044
 4986TIP3    H214900   6.598   0.546   3.103
 4987TIP3   OH214901   2.199   0.782   0.197
 4987TIP3    H114902   2.275   0.730   0.169
 4987TIP3    H214903   2.236   0.860   0.237
 4988TIP3   OH214904   4.237   6.242   5.817
 4988TIP3    H114905   4.152   6.265   5.779
 4988TIP3    H214906   4.292   6.319   5.802
 4989TIP3   OH214907   6.554   1.282   3.808
 4989TIP3    H114908   6.467   1.320   3.798
 4989TIP3    H214909   6.556   1.247   3.897
 4990TIP3   OH214910   0.855   5.365   2.144
 4990TIP3    H114911   0.879   5.304   2.074
 4990TIP3    H214912   0.796   5.428   2.102
 4991TIP3   OH214913   3.494   6.558   4.677
 4991TIP3    H114914   3.525   6.532   4.591
 4991TIP3    H214915   3.534   6.496   4.737
 4992TIP3   OH214916   7.265   2.080   0.121
 4992TIP3    H114917   7.254   2.173   0.141
 4992TIP3    H214918   7.276   2.077   0.026
 4993TIP3   OH214919   0.849   7.814   0.414
 4993TIP3    H114920   0.896   7.741   0.455
 4993TIP3    H214921   0.903   7.839   0.339
 4994TIP3   OH214922   5.336   5.886   1.398
 4994TIP3    H114923   5.421   5.881   1.443
 4994TIP3    H214924   5.357   5.882   1.305
 4995TIP3   OH214925   4.760   1.191   3.611
 4995TIP3    H114926   4.774   1.162   3.701
 4995TIP3    H214927   4.807   1.127   3.557
 4996TIP3   OH214928   4.264   2.745   4.343
 4996TIP3    H114929   4.222   2.829   4.360
 4996TIP3    H214930   4.241   2.690   4.418
 4997TIP3   OH214931   4.922   3.871   2.797
 4997TIP3    H114932   4.881   3.955   2.817
 4997TIP3    H214933   4.969   3.847   2.877
 4998TIP3   OH214934   3.608   3.844   5.924
 4998TIP3    H114935   3.681   3.832   5.863
 4998TIP3    H214936   3.604   3.763   5.974
 4999TIP3   OH214937   1.475   1.734   6.065
 4999TIP3    H114938   1.390   1.691   6.075
 4999TIP3    H214939   1.536   1.662   6.050
 5000TIP3   OH214940   0.990   6.700   2.780
 5000TIP3    H114941   1.031   6.619   2.809
 5000TIP3    H214942   1.056   6.768   2.795
 5001TIP3   OH214943   5.048   5.550   5.396
 5001TIP3    H114944   4.978   5.498   5.356
 5001TIP3    H214945   5.122   5.489   5.404
 5002TIP3   OH214946   4.538   5.473   3.650
 5002TIP3    H114947   4.526   5.447   3.559
 5002TIP3    H214948   4.633   5.485   3.659
 5003TIP3   OH214949   0.100   6.315   3.097
 5003TIP3    H114950   0.163   6.299   3.168
 5003TIP3    H214951   0.100   6.234   3.046
 5004TIP3   OH214952   2.506   7.541   1.613
 5004TIP3    H114953   2.560   7.464   1.597
 5004TIP3    H214954   2.424   7.506   1.648
 5005TIP3   OH214955   4.389   2.306   6.556
 5005TIP3    H114956   4.385   2.257   6.474
 5005TIP3    H214957   4.356   2.244   6.622
 5006TIP3   OH214958   1.998   4.695   6.607
 5006TIP3    H114959   2.051   4.739   6.540
 5006TIP3    H214960   2.043   4.715   6.689
 5007TIP3   OH214961   0.564   4.165   0.408
 5007TIP3    H114962   0.500   4.097   0.387
 5007TIP3    H214963   0.605   4.136   0.490
 5008TIP3   OH214964   2.358   4.429   5.532
 5008TIP3    H114965   2.394   4.380   5.458
 5008TIP3    H214966   2.434   4.446   5.589
 5009TIP3   OH214967   8.023   6.089   1.026
 5009TIP3    H114968   8.079   6.138   1.087
 5009TIP3    H214969   7.958   6.152   0.997
 5010TIP3   OH214970   7.013   3.163   3.287
 5010TIP3    H114971   6.983   3.084   3.242
 5010TIP3    H214972   6.950   3.230   3.260
 5011TIP3   OH214973   0.609   0.367   3.085
 5011TIP3    H114974   0.514   0.356   3.090
 5011TIP3    H214975   0.644   0.305   3.150
 5012TIP3   OH214976   6.303   1.384   0.710
 5012TIP3    H114977   6.251   1.436   0.649
 5012TIP3    H214978   6.377   1.440   0.733
 5013TIP3   OH214979   1.909   4.929   6.392
 5013TIP3    H114980   1.997   4.910   6.423
 5013TIP3    H214981   1.920   4.950   6.299
 5014TIP3   OH214982   6.190   6.666   1.717
 5014TIP3    H114983   6.098   6.653   1.738
 5014TIP3    H214984   6.190   6.738   1.653
 5015TIP3   OH214985   0.470   3.938   0.706
 5015TIP3    H114986   0.406   4.007   0.721
 5015TIP3    H214987   0.432   3.885   0.636
 5016TIP3   OH214988   0.755   1.059   5.528
 5016TIP3    H114989   0.817   0.997   5.490
 5016TIP3    H214990   0.679   1.005   5.552
 5017TIP3   OH214991   0.865   5.166   3.256
 5017TIP3    H114992   0.887   5.129   3.342
 5017TIP3    H214993   0.925   5.123   3.196
 5018TIP3   OH214994   5.983   4.324   5.444
 5018TIP3    H114995   6.021   4.267   5.511
 5018TIP3    H214996   6.046   4.323   5.372
 5019TIP3   OH214997   4.603   0.037   2.939
 5019TIP3    H114998   4.524   0.026   2.993
 5019TIP3    H214999   4.675   0.024   3.001
 5020TIP3   OH215000   5.316   2.434   3.312
 5020TIP3    H115001   5.258   2.509   3.300
 5020TIP3    H215002   5.257   2.361   3.329
 5021TIP3   OH215003   8.325   5.461   3.071
 5021TIP3    H115004   8.288   5.532   3.125
 5021TIP3    H215005   8.417   5.456   3.097
 5022TIP3   OH215006   3.978   1.131   0.973
 5022TIP3    H115007   4.035   1.059   0.946
 5022TIP3    H215008   3.925   1.095   1.043
 5023TIP3   OH215009   2.169   0.481   3.197
 5023TIP3    H115010   2.250   0.430   3.203
 5023TIP3    H215011   2.106   0.432   3.250
 5024TIP3   OH215012   4.250   1.498   4.691
 5024TIP3    H115013   4.307   1.469   4.620
 5024TIP3    H215014   4.227   1.588   4.667
 5025TIP3   OH215015   4.530   7.927   1.003
 5025TIP3    H115016   4.445   7.883   1.010
 5025TIP3    H215017   4.595   7.857   1.012
 5026TIP3   OH215018   2.900   0.764   2.844
 5026TIP3    H115019   2.859   0.696   2.897
 5026TIP3    H215020   2.845   0.771   2.766
 5027TIP3   OH215021   5.414   7.726   2.505
 5027TIP3    H115022   5.425   7.813   2.467
 5027TIP3    H215023   5.463   7.668   2.447
 5028TIP3   OH215024   6.152   5.725   2.867
 5028TIP3    H115025   6.167   5.699   2.776
 5028TIP3    H215026   6.153   5.642   2.916
 5029TIP3   OH215027   4.945   6.900   2.349
 5029TIP3    H115028   4.895   6.975   2.380
 5029TIP3    H215029   4.885   6.851   2.294
 5030TIP3   OH215030   0.966   3.592   1.212
 5030TIP3    H115031   0.930   3.567   1.297
 5030TIP3    H215032   1.030   3.524   1.192
 5031TIP3   OH215033   5.135   5.072   4.976
 5031TIP3    H115034   5.228   5.067   4.956
 5031TIP3    H215035   5.095   5.003   4.923
 5032TIP3   OH215036   4.009   5.651   3.558
 5032TIP3    H115037   4.005   5.620   3.467
 5032TIP3    H215038   3.957   5.587   3.607
 5033TIP3   OH215039   5.385   4.965   3.851
 5033TIP3    H115040   5.348   5.047   3.883
 5033TIP3    H215041   5.476   4.986   3.829
 5034TIP3   OH215042   2.086   6.201   0.401
 5034TIP3    H115043   2.141   6.133   0.440
 5034TIP3    H215044   2.115   6.205   0.309
 5035TIP3   OH215045   2.448   4.154   1.031
 5035TIP3    H115046   2.473   4.119   0.946
 5035TIP3    H215047   2.515   4.121   1.091
 5036TIP3   OH215048   0.423   5.392   3.465
 5036TIP3    H115049   0.491   5.335   3.430
 5036TIP3    H215050   0.455   5.481   3.448
 5037TIP3   OH215051   3.432   2.616   4.883
 5037TIP3    H115052   3.454   2.528   4.853
 5037TIP3    H215053   3.515   2.664   4.879
 5038TIP3   OH215054   7.677   3.159   0.541
 5038TIP3    H115055   7.651   3.251   0.548
 5038TIP3    H215056   7.768   3.162   0.511
 5039TIP3   OH215057   0.356   2.426   2.771
 5039TIP3    H115058   0.431   2.448   2.827
 5039TIP3    H215059   0.315   2.510   2.752
 5040TIP3   OH215060   6.930   3.500   4.048
 5040TIP3    H115061   6.956   3.409   4.064
 5040TIP3    H215062   6.835   3.495   4.037
 5041TIP3   OH215063   1.910   2.404   0.744
 5041TIP3    H115064   1.815   2.390   0.742
 5041TIP3    H215065   1.938   2.368   0.827
 5042TIP3   OH215066   3.789   1.219   1.906
 5042TIP3    H115067   3.815   1.127   1.901
 5042TIP3    H215068   3.867   1.267   1.880
 5043TIP3   OH215069   0.487   3.258   5.413
 5043TIP3    H115070   0.558   3.271   5.350
 5043TIP3    H215071   0.525   3.202   5.481
 5044TIP3   OH215072   2.797   4.778   2.013
 5044TIP3    H115073   2.851   4.789   2.091
 5044TIP3    H215074   2.708   4.801   2.041
 5045TIP3   OH215075   4.772   6.748   0.292
 5045TIP3    H115076   4.787   6.776   0.201
 5045TIP3    H215077   4.691   6.696   0.287
 5046TIP3   OH215078   4.113   4.255   3.634
 5046TIP3    H115079   4.169   4.325   3.668
 5046TIP3    H215080   4.130   4.181   3.691
 5047TIP3   OH215081   2.657   0.471   2.623
 5047TIP3    H115082   2.715   0.397   2.605
 5047TIP3    H215083   2.690   0.542   2.568
 5048TIP3   OH215084   6.313   7.871   5.282
 5048TIP3    H115085   6.340   7.892   5.372
 5048TIP3    H215086   6.312   7.776   5.279
 5049TIP3   OH215087   2.449   3.673   4.678
 5049TIP3    H115088   2.517   3.662   4.745
 5049TIP3    H215089   2.402   3.752   4.704
 5050TIP3   OH215090   4.951   6.207   1.461
 5050TIP3    H115091   5.040   6.189   1.490
 5050TIP3    H215092   4.942   6.302   1.469
 5051TIP3   OH215093   6.447   1.857   1.742
 5051TIP3    H115094   6.514   1.818   1.685
 5051TIP3    H215095   6.457   1.810   1.825
 5052TIP3   OH215096   0.820   6.000   4.024
 5052TIP3    H115097   0.761   5.973   3.954
 5052TIP3    H215098   0.881   5.926   4.033
 5053TIP3   OH215099  -0.029   2.432   6.103
 5053TIP3    H115100  -0.025   2.404   6.012
 5053TIP3    H215101   0.054   2.478   6.118
 5054TIP3   OH215102   2.609   3.328   5.964
 5054TIP3    H115103   2.576   3.339   6.053
 5054TIP3    H215104   2.628   3.234   5.958
 5055TIP3   OH215105   3.441   2.039   4.116
 5055TIP3    H115106   3.368   2.101   4.120
 5055TIP3    H215107   3.478   2.051   4.029
 5056TIP3   OH215108   0.577   6.586   3.215
 5056TIP3    H115109   0.670   6.566   3.228
 5056TIP3    H215110   0.564   6.670   3.259
 5057TIP3   OH215111   5.225   6.405   6.632
 5057TIP3    H115112   5.272   6.462   6.694
 5057TIP3    H215113   5.219   6.321   6.677
 5058TIP3   OH215114   7.607   0.729   5.451
 5058TIP3    H115115   7.692   0.774   5.448
 5058TIP3    H215116   7.614   0.672   5.528
 5059TIP3   OH215117   1.192   1.781   4.359
 5059TIP3    H115118   1.221   1.723   4.429
 5059TIP3    H215119   1.139   1.847   4.403
 5060TIP3   OH215120   0.220   0.099   1.377
 5060TIP3    H115121   0.267   0.164   1.431
 5060TIP3    H215122   0.290   0.048   1.335
 5061TIP3   OH215123   8.227   1.935   5.464
 5061TIP3    H115124   8.163   1.864   5.454
 5061TIP3    H215125   8.301   1.909   5.411
 5062TIP3   OH215126   2.498   7.199   6.460
 5062TIP3    H115127   2.582   7.166   6.430
 5062TIP3    H215128   2.498   7.292   6.436
 5063TIP3   OH215129   4.605   5.437   5.024
 5063TIP3    H115130   4.639   5.351   5.052
 5063TIP3    H215131   4.513   5.435   5.050
 5064TIP3   OH215132   1.660   6.198   2.727
 5064TIP3    H115133   1.610   6.219   2.805
 5064TIP3    H215134   1.666   6.280   2.679
 5065TIP3   OH215135   0.984   3.723   6.827
 5065TIP3    H115136   0.906   3.778   6.838
 5065TIP3    H215137   1.057   3.785   6.833
 5066TIP3   OH215138   2.653   1.530   4.514
 5066TIP3    H115139   2.725   1.557   4.456
 5066TIP3    H215140   2.603   1.610   4.530
 5067TIP3   OH215141   2.400   6.856   0.365
 5067TIP3    H115142   2.413   6.839   0.458
 5067TIP3    H215143   2.479   6.825   0.323
 5068TIP3   OH215144   6.794   0.580   6.881
 5068TIP3    H115145   6.773   0.578   6.788
 5068TIP3    H215146   6.764   0.667   6.910
 5069TIP3   OH215147   3.016   3.026   0.125
 5069TIP3    H115148   2.952   2.955   0.117
 5069TIP3    H215149   3.088   2.988   0.175
 5070TIP3   OH215150   2.740   4.219   3.121
 5070TIP3    H115151   2.818   4.211   3.177
 5070TIP3    H215152   2.739   4.310   3.094
 5071TIP3   OH215153   2.265   7.907   3.974
 5071TIP3    H115154   2.279   7.881   3.883
 5071TIP3    H215155   2.202   7.844   4.008
 5072TIP3   OH215156   6.134   4.225   5.661
 5072TIP3    H115157   6.222   4.249   5.688
 5072TIP3    H215158   6.082   4.229   5.742
 5073TIP3   OH215159   3.319   7.640   1.255
 5073TIP3    H115160   3.320   7.609   1.346
 5073TIP3    H215161   3.398   7.601   1.216
 5074TIP3   OH215162   0.742   2.492   0.186
 5074TIP3    H115163   0.758   2.423   0.250
 5074TIP3    H215164   0.735   2.447   0.102
 5075TIP3   OH215165   1.489   2.586   3.139
 5075TIP3    H115166   1.577   2.604   3.171
 5075TIP3    H215167   1.498   2.589   3.043
 5076TIP3   OH215168   1.731   2.455   0.434
 5076TIP3    H115169   1.697   2.458   0.345
 5076TIP3    H215170   1.676   2.516   0.483
 5077TIP3   OH215171   4.801   3.500   0.207
 5077TIP3    H115172   4.784   3.582   0.253
 5077TIP3    H215173   4.807   3.525   0.115
 5078TIP3   OH215174   4.625   2.615   4.533
 5078TIP3    H115175   4.675   2.696   4.542
 5078TIP3    H215176   4.622   2.598   4.439
 5079TIP3   OH215177   4.923   3.364   0.453
 5079TIP3    H115178   4.942   3.330   0.366
 5079TIP3    H215179   4.856   3.432   0.438
 5080TIP3   OH215180   2.816   7.569   1.762
 5080TIP3    H115181   2.742   7.515   1.790
 5080TIP3    H215182   2.775   7.648   1.724
 5081TIP3   OH215183   4.538   4.785   5.985
 5081TIP3    H115184   4.489   4.757   5.908
 5081TIP3    H215185   4.570   4.873   5.962
 5082TIP3   OH215186   2.207   1.602   1.281
 5082TIP3    H115187   2.202   1.595   1.186
 5082TIP3    H215188   2.294   1.567   1.303
 5083TIP3   OH215189   2.286   5.670   3.120
 5083TIP3    H115190   2.345   5.602   3.086
 5083TIP3    H215191   2.199   5.644   3.090
 5084TIP3   OH215192   7.014   6.828   0.003
 5084TIP3    H115193   7.024   6.891  -0.068
 5084TIP3    H215194   6.919   6.819   0.015
 5085TIP3   OH215195   3.159   1.103   4.813
 5085TIP3    H115196   3.126   1.016   4.836
 5085TIP3    H215197   3.222   1.087   4.742
 5086TIP3   OH215198   5.922   3.923   4.254
 5086TIP3    H115199   5.847   3.935   4.313
 5086TIP3    H215200   5.944   4.011   4.225
 5087TIP3   OH215201   4.677   3.678   5.609
 5087TIP3    H115202   4.620   3.603   5.589
 5087TIP3    H215203   4.675   3.730   5.529
 5088TIP3   OH215204   0.803   2.861   3.207
 5088TIP3    H115205   0.821   2.936   3.150
 5088TIP3    H215206   0.707   2.852   3.204
 5089TIP3   OH215207   7.164   0.693   1.333
 5089TIP3    H115208   7.145   0.656   1.246
 5089TIP3    H215209   7.259   0.700   1.336
 5090TIP3   OH215210   0.445   3.600   4.121
 5090TIP3    H115211   0.444   3.507   4.144
 5090TIP3    H215212   0.355   3.630   4.138
 5091TIP3   OH215213   1.840   0.214   0.101
 5091TIP3    H115214   1.930   0.242   0.082
 5091TIP3    H215215   1.816   0.158   0.026
 5092TIP3   OH215216   7.183   1.439   6.416
 5092TIP3    H115217   7.111   1.377   6.431
 5092TIP3    H215218   7.144   1.509   6.364
 5093TIP3   OH215219   7.270   0.503   6.167
 5093TIP3    H115220   7.258   0.570   6.235
 5093TIP3    H215221   7.297   0.425   6.215
 5094TIP3   OH215222   2.593   1.478   2.550
 5094TIP3    H115223   2.511   1.526   2.556
 5094TIP3    H215224   2.613   1.473   2.457
 5095TIP3   OH215225   2.773   0.278   4.360
 5095TIP3    H115226   2.762   0.289   4.266
 5095TIP3    H215227   2.700   0.327   4.398
 5096TIP3   OH215228   7.323   6.911   3.739
 5096TIP3    H115229   7.375   6.970   3.793
 5096TIP3    H215230   7.278   6.968   3.677
 5097TIP3   OH215231   0.942   0.816   2.576
 5097TIP3    H115232   0.863   0.848   2.620
 5097TIP3    H215233   1.014   0.856   2.626
 5098TIP3   OH215234   3.541   3.826   1.270
 5098TIP3    H115235   3.542   3.739   1.310
 5098TIP3    H215236   3.542   3.886   1.344
 5099TIP3   OH215237   6.605   2.985   5.459
 5099TIP3    H115238   6.584   2.896   5.430
 5099TIP3    H215239   6.699   2.993   5.445
 5100TIP3   OH215240   7.309   0.374   6.793
 5100TIP3    H115241   7.304   0.285   6.827
 5100TIP3    H215242   7.219   0.408   6.802
 5101TIP3   OH215243   0.783   3.644   2.763
 5101TIP3    H115244   0.726   3.662   2.688
 5101TIP3    H215245   0.862   3.696   2.745
 5102TIP3   OH215246   7.737   5.345   6.697
 5102TIP3    H115247   7.729   5.252   6.676
 5102TIP3    H215248   7.796   5.380   6.630
 5103TIP3   OH215249   3.555   1.643   0.071
 5103TIP3    H115250   3.620   1.573   0.058
 5103TIP3    H215251   3.607   1.723   0.077
 5104TIP3   OH215252   0.787   2.352   2.834
 5104TIP3    H115253   0.847   2.421   2.806
 5104TIP3    H215254   0.843   2.277   2.851
 5105TIP3   OH215255   5.123   1.070   4.845
 5105TIP3    H115256   5.040   1.102   4.878
 5105TIP3    H215257   5.102   1.028   4.762
 5106TIP3   OH215258   1.826   2.228   5.252
 5106TIP3    H115259   1.887   2.171   5.205
 5106TIP3    H215260   1.740   2.205   5.216
 5107TIP3   OH215261   5.461   0.476   2.484
 5107TIP3    H115262   5.366   0.467   2.478
 5107TIP3    H215263   5.480   0.469   2.577
 5108TIP3   OH215264   1.996   6.037   6.202
 5108TIP3    H115265   2.082   6.041   6.160
 5108TIP3    H215266   1.958   6.123   6.187
 5109TIP3   OH215267   4.159   3.255   5.608
 5109TIP3    H115268   4.148   3.287   5.698
 5109TIP3    H215269   4.247   3.217   5.607
 5110TIP3   OH215270   7.827   4.373   5.214
 5110TIP3    H115271   7.877   4.388   5.134
 5110TIP3    H215272   7.881   4.412   5.283
 5111TIP3   OH215273   3.197   0.417   0.613
 5111TIP3    H115274   3.224   0.422   0.522
 5111TIP3    H215275   3.107   0.450   0.613
 5112TIP3   OH215276   4.809   3.939   0.816
 5112TIP3    H115277   4.851   3.921   0.899
 5112TIP3    H215278   4.880   3.943   0.752
 5113TIP3   OH215279   1.504   0.414   6.042
 5113TIP3    H115280   1.563   0.358   6.094
 5113TIP3    H215281   1.433   0.436   6.102
 5114TIP3   OH215282   1.594   6.233   1.798
 5114TIP3    H115283   1.664   6.267   1.853
 5114TIP3    H215284   1.608   6.138   1.797
 5115TIP3   OH215285   1.623   3.644   1.349
 5115TIP3    H115286   1.599   3.721   1.298
 5115TIP3    H215287   1.570   3.573   1.312
 5116TIP3   OH215288   6.783   2.752   3.310
 5116TIP3    H115289   6.778   2.829   3.252
 5116TIP3    H215290   6.869   2.714   3.291
 5117TIP3   OH215291   2.524   7.859   1.324
 5117TIP3    H115292   2.528   7.764   1.335
 5117TIP3    H215293   2.500   7.892   1.410
 5118TIP3   OH215294   6.716   1.854   6.144
 5118TIP3    H115295   6.685   1.924   6.202
 5118TIP3    H215296   6.730   1.898   6.060
 5119TIP3   OH215297   2.265   6.589   3.523
 5119TIP3    H115298   2.229   6.678   3.524
 5119TIP3    H215299   2.321   6.585   3.601
 5120TIP3   OH215300   6.826   0.777   5.872
 5120TIP3    H115301   6.840   0.743   5.961
 5120TIP3    H215302   6.899   0.838   5.858
 5121TIP3   OH215303   4.922   5.844   4.482
 5121TIP3    H115304   4.853   5.909   4.496
 5121TIP3    H215305   4.965   5.835   4.567
 5122TIP3   OH215306   2.353   1.794   6.037
 5122TIP3    H115307   2.384   1.734   5.969
 5122TIP3    H215308   2.430   1.848   6.057
 5123TIP3   OH215309   0.685   1.661   5.773
 5123TIP3    H115310   0.687   1.756   5.761
 5123TIP3    H215311   0.738   1.627   5.702
 5124TIP3   OH215312   1.758   1.529   5.689
 5124TIP3    H115313   1.840   1.548   5.644
 5124TIP3    H215314   1.711   1.470   5.630
 5125TIP3   OH215315   3.226   4.061   0.114
 5125TIP3    H115316   3.300   4.090   0.168
 5125TIP3    H215317   3.218   3.967   0.133
 5126TIP3   OH215318   7.169   4.174   3.304
 5126TIP3    H115319   7.177   4.264   3.335
 5126TIP3    H215320   7.249   4.131   3.333
 5127TIP3   OH215321   2.558   7.315   5.865
 5127TIP3    H115322   2.568   7.231   5.910
 5127TIP3    H215323   2.558   7.380   5.936
 5128TIP3   OH215324   8.162   5.340   1.944
 5128TIP3    H115325   8.099   5.335   1.872
 5128TIP3    H215326   8.247   5.336   1.902
 5129TIP3   OH215327   5.791   6.902   2.436
 5129TIP3    H115328   5.766   6.862   2.519
 5129TIP3    H215329   5.817   6.991   2.459
 5130TIP3   OH215330   4.050   2.983   2.839
 5130TIP3    H115331   3.989   2.946   2.776
 5130TIP3    H215332   3.995   3.006   2.914
 5131TIP3   OH215333   5.185   7.732   0.332
 5131TIP3    H115334   5.267   7.722   0.285
 5131TIP3    H215335   5.198   7.810   0.387
 5132TIP3   OH215336   1.263   0.204   0.616
 5132TIP3    H115337   1.332   0.192   0.681
 5132TIP3    H215338   1.190   0.242   0.665
 5133TIP3   OH215339   2.661   7.406   6.771
 5133TIP3    H115340   2.749   7.427   6.802
 5133TIP3    H215341   2.609   7.397   6.850
 5134TIP3   OH215342   0.747   1.516   1.121
 5134TIP3    H115343   0.750   1.597   1.071
 5134TIP3    H215344   0.661   1.479   1.102
 5135TIP3   OH215345   2.352   2.515   6.471
 5135TIP3    H115346   2.394   2.601   6.481
 5135TIP3    H215347   2.265   2.535   6.436
 5136TIP3   OH215348   5.839   7.065   1.519
 5136TIP3    H115349   5.885   7.037   1.440
 5136TIP3    H215350   5.905   7.060   1.588
 5137TIP3   OH215351   5.534   3.863   3.627
 5137TIP3    H115352   5.469   3.798   3.600
 5137TIP3    H215353   5.549   3.846   3.720
 5138TIP3   OH215354   7.366   3.719   5.984
 5138TIP3    H115355   7.286   3.715   6.036
 5138TIP3    H215356   7.435   3.687   6.043
 5139TIP3   OH215357   7.888  -0.005   3.590
 5139TIP3    H115358   7.965  -0.032   3.639
 5139TIP3    H215359   7.896   0.091   3.584
 5140TIP3   OH215360   3.217   7.258   5.070
 5140TIP3    H115361   3.281   7.265   5.141
 5140TIP3    H215362   3.192   7.349   5.053
 5141TIP3   OH215363   0.531   6.793   5.207
 5141TIP3    H115364   0.465   6.724   5.218
 5141TIP3    H215365   0.612   6.746   5.186
 5142TIP3   OH215366   0.003   4.357   6.537
 5142TIP3    H115367   0.096   4.359   6.516
 5142TIP3    H215368  -0.020   4.449   6.554
 5143TIP3   OH215369   2.070   2.777   3.241
 5143TIP3    H115370   2.141   2.714   3.254
 5143TIP3    H215371   1.996   2.724   3.212
 5144TIP3   OH215372   1.837   5.531   0.269
 5144TIP3    H115373   1.871   5.458   0.216
 5144TIP3    H215374   1.896   5.604   0.249
 5145TIP3   OH215375   7.142   4.996   5.062
 5145TIP3    H115376   7.169   4.923   5.006
 5145TIP3    H215377   7.053   5.017   5.033
 5146TIP3   OH215378   1.651   7.518   2.723
 5146TIP3    H115379   1.649   7.423   2.713
 5146TIP3    H215380   1.641   7.531   2.817
 5147TIP3   OH215381   7.445   2.458   3.672
 5147TIP3    H115382   7.512   2.513   3.632
 5147TIP3    H215383   7.365   2.511   3.668
 5148TIP3   OH215384   0.057   6.518   1.950
 5148TIP3    H115385  -0.013   6.579   1.926
 5148TIP3    H215386   0.067   6.530   2.045
 5149TIP3   OH215387   7.601   2.908   1.337
 5149TIP3    H115388   7.516   2.947   1.317
 5149TIP3    H215389   7.590   2.815   1.319
 5150TIP3   OH215390  -0.010   6.096   5.194
 5150TIP3    H115391   0.075   6.077   5.234
 5150TIP3    H215392  -0.074   6.055   5.252
 5151TIP3   OH215393   4.604   6.068   6.184
 5151TIP3    H115394   4.695   6.098   6.191
 5151TIP3    H215395   4.585   6.031   6.270
 5152TIP3   OH215396   3.649   0.131   4.897
 5152TIP3    H115397   3.613   0.206   4.943
 5152TIP3    H215398   3.744   0.147   4.896
 5153TIP3   OH215399   4.941   3.898   3.111
 5153TIP3    H115400   5.013   3.835   3.109
 5153TIP3    H215401   4.872   3.859   3.058
 5154TIP3   OH215402   1.683   6.789   6.029
 5154TIP3    H115403   1.777   6.770   6.032
 5154TIP3    H215404   1.678   6.884   6.039
 5155TIP3   OH215405   3.074   0.139   4.381
 5155TIP3    H115406   3.104   0.052   4.405
 5155TIP3    H215407   3.090   0.145   4.287
 5156TIP3   OH215408   4.678   7.656   3.649
 5156TIP3    H115409   4.762   7.679   3.688
 5156TIP3    H215410   4.697   7.643   3.557
 5157TIP3   OH215411   4.544   7.375   0.470
 5157TIP3    H115412   4.572   7.410   0.385
 5157TIP3    H215413   4.511   7.451   0.518
 5158TIP3   OH215414   7.473   5.972   3.649
 5158TIP3    H115415   7.384   5.936   3.640
 5158TIP3    H215416   7.463   6.042   3.714
 5159TIP3   OH215417   2.972   2.396   4.648
 5159TIP3    H115418   2.921   2.423   4.725
 5159TIP3    H215419   3.040   2.462   4.640
 5160TIP3   OH215420   8.368   6.816   2.330
 5160TIP3    H115421   8.452   6.779   2.360
 5160TIP3    H215422   8.343   6.877   2.400
 5161TIP3   OH215423   0.070   0.495   6.249
 5161TIP3    H115424   0.009   0.547   6.301
 5161TIP3    H215425   0.119   0.444   6.314
 5162TIP3   OH215426   8.106   7.419   5.574
 5162TIP3    H115427   8.111   7.366   5.495
 5162TIP3    H215428   8.127   7.358   5.645
 5163TIP3   OH215429   1.351   4.623   4.842
 5163TIP3    H115430   1.376   4.541   4.885
 5163TIP3    H215431   1.367   4.606   4.749
 5164TIP3   OH215432   7.014   5.212   4.432
 5164TIP3    H115433   6.971   5.270   4.369
 5164TIP3    H215434   7.105   5.240   4.432
 5165TIP3   OH215435   7.336   6.862   4.231
 5165TIP3    H115436   7.316   6.771   4.208
 5165TIP3    H215437   7.252   6.907   4.227
 5166TIP3   OH215438   0.790   6.186   2.844
 5166TIP3    H115439   0.875   6.141   2.843
 5166TIP3    H215440   0.725   6.116   2.837
 5167TIP3   OH215441   3.955   3.860   1.360
 5167TIP3    H115442   4.032   3.804   1.349
 5167TIP3    H215443   3.990   3.946   1.381
 5168TIP3   OH215444   8.063   4.949   4.757
 5168TIP3    H115445   8.026   5.017   4.702
 5168TIP3    H215446   8.123   4.996   4.816
 5169TIP3   OH215447   1.470   7.677   0.315
 5169TIP3    H115448   1.459   7.590   0.278
 5169TIP3    H215449   1.558   7.676   0.354
 5170TIP3   OH215450   7.228   4.675   6.117
 5170TIP3    H115451   7.257   4.586   6.136
 5170TIP3    H215452   7.133   4.668   6.109
 5171TIP3   OH215453   7.527   4.931   1.608
 5171TIP3    H115454   7.554   4.843   1.583
 5171TIP3    H215455   7.590   4.989   1.564
 5172TIP3   OH215456   7.286   5.429   5.761
 5172TIP3    H115457   7.238   5.507   5.789
 5172TIP3    H215458   7.231   5.356   5.791
 5173TIP3   OH215459   0.145   6.959   3.914
 5173TIP3    H115460   0.110   7.029   3.859
 5173TIP3    H215461   0.175   6.893   3.852
 5174TIP3   OH215462   0.632   1.000   0.487
 5174TIP3    H115463   0.568   1.057   0.445
 5174TIP3    H215464   0.678   1.058   0.548
 5175TIP3   OH215465   0.869   2.837   5.316
 5175TIP3    H115466   0.789   2.785   5.322
 5175TIP3    H215467   0.897   2.828   5.225
 5176TIP3   OH215468   6.218   3.099   3.189
 5176TIP3    H115469   6.231   3.155   3.112
 5176TIP3    H215470   6.183   3.159   3.255
 5177TIP3   OH215471   8.310   4.903   6.735
 5177TIP3    H115472   8.375   4.833   6.747
 5177TIP3    H215473   8.226   4.859   6.742
 5178TIP3   OH215474   0.793   1.248   1.688
 5178TIP3    H115475   0.772   1.230   1.780
 5178TIP3    H215476   0.743   1.184   1.639
 5179TIP3   OH215477   5.296   4.383   0.270
 5179TIP3    H115478   5.331   4.472   0.276
 5179TIP3    H215479   5.201   4.394   0.275
 5180TIP3   OH215480   7.240   4.655   4.871
 5180TIP3    H115481   7.155   4.697   4.881
 5180TIP3    H215482   7.237   4.616   4.783
 5181TIP3   OH215483   1.954   0.161   6.498
 5181TIP3    H115484   1.972   0.144   6.591
 5181TIP3    H215485   2.020   0.226   6.473
 5182TIP3   OH215486   5.563   7.117   6.434
 5182TIP3    H115487   5.484   7.115   6.488
 5182TIP3    H215488   5.616   7.044   6.467
 5183TIP3   OH215489   1.300   3.882   6.021
 5183TIP3    H115490   1.267   3.891   5.932
 5183TIP3    H215491   1.260   3.955   6.069
 5184TIP3   OH215492   3.098   1.521   1.705
 5184TIP3    H115493   3.184   1.554   1.679
 5184TIP3    H215494   3.110   1.426   1.711
 5185TIP3   OH215495   7.277   2.459   1.578
 5185TIP3    H115496   7.292   2.371   1.613
 5185TIP3    H215497   7.348   2.472   1.515
 5186TIP3   OH215498   1.880   4.408   2.279
 5186TIP3    H115499   1.899   4.315   2.286
 5186TIP3    H215500   1.957   4.452   2.315
 5187TIP3   OH215501   4.106   4.841   3.346
 5187TIP3    H115502   4.135   4.900   3.415
 5187TIP3    H215503   4.186   4.812   3.303
 5188TIP3   OH215504   6.422   0.608   3.690
 5188TIP3    H115505   6.504   0.566   3.665
 5188TIP3    H215506   6.409   0.676   3.624
 5189TIP3   OH215507   5.419   6.160   2.406
 5189TIP3    H115508   5.460   6.247   2.404
 5189TIP3    H215509   5.488   6.100   2.378
 5190TIP3   OH215510   6.379   2.657   0.114
 5190TIP3    H115511   6.317   2.728   0.130
 5190TIP3    H215512   6.372   2.640   0.020
 5191TIP3   OH215513   7.923   0.728   3.551
 5191TIP3    H115514   7.836   0.721   3.591
 5191TIP3    H215515   7.931   0.650   3.496
 5192TIP3   OH215516   2.999   4.780   3.175
 5192TIP3    H115517   3.092   4.770   3.194
 5192TIP3    H215518   2.973   4.859   3.222
 5193TIP3   OH215519  -0.006   5.070   6.523
 5193TIP3    H115520   0.052   5.127   6.574
 5193TIP3    H215521  -0.041   5.008   6.587
 5194TIP3   OH215522   5.325   5.233   6.504
 5194TIP3    H115523   5.356   5.146   6.479
 5194TIP3    H215524   5.336   5.286   6.425
 5195TIP3   OH215525   5.561   1.726   6.818
 5195TIP3    H115526   5.578   1.790   6.888
 5195TIP3    H215527   5.604   1.763   6.741
 5196TIP3   OH215528   0.990   2.432   2.205
 5196TIP3    H115529   0.929   2.367   2.239
 5196TIP3    H215530   0.953   2.516   2.233
 5197TIP3   OH215531   3.508   5.681   5.882
 5197TIP3    H115532   3.479   5.610   5.940
 5197TIP3    H215533   3.462   5.664   5.799
 5198TIP3   OH215534   3.908   4.228   1.494
 5198TIP3    H115535   3.818   4.253   1.472
 5198TIP3    H215536   3.931   4.285   1.568
 5199TIP3   OH215537   6.895   7.083   0.397
 5199TIP3    H115538   6.932   7.167   0.372
 5199TIP3    H215539   6.822   7.069   0.337
 5200TIP3   OH215540   4.067   3.836   2.382
 5200TIP3    H115541   4.041   3.926   2.364
 5200TIP3    H215542   4.159   3.831   2.356
 5201TIP3   OH215543   0.926   4.376   1.726
 5201TIP3    H115544   0.860   4.336   1.782
 5201TIP3    H215545   0.875   4.416   1.655
 5202TIP3   OH215546   6.310   2.092   3.477
 5202TIP3    H115547   6.346   2.008   3.448
 5202TIP3    H215548   6.344   2.155   3.415
 5203TIP3   OH215549   2.474   6.764   5.099
 5203TIP3    H115550   2.424   6.839   5.130
 5203TIP3    H215551   2.494   6.784   5.007
 5204TIP3   OH215552   7.435   2.133   0.992
 5204TIP3    H115553   7.521   2.156   0.955
 5204TIP3    H215554   7.416   2.203   1.054
 5205TIP3   OH215555   6.442   5.143   1.311
 5205TIP3    H115556   6.525   5.162   1.269
 5205TIP3    H215557   6.376   5.176   1.251
 5206TIP3   OH215558   5.557   0.170   0.663
 5206TIP3    H115559   5.513   0.091   0.694
 5206TIP3    H215560   5.651   0.151   0.673
 5207TIP3   OH215561   5.612   4.877   6.169
 5207TIP3    H115562   5.612   4.949   6.106
 5207TIP3    H215563   5.650   4.803   6.121
 5208TIP3   OH215564   0.760   5.218   4.052
 5208TIP3    H115565   0.826   5.286   4.043
 5208TIP3    H215566   0.764   5.193   4.145
 5209TIP3   OH215567   6.833   1.730   0.951
 5209TIP3    H115568   6.762   1.793   0.964
 5209TIP3    H215569   6.848   1.692   1.037
 5210TIP3   OH215570   1.404   1.789   1.796
 5210TIP3    H115571   1.480   1.841   1.771
 5210TIP3    H215572   1.441   1.705   1.823
 5211TIP3   OH215573   7.376   5.973   5.068
 5211TIP3    H115574   7.284   5.988   5.088
 5211TIP3    H215575   7.424   6.016   5.139
 5212TIP3   OH215576   3.857   6.561   5.681
 5212TIP3    H115577   3.939   6.541   5.636
 5212TIP3    H215578   3.791   6.561   5.611
 5213TIP3   OH215579   4.297   7.495   6.585
 5213TIP3    H115580   4.254   7.497   6.500
 5213TIP3    H215581   4.237   7.447   6.642
 5214TIP3   OH215582   0.386   0.707   3.762
 5214TIP3    H115583   0.459   0.646   3.773
 5214TIP3    H215584   0.325   0.685   3.832
 5215TIP3   OH215585   8.084   5.916   6.574
 5215TIP3    H115586   8.149   5.847   6.568
 5215TIP3    H215587   8.133   5.997   6.557
 5216TIP3   OH215588   3.931   1.360   3.308
 5216TIP3    H115589   4.012   1.407   3.328
 5216TIP3    H215590   3.904   1.395   3.223
 5217TIP3   OH215591   3.419   1.025   0.509
 5217TIP3    H115592   3.480   0.952   0.513
 5217TIP3    H215593   3.418   1.051   0.417
 5218TIP3   OH215594   5.053   5.157   2.360
 5218TIP3    H115595   5.085   5.175   2.448
 5218TIP3    H215596   4.958   5.156   2.368
 5219TIP3   OH215597   2.375   0.719   2.721
 5219TIP3    H115598   2.332   0.790   2.672
 5219TIP3    H215599   2.461   0.711   2.680
 5220TIP3   OH215600   6.798   1.010   3.600
 5220TIP3    H115601   6.728   1.075   3.596
 5220TIP3    H215602   6.800   0.983   3.692
 5221TIP3   OH215603   0.023   7.360   4.926
 5221TIP3    H115604   0.116   7.343   4.939
 5221TIP3    H215605   0.003   7.431   4.987
 5222TIP3   OH215606   2.579   6.423   0.559
 5222TIP3    H115607   2.668   6.430   0.524
 5222TIP3    H215608   2.522   6.438   0.484
 5223TIP3   OH215609   7.290   2.120   3.586
 5223TIP3    H115610   7.329   2.078   3.510
 5223TIP3    H215611   7.223   2.178   3.551
 5224TIP3   OH215612   1.511   0.650   5.312
 5224TIP3    H115613   1.547   0.587   5.373
 5224TIP3    H215614   1.428   0.677   5.352
 5225TIP3   OH215615   7.655   7.531   3.420
 5225TIP3    H115616   7.671   7.616   3.461
 5225TIP3    H215617   7.626   7.475   3.493
 5226TIP3   OH215618   4.087   4.528   1.918
 5226TIP3    H115619   4.137   4.514   1.998
 5226TIP3    H215620   4.094   4.623   1.902
 5227TIP3   OH215621   3.849   6.139   1.452
 5227TIP3    H115622   3.915   6.110   1.514
 5227TIP3    H215623   3.898   6.168   1.375
 5228TIP3   OH215624   2.752   5.985   6.476
 5228TIP3    H115625   2.780   6.067   6.517
 5228TIP3    H215626   2.707   5.938   6.546
 5229TIP3   OH215627   7.168   2.673   3.247
 5229TIP3    H115628   7.146   2.688   3.155
 5229TIP3    H215629   7.228   2.599   3.246
 5230TIP3   OH215630   6.293   0.236   3.335
 5230TIP3    H115631   6.205   0.271   3.344
 5230TIP3    H215632   6.337   0.263   3.416
 5231TIP3   OH215633   0.918   7.721   0.071
 5231TIP3    H115634   0.921   7.715  -0.025
 5231TIP3    H215635   0.951   7.808   0.090
 5232TIP3   OH215636   2.207   1.953   6.311
 5232TIP3    H115637   2.146   2.026   6.320
 5232TIP3    H215638   2.249   1.946   6.397
 5233TIP3   OH215639   2.489   6.929   3.578
 5233TIP3    H115640   2.542   6.851   3.592
 5233TIP3    H215641   2.544   6.986   3.524
 5234TIP3   OH215642   2.672   3.661   3.297
 5234TIP3    H115643   2.618   3.682   3.373
 5234TIP3    H215644   2.752   3.712   3.309
 5235TIP3   OH215645   3.291   2.303   5.557
 5235TIP3    H115646   3.326   2.281   5.470
 5235TIP3    H215647   3.322   2.392   5.573
 5236TIP3   OH215648   3.512   4.253   3.011
 5236TIP3    H115649   3.445   4.184   3.010
 5236TIP3    H215650   3.535   4.265   2.919
 5237TIP3   OH215651   3.539   6.798   0.742
 5237TIP3    H115652   3.471   6.858   0.772
 5237TIP3    H215653   3.586   6.846   0.674
 5238TIP3   OH215654   2.234   0.303   3.457
 5238TIP3    H115655   2.171   0.245   3.499
 5238TIP3    H215656   2.295   0.327   3.527
 5239TIP3   OH215657   6.810   2.715   0.859
 5239TIP3    H115658   6.767   2.630   0.863
 5239TIP3    H215659   6.744   2.777   0.892
 5240TIP3   OH215660   3.324   4.748   4.216
 5240TIP3    H115661   3.394   4.714   4.272
 5240TIP3    H215662   3.275   4.671   4.188
 5241TIP3   OH215663   4.794   1.579   3.224
 5241TIP3    H115664   4.817   1.646   3.160
 5241TIP3    H215665   4.808   1.496   3.177
 5242TIP3   OH215666   2.581   2.999   4.628
 5242TIP3    H115667   2.551   3.032   4.544
 5242TIP3    H215668   2.667   3.038   4.640
 5243TIP3   OH215669   3.667   1.890   1.346
 5243TIP3    H115670   3.735   1.931   1.400
 5243TIP3    H215671   3.659   1.948   1.270
 5244TIP3   OH215672   1.107   7.795   3.816
 5244TIP3    H115673   1.202   7.796   3.814
 5244TIP3    H215674   1.080   7.779   3.726
 5245TIP3   OH215675   7.800   7.112   1.595
 5245TIP3    H115676   7.822   7.080   1.507
 5245TIP3    H215677   7.748   7.191   1.579
 5246TIP3   OH215678   7.476   4.623   3.214
 5246TIP3    H115679   7.419   4.606   3.139
 5246TIP3    H215680   7.559   4.582   3.191
 5247TIP3   OH215681   6.104   6.800   1.470
 5247TIP3    H115682   6.042   6.746   1.419
 5247TIP3    H215683   6.048   6.852   1.528
 5248TIP3   OH215684   0.559   5.481   3.830
 5248TIP3    H115685   0.565   5.529   3.747
 5248TIP3    H215686   0.472   5.441   3.829
 5249TIP3   OH215687   7.243   3.256   0.486
 5249TIP3    H115688   7.239   3.352   0.480
 5249TIP3    H215689   7.219   3.236   0.576
 5250TIP3   OH215690   4.831   6.372   0.652
 5250TIP3    H115691   4.800   6.424   0.578
 5250TIP3    H215692   4.916   6.411   0.674
 5251TIP3   OH215693   0.165   0.726   5.085
 5251TIP3    H115694   0.070   0.719   5.096
 5251TIP3    H215695   0.177   0.806   5.034
 5252TIP3   OH215696   5.997   0.117   1.735
 5252TIP3    H115697   6.052   0.092   1.809
 5252TIP3    H215698   5.908   0.119   1.771
 5253TIP3   OH215699   0.454   0.997   6.551
 5253TIP3    H115700   0.526   0.959   6.600
 5253TIP3    H215701   0.480   0.991   6.459
 5254TIP3   OH215702   6.453   3.582   6.668
 5254TIP3    H115703   6.548   3.568   6.673
 5254TIP3    H215704   6.444   3.670   6.631
 5255TIP3   OH215705   6.840   5.610   5.879
 5255TIP3    H115706   6.763   5.598   5.935
 5255TIP3    H215707   6.875   5.522   5.867
 5256TIP3   OH215708   5.206   7.244   5.294
 5256TIP3    H115709   5.131   7.238   5.235
 5256TIP3    H215710   5.282   7.237   5.237
 5257TIP3   OH215711   3.174   2.416   5.987
 5257TIP3    H115712   3.255   2.373   5.961
 5257TIP3    H215713   3.201   2.504   6.014
 5258TIP3   OH215714   3.919   7.192   4.840
 5258TIP3    H115715   3.949   7.159   4.925
 5258TIP3    H215716   3.947   7.125   4.777
 5259TIP3   OH215717   5.884   2.873   1.397
 5259TIP3    H115718   5.896   2.821   1.477
 5259TIP3    H215719   5.851   2.811   1.333
 5260TIP3   OH215720   2.607   4.440   4.828
 5260TIP3    H115721   2.534   4.498   4.805
 5260TIP3    H215722   2.592   4.361   4.776
 5261TIP3   OH215723   0.495   0.359   1.793
 5261TIP3    H115724   0.463   0.302   1.863
 5261TIP3    H215725   0.580   0.389   1.823
 5262TIP3   OH215726   5.405   5.026   6.348
 5262TIP3    H115727   5.328   5.041   6.292
 5262TIP3    H215728   5.472   4.996   6.287
 5263TIP3   OH215729   5.622   3.277   1.066
 5263TIP3    H115730   5.714   3.281   1.094
 5263TIP3    H215731   5.626   3.252   0.974
 5264TIP3   OH215732   7.889   2.747   3.191
 5264TIP3    H115733   7.975   2.788   3.197
 5264TIP3    H215734   7.846   2.794   3.120
 5265TIP3   OH215735   4.768   7.137   4.217
 5265TIP3    H115736   4.768   7.043   4.237
 5265TIP3    H215737   4.694   7.172   4.266
 5266TIP3   OH215738   0.538   7.856   0.801
 5266TIP3    H115739   0.628   7.839   0.774
 5266TIP3    H215740   0.525   7.949   0.784
 5267TIP3   OH215741   1.178   2.991   4.857
 5267TIP3    H115742   1.267   2.967   4.881
 5267TIP3    H215743   1.132   3.001   4.940
 5268TIP3   OH215744   0.456   3.787   2.001
 5268TIP3    H115745   0.522   3.825   1.943
 5268TIP3    H215746   0.375   3.833   1.978
 5269TIP3   OH215747   3.172   0.394   6.222
 5269TIP3    H115748   3.136   0.331   6.283
 5269TIP3    H215749   3.220   0.456   6.277
 5270TIP3   OH215750   7.822   5.831   5.660
 5270TIP3    H115751   7.897   5.881   5.692
 5270TIP3    H215752   7.845   5.807   5.571
 5271TIP3   OH215753   2.931   6.059   3.614
 5271TIP3    H115754   3.015   6.104   3.627
 5271TIP3    H215755   2.924   6.049   3.519
 5272TIP3   OH215756   8.189   6.026   2.130
 5272TIP3    H115757   8.098   6.004   2.149
 5272TIP3    H215758   8.194   6.121   2.141
 5273TIP3   OH215759   8.101   5.110   2.504
 5273TIP3    H115760   8.186   5.135   2.538
 5273TIP3    H215761   8.057   5.068   2.578
 5274TIP3   OH215762   2.892   5.701   4.006
 5274TIP3    H115763   2.939   5.781   4.030
 5274TIP3    H215764   2.956   5.649   3.958
 5275TIP3   OH215765   7.337   7.357   0.062
 5275TIP3    H115766   7.287   7.318  -0.009
 5275TIP3    H215767   7.319   7.451   0.057
 5276TIP3   OH215768   1.336   5.245   5.144
 5276TIP3    H115769   1.272   5.267   5.077
 5276TIP3    H215770   1.421   5.254   5.101
 5277TIP3   OH215771   6.737   2.389   6.277
 5277TIP3    H115772   6.820   2.342   6.286
 5277TIP3    H215773   6.746   2.464   6.336
 5278TIP3   OH215774   6.847   2.669   2.580
 5278TIP3    H115775   6.797   2.659   2.499
 5278TIP3    H215776   6.936   2.690   2.551
 5279TIP3   OH215777   3.033   0.702   6.812
 5279TIP3    H115778   3.059   0.633   6.752
 5279TIP3    H215779   3.109   0.760   6.816
 5280TIP3   OH215780   7.570   7.084   6.430
 5280TIP3    H115781   7.553   7.084   6.524
 5280TIP3    H215782   7.560   6.993   6.404
 5281TIP3   OH215783   6.534   5.661   6.296
 5281TIP3    H115784   6.497   5.710   6.369
 5281TIP3    H215785   6.626   5.651   6.317
 5282TIP3   OH215786   4.982   4.970   4.552
 5282TIP3    H115787   5.066   5.016   4.565
 5282TIP3    H215788   4.951   4.953   4.641
 5283TIP3   OH215789   6.007   6.811   6.687
 5283TIP3    H115790   5.962   6.895   6.695
 5283TIP3    H215791   5.973   6.773   6.607
 5284TIP3   OH215792   7.776   3.637   6.088
 5284TIP3    H115793   7.783   3.619   6.182
 5284TIP3    H215794   7.753   3.730   6.083
 5285TIP3   OH215795   3.169   0.883   1.977
 5285TIP3    H115796   3.144   0.922   2.061
 5285TIP3    H215797   3.210   0.800   2.000
 5286TIP3   OH215798   1.156   1.610   3.005
 5286TIP3    H115799   1.067   1.641   2.987
 5286TIP3    H215800   1.167   1.621   3.099
 5287TIP3   OH215801   7.391   2.420   4.051
 5287TIP3    H115802   7.304   2.413   4.010
 5287TIP3    H215803   7.397   2.344   4.108
 5288TIP3   OH215804   4.855   3.149   1.699
 5288TIP3    H115805   4.877   3.060   1.727
 5288TIP3    H215806   4.805   3.186   1.772
 5289TIP3   OH215807   5.852   3.001   6.067
 5289TIP3    H115808   5.838   2.925   6.124
 5289TIP3    H215809   5.943   2.992   6.037
 5290TIP3   OH215810   3.051   1.936   5.615
 5290TIP3    H115811   3.131   1.923   5.563
 5290TIP3    H215812   3.082   1.977   5.696
 5291TIP3   OH215813   0.078   3.569   2.246
 5291TIP3    H115814   0.022   3.504   2.202
 5291TIP3    H215815   0.055   3.562   2.339
 5292TIP3   OH215816   7.467   5.592   1.861
 5292TIP3    H115817   7.535   5.657   1.842
 5292TIP3    H215818   7.498   5.546   1.939
 5293TIP3   OH215819   7.484   2.907   3.075
 5293TIP3    H115820   7.472   2.819   3.112
 5293TIP3    H215821   7.501   2.962   3.151
 5294TIP3   OH215822   0.495   7.608   4.804
 5294TIP3    H115823   0.501   7.568   4.717
 5294TIP3    H215824   0.565   7.566   4.855
 5295TIP3   OH215825   3.218   4.793   0.268
 5295TIP3    H115826   3.260   4.876   0.288
 5295TIP3    H215827   3.202   4.753   0.354
 5296TIP3   OH215828   0.112   5.012   0.238
 5296TIP3    H115829   0.130   5.090   0.289
 5296TIP3    H215830   0.078   5.045   0.154
 5297TIP3   OH215831   6.431   1.570   5.600
 5297TIP3    H115832   6.370   1.501   5.626
 5297TIP3    H215833   6.379   1.630   5.546
 5298TIP3   OH215834   3.591   1.012   5.693
 5298TIP3    H115835   3.524   1.031   5.627
 5298TIP3    H215836   3.674   1.031   5.649
 5299TIP3   OH215837   6.412   4.829   6.676
 5299TIP3    H115838   6.504   4.833   6.701
 5299TIP3    H215839   6.392   4.917   6.645
 5300TIP3   OH215840   5.279   6.487   1.730
 5300TIP3    H115841   5.315   6.498   1.818
 5300TIP3    H215842   5.300   6.569   1.685
 5301TIP3   OH215843   1.664   1.470   0.534
 5301TIP3    H115844   1.700   1.540   0.589
 5301TIP3    H215845   1.648   1.398   0.595
 5302TIP3   OH215846   4.461   4.161   3.641
 5302TIP3    H115847   4.477   4.073   3.673
 5302TIP3    H215848   4.547   4.204   3.645
 5303TIP3   OH215849   8.014   6.097   2.803
 5303TIP3    H115850   8.059   6.169   2.759
 5303TIP3    H215851   7.922   6.122   2.802
 5304TIP3   OH215852   2.917   6.381   5.346
 5304TIP3    H115853   2.943   6.292   5.369
 5304TIP3    H215854   2.821   6.380   5.356
 5305TIP3   OH215855   7.007   5.558   5.412
 5305TIP3    H115856   7.010   5.580   5.318
 5305TIP3    H215857   7.030   5.640   5.456
 5306TIP3   OH215858   4.404   6.277   5.131
 5306TIP3    H115859   4.341   6.345   5.156
 5306TIP3    H215860   4.374   6.199   5.177
 5307TIP3   OH215861   2.201   7.456   0.709
 5307TIP3    H115862   2.289   7.468   0.744
 5307TIP3    H215863   2.214   7.412   0.625
 5308TIP3   OH215864   7.540   4.558   0.648
 5308TIP3    H115865   7.588   4.476   0.634
 5308TIP3    H215866   7.585   4.622   0.593
 5309TIP3   OH215867   4.075   0.555   1.250
 5309TIP3    H115868   4.084   0.637   1.202
 5309TIP3    H215869   3.985   0.556   1.283
 5310TIP3   OH215870   7.719   2.623   6.649
 5310TIP3    H115871   7.797   2.633   6.703
 5310TIP3    H215872   7.752   2.621   6.559
 5311TIP3   OH215873   6.332   5.077   6.579
 5311TIP3    H115874   6.334   5.104   6.671
 5311TIP3    H215875   6.307   5.157   6.532
 5312TIP3   OH215876   2.303   5.375   2.063
 5312TIP3    H115877   2.318   5.462   2.100
 5312TIP3    H215878   2.347   5.315   2.123
 5313TIP3   OH215879   7.279   3.164   6.339
 5313TIP3    H115880   7.307   3.209   6.418
 5313TIP3    H215881   7.347   3.098   6.323
 5314TIP3   OH215882   3.213   5.182   5.555
 5314TIP3    H115883   3.180   5.255   5.501
 5314TIP3    H215884   3.155   5.109   5.533
 5315TIP3   OH215885   7.854   0.674   0.700
 5315TIP3    H115886   7.844   0.584   0.731
 5315TIP3    H215887   7.875   0.724   0.779
 5316TIP3   OH215888   3.117   2.389   3.481
 5316TIP3    H115889   3.110   2.369   3.388
 5316TIP3    H215890   3.049   2.336   3.522
 5317TIP3   OH215891   3.024   0.600   5.860
 5317TIP3    H115892   3.021   0.622   5.767
 5317TIP3    H215893   3.111   0.627   5.889
 5318TIP3   OH215894   5.044   1.978   0.405
 5318TIP3    H115895   5.099   1.962   0.328
 5318TIP3    H215896   4.960   1.938   0.384
 5319TIP3   OH215897   7.232   2.820   5.633
 5319TIP3    H115898   7.309   2.838   5.687
 5319TIP3    H215899   7.167   2.787   5.695
 5320TIP3   OH215900   1.101   7.903   0.849
 5320TIP3    H115901   1.117   7.978   0.793
 5320TIP3    H215902   1.072   7.834   0.789
 5321TIP3   OH215903   6.431   0.048   6.624
 5321TIP3    H115904   6.509   0.056   6.570
 5321TIP3    H215905   6.441  -0.036   6.668
 5322TIP3   OH215906   0.253   3.740   3.578
 5322TIP3    H115907   0.318   3.714   3.643
 5322TIP3    H215908   0.169   3.731   3.623
 5323TIP3   OH215909   2.486   6.762   6.285
 5323TIP3    H115910   2.489   6.685   6.227
 5323TIP3    H215911   2.526   6.831   6.233
 5324TIP3   OH215912   5.277   6.897   5.036
 5324TIP3    H115913   5.201   6.875   5.090
 5324TIP3    H215914   5.306   6.813   5.000
 5325TIP3   OH215915   4.088   0.156   3.907
 5325TIP3    H115916   4.021   0.214   3.944
 5325TIP3    H215917   4.129   0.116   3.984
 5326TIP3   OH215918   5.283   3.599   0.226
 5326TIP3    H115919   5.246   3.527   0.176
 5326TIP3    H215920   5.287   3.672   0.164
 5327TIP3   OH215921   5.998   2.344   0.164
 5327TIP3    H115922   6.060   2.322   0.234
 5327TIP3    H215923   5.913   2.347   0.207
 5328TIP3   OH215924   0.536   0.223   3.642
 5328TIP3    H115925   0.549   0.141   3.691
 5328TIP3    H215926   0.618   0.270   3.654
 5329TIP3   OH215927   1.708   3.700   2.755
 5329TIP3    H115928   1.661   3.632   2.803
 5329TIP3    H215929   1.795   3.662   2.740
 5330TIP3   OH215930   8.246   1.532   0.995
 5330TIP3    H115931   8.257   1.626   0.986
 5330TIP3    H215932   8.322   1.495   0.951
 5331TIP3   OH215933   7.673   4.708   1.591
 5331TIP3    H115934   7.730   4.704   1.667
 5331TIP3    H215935   7.726   4.748   1.522
 5332TIP3   OH215936   7.749   4.898   4.964
 5332TIP3    H115937   7.777   4.989   4.963
 5332TIP3    H215938   7.829   4.848   4.946
 5333TIP3   OH215939   1.741   1.772   3.981
 5333TIP3    H115940   1.686   1.703   4.019
 5333TIP3    H215941   1.777   1.818   4.057
 5334TIP3   OH215942   2.083   0.734   1.087
 5334TIP3    H115943   2.117   0.761   1.172
 5334TIP3    H215944   2.157   0.744   1.027
 5335TIP3   OH215945   7.181   0.848   0.066
 5335TIP3    H115946   7.165   0.801   0.148
 5335TIP3    H215947   7.220   0.783   0.008
 5336TIP3   OH215948   4.496   0.263   2.803
 5336TIP3    H115949   4.417   0.225   2.767
 5336TIP3    H215950   4.546   0.188   2.836
 5337TIP3   OH215951   5.104   6.680   4.632
 5337TIP3    H115952   5.093   6.674   4.537
 5337TIP3    H215953   5.060   6.601   4.666
 5338TIP3   OH215954   3.771   0.649   1.860
 5338TIP3    H115955   3.681   0.658   1.828
 5338TIP3    H215956   3.794   0.736   1.893
 5339TIP3   OH215957   1.085   1.161   4.286
 5339TIP3    H115958   1.058   1.214   4.361
 5339TIP3    H215959   1.005   1.117   4.257
 5340TIP3   OH215960   3.881   3.283   2.499
 5340TIP3    H115961   3.797   3.258   2.536
 5340TIP3    H215962   3.944   3.269   2.570
 5341TIP3   OH215963   6.741   3.417   5.778
 5341TIP3    H115964   6.757   3.418   5.873
 5341TIP3    H215965   6.651   3.385   5.769
 5342TIP3   OH215966   6.161   5.977   3.030
 5342TIP3    H115967   6.246   5.950   3.064
 5342TIP3    H215968   6.128   5.900   2.982
 5343TIP3   OH215969   5.464   0.088   4.277
 5343TIP3    H115970   5.468  -0.002   4.244
 5343TIP3    H215971   5.428   0.079   4.365
 5344TIP3   OH215972   6.410   4.550   3.571
 5344TIP3    H115973   6.374   4.482   3.513
 5344TIP3    H215974   6.461   4.606   3.513
 5345TIP3   OH215975   0.592   2.127   3.154
 5345TIP3    H115976   0.553   2.114   3.240
 5345TIP3    H215977   0.621   2.219   3.154
 5346TIP3   OH215978   6.309   6.918   2.255
 5346TIP3    H115979   6.392   6.906   2.209
 5346TIP3    H215980   6.285   7.010   2.239
 5347TIP3   OH215981   0.260   4.975   5.488
 5347TIP3    H115982   0.294   4.932   5.409
 5347TIP3    H215983   0.333   4.974   5.549
 5348TIP3   OH215984   2.872   5.473   0.905
 5348TIP3    H115985   2.881   5.537   0.975
 5348TIP3    H215986   2.962   5.460   0.874
 5349TIP3   OH215987   6.271   5.405   3.046
 5349TIP3    H115988   6.288   5.463   3.120
 5349TIP3    H215989   6.334   5.434   2.979
 5350TIP3   OH215990   4.705   3.021   5.328
 5350TIP3    H115991   4.618   3.013   5.367
 5350TIP3    H215992   4.689   3.016   5.234
 5351TIP3   OH215993   4.260   1.858   2.996
 5351TIP3    H115994   4.284   1.808   2.918
 5351TIP3    H215995   4.182   1.815   3.029
 5352TIP3   OH215996  -0.015   7.570   1.543
 5352TIP3    H115997   0.012   7.485   1.579
 5352TIP3    H215998   0.067   7.620   1.537
 5353TIP3   OH215999   2.519   3.095   2.404
 5353TIP3    H116000   2.592   3.149   2.375
 5353TIP3    H216001   2.442   3.132   2.360
 5354TIP3   OH216002   7.421   5.284   2.838
 5354TIP3    H116003   7.387   5.373   2.832
 5354TIP3    H216004   7.506   5.293   2.880
 5355TIP3   OH216005   5.602   3.089   5.240
 5355TIP3    H116006   5.565   3.056   5.158
 5355TIP3    H216007   5.645   3.014   5.280
 5356TIP3   OH216008   3.477   3.412   0.918
 5356TIP3    H116009   3.546   3.470   0.951
 5356TIP3    H216010   3.423   3.468   0.862
 5357TIP3   OH216011   7.395   7.269   5.084
 5357TIP3    H116012   7.400   7.365   5.084
 5357TIP3    H216013   7.304   7.250   5.066
 5358TIP3   OH216014   4.651   2.030   3.267
 5358TIP3    H116015   4.632   2.101   3.206
 5358TIP3    H216016   4.742   2.043   3.293
 5359TIP3   OH216017   5.529   7.748   6.778
 5359TIP3    H116018   5.481   7.830   6.793
 5359TIP3    H216019   5.535   7.708   6.865
 5360TIP3   OH216020   3.001   4.135   0.379
 5360TIP3    H116021   3.073   4.092   0.423
 5360TIP3    H216022   3.020   4.229   0.387
 5361TIP3   OH216023   3.705   0.228   2.518
 5361TIP3    H116024   3.769   0.273   2.574
 5361TIP3    H216025   3.664   0.298   2.467
 5362TIP3   OH216026   4.533   4.412   4.214
 5362TIP3    H116027   4.533   4.350   4.288
 5362TIP3    H216028   4.592   4.372   4.150
 5363TIP3   OH216029   1.648   0.187   4.976
 5363TIP3    H116030   1.562   0.227   4.992
 5363TIP3    H216031   1.638   0.142   4.892
 5364TIP3   OH216032   1.803   0.623   1.799
 5364TIP3    H116033   1.753   0.696   1.837
 5364TIP3    H216034   1.808   0.558   1.868
 5365TIP3   OH216035   3.707   4.554   5.381
 5365TIP3    H116036   3.708   4.471   5.332
 5365TIP3    H216037   3.647   4.538   5.453
 5366TIP3   OH216038   3.737   4.638   0.601
 5366TIP3    H116039   3.801   4.696   0.642
 5366TIP3    H216040   3.712   4.683   0.521
 5367TIP3   OH216041   3.763   7.436   1.980
 5367TIP3    H116042   3.738   7.528   1.984
 5367TIP3    H216043   3.686   7.391   1.945
 5368TIP3   OH216044   5.231   4.718   3.761
 5368TIP3    H116045   5.169   4.728   3.834
 5368TIP3    H216046   5.288   4.794   3.769
 5369TIP3   OH216047   2.390   6.219   4.929
 5369TIP3    H116048   2.419   6.218   5.020
 5369TIP3    H216049   2.331   6.294   4.923
 5370TIP3   OH216050   5.262   0.763   3.963
 5370TIP3    H116051   5.332   0.741   3.902
 5370TIP3    H216052   5.307   0.773   4.047
 5371TIP3   OH216053   5.281   4.135   0.405
 5371TIP3    H116054   5.304   4.222   0.373
 5371TIP3    H216055   5.225   4.151   0.481
 5372TIP3   OH216056   5.351   4.448   2.629
 5372TIP3    H116057   5.351   4.447   2.725
 5372TIP3    H216058   5.268   4.406   2.605
 5373TIP3   OH216059   0.196   5.245   3.494
 5373TIP3    H116060   0.207   5.188   3.417
 5373TIP3    H216061   0.267   5.308   3.487
 5374TIP3   OH216062   0.567   4.436   5.827
 5374TIP3    H116063   0.583   4.352   5.785
 5374TIP3    H216064   0.653   4.476   5.837
 5375TIP3   OH216065   4.559   1.275   1.205
 5375TIP3    H116066   4.626   1.336   1.176
 5375TIP3    H216067   4.506   1.326   1.266
 5376TIP3   OH216068   2.566   1.270   6.020
 5376TIP3    H116069   2.487   1.220   6.003
 5376TIP3    H216070   2.625   1.246   5.948
 5377TIP3   OH216071   4.647   5.713   5.605
 5377TIP3    H116072   4.738   5.741   5.594
 5377TIP3    H216073   4.654   5.623   5.638
 5378TIP3   OH216074   1.505   7.443   5.146
 5378TIP3    H116075   1.428   7.457   5.201
 5378TIP3    H216076   1.525   7.530   5.111
 5379TIP3   OH216077   4.761   1.865   2.857
 5379TIP3    H116078   4.777   1.772   2.845
 5379TIP3    H216079   4.734   1.874   2.948
 5380TIP3   OH216080   6.311   0.655   4.936
 5380TIP3    H116081   6.293   0.698   4.853
 5380TIP3    H216082   6.225   0.638   4.973
 5381TIP3   OH216083   6.994   6.471   6.702
 5381TIP3    H116084   6.928   6.446   6.637
 5381TIP3    H216085   6.951   6.460   6.786
 5382TIP3   OH216086   3.991   0.592   3.025
 5382TIP3    H116087   3.969   0.682   3.047
 5382TIP3    H216088   3.925   0.566   2.961
 5383TIP3   OH216089   5.989   3.103   5.071
 5383TIP3    H116090   6.038   3.151   5.004
 5383TIP3    H216091   5.981   3.014   5.036
 5384TIP3   OH216092   6.179   3.525   0.162
 5384TIP3    H116093   6.101   3.563   0.203
 5384TIP3    H216094   6.241   3.598   0.159
 5385TIP3   OH216095   1.693   4.738   3.317
 5385TIP3    H116096   1.623   4.672   3.320
 5385TIP3    H216097   1.768   4.696   3.359
 5386TIP3   OH216098   3.344   1.138   2.084
 5386TIP3    H116099   3.271   1.077   2.071
 5386TIP3    H216100   3.420   1.093   2.046
 5387TIP3   OH216101   2.955   5.128   2.239
 5387TIP3    H116102   2.959   5.041   2.279
 5387TIP3    H216103   3.047   5.155   2.234
 5388TIP3   OH216104   5.357   7.425   4.603
 5388TIP3    H116105   5.403   7.364   4.544
 5388TIP3    H216106   5.269   7.387   4.612
 5389TIP3   OH216107   5.564   0.965   0.753
 5389TIP3    H116108   5.594   0.885   0.796
 5389TIP3    H216109   5.644   1.007   0.722
 5390TIP3   OH216110   5.681   0.205   0.274
 5390TIP3    H116111   5.731   0.286   0.262
 5390TIP3    H216112   5.616   0.227   0.341
 5391TIP3   OH216113   2.696   5.139   6.488
 5391TIP3    H116114   2.714   5.113   6.398
 5391TIP3    H216115   2.777   5.119   6.535
 5392TIP3   OH216116   5.817   7.533   5.169
 5392TIP3    H116117   5.746   7.576   5.215
 5392TIP3    H216118   5.778   7.503   5.087
 5393TIP3   OH216119   1.582   7.608   6.754
 5393TIP3    H116120   1.644   7.542   6.785
 5393TIP3    H216121   1.589   7.679   6.818
 5394TIP3   OH216122   5.241   3.958   3.430
 5394TIP3    H116123   5.179   3.918   3.491
 5394TIP3    H216124   5.185   3.997   3.362
 5395TIP3   OH216125   0.509   2.694   1.304
 5395TIP3    H116126   0.592   2.657   1.336
 5395TIP3    H216127   0.520   2.788   1.311
 5396TIP3   OH216128   3.191   0.886   0.654
 5396TIP3    H116129   3.250   0.913   0.584
 5396TIP3    H216130   3.195   0.791   0.654
 5397TIP3   OH216131   3.157   1.416   0.596
 5397TIP3    H116132   3.128   1.388   0.509
 5397TIP3    H216133   3.095   1.484   0.621
 5398TIP3   OH216134   8.016   1.525   6.699
 5398TIP3    H116135   7.969   1.559   6.623
 5398TIP3    H216136   7.987   1.580   6.771
 5399TIP3   OH216137   5.911   5.680   3.040
 5399TIP3    H116138   5.977   5.743   3.070
 5399TIP3    H216139   5.911   5.689   2.944
 5400TIP3   OH216140   1.119   4.522   3.417
 5400TIP3    H116141   1.179   4.542   3.489
 5400TIP3    H216142   1.075   4.442   3.444
 5401TIP3   OH216143   2.429   0.401   0.221
 5401TIP3    H116144   2.506   0.345   0.233
 5401TIP3    H216145   2.385   0.400   0.306
 5402TIP3   OH216146   6.409   1.768   0.718
 5402TIP3    H116147   6.463   1.691   0.737
 5402TIP3    H216148   6.471   1.839   0.705
 5403TIP3   OH216149   5.505   2.242   2.175
 5403TIP3    H116150   5.429   2.196   2.140
 5403TIP3    H216151   5.468   2.316   2.223
 5404TIP3   OH216152   2.830   2.623   2.301
 5404TIP3    H116153   2.801   2.697   2.354
 5404TIP3    H216154   2.750   2.574   2.283
 5405TIP3   OH216155   0.168   0.874   6.062
 5405TIP3    H116156   0.085   0.829   6.046
 5405TIP3    H216157   0.210   0.879   5.976
 5406TIP3   OH216158   8.037   0.092   5.233
 5406TIP3    H116159   8.005   0.019   5.180
 5406TIP3    H216160   7.986   0.167   5.202
 5407TIP3   OH216161   4.403   1.112   4.483
 5407TIP3    H116162   4.473   1.169   4.516
 5407TIP3    H216163   4.439   1.075   4.403
 5408TIP3   OH216164   0.317   7.858   2.602
 5408TIP3    H116165   0.369   7.919   2.550
 5408TIP3    H216166   0.364   7.852   2.685
 5409TIP3   OH216167   6.384   2.072   0.478
 5409TIP3    H116168   6.409   2.161   0.452
 5409TIP3    H216169   6.449   2.047   0.543
 5410TIP3   OH216170   3.899   4.400   3.159
 5410TIP3    H116171   3.985   4.405   3.117
 5410TIP3    H216172   3.841   4.451   3.103
 5411TIP3   OH216173   3.788   2.433   5.084
 5411TIP3    H116174   3.827   2.350   5.057
 5411TIP3    H216175   3.756   2.473   5.003
 5412TIP3   OH216176   2.360   3.708   0.744
 5412TIP3    H116177   2.289   3.768   0.720
 5412TIP3    H216178   2.382   3.664   0.662
 5413TIP3   OH216179   5.957   7.073   5.906
 5413TIP3    H116180   5.904   7.000   5.873
 5413TIP3    H216181   5.975   7.126   5.829
 5414TIP3   OH216182   3.671   3.322   5.594
 5414TIP3    H116183   3.665   3.318   5.689
 5414TIP3    H216184   3.761   3.351   5.577
 5415TIP3   OH216185   2.900   2.544   0.773
 5415TIP3    H116186   2.833   2.609   0.752
 5415TIP3    H216187   2.936   2.517   0.689
 5416TIP3   OH216188   7.326   4.004   6.359
 5416TIP3    H116189   7.269   3.943   6.406
 5416TIP3    H216190   7.375   3.949   6.297
 5417TIP3   OH216191   3.237   1.697   4.696
 5417TIP3    H116192   3.198   1.670   4.779
 5417TIP3    H216193   3.327   1.666   4.699
 5418TIP3   OH216194   1.078   6.873   4.724
 5418TIP3    H116195   1.051   6.843   4.638
 5418TIP3    H216196   1.035   6.814   4.786
 5419TIP3   OH216197   0.280   1.258   0.871
 5419TIP3    H116198   0.212   1.208   0.917
 5419TIP3    H216199   0.318   1.195   0.810
 5420TIP3   OH216200   5.886   5.601   2.214
 5420TIP3    H116201   5.943   5.676   2.229
 5420TIP3    H216202   5.945   5.527   2.207
 5421TIP3   OH216203   1.019   4.826   5.367
 5421TIP3    H116204   1.088   4.875   5.323
 5421TIP3    H216205   1.003   4.750   5.310
 5422TIP3   OH216206   1.587   0.546   0.377
 5422TIP3    H116207   1.588   0.450   0.381
 5422TIP3    H216208   1.509   0.571   0.425
 5423TIP3   OH216209   3.417   5.947   5.731
 5423TIP3    H116210   3.322   5.961   5.733
 5423TIP3    H216211   3.432   5.877   5.795
 5424TIP3   OH216212   7.345   7.742   3.568
 5424TIP3    H116213   7.419   7.760   3.510
 5424TIP3    H216214   7.311   7.828   3.591
 5425TIP3   OH216215   1.659   4.663   3.617
 5425TIP3    H116216   1.729   4.619   3.569
 5425TIP3    H216217   1.582   4.606   3.606
 5426TIP3   OH216218   1.485   4.031   6.829
 5426TIP3    H116219   1.393   4.040   6.855
 5426TIP3    H216220   1.504   3.938   6.842
 5427TIP3   OH216221   3.869   0.901   6.294
 5427TIP3    H116222   3.946   0.895   6.350
 5427TIP3    H216223   3.826   0.816   6.302
 5428TIP3   OH216224   0.995   3.923   4.343
 5428TIP3    H116225   1.001   4.017   4.331
 5428TIP3    H216226   0.908   3.910   4.383
 5429TIP3   OH216227   6.451   7.083   4.144
 5429TIP3    H116228   6.368   7.042   4.121
 5429TIP3    H216229   6.468   7.145   4.073
 5430TIP3   OH216230   7.995   6.052   2.429
 5430TIP3    H116231   7.908   6.055   2.469
 5430TIP3    H216232   7.979   6.071   2.337
 5431TIP3   OH216233   7.291   0.425   0.268
 5431TIP3    H116234   7.303   0.520   0.273
 5431TIP3    H216235   7.267   0.399   0.357
 5432TIP3   OH216236   3.531   1.847   2.455
 5432TIP3    H116237   3.450   1.866   2.408
 5432TIP3    H216238   3.518   1.759   2.491
 5433TIP3   OH216239   5.295   7.728   1.529
 5433TIP3    H116240   5.292   7.806   1.473
 5433TIP3    H216241   5.219   7.677   1.503
 5434TIP3   OH216242   5.632   3.964   5.906
 5434TIP3    H116243   5.628   4.042   5.850
 5434TIP3    H216244   5.691   3.905   5.859
 5435TIP3   OH216245   2.772   4.274   5.860
 5435TIP3    H116246   2.734   4.188   5.877
 5435TIP3    H216247   2.770   4.318   5.946
 5436TIP3   OH216248   7.955   1.176   3.008
 5436TIP3    H116249   7.918   1.094   2.974
 5436TIP3    H216250   8.047   1.155   3.025
 5437TIP3   OH216251   4.796   3.982   1.283
 5437TIP3    H116252   4.758   3.897   1.304
 5437TIP3    H216253   4.811   4.024   1.368
 5438TIP3   OH216254   6.375   7.552   4.244
 5438TIP3    H116255   6.347   7.573   4.333
 5438TIP3    H216256   6.459   7.506   4.255
 5439TIP3   OH216257   4.673   4.891   6.495
 5439TIP3    H116258   4.624   4.879   6.577
 5439TIP3    H216259   4.705   4.804   6.473
 5440TIP3   OH216260   3.109   3.850   0.272
 5440TIP3    H116261   3.074   3.929   0.313
 5440TIP3    H216262   3.101   3.782   0.339
 5441TIP3   OH216263   2.886   5.433   6.431
 5441TIP3    H116264   2.960   5.484   6.398
 5441TIP3    H216265   2.891   5.350   6.383
 5442TIP3   OH216266   0.983   4.623   2.063
 5442TIP3    H116267   0.965   4.662   2.149
 5442TIP3    H216268   0.900   4.628   2.017
 5443TIP3   OH216269   5.810   2.614   0.384
 5443TIP3    H116270   5.747   2.560   0.335
 5443TIP3    H216271   5.884   2.624   0.324
 5444TIP3   OH216272   0.671   0.485   1.449
 5444TIP3    H116273   0.766   0.477   1.444
 5444TIP3    H216274   0.641   0.465   1.360
 5445TIP3   OH216275   7.316   0.235   4.026
 5445TIP3    H116276   7.322   0.198   4.114
 5445TIP3    H216277   7.304   0.329   4.039
 5446TIP3   OH216278   5.017   0.593   3.556
 5446TIP3    H116279   5.036   0.605   3.649
 5446TIP3    H216280   5.024   0.499   3.542
 5447TIP3   OH216281   0.769   6.552   4.639
 5447TIP3    H116282   0.806   6.575   4.554
 5447TIP3    H216283   0.692   6.609   4.648
 5448TIP3   OH216284   1.528   2.482   6.734
 5448TIP3    H116285   1.604   2.504   6.679
 5448TIP3    H216286   1.538   2.538   6.811
 5449TIP3   OH216287   5.751   3.882   0.874
 5449TIP3    H116288   5.728   3.832   0.952
 5449TIP3    H216289   5.694   3.959   0.877
 5450TIP3   OH216290   2.382   6.803   2.293
 5450TIP3    H116291   2.382   6.765   2.381
 5450TIP3    H216292   2.454   6.759   2.248
 5451TIP3   OH216293   3.687   0.752   2.181
 5451TIP3    H116294   3.732   0.816   2.126
 5451TIP3    H216295   3.758   0.698   2.217
 5452TIP3   OH216296   2.047   7.092   1.760
 5452TIP3    H116297   2.119   7.149   1.787
 5452TIP3    H216298   1.968   7.143   1.779
 5453TIP3   OH216299   4.724   4.686   3.420
 5453TIP3    H116300   4.782   4.680   3.344
 5453TIP3    H216301   4.752   4.766   3.465
 5454TIP3   OH216302   6.845   5.162   0.579
 5454TIP3    H116303   6.873   5.071   0.583
 5454TIP3    H216304   6.752   5.157   0.557
 5455TIP3   OH216305   2.327   0.896   2.500
 5455TIP3    H116306   2.316   0.817   2.446
 5455TIP3    H216307   2.243   0.941   2.494
 5456TIP3   OH216308   6.913   7.099   2.057
 5456TIP3    H116309   6.853   7.172   2.043
 5456TIP3    H216310   6.985   7.136   2.107
 5457TIP3   OH216311   5.272   4.508   0.866
 5457TIP3    H116312   5.279   4.427   0.915
 5457TIP3    H216313   5.209   4.488   0.796
 5458TIP3   OH216314   5.431   0.880   1.583
 5458TIP3    H116315   5.425   0.975   1.576
 5458TIP3    H216316   5.351   0.848   1.543
 5459TIP3   OH216317   4.661   5.875   3.704
 5459TIP3    H116318   4.680   5.784   3.679
 5459TIP3    H216319   4.677   5.878   3.798
 5460TIP3   OH216320   2.150   0.765   3.853
 5460TIP3    H116321   2.177   0.685   3.898
 5460TIP3    H216322   2.163   0.746   3.760
 5461TIP3   OH216323   7.066   7.599   3.818
 5461TIP3    H116324   7.147   7.572   3.774
 5461TIP3    H216325   7.022   7.517   3.841
 5462TIP3   OH216326   4.290   1.719   5.485
 5462TIP3    H116327   4.336   1.701   5.567
 5462TIP3    H216328   4.232   1.644   5.473
 5463TIP3   OH216329   1.976   5.186   2.372
 5463TIP3    H116330   2.014   5.239   2.302
 5463TIP3    H216331   2.046   5.177   2.436
 5464TIP3   OH216332   1.153   5.454   3.000
 5464TIP3    H116333   1.179   5.395   3.071
 5464TIP3    H216334   1.077   5.501   3.035
 5465TIP3   OH216335   0.001   4.919   3.070
 5465TIP3    H116336   0.078   4.862   3.076
 5465TIP3    H216337  -0.036   4.920   3.158
 5466TIP3   OH216338   6.632   7.864   3.869
 5466TIP3    H116339   6.709   7.919   3.855
 5466TIP3    H216340   6.574   7.917   3.922
 5467TIP3   OH216341   2.714   0.648   2.392
 5467TIP3    H116342   2.670   0.576   2.348
 5467TIP3    H216343   2.805   0.644   2.361
 5468TIP3   OH216344   7.101   5.650   2.826
 5468TIP3    H116345   7.163   5.619   2.760
 5468TIP3    H216346   7.145   5.634   2.909
 5469TIP3   OH216347   3.446   2.213   3.528
 5469TIP3    H116348   3.529   2.175   3.558
 5469TIP3    H216349   3.402   2.241   3.608
 5470TIP3   OH216350   5.430   0.302   0.861
 5470TIP3    H116351   5.442   0.327   0.769
 5470TIP3    H216352   5.518   0.279   0.891
 5471TIP3   OH216353   2.670   6.226   6.149
 5471TIP3    H116354   2.639   6.202   6.236
 5471TIP3    H216355   2.761   6.196   6.147
 5472TIP3   OH216356   2.722   2.087   4.926
 5472TIP3    H116357   2.679   2.083   5.012
 5472TIP3    H216358   2.652   2.066   4.864
 5473TIP3   OH216359   4.264   0.147   2.702
 5473TIP3    H116360   4.197   0.212   2.720
 5473TIP3    H216361   4.216   0.065   2.689
 5474TIP3   OH216362   4.871   3.570   1.350
 5474TIP3    H116363   4.869   3.474   1.344
 5474TIP3    H216364   4.785   3.598   1.320
 5475TIP3   OH216365   2.747   4.159   1.654
 5475TIP3    H116366   2.820   4.125   1.603
 5475TIP3    H216367   2.692   4.083   1.671
 5476TIP3   OH216368   7.231   1.609   5.137
 5476TIP3    H116369   7.294   1.578   5.072
 5476TIP3    H216370   7.149   1.619   5.088
 5477TIP3   OH216371   3.785   4.023   0.625
 5477TIP3    H116372   3.805   4.026   0.719
 5477TIP3    H216373   3.847   4.084   0.586
 5478TIP3   OH216374   1.517   4.547   3.240
 5478TIP3    H116375   1.511   4.456   3.269
 5478TIP3    H216376   1.431   4.566   3.202
 5479TIP3   OH216377   1.180   5.447   3.772
 5479TIP3    H116378   1.164   5.513   3.840
 5479TIP3    H216379   1.275   5.446   3.763
 5480TIP3   OH216380   5.102   1.582   2.799
 5480TIP3    H116381   5.147   1.640   2.860
 5480TIP3    H216382   5.009   1.594   2.818
 5481TIP3   OH216383   8.204   1.008   6.199
 5481TIP3    H116384   8.210   1.076   6.131
 5481TIP3    H216385   8.115   1.015   6.232
 5482TIP3   OH216386   4.467   7.153   0.628
 5482TIP3    H116387   4.520   7.194   0.559
 5482TIP3    H216388   4.377   7.182   0.609
 5483TIP3   OH216389   3.961   7.189   5.705
 5483TIP3    H116390   3.977   7.196   5.799
 5483TIP3    H216391   3.910   7.267   5.684
 5484TIP3   OH216392   2.786   6.298   1.774
 5484TIP3    H116393   2.757   6.251   1.696
 5484TIP3    H216394   2.874   6.264   1.790
 5485TIP3   OH216395   5.879   5.433   2.647
 5485TIP3    H116396   5.891   5.412   2.555
 5485TIP3    H216397   5.957   5.399   2.690
 5486TIP3   OH216398   2.121   1.118   0.219
 5486TIP3    H116399   2.171   1.089   0.143
 5486TIP3    H216400   2.181   1.107   0.293
 5487TIP3   OH216401   6.801   4.547   0.119
 5487TIP3    H116402   6.731   4.611   0.136
 5487TIP3    H216403   6.879   4.586   0.157
 5488TIP3   OH216404   6.946   2.750   1.095
 5488TIP3    H116405   6.962   2.656   1.098
 5488TIP3    H216406   6.858   2.758   1.058
 5489TIP3   OH216407   1.632   6.543   1.732
 5489TIP3    H116408   1.540   6.519   1.742
 5489TIP3    H216409   1.669   6.472   1.680
 5490TIP3   OH216410   7.818   4.241   0.748
 5490TIP3    H116411   7.857   4.293   0.818
 5490TIP3    H216412   7.884   4.175   0.728
 5491TIP3   OH216413   7.469   1.311   2.263
 5491TIP3    H116414   7.476   1.403   2.239
 5491TIP3    H216415   7.485   1.309   2.357
 5492TIP3   OH216416   4.472   1.878   1.231
 5492TIP3    H116417   4.548   1.839   1.275
 5492TIP3    H216418   4.510   1.930   1.160
 5493TIP3   OH216419   4.376   2.698   1.413
 5493TIP3    H116420   4.345   2.710   1.503
 5493TIP3    H216421   4.450   2.757   1.404
 5494TIP3   OH216422   1.879   7.867   2.100
 5494TIP3    H116423   1.864   7.875   2.194
 5494TIP3    H216424   1.845   7.781   2.078
 5495TIP3   OH216425   1.024   5.993   0.868
 5495TIP3    H116426   1.058   5.904   0.878
 5495TIP3    H216427   1.102   6.048   0.859
 5496TIP3   OH216428   2.010   1.217   3.852
 5496TIP3    H116429   1.985   1.274   3.925
 5496TIP3    H216430   2.047   1.140   3.894
 5497TIP3   OH216431   4.533   2.875   5.522
 5497TIP3    H116432   4.609   2.835   5.480
 5497TIP3    H216433   4.467   2.805   5.523
 5498TIP3   OH216434   4.742   0.826   5.615
 5498TIP3    H116435   4.820   0.816   5.670
 5498TIP3    H216436   4.777   0.829   5.526
 5499TIP3   OH216437   2.794   1.393   6.428
 5499TIP3    H116438   2.786   1.478   6.383
 5499TIP3    H216439   2.751   1.331   6.369
 5500TIP3   OH216440   0.465   7.446   6.373
 5500TIP3    H116441   0.504   7.530   6.351
 5500TIP3    H216442   0.507   7.420   6.455
 5501TIP3   OH216443   6.368   4.299   3.017
 5501TIP3    H116444   6.457   4.266   3.027
 5501TIP3    H216445   6.362   4.372   3.079
 5502TIP3   OH216446   6.159   1.838   1.941
 5502TIP3    H116447   6.086   1.776   1.948
 5502TIP3    H216448   6.160   1.863   1.849
 5503TIP3   OH216449   1.146   5.769   5.306
 5503TIP3    H116450   1.091   5.829   5.357
 5503TIP3    H216451   1.148   5.806   5.218
 5504TIP3   OH216452   8.244   1.567   2.627
 5504TIP3    H116453   8.206   1.484   2.597
 5504TIP3    H216454   8.180   1.601   2.690
 5505TIP3   OH216455   3.359   5.156   1.622
 5505TIP3    H116456   3.295   5.118   1.562
 5505TIP3    H216457   3.427   5.089   1.631
 5506TIP3   OH216458   5.294   2.922   1.577
 5506TIP3    H116459   5.280   3.017   1.576
 5506TIP3    H216460   5.243   2.890   1.503
 5507TIP3   OH216461   6.275   7.824   0.864
 5507TIP3    H116462   6.362   7.785   0.876
 5507TIP3    H216463   6.222   7.784   0.933
 5508TIP3   OH216464   7.679   2.007   6.383
 5508TIP3    H116465   7.686   1.952   6.461
 5508TIP3    H216466   7.755   1.983   6.329
 5509TIP3   OH216467   8.177   3.162   5.583
 5509TIP3    H116468   8.103   3.107   5.560
 5509TIP3    H216469   8.253   3.103   5.582
 5510TIP3   OH216470   1.593   3.957   2.814
 5510TIP3    H116471   1.681   3.987   2.837
 5510TIP3    H216472   1.607   3.878   2.762
 5511TIP3   OH216473   7.362   5.163   2.239
 5511TIP3    H116474   7.392   5.141   2.151
 5511TIP3    H216475   7.344   5.257   2.235
 5512TIP3   OH216476   2.854   1.887   1.053
 5512TIP3    H116477   2.774   1.883   1.001
 5512TIP3    H216478   2.828   1.854   1.139
 5513TIP3   OH216479   0.431   0.964   0.075
 5513TIP3    H116480   0.436   0.992   0.166
 5513TIP3    H216481   0.518   0.929   0.056
 5514TIP3   OH216482   5.936   6.797   2.797
 5514TIP3    H116483   5.955   6.889   2.816
 5514TIP3    H216484   5.849   6.783   2.835
 5515TIP3   OH216485   7.909   4.734   0.878
 5515TIP3    H116486   7.957   4.816   0.893
 5515TIP3    H216487   7.940   4.704   0.792
 5516TIP3   OH216488   3.142   3.516   6.279
 5516TIP3    H116489   3.098   3.584   6.331
 5516TIP3    H216490   3.137   3.437   6.333
 5517TIP3   OH216491   3.034   2.832   4.613
 5517TIP3    H116492   3.012   2.787   4.694
 5517TIP3    H216493   3.125   2.860   4.625
 5518TIP3   OH216494   2.385   5.180   3.430
 5518TIP3    H116495   2.349   5.132   3.355
 5518TIP3    H216496   2.368   5.272   3.409
 5519TIP3   OH216497   6.796   4.940   5.686
 5519TIP3    H116498   6.889   4.949   5.664
 5519TIP3    H216499   6.753   5.009   5.636
 5520TIP3   OH216500   5.399   7.463   3.933
 5520TIP3    H116501   5.391   7.381   3.886
 5520TIP3    H216502   5.401   7.438   4.026
 5521TIP3   OH216503   2.744   3.255   6.511
 5521TIP3    H116504   2.735   3.172   6.463
 5521TIP3    H216505   2.677   3.250   6.579
 5522TIP3   OH216506   4.187   0.946   3.078
 5522TIP3    H116507   4.207   0.930   3.170
 5522TIP3    H216508   4.197   1.041   3.068
 5523TIP3   OH216509   1.570   2.240   5.104
 5523TIP3    H116510   1.558   2.242   5.009
 5523TIP3    H216511   1.575   2.147   5.126
 5524TIP3   OH216512   0.655   7.849   4.044
 5524TIP3    H116513   0.570   7.806   4.033
 5524TIP3    H216514   0.708   7.815   3.972
 5525TIP3   OH216515   6.697   0.501   0.057
 5525TIP3    H116516   6.777   0.462   0.092
 5525TIP3    H216517   6.728   0.558  -0.014
 5526TIP3   OH216518   3.296   2.566   5.617
 5526TIP3    H116519   3.251   2.637   5.663
 5526TIP3    H216520   3.378   2.555   5.665
 5527TIP3   OH216521   4.153   0.685   6.411
 5527TIP3    H116522   4.182   0.699   6.502
 5527TIP3    H216523   4.197   0.755   6.362
 5528TIP3   OH216524   4.579   1.978   3.912
 5528TIP3    H116525   4.510   1.923   3.875
 5528TIP3    H216526   4.650   1.973   3.848
 5529TIP3   OH216527   4.494   2.567   0.657
 5529TIP3    H116528   4.573   2.522   0.626
 5529TIP3    H216529   4.493   2.550   0.751
 5530TIP3   OH216530   8.330   1.734   3.930
 5530TIP3    H116531   8.240   1.766   3.941
 5530TIP3    H216532   8.342   1.672   4.002
 5531TIP3   OH216533   0.434   1.155   3.069
 5531TIP3    H116534   0.398   1.233   3.028
 5531TIP3    H216535   0.434   1.175   3.163
 5532TIP3   OH216536   6.044   2.875   3.184
 5532TIP3    H116537   6.104   2.946   3.204
 5532TIP3    H216538   6.080   2.834   3.106
 5533TIP3   OH216539   4.756   7.619   6.110
 5533TIP3    H116540   4.716   7.553   6.166
 5533TIP3    H216541   4.753   7.700   6.162
 5534TIP3   OH216542   4.708   2.315   2.823
 5534TIP3    H116543   4.754   2.375   2.765
 5534TIP3    H216544   4.768   2.302   2.897
 5535TIP3   OH216545   7.774   4.000   1.584
 5535TIP3    H116546   7.765   4.093   1.564
 5535TIP3    H216547   7.797   3.959   1.501
 5536TIP3   OH216548   2.343   6.420   3.142
 5536TIP3    H116549   2.381   6.464   3.218
 5536TIP3    H216550   2.409   6.356   3.115
 5537TIP3   OH216551   3.203   0.365   3.205
 5537TIP3    H116552   3.125   0.316   3.179
 5537TIP3    H216553   3.185   0.455   3.178
 5538TIP3   OH216554   8.083   0.440   6.376
 5538TIP3    H116555   8.145   0.505   6.409
 5538TIP3    H216556   8.062   0.470   6.287
 5539TIP3   OH216557   3.910   0.024   2.203
 5539TIP3    H116558   4.002   0.015   2.181
 5539TIP3    H216559   3.876   0.087   2.139
 5540TIP3   OH216560   8.209   7.762   0.731
 5540TIP3    H116561   8.195   7.683   0.680
 5540TIP3    H216562   8.266   7.735   0.803
 5541TIP3   OH216563   6.055   6.237   4.176
 5541TIP3    H116564   6.059   6.202   4.265
 5541TIP3    H216565   6.137   6.206   4.135
 5542TIP3   OH216566   5.686   2.396   1.198
 5542TIP3    H116567   5.771   2.365   1.230
 5542TIP3    H216568   5.651   2.450   1.269
 5543TIP3   OH216569   5.007   3.259   0.724
 5543TIP3    H116570   5.094   3.222   0.704
 5543TIP3    H216571   4.991   3.321   0.654
 5544TIP3   OH216572   7.329   0.716   5.156
 5544TIP3    H116573   7.374   0.705   5.240
 5544TIP3    H216574   7.238   0.693   5.174
 5545TIP3   OH216575   0.077   4.233   3.572
 5545TIP3    H116576   0.047   4.316   3.534
 5545TIP3    H216577   0.023   4.166   3.529
 5546TIP3   OH216578   0.334   3.616   0.963
 5546TIP3    H116579   0.424   3.614   0.933
 5546TIP3    H216580   0.289   3.676   0.903
 5547TIP3   OH216581   3.425   7.492   4.052
 5547TIP3    H116582   3.440   7.576   4.008
 5547TIP3    H216583   3.422   7.428   3.982
 5548TIP3   OH216584   0.912   4.986   2.159
 5548TIP3    H116585   0.926   4.970   2.066
 5548TIP3    H216586   0.948   5.073   2.174
 5549TIP3   OH216587   4.930   6.009   0.399
 5549TIP3    H116588   4.862   6.020   0.333
 5549TIP3    H216589   4.987   6.085   0.388
 5550TIP3   OH216590   3.950   1.888   3.811
 5550TIP3    H116591   4.039   1.909   3.841
 5550TIP3    H216592   3.922   1.965   3.762
 5551TIP3   OH216593   1.619   5.243  -0.002
 5551TIP3    H116594   1.617   5.338  -0.019
 5551TIP3    H216595   1.581   5.234   0.085
 5552TIP3   OH216596   5.907   3.975   6.672
 5552TIP3    H116597   5.817   3.981   6.640
 5552TIP3    H216598   5.958   3.951   6.595
 5553TIP3   OH216599   3.711   5.257   4.505
 5553TIP3    H116600   3.696   5.197   4.578
 5553TIP3    H216601   3.629   5.254   4.455
 5554TIP3   OH216602   0.339   7.316   6.692
 5554TIP3    H116603   0.250   7.297   6.660
 5554TIP3    H216604   0.344   7.411   6.694
 5555TIP3   OH216605   1.494   2.307   4.271
 5555TIP3    H116606   1.532   2.322   4.358
 5555TIP3    H216607   1.523   2.219   4.247
 5556TIP3   OH216608   3.406   3.628   1.962
 5556TIP3    H116609   3.316   3.647   1.936
 5556TIP3    H216610   3.432   3.703   2.017
 5557TIP3   OH216611   0.316   1.001   5.155
 5557TIP3    H116612   0.275   0.996   5.068
 5557TIP3    H216613   0.394   0.947   5.147
 5558TIP3   OH216614   4.560   0.261   0.194
 5558TIP3    H116615   4.495   0.313   0.147
 5558TIP3    H216616   4.644   0.296   0.164
 5559TIP3   OH216617   2.321   6.841   3.914
 5559TIP3    H116618   2.241   6.885   3.886
 5559TIP3    H216619   2.386   6.911   3.920
 5560TIP3   OH216620   1.550   2.318   1.039
 5560TIP3    H116621   1.457   2.336   1.021
 5560TIP3    H216622   1.585   2.288   0.956
 5561TIP3   OH216623   7.304   5.207   5.076
 5561TIP3    H116624   7.250   5.258   5.136
 5561TIP3    H216625   7.250   5.130   5.056
 5562TIP3   OH216626   5.954   4.154   4.109
 5562TIP3    H116627   6.042   4.173   4.076
 5562TIP3    H216628   5.903   4.232   4.087
 5563TIP3   OH216629   7.794   4.952   2.086
 5563TIP3    H116630   7.836   5.017   2.142
 5563TIP3    H216631   7.825   4.868   2.118
 5564TIP3   OH216632   4.403   2.881   3.141
 5564TIP3    H116633   4.466   2.810   3.126
 5564TIP3    H216634   4.378   2.909   3.053
 5565TIP3   OH216635   1.006   3.064   5.379
 5565TIP3    H116636   1.025   3.088   5.469
 5565TIP3    H216637   0.968   2.976   5.384
 5566TIP3   OH216638   7.553   5.104   6.613
 5566TIP3    H116639   7.458   5.107   6.626
 5566TIP3    H216640   7.564   5.070   6.525
 5567TIP3   OH216641   3.643   2.396   0.290
 5567TIP3    H116642   3.654   2.312   0.246
 5567TIP3    H216643   3.605   2.453   0.222
 5568TIP3   OH216644   6.361   5.324   5.607
 5568TIP3    H116645   6.350   5.402   5.662
 5568TIP3    H216646   6.401   5.358   5.527
 5569TIP3   OH216647   0.200   1.123   3.330
 5569TIP3    H116648   0.209   1.175   3.410
 5569TIP3    H216649   0.289   1.094   3.309
 5570TIP3   OH216650   7.508   1.178   6.533
 5570TIP3    H116651   7.503   1.149   6.442
 5570TIP3    H216652   7.520   1.273   6.527
 5571TIP3   OH216653   7.210   6.051   3.001
 5571TIP3    H116654   7.263   6.009   3.069
 5571TIP3    H216655   7.275   6.085   2.939
 5572TIP3   OH216656   3.699   4.673   0.345
 5572TIP3    H116657   3.606   4.654   0.329
 5572TIP3    H216658   3.735   4.695   0.259
 5573TIP3   OH216659   5.228   4.032   5.906
 5573TIP3    H116660   5.236   4.108   5.965
 5573TIP3    H216661   5.204   3.960   5.964
 5574TIP3   OH216662   0.878   0.326   5.426
 5574TIP3    H116663   0.962   0.298   5.390
 5574TIP3    H216664   0.902   0.379   5.502
 5575TIP3   OH216665   4.817   5.016   5.239
 5575TIP3    H116666   4.802   5.034   5.332
 5575TIP3    H216667   4.784   4.927   5.227
 5576TIP3   OH216668   4.164   0.160   1.834
 5576TIP3    H116669   4.080   0.205   1.845
 5576TIP3    H216670   4.227   0.230   1.817
 5577TIP3   OH216671   3.125   1.913   2.600
 5577TIP3    H116672   3.214   1.914   2.635
 5577TIP3    H216673   3.137   1.897   2.506
 5578TIP3   OH216674   0.544   3.534   5.675
 5578TIP3    H116675   0.630   3.532   5.632
 5578TIP3    H216676   0.484   3.500   5.608
 5579TIP3   OH216677   8.012   6.246   3.725
 5579TIP3    H116678   8.079   6.284   3.783
 5579TIP3    H216679   8.060   6.182   3.672
 5580TIP3   OH216680   8.059   7.705   5.634
 5580TIP3    H116681   8.073   7.612   5.615
 5580TIP3    H216682   8.085   7.715   5.725
 5581TIP3   OH216683   8.074   4.691   4.854
 5581TIP3    H116684   8.052   4.770   4.805
 5581TIP3    H216685   8.122   4.723   4.931
 5582TIP3   OH216686   6.437   2.126   2.283
 5582TIP3    H116687   6.358   2.098   2.237
 5582TIP3    H216688   6.415   2.212   2.319
 5583TIP3   OH216689   4.604   0.281   3.189
 5583TIP3    H116690   4.620   0.322   3.104
 5583TIP3    H216691   4.606   0.354   3.251
 5584TIP3   OH216692   6.499   3.221   6.835
 5584TIP3    H116693   6.554   3.229   6.757
 5584TIP3    H216694   6.432   3.289   6.825
 5585TIP3   OH216695   2.053   1.860   4.605
 5585TIP3    H116696   2.100   1.865   4.521
 5585TIP3    H216697   1.969   1.818   4.583
 5586TIP3   OH216698   3.380   6.654   0.098
 5586TIP3    H116699   3.458   6.605   0.074
 5586TIP3    H216700   3.341   6.679   0.014
 5587TIP3   OH216701   2.872   5.096   2.523
 5587TIP3    H116702   2.815   5.067   2.594
 5587TIP3    H216703   2.940   5.028   2.517
 5588TIP3   OH216704   1.080   4.765   0.133
 5588TIP3    H116705   1.010   4.796   0.191
 5588TIP3    H216706   1.159   4.769   0.187
 5589TIP3   OH216707   3.594   4.957   4.346
 5589TIP3    H116708   3.514   4.992   4.306
 5589TIP3    H216709   3.604   4.871   4.305
 5590TIP3   OH216710   7.472   3.625   2.321
 5590TIP3    H116711   7.384   3.620   2.283
 5590TIP3    H216712   7.515   3.545   2.290
 5591TIP3   OH216713   6.050   2.617   6.023
 5591TIP3    H116714   6.073   2.652   6.108
 5591TIP3    H216715   6.100   2.670   5.961
 5592TIP3   OH216716   2.713   7.113   6.234
 5592TIP3    H116717   2.706   7.197   6.279
 5592TIP3    H216718   2.806   7.089   6.241
 5593TIP3   OH216719   1.074   3.579   4.203
 5593TIP3    H116720   1.005   3.613   4.146
 5593TIP3    H216721   1.031   3.567   4.288
 5594TIP3   OH216722   6.270   1.297   2.129
 5594TIP3    H116723   6.309   1.376   2.166
 5594TIP3    H216724   6.185   1.290   2.172
 5595TIP3   OH216725   4.176   5.588   2.443
 5595TIP3    H116726   4.173   5.614   2.535
 5595TIP3    H216727   4.184   5.493   2.445
 5596TIP3   OH216728   3.910   1.559   4.332
 5596TIP3    H116729   3.816   1.575   4.332
 5596TIP3    H216730   3.949   1.647   4.337
 5597TIP3   OH216731   5.399   0.263   2.238
 5597TIP3    H116732   5.414   0.296   2.327
 5597TIP3    H216733   5.472   0.204   2.222
 5598TIP3   OH216734   2.255   3.383   4.089
 5598TIP3    H116735   2.311   3.307   4.107
 5598TIP3    H216736   2.211   3.362   4.008
 5599TIP3   OH216737   6.547   6.021   6.065
 5599TIP3    H116738   6.572   6.049   6.153
 5599TIP3    H216739   6.619   6.050   6.009
 5600TIP3   OH216740   4.507   6.752   2.236
 5600TIP3    H116741   4.451   6.677   2.217
 5600TIP3    H216742   4.572   6.752   2.166
 5601TIP3   OH216743   5.797   2.710   1.162
 5601TIP3    H116744   5.807   2.679   1.072
 5601TIP3    H216745   5.751   2.640   1.207
 5602TIP3   OH216746   3.040   4.993   5.449
 5602TIP3    H116747   3.094   4.915   5.440
 5602TIP3    H216748   2.958   4.962   5.486
 5603TIP3   OH216749   5.418   1.380   5.969
 5603TIP3    H116750   5.480   1.324   6.016
 5603TIP3    H216751   5.335   1.368   6.014
 5604TIP3   OH216752   6.367   0.318   3.629
 5604TIP3    H116753   6.367   0.414   3.623
 5604TIP3    H216754   6.441   0.298   3.687
 5605TIP3   OH216755   1.924   5.863   5.119
 5605TIP3    H116756   1.934   5.833   5.209
 5605TIP3    H216757   1.846   5.919   5.121
 5606TIP3   OH216758   6.828   3.697   6.494
 5606TIP3    H116759   6.919   3.696   6.467
 5606TIP3    H216760   6.781   3.651   6.424
 5607TIP3   OH216761   3.979   3.720   1.857
 5607TIP3    H116762   3.991   3.780   1.784
 5607TIP3    H216763   3.890   3.686   1.845
 5608TIP3   OH216764   2.370   4.863   0.392
 5608TIP3    H116765   2.340   4.864   0.483
 5608TIP3    H216766   2.352   4.951   0.360
 5609TIP3   OH216767   0.616   1.189   3.464
 5609TIP3    H116768   0.699   1.234   3.445
 5609TIP3    H216769   0.581   1.235   3.541
 5610TIP3   OH216770   7.881   2.336   1.871
 5610TIP3    H116771   7.975   2.343   1.854
 5610TIP3    H216772   7.864   2.400   1.939
 5611TIP3   OH216773   2.394   0.646   6.567
 5611TIP3    H116774   2.328   0.716   6.570
 5611TIP3    H216775   2.477   0.693   6.565
 5612TIP3   OH216776   4.132   1.568   2.773
 5612TIP3    H116777   4.208   1.539   2.823
 5612TIP3    H216778   4.141   1.663   2.768
 5613TIP3   OH216779   0.621   0.748   5.372
 5613TIP3    H116780   0.647   0.794   5.292
 5613TIP3    H216781   0.555   0.685   5.343
 5614TIP3   OH216782   1.181   1.120   3.367
 5614TIP3    H116783   1.095   1.085   3.390
 5614TIP3    H216784   1.192   1.097   3.275
 5615TIP3   OH216785   4.465   3.710   4.607
 5615TIP3    H116786   4.547   3.754   4.586
 5615TIP3    H216787   4.490   3.618   4.618
 5616TIP3   OH216788   8.102   4.679   5.839
 5616TIP3    H116789   8.038   4.675   5.768
 5616TIP3    H216790   8.160   4.751   5.815
 5617TIP3   OH216791   4.783   1.339   0.524
 5617TIP3    H116792   4.820   1.290   0.450
 5617TIP3    H216793   4.817   1.428   0.513
 5618TIP3   OH216794   1.218   0.462   3.436
 5618TIP3    H116795   1.132   0.419   3.442
 5618TIP3    H216796   1.240   0.484   3.526
 5619TIP3   OH216797   1.450   0.110   1.327
 5619TIP3    H116798   1.400   0.032   1.304
 5619TIP3    H216799   1.513   0.120   1.256
 5620TIP3   OH216800   7.743   7.083   1.317
 5620TIP3    H116801   7.778   7.078   1.228
 5620TIP3    H216802   7.688   7.162   1.317
 5621TIP3   OH216803   6.469   2.121   5.354
 5621TIP3    H116804   6.522   2.107   5.275
 5621TIP3    H216805   6.407   2.189   5.329
 5622TIP3   OH216806   8.287   2.708   3.484
 5622TIP3    H116807   8.264   2.633   3.429
 5622TIP3    H216808   8.363   2.746   3.441
 5623TIP3   OH216809   7.923   6.670   1.472
 5623TIP3    H116810   7.923   6.748   1.416
 5623TIP3    H216811   7.859   6.612   1.431
 5624TIP3   OH216812   1.809   2.058   1.677
 5624TIP3    H116813   1.780   2.111   1.603
 5624TIP3    H216814   1.758   1.978   1.670
 5625TIP3   OH216815   1.557   2.235   4.572
 5625TIP3    H116816   1.617   2.170   4.611
 5625TIP3    H216817   1.485   2.183   4.537
 5626TIP3   OH216818   5.580   3.542   2.286
 5626TIP3    H116819   5.545   3.454   2.295
 5626TIP3    H216820   5.608   3.566   2.374
 5627TIP3   OH216821   2.981   4.643   6.004
 5627TIP3    H116822   3.052   4.694   6.043
 5627TIP3    H216823   2.990   4.658   5.910
 5628TIP3   OH216824   7.658   1.744   2.512
 5628TIP3    H116825   7.629   1.798   2.586
 5628TIP3    H216826   7.714   1.678   2.552
 5629TIP3   OH216827   3.528   1.843   5.873
 5629TIP3    H116828   3.481   1.811   5.796
 5629TIP3    H216829   3.599   1.781   5.886
 5630TIP3   OH216830   2.166   3.742   2.090
 5630TIP3    H116831   2.124   3.762   2.174
 5630TIP3    H216832   2.111   3.785   2.025
 5631TIP3   OH216833   0.404   1.195   2.350
 5631TIP3    H116834   0.483   1.248   2.352
 5631TIP3    H216835   0.347   1.239   2.287
 5632TIP3   OH216836   7.074   7.271   3.918
 5632TIP3    H116837   7.050   7.308   3.834
 5632TIP3    H216838   7.048   7.179   3.912
 5633TIP3   OH216839   6.812   7.140   5.094
 5633TIP3    H116840   6.838   7.231   5.077
 5633TIP3    H216841   6.787   7.106   5.008
 5634TIP3   OH216842   5.312   7.390   1.561
 5634TIP3    H116843   5.329   7.470   1.610
 5634TIP3    H216844   5.280   7.420   1.476
 5635TIP3   OH216845   3.685   0.626   0.319
 5635TIP3    H116846   3.638   0.558   0.271
 5635TIP3    H216847   3.746   0.663   0.255
 5636TIP3   OH216848   8.109   5.803   0.246
 5636TIP3    H116849   8.080   5.720   0.209
 5636TIP3    H216850   8.125   5.859   0.170
 5637TIP3   OH216851   0.356   5.518   2.164
 5637TIP3    H116852   0.325   5.445   2.112
 5637TIP3    H216853   0.279   5.572   2.179
 5638TIP3   OH216854   6.902   2.964   2.372
 5638TIP3    H116855   6.906   3.021   2.449
 5638TIP3    H216856   6.992   2.963   2.339
 5639TIP3   OH216857   5.105   7.332   4.687
 5639TIP3    H116858   5.069   7.304   4.771
 5639TIP3    H216859   5.098   7.254   4.631
 5640TIP3   OH216860   7.996   4.256   1.701
 5640TIP3    H116861   7.908   4.275   1.731
 5640TIP3    H216862   8.017   4.172   1.740
 5641TIP3   OH216863   2.740   4.080   6.636
 5641TIP3    H116864   2.713   4.166   6.670
 5641TIP3    H216865   2.814   4.099   6.579
 5642TIP3   OH216866   0.580   5.792   3.049
 5642TIP3    H116867   0.642   5.741   3.102
 5642TIP3    H216868   0.494   5.759   3.074
 5643TIP3   OH216869   1.001   4.634   5.156
 5643TIP3    H116870   1.093   4.609   5.153
 5643TIP3    H216871   0.957   4.560   5.199
 5644TIP3   OH216872   2.797   4.209   2.465
 5644TIP3    H116873   2.840   4.135   2.507
 5644TIP3    H216874   2.767   4.263   2.538
 5645TIP3   OH216875   5.464   7.028   6.777
 5645TIP3    H116876   5.532   7.079   6.822
 5645TIP3    H216877   5.402   7.094   6.745
 5646TIP3   OH216878   6.793   3.424   2.251
 5646TIP3    H116879   6.804   3.329   2.242
 5646TIP3    H216880   6.777   3.438   2.344
 5647TIP3   OH216881   8.067   1.199   1.852
 5647TIP3    H116882   8.137   1.183   1.788
 5647TIP3    H216883   8.077   1.291   1.877
 5648TIP3   OH216884   4.258   2.209   1.656
 5648TIP3    H116885   4.196   2.243   1.591
 5648TIP3    H216886   4.343   2.242   1.628
 5649TIP3   OH216887   6.319   7.304   2.458
 5649TIP3    H116888   6.303   7.235   2.394
 5649TIP3    H216889   6.300   7.385   2.411
 5650TIP3   OH216890   7.146   0.535   5.787
 5650TIP3    H116891   7.104   0.505   5.706
 5650TIP3    H216892   7.224   0.480   5.795
 5651TIP3   OH216893   0.823   4.509   0.875
 5651TIP3    H116894   0.764   4.477   0.807
 5651TIP3    H216895   0.832   4.436   0.936
 5652TIP3   OH216896   7.217   3.012   1.146
 5652TIP3    H116897   7.204   2.917   1.154
 5652TIP3    H216898   7.231   3.027   1.053
 5653TIP3   OH216899   4.737   7.193   1.859
 5653TIP3    H116900   4.687   7.264   1.899
 5653TIP3    H216901   4.813   7.236   1.820
 5654TIP3   OH216902   2.136   0.771   2.254
 5654TIP3    H116903   2.092   0.733   2.330
 5654TIP3    H216904   2.213   0.717   2.241
 5655TIP3   OH216905   8.076   5.433   3.342
 5655TIP3    H116906   8.056   5.509   3.396
 5655TIP3    H216907   8.169   5.417   3.356
 5656TIP3   OH216908   6.180   2.519   6.796
 5656TIP3    H116909   6.182   2.557   6.884
 5656TIP3    H216910   6.271   2.522   6.768
 5657TIP3   OH216911   0.763   6.419   1.582
 5657TIP3    H116912   0.807   6.432   1.666
 5657TIP3    H216913   0.793   6.491   1.527
 5658TIP3   OH216914   4.286   1.926   1.449
 5658TIP3    H116915   4.343   1.950   1.523
 5658TIP3    H216916   4.346   1.886   1.385
 5659TIP3   OH216917   7.886   2.882   2.513
 5659TIP3    H116918   7.808   2.846   2.555
 5659TIP3    H216919   7.911   2.816   2.449
 5660TIP3   OH216920   3.829   0.588   1.355
 5660TIP3    H116921   3.752   0.631   1.316
 5660TIP3    H216922   3.793   0.538   1.428
 5661TIP3   OH216923   2.416   4.179   2.781
 5661TIP3    H116924   2.414   4.102   2.838
 5661TIP3    H216925   2.504   4.179   2.743
 5662TIP3   OH216926   4.203   0.220   0.510
 5662TIP3    H116927   4.294   0.236   0.533
 5662TIP3    H216928   4.159   0.303   0.526
 5663TIP3   OH216929   0.777   7.246   1.051
 5663TIP3    H116930   0.758   7.231   1.143
 5663TIP3    H216931   0.778   7.159   1.011
 5664TIP3   OH216932   0.097   2.343   0.276
 5664TIP3    H116933   0.056   2.269   0.231
 5664TIP3    H216934   0.080   2.418   0.220
 5665TIP3   OH216935   3.525   0.716   5.864
 5665TIP3    H116936   3.536   0.698   5.770
 5665TIP3    H216937   3.568   0.642   5.907
 5666TIP3   OH216938   0.086   6.193   5.964
 5666TIP3    H116939   0.055   6.283   5.964
 5666TIP3    H216940   0.046   6.154   5.886
 5667TIP3   OH216941   1.415   1.155   3.640
 5667TIP3    H116942   1.376   1.235   3.677
 5667TIP3    H216943   1.477   1.187   3.575
 5668TIP3   OH216944   4.040   4.417   1.668
 5668TIP3    H116945   4.065   4.435   1.758
 5668TIP3    H216946   4.029   4.503   1.628
 5669TIP3   OH216947   3.012   6.770   3.651
 5669TIP3    H116948   3.061   6.781   3.733
 5669TIP3    H216949   2.986   6.678   3.651
 5670TIP3   OH216950   2.423   0.275   2.569
 5670TIP3    H116951   2.442   0.328   2.646
 5670TIP3    H216952   2.396   0.338   2.502
 5671TIP3   OH216953   4.025   7.271   4.407
 5671TIP3    H116954   4.083   7.334   4.448
 5671TIP3    H216955   3.958   7.252   4.473
 5672TIP3   OH216956   3.067   1.059   2.520
 5672TIP3    H116957   3.127   1.088   2.589
 5672TIP3    H216958   2.986   1.106   2.537
 5673TIP3   OH216959   5.149   3.897   5.012
 5673TIP3    H116960   5.181   3.807   5.021
 5673TIP3    H216961   5.228   3.951   5.012
 5674TIP3   OH216962   0.724   1.562   3.744
 5674TIP3    H116963   0.676   1.643   3.761
 5674TIP3    H216964   0.759   1.573   3.655
 5675TIP3   OH216965   3.549   2.712   6.852
 5675TIP3    H116966   3.465   2.751   6.827
 5675TIP3    H216967   3.565   2.646   6.785
 5676TIP3   OH216968   5.797   1.405   3.925
 5676TIP3    H116969   5.862   1.475   3.935
 5676TIP3    H216970   5.744   1.410   4.005
 5677TIP3   OH216971   1.259   0.628   1.514
 5677TIP3    H116972   1.346   0.611   1.549
 5677TIP3    H216973   1.230   0.544   1.479
 5678TIP3   OH216974   0.068   7.002   6.677
 5678TIP3    H116975   0.066   7.022   6.583
 5678TIP3    H216976  -0.015   6.958   6.693
 5679TIP3   OH216977   0.565   0.668   2.574
 5679TIP3    H116978   0.623   0.618   2.631
 5679TIP3    H216979   0.477   0.649   2.606
 5680TIP3   OH216980   4.470   4.095   0.704
 5680TIP3    H116981   4.530   4.038   0.753
 5680TIP3    H216982   4.417   4.137   0.771
 5681TIP3   OH216983   2.549   5.727   1.086
 5681TIP3    H116984   2.602   5.736   1.166
 5681TIP3    H216985   2.521   5.817   1.067
 5682TIP3   OH216986   3.957   0.729   4.336
 5682TIP3    H116987   4.050   0.709   4.348
 5682TIP3    H216988   3.929   0.671   4.264
 5683TIP3   OH216989   2.443   7.637   5.105
 5683TIP3    H116990   2.420   7.721   5.066
 5683TIP3    H216991   2.536   7.645   5.125
 5684TIP3   OH216992   0.846   0.565   5.589
 5684TIP3    H116993   0.884   0.571   5.676
 5684TIP3    H216994   0.752   0.558   5.604
 5685TIP3   OH216995   4.821   7.301   3.552
 5685TIP3    H116996   4.865   7.221   3.521
 5685TIP3    H216997   4.794   7.279   3.642
 5686TIP3   OH216998   1.186   0.057   2.461
 5686TIP3    H116999   1.236   0.135   2.485
 5686TIP3    H217000   1.098   0.073   2.496
 5687TIP3   OH217001   3.764   6.440   0.846
 5687TIP3    H117002   3.756   6.370   0.781
 5687TIP3    H217003   3.682   6.438   0.895
 5688TIP3   OH217004   2.242   6.446   4.872
 5688TIP3    H117005   2.170   6.429   4.932
 5688TIP3    H217006   2.229   6.536   4.843
 5689TIP3   OH217007   7.659   5.247   2.570
 5689TIP3    H117008   7.675   5.178   2.635
 5689TIP3    H217009   7.586   5.298   2.606
 5690TIP3   OH217010   3.718   6.769   3.493
 5690TIP3    H117011   3.720   6.811   3.579
 5690TIP3    H217012   3.631   6.787   3.459
 5691TIP3   OH217013   6.398   0.154   1.369
 5691TIP3    H117014   6.412   0.135   1.462
 5691TIP3    H217015   6.381   0.069   1.330
 5692TIP3   OH217016   6.515   5.679   0.585
 5692TIP3    H117017   6.500   5.620   0.659
 5692TIP3    H217018   6.526   5.765   0.625
 5693TIP3   OH217019   0.379   1.094   6.033
 5693TIP3    H117020   0.366   1.056   5.946
 5693TIP3    H217021   0.299   1.072   6.080
 5694TIP3   OH217022   3.498   5.654   6.624
 5694TIP3    H117023   3.421   5.703   6.654
 5694TIP3    H217024   3.473   5.562   6.631
 5695TIP3   OH217025   4.811   1.286   3.136
 5695TIP3    H117026   4.790   1.208   3.085
 5695TIP3    H217027   4.867   1.338   3.079
 5696TIP3   OH217028   0.946   5.817   1.076
 5696TIP3    H117029   0.986   5.827   1.163
 5696TIP3    H217030   0.964   5.900   1.031
 5697TIP3   OH217031   6.623   3.677   5.048
 5697TIP3    H117032   6.675   3.619   5.103
 5697TIP3    H217033   6.536   3.676   5.087
 5698TIP3   OH217034   3.347   6.049   0.623
 5698TIP3    H117035   3.388   6.135   0.630
 5698TIP3    H217036   3.290   6.043   0.700
 5699TIP3   OH217037   4.981   7.846   2.620
 5699TIP3    H117038   4.953   7.861   2.530
 5699TIP3    H217039   5.067   7.805   2.612
 5700TIP3   OH217040   6.120   0.912   5.037
 5700TIP3    H117041   6.059   0.966   5.087
 5700TIP3    H217042   6.132   0.960   4.955
 5701TIP3   OH217043   5.667   7.767   5.994
 5701TIP3    H117044   5.736   7.740   5.934
 5701TIP3    H217045   5.604   7.694   5.991
 5702TIP3   OH217046   3.131   5.236   1.317
 5702TIP3    H117047   3.115   5.304   1.383
 5702TIP3    H217048   3.146   5.156   1.368
 5703TIP3   OH217049   7.282   0.725   1.928
 5703TIP3    H117050   7.207   0.675   1.896
 5703TIP3    H217051   7.351   0.705   1.865
 5704TIP3   OH217052   7.814   7.121   5.999
 5704TIP3    H117053   7.744   7.084   5.945
 5704TIP3    H217054   7.879   7.051   6.006
 5705TIP3   OH217055   3.220   4.921   6.571
 5705TIP3    H117056   3.225   4.874   6.487
 5705TIP3    H217057   3.286   4.989   6.564
 5706TIP3   OH217058   3.220   4.688   0.524
 5706TIP3    H117059   3.142   4.686   0.578
 5706TIP3    H217060   3.270   4.610   0.550
 5707TIP3   OH217061   5.363   7.152   3.786
 5707TIP3    H117062   5.376   7.206   3.708
 5707TIP3    H217063   5.449   7.149   3.828
 5708TIP3   OH217064   7.501   6.220   1.379
 5708TIP3    H117065   7.530   6.131   1.359
 5708TIP3    H217066   7.566   6.277   1.338
 5709TIP3   OH217067   3.820   4.446   6.595
 5709TIP3    H117068   3.911   4.457   6.622
 5709TIP3    H217069   3.824   4.426   6.502
 5710TIP3   OH217070   2.948   0.378   2.445
 5710TIP3    H117071   2.996   0.365   2.363
 5710TIP3    H217072   3.013   0.416   2.504
 5711TIP3   OH217073   0.274   2.780   4.732
 5711TIP3    H117074   0.324   2.797   4.811
 5711TIP3    H217075   0.299   2.691   4.706
 5712TIP3   OH217076   2.490   6.157   5.192
 5712TIP3    H117077   2.585   6.159   5.208
 5712TIP3    H217078   2.464   6.069   5.218
 5713TIP3   OH217079   5.311   3.072   2.441
 5713TIP3    H117080   5.323   3.029   2.526
 5713TIP3    H217081   5.243   3.019   2.397
 5714TIP3   OH217082   5.253   1.541   4.138
 5714TIP3    H117083   5.240   1.508   4.049
 5714TIP3    H217084   5.347   1.554   4.145
 5715TIP3   OH217085   5.554   3.349   5.729
 5715TIP3    H117086   5.602   3.363   5.647
 5715TIP3    H217087   5.612   3.384   5.797
 5716TIP3   OH217088   6.114   0.353   6.061
 5716TIP3    H117089   6.183   0.338   6.126
 5716TIP3    H217090   6.093   0.266   6.027
 5717TIP3   OH217091   3.230   4.377   1.049
 5717TIP3    H117092   3.262   4.467   1.044
 5717TIP3    H217093   3.149   4.383   1.099
 5718TIP3   OH217094   2.846   1.798   3.875
 5718TIP3    H117095   2.856   1.737   3.948
 5718TIP3    H217096   2.907   1.766   3.809
 5719TIP3   OH217097   4.515   3.610   1.741
 5719TIP3    H117098   4.482   3.692   1.777
 5719TIP3    H217099   4.514   3.623   1.646
 5720TIP3   OH217100   7.146   3.446   0.794
 5720TIP3    H117101   7.148   3.501   0.716
 5720TIP3    H217102   7.120   3.505   0.864
 5721TIP3   OH217103   2.348   6.964   5.246
 5721TIP3    H117104   2.426   6.945   5.298
 5721TIP3    H217105   2.301   7.029   5.298
 5722TIP3   OH217106   4.069   7.531   3.143
 5722TIP3    H117107   4.053   7.602   3.081
 5722TIP3    H217108   4.014   7.459   3.113
 5723TIP3   OH217109   3.190   5.263   5.139
 5723TIP3    H117110   3.138   5.322   5.084
 5723TIP3    H217111   3.212   5.190   5.081
 5724TIP3   OH217112   4.609   2.101   3.566
 5724TIP3    H117113   4.625   2.106   3.472
 5724TIP3    H217114   4.582   2.189   3.591
 5725TIP3   OH217115   3.421   4.908   1.029
 5725TIP3    H117116   3.386   4.914   0.940
 5725TIP3    H217117   3.476   4.986   1.039
 5726TIP3   OH217118   1.256   5.378   0.347
 5726TIP3    H117119   1.290   5.378   0.436
 5726TIP3    H217120   1.188   5.445   0.346
 5727TIP3   OH217121   2.341   5.913   3.494
 5727TIP3    H117122   2.339   6.004   3.466
 5727TIP3    H217123   2.306   5.914   3.583
 5728TIP3   OH217124   2.146   0.986   3.984
 5728TIP3    H117125   2.155   0.894   3.960
 5728TIP3    H217126   2.117   0.984   4.075
 5729TIP3   OH217127   3.374   7.493   6.239
 5729TIP3    H117128   3.342   7.408   6.210
 5729TIP3    H217129   3.303   7.554   6.219
 5730TIP3   OH217130   7.628   4.347   5.571
 5730TIP3    H117131   7.607   4.265   5.527
 5730TIP3    H217132   7.640   4.323   5.663
 5731TIP3   OH217133   5.447   1.358   6.416
 5731TIP3    H117134   5.416   1.431   6.362
 5731TIP3    H217135   5.524   1.392   6.462
 5732TIP3   OH217136   7.800   1.129   0.815
 5732TIP3    H117137   7.823   1.206   0.866
 5732TIP3    H217138   7.852   1.137   0.735
 5733TIP3   OH217139   2.441   2.962   0.874
 5733TIP3    H117140   2.399   2.926   0.796
 5733TIP3    H217141   2.458   2.886   0.929
 5734TIP3   OH217142   2.665   5.592   2.706
 5734TIP3    H117143   2.754   5.566   2.682
 5734TIP3    H217144   2.659   5.576   2.800
 5735TIP3   OH217145   5.904   5.580   4.421
 5735TIP3    H117146   5.830   5.589   4.480
 5735TIP3    H217147   5.864   5.571   4.334
 5736TIP3   OH217148   4.230   0.938   2.578
 5736TIP3    H117149   4.173   0.971   2.508
 5736TIP3    H217150   4.170   0.897   2.641
 5737TIP3   OH217151   3.797   7.108   1.081
 5737TIP3    H117152   3.879   7.154   1.062
 5737TIP3    H217153   3.763   7.151   1.159
 5738TIP3   OH217154   2.783   2.889   2.387
 5738TIP3    H117155   2.834   2.936   2.321
 5738TIP3    H217156   2.778   2.949   2.461
 5739TIP3   OH217157   3.984   7.598   2.475
 5739TIP3    H117158   3.977   7.683   2.432
 5739TIP3    H217159   3.894   7.568   2.484
 5740TIP3   OH217160   6.318   2.992   2.150
 5740TIP3    H117161   6.406   3.029   2.149
 5740TIP3    H217162   6.261   3.066   2.133
 5741TIP3   OH217163   1.076   2.479   2.933
 5741TIP3    H117164   1.153   2.514   2.889
 5741TIP3    H217165   1.075   2.524   3.018
 5742TIP3   OH217166   7.032   1.082   6.754
 5742TIP3    H117167   7.096   1.135   6.801
 5742TIP3    H217168   6.948   1.127   6.768
 5743TIP3   OH217169   8.259   2.868   5.749
 5743TIP3    H117170   8.352   2.853   5.736
 5743TIP3    H217171   8.217   2.788   5.719
 5744TIP3   OH217172   0.097   3.341   3.759
 5744TIP3    H117173   0.099   3.384   3.673
 5744TIP3    H217174   0.152   3.263   3.748
 5745TIP3   OH217175   1.959   5.340   5.442
 5745TIP3    H117176   2.015   5.278   5.395
 5745TIP3    H217177   1.903   5.377   5.375
 5746TIP3   OH217178   3.158   2.583   0.304
 5746TIP3    H117179   3.102   2.654   0.337
 5746TIP3    H217180   3.236   2.628   0.272
 5747TIP3   OH217181   7.497   3.936   3.557
 5747TIP3    H117182   7.425   3.937   3.620
 5747TIP3    H217183   7.472   3.870   3.493
 5748TIP3   OH217184   0.192   1.627   0.687
 5748TIP3    H117185   0.105   1.655   0.660
 5748TIP3    H217186   0.221   1.694   0.749
 5749TIP3   OH217187   8.346   4.755   2.727
 5749TIP3    H117188   8.305   4.826   2.776
 5749TIP3    H217189   8.333   4.677   2.781
 5750TIP3   OH217190   1.767   3.747   3.349
 5750TIP3    H117191   1.773   3.723   3.441
 5750TIP3    H217192   1.785   3.665   3.302
 5751TIP3   OH217193   0.313   7.695   2.370
 5751TIP3    H117194   0.306   7.624   2.435
 5751TIP3    H217195   0.237   7.750   2.387
 5752TIP3   OH217196   7.030   1.510   2.285
 5752TIP3    H117197   7.023   1.477   2.196
 5752TIP3    H217198   7.004   1.602   2.279
 5753TIP3   OH217199   5.288   3.123   3.018
 5753TIP3    H117200   5.231   3.156   2.948
 5753TIP3    H217201   5.320   3.039   2.985
 5754TIP3   OH217202   4.291   0.391   1.785
 5754TIP3    H117203   4.385   0.381   1.772
 5754TIP3    H217204   4.262   0.444   1.711
 5755TIP3   OH217205   4.849   2.972   1.968
 5755TIP3    H117206   4.829   2.897   2.025
 5755TIP3    H217207   4.942   2.989   1.983
 5756TIP3   OH217208   5.939   7.675   1.246
 5756TIP3    H117209   6.009   7.677   1.311
 5756TIP3    H217210   5.969   7.734   1.177
 5757TIP3   OH217211   5.849   7.234   3.159
 5757TIP3    H117212   5.816   7.309   3.109
 5757TIP3    H217213   5.782   7.218   3.225
 5758TIP3   OH217214   1.239   2.950   5.842
 5758TIP3    H117215   1.307   3.011   5.812
 5758TIP3    H217216   1.259   2.936   5.934
 5759TIP3   OH217217   3.435   1.637   3.624
 5759TIP3    H117218   3.520   1.679   3.637
 5759TIP3    H217219   3.377   1.707   3.595
 5760TIP3   OH217220   2.766   3.159   0.837
 5760TIP3    H117221   2.731   3.132   0.922
 5760TIP3    H217222   2.813   3.083   0.805
 5761TIP3   OH217223   2.070   7.582   3.736
 5761TIP3    H117224   2.132   7.634   3.684
 5761TIP3    H217225   1.986   7.626   3.724
 5762TIP3   OH217226   4.437   6.804   5.091
 5762TIP3    H117227   4.467   6.761   5.171
 5762TIP3    H217228   4.342   6.791   5.091
 5763TIP3   OH217229   3.336   0.383   0.354
 5763TIP3    H117230   3.400   0.321   0.318
 5763TIP3    H217231   3.332   0.454   0.291
 5764TIP3   OH217232   0.571   6.676   1.401
 5764TIP3    H117233   0.505   6.732   1.361
 5764TIP3    H217234   0.541   6.587   1.386
 5765TIP3   OH217235   1.580   2.601   4.375
 5765TIP3    H117236   1.530   2.647   4.307
 5765TIP3    H217237   1.651   2.558   4.327
 5766TIP3   OH217238   6.385   7.076   5.919
 5766TIP3    H117239   6.348   7.024   5.847
 5766TIP3    H217240   6.366   7.025   5.998
 5767TIP3   OH217241   1.485   6.755   3.731
 5767TIP3    H117242   1.517   6.665   3.730
 5767TIP3    H217243   1.487   6.783   3.639
 5768TIP3   OH217244   7.861   7.758   3.072
 5768TIP3    H117245   7.766   7.764   3.077
 5768TIP3    H217246   7.888   7.725   3.158
 5769TIP3   OH217247   0.930   2.613   3.204
 5769TIP3    H117248   0.886   2.698   3.200
 5769TIP3    H217249   1.023   2.634   3.207
 5770TIP3   OH217250   5.989   0.812   6.670
 5770TIP3    H117251   6.069   0.803   6.723
 5770TIP3    H217252   6.019   0.799   6.580
 5771TIP3   OH217253   0.049   5.844   2.629
 5771TIP3    H117254   0.115   5.886   2.573
 5771TIP3    H217255  -0.021   5.908   2.637
 5772TIP3   OH217256   1.568   6.694   4.254
 5772TIP3    H117257   1.502   6.664   4.317
 5772TIP3    H217258   1.519   6.748   4.192
 5773TIP3   OH217259   0.772   0.292   6.697
 5773TIP3    H117260   0.859   0.332   6.708
 5773TIP3    H217261   0.765   0.277   6.603
 5774TIP3   OH217262   6.335   3.374   5.095
 5774TIP3    H117263   6.261   3.358   5.036
 5774TIP3    H217264   6.397   3.304   5.075
 5775TIP3   OH217265   1.460   0.279   3.091
 5775TIP3    H117266   1.427   0.343   3.029
 5775TIP3    H217267   1.476   0.328   3.172
 5776TIP3   OH217268   4.069   2.412   3.734
 5776TIP3    H117269   4.050   2.394   3.642
 5776TIP3    H217270   4.157   2.450   3.733
 5777TIP3   OH217271   4.866   7.410   2.557
 5777TIP3    H117272   4.862   7.478   2.489
 5777TIP3    H217273   4.940   7.355   2.531
 5778TIP3   OH217274   2.282   3.879   3.619
 5778TIP3    H117275   2.236   3.805   3.580
 5778TIP3    H217276   2.250   3.883   3.709
 5779TIP3   OH217277   1.770   0.880   4.422
 5779TIP3    H117278   1.816   0.847   4.499
 5779TIP3    H217279   1.686   0.910   4.456
 5780TIP3   OH217280   0.695   4.234   6.716
 5780TIP3    H117281   0.723   4.217   6.806
 5780TIP3    H217282   0.642   4.158   6.693
 5781TIP3   OH217283   0.027   2.570   0.835
 5781TIP3    H117284   0.090   2.544   0.768
 5781TIP3    H217285   0.016   2.493   0.890
 5782TIP3   OH217286   0.956   0.082   0.509
 5782TIP3    H117287   0.975   0.139   0.583
 5782TIP3    H217288   0.997   0.126   0.434
 5783TIP3   OH217289   5.394   4.748   6.456
 5783TIP3    H117290   5.349   4.723   6.375
 5783TIP3    H217291   5.402   4.843   6.451
 5784TIP3   OH217292   7.954   1.469   0.566
 5784TIP3    H117293   7.925   1.390   0.611
 5784TIP3    H217294   7.877   1.497   0.516
 5785TIP3   OH217295   1.028   1.950   6.468
 5785TIP3    H117296   1.056   1.943   6.377
 5785TIP3    H217297   0.933   1.940   6.465
 5786TIP3   OH217298   8.038   6.050   4.293
 5786TIP3    H117299   8.089   6.000   4.357
 5786TIP3    H217300   8.017   5.988   4.224
 5787TIP3   OH217301   5.961   0.650   2.330
 5787TIP3    H117302   6.055   0.663   2.340
 5787TIP3    H217303   5.946   0.660   2.236
 5788TIP3   OH217304   7.897   4.594   2.636
 5788TIP3    H117305   7.817   4.580   2.587
 5788TIP3    H217306   7.968   4.573   2.575
 5789TIP3   OH217307   4.946   1.485   0.756
 5789TIP3    H117308   4.864   1.500   0.709
 5789TIP3    H217309   4.938   1.396   0.790
 5790TIP3   OH217310   2.190   6.977   2.176
 5790TIP3    H117311   2.207   6.972   2.082
 5790TIP3    H217312   2.258   6.923   2.216
 5791TIP3   OH217313   7.875   4.783   3.168
 5791TIP3    H117314   7.833   4.715   3.221
 5791TIP3    H217315   7.847   4.865   3.208
 5792TIP3   OH217316   1.477   6.618   1.006
 5792TIP3    H117317   1.450   6.694   1.058
 5792TIP3    H217318   1.539   6.571   1.062
 5793TIP3   OH217319   4.055   1.428   0.977
 5793TIP3    H117320   4.102   1.418   0.894
 5793TIP3    H217321   4.059   1.340   1.016
 5794TIP3   OH217322   2.516   7.342   3.011
 5794TIP3    H117323   2.510   7.318   3.104
 5794TIP3    H217324   2.591   7.401   3.007
 5795TIP3   OH217325   3.257   4.762   6.128
 5795TIP3    H117326   3.303   4.682   6.105
 5795TIP3    H217327   3.263   4.768   6.223
 5796TIP3   OH217328   5.996   1.983   5.896
 5796TIP3    H117329   6.091   1.996   5.899
 5796TIP3    H217330   5.976   1.975   5.803
 5797TIP3   OH217331   3.066   7.074   1.777
 5797TIP3    H117332   3.071   7.035   1.864
 5797TIP3    H217333   3.047   7.166   1.793
 5798TIP3   OH217334   7.676   1.915   3.409
 5798TIP3    H117335   7.714   1.999   3.435
 5798TIP3    H217336   7.582   1.926   3.424
 5799TIP3   OH217337   5.513   4.108   3.513
 5799TIP3    H117338   5.538   4.027   3.559
 5799TIP3    H217339   5.420   4.097   3.493
 5800TIP3   OH217340   4.658   4.859   6.795
 5800TIP3    H117341   4.718   4.785   6.809
 5800TIP3    H217342   4.626   4.880   6.882
 5801TIP3   OH217343   4.891   6.302   6.522
 5801TIP3    H117344   4.879   6.231   6.586
 5801TIP3    H217345   4.862   6.381   6.568
 5802TIP3   OH217346   2.346   1.747   2.762
 5802TIP3    H117347   2.441   1.731   2.760
 5802TIP3    H217348   2.310   1.680   2.704
 5803TIP3   OH217349   6.361   6.687   4.459
 5803TIP3    H117350   6.385   6.779   4.472
 5803TIP3    H217351   6.401   6.664   4.375
 5804TIP3   OH217352   3.067   3.882   6.534
 5804TIP3    H117353   3.103   3.949   6.592
 5804TIP3    H217354   3.112   3.801   6.560
 5805TIP3   OH217355   1.338   2.648   5.169
 5805TIP3    H117356   1.292   2.606   5.096
 5805TIP3    H217357   1.423   2.605   5.173
 5806TIP3   OH217358   7.747   2.408   6.091
 5806TIP3    H117359   7.754   2.349   6.166
 5806TIP3    H217360   7.659   2.391   6.055
 5807TIP3   OH217361   1.723   6.325   0.089
 5807TIP3    H117362   1.770   6.245   0.113
 5807TIP3    H217363   1.789   6.381   0.048
 5808TIP3   OH217364   2.192   7.312   4.718
 5808TIP3    H117365   2.142   7.348   4.791
 5808TIP3    H217366   2.140   7.238   4.687
 5809TIP3   OH217367   7.761   4.368   3.559
 5809TIP3    H117368   7.787   4.283   3.596
 5809TIP3    H217369   7.701   4.404   3.624
 5810TIP3   OH217370   7.450   4.847   2.036
 5810TIP3    H117371   7.546   4.848   2.036
 5810TIP3    H217372   7.425   4.939   2.038
 5811TIP3   OH217373   1.989   3.850   2.311
 5811TIP3    H117374   1.932   3.886   2.378
 5811TIP3    H217375   1.934   3.790   2.261
 5812TIP3   OH217376   1.550   0.560   2.879
 5812TIP3    H117377   1.463   0.532   2.909
 5812TIP3    H217378   1.589   0.480   2.842
 5813TIP3   OH217379   6.297   5.102   5.440
 5813TIP3    H117380   6.362   5.037   5.464
 5813TIP3    H217381   6.316   5.178   5.495
 5814TIP3   OH217382   2.499   1.673   2.154
 5814TIP3    H117383   2.450   1.674   2.071
 5814TIP3    H217384   2.441   1.717   2.216
 5815TIP3   OH217385   7.839   6.318   2.745
 5815TIP3    H117386   7.795   6.306   2.661
 5815TIP3    H217387   7.778   6.281   2.810
 5816TIP3   OH217388   2.329   2.844   5.976
 5816TIP3    H117389   2.275   2.881   5.906
 5816TIP3    H217390   2.273   2.777   6.016
 5817TIP3   OH217391   4.446   7.613   3.828
 5817TIP3    H117392   4.410   7.674   3.893
 5817TIP3    H217393   4.505   7.666   3.775
 5818TIP3   OH217394   6.551   4.987   5.043
 5818TIP3    H117395   6.487   5.052   5.071
 5818TIP3    H217396   6.499   4.907   5.029
 5819TIP3   OH217397   8.188   2.399   3.948
 5819TIP3    H117398   8.093   2.403   3.937
 5819TIP3    H217399   8.208   2.306   3.948
 5820TIP3   OH217400   4.205   6.205   2.396
 5820TIP3    H117401   4.282   6.201   2.452
 5820TIP3    H217402   4.146   6.265   2.442
 5821TIP3   OH217403   3.120   1.922   3.383
 5821TIP3    H117404   3.139   1.962   3.298
 5821TIP3    H217405   3.026   1.936   3.395
 5822TIP3   OH217406   2.042   0.978   3.484
 5822TIP3    H117407   1.975   0.912   3.499
 5822TIP3    H217408   2.124   0.929   3.479
 5823TIP3   OH217409   5.423   4.940   3.253
 5823TIP3    H117410   5.391   4.923   3.164
 5823TIP3    H217411   5.481   5.015   3.243
 5824TIP3   OH217412   1.316   2.744   0.025
 5824TIP3    H117413   1.399   2.716  -0.013
 5824TIP3    H217414   1.334   2.830   0.064
 5825TIP3   OH217415   6.215   4.549   2.742
 5825TIP3    H117416   6.219   4.454   2.740
 5825TIP3    H217417   6.156   4.573   2.671
 5826TIP3   OH217418   0.916   1.542   6.132
 5826TIP3    H117419   0.918   1.634   6.109
 5826TIP3    H217420   0.823   1.522   6.145
 5827TIP3   OH217421   0.626   6.003   5.589
 5827TIP3    H117422   0.646   5.913   5.566
 5827TIP3    H217423   0.681   6.056   5.531
 5828TIP3   OH217424   6.571   2.508   3.180
 5828TIP3    H117425   6.592   2.418   3.156
 5828TIP3    H217426   6.584   2.512   3.275
 5829TIP3   OH217427   0.762   5.850   2.217
 5829TIP3    H117428   0.805   5.788   2.158
 5829TIP3    H217429   0.720   5.914   2.159
 5830TIP3   OH217430   5.358   1.352   5.002
 5830TIP3    H117431   5.410   1.391   5.072
 5830TIP3    H217432   5.409   1.367   4.922
 5831TIP3   OH217433   7.597   3.421   0.535
 5831TIP3    H117434   7.572   3.437   0.444
 5831TIP3    H217435   7.682   3.464   0.545
 5832TIP3   OH217436   6.733   4.476   6.449
 5832TIP3    H117437   6.651   4.434   6.473
 5832TIP3    H217438   6.796   4.404   6.444
 5833TIP3   OH217439   8.239   7.548   3.345
 5833TIP3    H117440   8.320   7.529   3.393
 5833TIP3    H217441   8.262   7.533   3.253
 5834TIP3   OH217442   3.350   1.527   5.105
 5834TIP3    H117443   3.268   1.555   5.065
 5834TIP3    H217444   3.341   1.432   5.116
 5835TIP3   OH217445   6.411   2.305   6.600
 5835TIP3    H117446   6.479   2.238   6.602
 5835TIP3    H217447   6.382   2.307   6.509
 5836TIP3   OH217448   6.912   1.696   3.083
 5836TIP3    H117449   6.937   1.704   3.175
 5836TIP3    H217450   6.817   1.707   3.082
 5837TIP3   OH217451   0.768   3.020   4.534
 5837TIP3    H117452   0.680   2.989   4.552
 5837TIP3    H217453   0.811   2.947   4.488
 5838TIP3   OH217454   5.023   4.346   0.286
 5838TIP3    H117455   4.963   4.348   0.361
 5838TIP3    H217456   5.042   4.253   0.274
 5839TIP3   OH217457   6.085   1.444   5.962
 5839TIP3    H117458   6.039   1.395   6.030
 5839TIP3    H217459   6.140   1.506   6.010
 5840TIP3   OH217460   4.301   0.136   6.181
 5840TIP3    H117461   4.243   0.068   6.214
 5840TIP3    H217462   4.382   0.124   6.231
 5841TIP3   OH217463   6.036   3.726   2.000
 5841TIP3    H117464   5.941   3.715   1.995
 5841TIP3    H217465   6.049   3.811   2.041
 5842TIP3   OH217466   4.976   1.922   6.252
 5842TIP3    H117467   5.023   1.929   6.335
 5842TIP3    H217468   4.901   1.981   6.262
 5843TIP3   OH217469   7.222   4.483   4.073
 5843TIP3    H117470   7.235   4.497   3.979
 5843TIP3    H217471   7.276   4.406   4.093
 5844TIP3   OH217472   0.758   4.200   1.878
 5844TIP3    H117473   0.793   4.215   1.966
 5844TIP3    H217474   0.664   4.212   1.888
 5845TIP3   OH217475   7.691   4.767   3.481
 5845TIP3    H117476   7.672   4.810   3.564
 5845TIP3    H217477   7.662   4.829   3.415
 5846TIP3   OH217478   5.035   2.733   5.065
 5846TIP3    H117479   5.031   2.655   5.010
 5846TIP3    H217480   4.945   2.746   5.094
 5847TIP3   OH217481   7.165   1.189   6.238
 5847TIP3    H117482   7.239   1.243   6.265
 5847TIP3    H217483   7.097   1.209   6.302
 5848TIP3   OH217484   4.718   3.792   4.659
 5848TIP3    H117485   4.777   3.798   4.734
 5848TIP3    H217486   4.776   3.797   4.583
 5849TIP3   OH217487   7.668   4.911   5.257
 5849TIP3    H117488   7.681   4.867   5.173
 5849TIP3    H217489   7.605   4.981   5.237
 5850TIP3   OH217490   5.756   4.366   4.116
 5850TIP3    H117491   5.744   4.345   4.208
 5850TIP3    H217492   5.670   4.351   4.076
 5851TIP3   OH217493   1.826   2.717   5.106
 5851TIP3    H117494   1.736   2.685   5.098
 5851TIP3    H217495   1.821   2.793   5.163
 5852TIP3   OH217496   2.187   0.931   4.507
 5852TIP3    H117497   2.197   0.867   4.578
 5852TIP3    H217498   2.099   0.966   4.519
 5853TIP3   OH217499   2.606   0.439   3.460
 5853TIP3    H117500   2.599   0.499   3.535
 5853TIP3    H217501   2.552   0.364   3.485
 5854TIP3   OH217502   5.043   1.721   4.975
 5854TIP3    H117503   5.071   1.659   4.907
 5854TIP3    H217504   5.070   1.680   5.057
 5855TIP3   OH217505   6.680   6.920   4.510
 5855TIP3    H117506   6.681   6.942   4.417
 5855TIP3    H217507   6.698   6.826   4.512
 5856TIP3   OH217508   3.274   2.675   0.033
 5856TIP3    H117509   3.243   2.720  -0.046
 5856TIP3    H217510   3.258   2.737   0.104
 5857TIP3   OH217511   0.808   5.494   5.638
 5857TIP3    H117512   0.798   5.495   5.733
 5857TIP3    H217513   0.902   5.503   5.623
 5858TIP3   OH217514   3.771   5.611   1.979
 5858TIP3    H117515   3.761   5.598   2.074
 5858TIP3    H217516   3.711   5.683   1.959
 5859TIP3   OH217517   5.020   7.852   0.622
 5859TIP3    H117518   5.087   7.860   0.690
 5859TIP3    H217519   5.027   7.933   0.572
 5860TIP3   OH217520   3.222   1.842   3.603
 5860TIP3    H117521   3.162   1.857   3.530
 5860TIP3    H217522   3.267   1.925   3.614
 5861TIP3   OH217523   3.954   3.786   5.928
 5861TIP3    H117524   3.965   3.700   5.971
 5861TIP3    H217525   4.000   3.778   5.845
 5862TIP3   OH217526   7.284   4.120   6.741
 5862TIP3    H117527   7.200   4.092   6.703
 5862TIP3    H217528   7.271   4.212   6.762
 5863TIP3   OH217529   0.324   1.116   5.712
 5863TIP3    H117530   0.370   1.186   5.758
 5863TIP3    H217531   0.336   1.135   5.619
 5864TIP3   OH217532   7.142   2.168   6.802
 5864TIP3    H117533   7.181   2.251   6.831
 5864TIP3    H217534   7.197   2.101   6.843
 5865TIP3   OH217535   3.052   4.511   0.193
 5865TIP3    H117536   2.959   4.533   0.191
 5865TIP3    H217537   3.098   4.595   0.187
 5866TIP3   OH217538   1.057   3.334   5.071
 5866TIP3    H117539   1.015   3.346   5.157
 5866TIP3    H217540   1.075   3.241   5.066
 5867TIP3   OH217541   6.922   6.904   2.608
 5867TIP3    H117542   6.860   6.834   2.585
 5867TIP3    H217543   6.874   6.958   2.672
 5868TIP3   OH217544   0.898   6.066   4.511
 5868TIP3    H117545   0.851   6.136   4.556
 5868TIP3    H217546   0.905   5.996   4.576
 5869TIP3   OH217547   1.169   7.118   3.367
 5869TIP3    H117548   1.103   7.132   3.435
 5869TIP3    H217549   1.164   7.196   3.312
 5870TIP3   OH217550   1.063   2.990   0.202
 5870TIP3    H117551   1.018   2.906   0.205
 5870TIP3    H217552   1.155   2.969   0.215
 5871TIP3   OH217553   2.634   1.050   3.231
 5871TIP3    H117554   2.703   1.107   3.195
 5871TIP3    H217555   2.562   1.059   3.169
 5872TIP3   OH217556   5.384   4.628   0.332
 5872TIP3    H117557   5.357   4.656   0.419
 5872TIP3    H217558   5.462   4.680   0.313
 5873TIP3   OH217559   5.145   0.551   2.123
 5873TIP3    H117560   5.131   0.507   2.039
 5873TIP3    H217561   5.113   0.640   2.110
 5874TIP3   OH217562   7.345   3.308   6.569
 5874TIP3    H117563   7.429   3.269   6.593
 5874TIP3    H217564   7.304   3.331   6.652
 5875TIP3   OH217565   0.283   5.752   6.460
 5875TIP3    H117566   0.323   5.668   6.483
 5875TIP3    H217567   0.357   5.806   6.432
 5876TIP3   OH217568   5.831   1.441   0.314
 5876TIP3    H117569   5.736   1.453   0.312
 5876TIP3    H217570   5.858   1.474   0.399
 5877TIP3   OH217571   1.409   5.200   0.849
 5877TIP3    H117572   1.400   5.144   0.926
 5877TIP3    H217573   1.360   5.279   0.871
 5878TIP3   OH217574   7.231   3.376   6.805
 5878TIP3    H117575   7.235   3.295   6.855
 5878TIP3    H217576   7.230   3.445   6.871
 5879TIP3   OH217577   1.528   6.560   2.432
 5879TIP3    H117578   1.536   6.629   2.499
 5879TIP3    H217579   1.527   6.608   2.349
 5880TIP3   OH217580   6.013   7.067   1.290
 5880TIP3    H117581   6.104   7.087   1.311
 5880TIP3    H217582   6.017   7.029   1.202
 5881TIP3   OH217583   0.656   7.232   1.901
 5881TIP3    H117584   0.732   7.215   1.957
 5881TIP3    H217585   0.625   7.318   1.928
 5882TIP3   OH217586   7.234   2.256   5.582
 5882TIP3    H117587   7.236   2.329   5.644
 5882TIP3    H217588   7.323   2.220   5.585
 5883TIP3   OH217589   7.696   3.062   2.739
 5883TIP3    H117590   7.778   3.108   2.722
 5883TIP3    H217591   7.627   3.124   2.712
 5884TIP3   OH217592   4.015   6.579   3.260
 5884TIP3    H117593   3.971   6.641   3.319
 5884TIP3    H217594   4.099   6.620   3.241
 5885TIP3   OH217595   3.918   0.637   5.239
 5885TIP3    H117596   3.922   0.690   5.319
 5885TIP3    H217597   3.907   0.701   5.169
 5886TIP3   OH217598   7.080   2.469   6.197
 5886TIP3    H117599   7.167   2.433   6.180
 5886TIP3    H217600   7.033   2.397   6.240
 5887TIP3   OH217601   6.530   2.292   0.437
 5887TIP3    H117602   6.615   2.272   0.397
 5887TIP3    H217603   6.550   2.313   0.528
 5888TIP3   OH217604   7.202   6.493   2.691
 5888TIP3    H117605   7.195   6.442   2.771
 5888TIP3    H217606   7.112   6.501   2.659
 5889TIP3   OH217607   0.369   6.412   6.102
 5889TIP3    H117608   0.322   6.435   6.182
 5889TIP3    H217609   0.309   6.436   6.031
 5890TIP3   OH217610   5.396   0.736   2.152
 5890TIP3    H117611   5.354   0.775   2.075
 5890TIP3    H217612   5.346   0.657   2.170
 5891TIP3   OH217613   1.391   4.977   2.935
 5891TIP3    H117614   1.427   4.936   3.014
 5891TIP3    H217615   1.467   5.007   2.886
 5892TIP3   OH217616   3.131   4.670   2.368
 5892TIP3    H117617   3.144   4.624   2.451
 5892TIP3    H217618   3.134   4.763   2.392
 5893TIP3   OH217619   1.874   3.043   2.097
 5893TIP3    H117620   1.917   3.052   2.183
 5893TIP3    H217621   1.871   3.132   2.062
 5894TIP3   OH217622   3.927   3.311   5.197
 5894TIP3    H117623   3.951   3.273   5.282
 5894TIP3    H217624   3.960   3.247   5.133
 5895TIP3   OH217625   7.480   0.455   3.839
 5895TIP3    H117626   7.538   0.492   3.772
 5895TIP3    H217627   7.514   0.366   3.853
 5896TIP3   OH217628   4.638   4.990   4.090
 5896TIP3    H117629   4.553   5.008   4.051
 5896TIP3    H217630   4.683   5.075   4.090
 5897TIP3   OH217631   1.865   5.593   3.236
 5897TIP3    H117632   1.825   5.653   3.173
 5897TIP3    H217633   1.870   5.644   3.317
 5898TIP3   OH217634   0.652   4.269   4.153
 5898TIP3    H117635   0.663   4.325   4.229
 5898TIP3    H217636   0.702   4.312   4.084
 5899TIP3   OH217637   6.134   7.652   0.243
 5899TIP3    H117638   6.213   7.662   0.295
 5899TIP3    H217639   6.166   7.639   0.153
 5900TIP3   OH217640   1.884   6.243   0.688
 5900TIP3    H117641   1.825   6.304   0.644
 5900TIP3    H217642   1.829   6.169   0.713
 5901TIP3   OH217643   8.378   0.533   2.264
 5901TIP3    H117644   8.404   0.510   2.353
 5901TIP3    H217645   8.284   0.551   2.270
 5902TIP3   OH217646   1.469   0.473   3.278
 5902TIP3    H117647   1.459   0.560   3.239
 5902TIP3    H217648   1.383   0.454   3.315
 5903TIP3   OH217649   6.907   5.299   6.099
 5903TIP3    H117650   6.907   5.322   6.006
 5903TIP3    H217651   6.818   5.320   6.128
 5904TIP3   OH217652   4.229   4.084   2.029
 5904TIP3    H117653   4.274   4.133   2.098
 5904TIP3    H217654   4.299   4.051   1.973
 5905TIP3   OH217655   3.626   7.652   1.676
 5905TIP3    H117656   3.609   7.559   1.692
 5905TIP3    H217657   3.694   7.652   1.609
 5906TIP3   OH217658   5.713   1.343   4.377
 5906TIP3    H117659   5.774   1.273   4.353
 5906TIP3    H217660   5.769   1.416   4.403
 5907TIP3   OH217661   2.434   6.655   3.754
 5907TIP3    H117662   2.522   6.679   3.783
 5907TIP3    H217663   2.376   6.713   3.803
 5908TIP3   OH217664   1.339   4.376   5.417
 5908TIP3    H117665   1.419   4.352   5.465
 5908TIP3    H217666   1.285   4.421   5.482
 5909TIP3   OH217667   3.225   0.298   3.752
 5909TIP3    H117668   3.229   0.349   3.671
 5909TIP3    H217669   3.148   0.243   3.742
 5910TIP3   OH217670   6.641   1.449   1.892
 5910TIP3    H117671   6.702   1.454   1.966
 5910TIP3    H217672   6.609   1.359   1.893
 5911TIP3   OH217673   5.372   4.737   4.776
 5911TIP3    H117674   5.393   4.784   4.695
 5911TIP3    H217675   5.456   4.703   4.806
 5912TIP3   OH217676   4.789   3.288   3.885
 5912TIP3    H117677   4.798   3.202   3.927
 5912TIP3    H217678   4.812   3.272   3.794
 5913TIP3   OH217679   3.073   6.882   6.547
 5913TIP3    H117680   3.149   6.848   6.593
 5913TIP3    H217681   3.072   6.835   6.463
 5914TIP3   OH217682   5.236   2.692   1.968
 5914TIP3    H117683   5.302   2.761   1.960
 5914TIP3    H217684   5.184   2.717   2.044
 5915TIP3   OH217685   3.604   7.193   3.736
 5915TIP3    H117686   3.598   7.267   3.797
 5915TIP3    H217687   3.611   7.234   3.650
 5916TIP3   OH217688   0.337   0.566   2.726
 5916TIP3    H117689   0.379   0.536   2.807
 5916TIP3    H217690   0.310   0.656   2.744
 5917TIP3   OH217691   8.009   4.456   1.198
 5917TIP3    H117692   7.974   4.433   1.284
 5917TIP3    H217693   8.077   4.520   1.216
 5918TIP3   OH217694   7.870   1.098   3.423
 5918TIP3    H117695   7.941   1.033   3.427
 5918TIP3    H217696   7.791   1.046   3.408
 5919TIP3   OH217697   0.062   6.587   4.122
 5919TIP3    H117698   0.038   6.679   4.133
 5919TIP3    H217699   0.009   6.540   4.187
 5920TIP3   OH217700   0.733   1.243   4.946
 5920TIP3    H117701   0.640   1.240   4.972
 5920TIP3    H217702   0.733   1.291   4.864
 5921TIP3   OH217703   0.917   3.551   4.443
 5921TIP3    H117704   0.939   3.618   4.508
 5921TIP3    H217705   0.863   3.488   4.491
 5922TIP3   OH217706   6.087   4.466   0.151
 5922TIP3    H117707   6.122   4.434   0.234
 5922TIP3    H217708   6.053   4.388   0.107
 5923TIP3   OH217709   2.693   2.698   0.756
 5923TIP3    H117710   2.613   2.677   0.708
 5923TIP3    H217711   2.663   2.722   0.843
 5924TIP3   OH217712   5.536   3.674   0.846
 5924TIP3    H117713   5.503   3.760   0.818
 5924TIP3    H217714   5.578   3.692   0.930
 5925TIP3   OH217715   1.265   1.194   2.773
 5925TIP3    H117716   1.181   1.208   2.817
 5925TIP3    H217717   1.281   1.276   2.726
 5926TIP3   OH217718   5.709   7.573   4.103
 5926TIP3    H117719   5.742   7.626   4.176
 5926TIP3    H217720   5.771   7.500   4.097
 5927TIP3   OH217721   8.351   0.143   1.368
 5927TIP3    H117722   8.445   0.132   1.379
 5927TIP3    H217723   8.338   0.139   1.273
 5928TIP3   OH217724   5.278   3.633   1.328
 5928TIP3    H117725   5.306   3.542   1.314
 5928TIP3    H217726   5.326   3.683   1.263
 5929TIP3   OH217727   1.343   0.650   6.171
 5929TIP3    H117728   1.269   0.672   6.115
 5929TIP3    H217729   1.411   0.714   6.147
 5930TIP3   OH217730   5.364   6.989   1.074
 5930TIP3    H117731   5.348   7.078   1.042
 5930TIP3    H217732   5.447   6.964   1.035
 5931TIP3   OH217733   7.013   2.451   0.906
 5931TIP3    H117734   7.036   2.459   0.998
 5931TIP3    H217735   7.088   2.489   0.859
 5932TIP3   OH217736   6.133   3.262   0.602
 5932TIP3    H117737   6.165   3.301   0.683
 5932TIP3    H217738   6.071   3.195   0.629
 5933TIP3   OH217739   6.643   5.545   2.062
 5933TIP3    H117740   6.639   5.484   2.136
 5933TIP3    H217741   6.620   5.492   1.986
 5934TIP3   OH217742   5.711   0.035   1.856
 5934TIP3    H117743   5.621   0.019   1.887
 5934TIP3    H217744   5.701   0.050   1.762
 5935TIP3   OH217745   0.079   2.799   6.150
 5935TIP3    H117746   0.096   2.888   6.179
 5935TIP3    H217747  -0.002   2.774   6.193
 5936TIP3   OH217748   5.658   2.736   2.703
 5936TIP3    H117749   5.616   2.651   2.693
 5936TIP3    H217750   5.750   2.719   2.682
 5937TIP3   OH217751   5.252   5.749   1.863
 5937TIP3    H117752   5.241   5.844   1.853
 5937TIP3    H217753   5.163   5.716   1.876
 5938TIP3   OH217754   3.768   3.496   6.302
 5938TIP3    H117755   3.759   3.414   6.351
 5938TIP3    H217756   3.696   3.494   6.239
 5939TIP3   OH217757   7.901   4.705   4.612
 5939TIP3    H117758   7.982   4.757   4.607
 5939TIP3    H217759   7.930   4.619   4.641
 5940TIP3   OH217760   2.733   2.850   0.487
 5940TIP3    H117761   2.661   2.914   0.484
 5940TIP3    H217762   2.695   2.772   0.526
 5941TIP3   OH217763   4.558   2.101   2.076
 5941TIP3    H117764   4.486   2.107   2.139
 5941TIP3    H217765   4.517   2.114   1.991
 5942TIP3   OH217766   0.089   5.502   5.222
 5942TIP3    H117767   0.147   5.429   5.242
 5942TIP3    H217768   0.140   5.557   5.162
 5943TIP3   OH217769   2.293   2.894   4.136
 5943TIP3    H117770   2.260   2.974   4.096
 5943TIP3    H217771   2.358   2.861   4.073
 5944TIP3   OH217772   0.160   1.128   2.943
 5944TIP3    H117773   0.179   1.182   2.867
 5944TIP3    H217774   0.094   1.176   2.992
 5945TIP3   OH217775   0.388   7.798   2.114
 5945TIP3    H117776   0.384   7.749   2.196
 5945TIP3    H217777   0.479   7.788   2.084
 5946TIP3   OH217778   4.495   0.171   5.366
 5946TIP3    H117779   4.447   0.232   5.310
 5946TIP3    H217780   4.526   0.102   5.308
 5947TIP3   OH217781   8.214   1.707   3.513
 5947TIP3    H117782   8.161   1.628   3.526
 5947TIP3    H217783   8.227   1.711   3.418
 5948TIP3   OH217784   3.742   1.564   1.989
 5948TIP3    H117785   3.830   1.547   1.954
 5948TIP3    H217786   3.750   1.648   2.033
 5949TIP3   OH217787   5.137   5.269   5.909
 5949TIP3    H117788   5.113   5.298   5.821
 5949TIP3    H217789   5.181   5.344   5.948
 5950TIP3   OH217790   6.745   3.241   0.135
 5950TIP3    H117791   6.665   3.279   0.172
 5950TIP3    H217792   6.755   3.285   0.051
 5951TIP3   OH217793   1.905   5.356   0.484
 5951TIP3    H117794   1.828   5.347   0.427
 5951TIP3    H217795   1.944   5.440   0.458
 5952TIP3   OH217796   5.174   0.350   0.162
 5952TIP3    H117797   5.099   0.292   0.150
 5952TIP3    H217798   5.247   0.291   0.183
 5953TIP3   OH217799   3.641   2.790   3.194
 5953TIP3    H117800   3.568   2.782   3.256
 5953TIP3    H217801   3.638   2.709   3.143
 5954TIP3   OH217802   1.889   7.610   4.624
 5954TIP3    H117803   1.851   7.523   4.610
 5954TIP3    H217804   1.975   7.593   4.662
 5955TIP3   OH217805   6.505   2.536   5.245
 5955TIP3    H117806   6.592   2.507   5.219
 5955TIP3    H217807   6.471   2.580   5.167
 5956TIP3   OH217808   8.172   4.599   6.705
 5956TIP3    H117809   8.096   4.655   6.722
 5956TIP3    H217810   8.193   4.615   6.613
 5957TIP3   OH217811   1.190   0.877   1.684
 5957TIP3    H117812   1.100   0.846   1.677
 5957TIP3    H217813   1.226   0.865   1.596
 5958TIP3   OH217814   4.214   2.040   1.023
 5958TIP3    H117815   4.158   2.098   0.971
 5958TIP3    H217816   4.245   2.096   1.095
 5959TIP3   OH217817   2.373   0.816   5.831
 5959TIP3    H117818   2.453   0.863   5.807
 5959TIP3    H217819   2.303   0.882   5.822
 5960TIP3   OH217820   5.229   4.865   2.274
 5960TIP3    H117821   5.254   4.780   2.236
 5960TIP3    H217822   5.155   4.894   2.220
 5961TIP3   OH217823   1.720   4.469   3.896
 5961TIP3    H117824   1.664   4.421   3.958
 5961TIP3    H217825   1.747   4.403   3.832
 5962TIP3   OH217826   7.491   2.235   4.682
 5962TIP3    H117827   7.550   2.307   4.658
 5962TIP3    H217828   7.462   2.199   4.599
 5963TIP3   OH217829   0.216   6.930   1.967
 5963TIP3    H117830   0.127   6.898   1.977
 5963TIP3    H217831   0.262   6.900   2.046
 5964TIP3   OH217832   0.967   7.364   3.038
 5964TIP3    H117833   1.051   7.357   3.083
 5964TIP3    H217834   0.947   7.274   3.010
 5965TIP3   OH217835   1.404   2.290   3.677
 5965TIP3    H117836   1.333   2.314   3.736
 5965TIP3    H217837   1.481   2.282   3.734
 5966TIP3   OH217838   8.378   5.623   2.355
 5966TIP3    H117839   8.423   5.603   2.273
 5966TIP3    H217840   8.347   5.713   2.344
 5967TIP3   OH217841   6.867   4.065   2.498
 5967TIP3    H117842   6.853   4.146   2.447
 5967TIP3    H217843   6.947   4.081   2.548
 5968TIP3   OH217844   3.020   6.952   2.590
 5968TIP3    H117845   2.926   6.967   2.582
 5968TIP3    H217846   3.044   6.996   2.672
 5969TIP3   OH217847   5.935   7.347   6.659
 5969TIP3    H117848   5.910   7.312   6.573
 5969TIP3    H217849   5.922   7.274   6.719
 5970TIP3   OH217850   0.315   1.673   6.782
 5970TIP3    H117851   0.288   1.670   6.874
 5970TIP3    H217852   0.270   1.599   6.742
 5971TIP3   OH217853   3.070   0.442   0.886
 5971TIP3    H117854   3.062   0.501   0.961
 5971TIP3    H217855   3.140   0.480   0.833
 5972TIP3   OH217856   8.063   2.001   0.038
 5972TIP3    H117857   8.083   1.908   0.044
 5972TIP3    H217858   7.978   2.010   0.081
 5973TIP3   OH217859   1.951   4.104   3.873
 5973TIP3    H117860   1.992   4.143   3.796
 5973TIP3    H217861   1.941   4.011   3.851
 5974TIP3   OH217862   4.069   6.572   1.285
 5974TIP3    H117863   4.014   6.521   1.225
 5974TIP3    H217864   4.136   6.511   1.314
 5975TIP3   OH217865   5.992   7.026   3.947
 5975TIP3    H117866   5.904   7.062   3.957
 5975TIP3    H217867   6.051   7.097   3.975
 5976TIP3   OH217868   3.214   7.048   2.377
 5976TIP3    H117869   3.122   7.071   2.360
 5976TIP3    H217870   3.220   7.049   2.473
 5977TIP3   OH217871   7.066   7.762   0.786
 5977TIP3    H117872   7.060   7.856   0.798
 5977TIP3    H217873   7.145   7.749   0.733
 5978TIP3   OH217874   6.308   6.731   2.468
 5978TIP3    H117875   6.330   6.801   2.406
 5978TIP3    H217876   6.347   6.653   2.430
 5979TIP3   OH217877   3.284   5.790   5.195
 5979TIP3    H117878   3.307   5.808   5.286
 5979TIP3    H217879   3.274   5.694   5.192
 5980TIP3   OH217880   5.393   6.519   5.615
 5980TIP3    H117881   5.366   6.606   5.642
 5980TIP3    H217882   5.313   6.477   5.584
 5981TIP3   OH217883   7.794   7.628   6.679
 5981TIP3    H117884   7.769   7.677   6.601
 5981TIP3    H217885   7.713   7.584   6.707
 5982TIP3   OH217886   5.741   0.125   6.488
 5982TIP3    H117887   5.828   0.153   6.459
 5982TIP3    H217888   5.717   0.188   6.555
 5983TIP3   OH217889   3.862   4.683   5.194
 5983TIP3    H117890   3.824   4.667   5.281
 5983TIP3    H217891   3.854   4.599   5.149
 5984TIP3   OH217892   8.235   5.936   4.922
 5984TIP3    H117893   8.198   5.882   4.992
 5984TIP3    H217894   8.160   5.976   4.880
 5985TIP3   OH217895   5.592   4.445   6.010
 5985TIP3    H117896   5.608   4.492   5.928
 5985TIP3    H217897   5.653   4.484   6.072
 5986TIP3   OH217898   2.346   6.172   1.997
 5986TIP3    H117899   2.401   6.141   1.926
 5986TIP3    H217900   2.272   6.214   1.954
 5987TIP3   OH217901   6.796   7.217   2.744
 5987TIP3    H117902   6.781   7.301   2.788
 5987TIP3    H217903   6.766   7.232   2.654
 5988TIP3   OH217904   0.247   2.470   4.466
 5988TIP3    H117905   0.162   2.468   4.509
 5988TIP3    H217906   0.311   2.473   4.537
 5989TIP3   OH217907   2.305   2.443   3.673
 5989TIP3    H117908   2.236   2.387   3.710
 5989TIP3    H217909   2.298   2.430   3.578
 5990TIP3   OH217910   3.404   0.265   4.039
 5990TIP3    H117911   3.409   0.299   3.950
 5990TIP3    H217912   3.464   0.191   4.041
 5991TIP3   OH217913   3.884   7.587   3.775
 5991TIP3    H117914   3.906   7.494   3.766
 5991TIP3    H217915   3.809   7.587   3.835
 5992TIP3   OH217916   8.038   2.935   5.250
 5992TIP3    H117917   8.052   3.030   5.251
 5992TIP3    H217918   8.087   2.903   5.326
 5993TIP3   OH217919   7.174   5.183   1.015
 5993TIP3    H117920   7.086   5.197   0.981
 5993TIP3    H217921   7.202   5.269   1.045
 5994TIP3   OH217922   6.554  -0.010   2.962
 5994TIP3    H117923   6.480   0.049   2.974
 5994TIP3    H217924   6.600   0.024   2.885
 5995TIP3   OH217925   0.109   6.957   2.808
 5995TIP3    H117926   0.048   7.014   2.761
 5995TIP3    H217927   0.141   7.011   2.880
 5996TIP3   OH217928   3.292   6.769   4.906
 5996TIP3    H117929   3.288   6.734   4.817
 5996TIP3    H217930   3.200   6.779   4.932
 5997TIP3   OH217931   7.015   4.701   0.230
 5997TIP3    H117932   7.080   4.721   0.298
 5997TIP3    H217933   6.971   4.785   0.214
 5998TIP3   OH217934   1.778   1.604   2.507
 5998TIP3    H117935   1.758   1.529   2.452
 5998TIP3    H217936   1.767   1.572   2.596
 5999TIP3   OH217937   7.180   0.308   2.686
 5999TIP3    H117938   7.208   0.348   2.768
 5999TIP3    H217939   7.178   0.380   2.623
 6000TIP3   OH217940   7.491   4.671   4.780
 6000TIP3    H117941   7.492   4.766   4.771
 6000TIP3    H217942   7.424   4.654   4.847
 6001TIP3   OH217943   3.207   6.157   2.369
 6001TIP3    H117944   3.155   6.136   2.447
 6001TIP3    H217945   3.239   6.245   2.384
 6002TIP3   OH217946   2.434   1.604   3.461
 6002TIP3    H117947   2.433   1.530   3.399
 6002TIP3    H217948   2.527   1.622   3.473
 6003TIP3   OH217949   3.083   6.664   3.114
 6003TIP3    H117950   2.994   6.697   3.105
 6003TIP3    H217951   3.133   6.709   3.046
 6004TIP3   OH217952   0.683   5.881   0.086
 6004TIP3    H117953   0.715   5.964   0.052
 6004TIP3    H217954   0.600   5.866   0.041
 6005TIP3   OH217955   7.844   4.042   2.312
 6005TIP3    H117956   7.911   4.105   2.337
 6005TIP3    H217957   7.762   4.078   2.347
 6006TIP3   OH217958   4.787   5.025   1.479
 6006TIP3    H117959   4.868   4.983   1.509
 6006TIP3    H217960   4.788   5.111   1.521
 6007TIP3   OH217961   3.803   0.054   0.169
 6007TIP3    H117962   3.802   0.140   0.127
 6007TIP3    H217963   3.860   0.066   0.246
 6008TIP3   OH217964   6.714   3.812   1.776
 6008TIP3    H117965   6.761   3.812   1.859
 6008TIP3    H217966   6.766   3.755   1.719
 6009TIP3   OH217967   3.028   4.160   1.625
 6009TIP3    H117968   3.082   4.120   1.694
 6009TIP3    H217969   2.978   4.228   1.670
 6010TIP3   OH217970   6.375   6.893   1.792
 6010TIP3    H117971   6.371   6.971   1.847
 6010TIP3    H217972   6.315   6.831   1.833
 6011TIP3   OH217973   5.362   5.324   1.816
 6011TIP3    H117974   5.271   5.299   1.835
 6011TIP3    H217975   5.408   5.312   1.898
 6012TIP3   OH217976   7.714   5.892   6.255
 6012TIP3    H117977   7.652   5.836   6.208
 6012TIP3    H217978   7.667   5.975   6.265
 6013TIP3   OH217979   1.208   0.468   1.182
 6013TIP3    H117980   1.290   0.517   1.181
 6013TIP3    H217981   1.191   0.452   1.275
 6014TIP3   OH217982   6.072   1.206   2.301
 6014TIP3    H117983   5.991   1.156   2.300
 6014TIP3    H217984   6.088   1.223   2.394
 6015TIP3   OH217985   1.623   2.399   2.911
 6015TIP3    H117986   1.603   2.309   2.938
 6015TIP3    H217987   1.719   2.404   2.914
 6016TIP3   OH217988   7.927   1.169   5.177
 6016TIP3    H117989   7.888   1.089   5.142
 6016TIP3    H217990   7.854   1.229   5.187
 6017TIP3   OH217991   5.370   1.875   1.800
 6017TIP3    H117992   5.429   1.831   1.861
 6017TIP3    H217993   5.350   1.809   1.734
 6018TIP3   OH217994   2.194   2.808   0.762
 6018TIP3    H117995   2.124   2.852   0.809
 6018TIP3    H217996   2.164   2.717   0.753
 6019TIP3   OH217997   5.576   3.952   4.029
 6019TIP3    H117998   5.601   3.898   4.104
 6019TIP3    H217999   5.557   3.889   3.959
 6020TIP3   OH218000   2.026   4.550   1.959
 6020TIP3    H118001   1.999   4.464   1.993
 6020TIP3    H218002   1.970   4.612   2.006
 6021TIP3   OH218003   6.304   4.366   0.375
 6021TIP3    H118004   6.295   4.436   0.439
 6021TIP3    H218005   6.260   4.291   0.414
 6022TIP3   OH218006   6.828   4.939   2.928
 6022TIP3    H118007   6.751   4.997   2.927
 6022TIP3    H218008   6.894   4.986   2.878
 6023TIP3   OH218009   1.204   4.216   1.295
 6023TIP3    H118010   1.135   4.271   1.332
 6023TIP3    H218011   1.168   4.127   1.297
 6024TIP3   OH218012   6.717   3.716   5.991
 6024TIP3    H118013   6.779   3.645   5.973
 6024TIP3    H218014   6.664   3.683   6.063
 6025TIP3   OH218015   0.447   6.098   5.221
 6025TIP3    H118016   0.436   6.071   5.130
 6025TIP3    H218017   0.372   6.061   5.267
 6026TIP3   OH218018   3.634   3.533   0.148
 6026TIP3    H118019   3.580   3.472   0.099
 6026TIP3    H218020   3.720   3.492   0.152
 6027TIP3   OH218021   0.057   2.823   0.956
 6027TIP3    H118022   0.102   2.814   1.040
 6027TIP3    H218023   0.035   2.734   0.930
 6028TIP3   OH218024   5.075   0.359   0.430
 6028TIP3    H118025   5.126   0.436   0.456
 6028TIP3    H218026   5.109   0.336   0.343
 6029TIP3   OH218027   6.738   4.545   2.672
 6029TIP3    H118028   6.739   4.549   2.768
 6029TIP3    H218029   6.823   4.509   2.649
 6030TIP3   OH218030   1.522   0.803   0.979
 6030TIP3    H118031   1.572   0.878   1.011
 6030TIP3    H218032   1.588   0.740   0.950
 6031TIP3   OH218033   3.959   6.215   5.734
 6031TIP3    H118034   3.899   6.214   5.660
 6031TIP3    H218035   3.951   6.128   5.773
 6032TIP3   OH218036   7.003   1.715   3.342
 6032TIP3    H118037   7.093   1.681   3.339
 6032TIP3    H218038   6.994   1.748   3.431
 6033TIP3   OH218039   7.370   7.160   2.838
 6033TIP3    H118040   7.386   7.197   2.925
 6033TIP3    H218041   7.317   7.082   2.855
 6034TIP3   OH218042   0.219   2.132   0.410
 6034TIP3    H118043   0.248   2.217   0.378
 6034TIP3    H218044   0.194   2.148   0.501
 6035TIP3   OH218045   7.803   4.522   1.025
 6035TIP3    H118046   7.856   4.560   0.956
 6035TIP3    H218047   7.867   4.486   1.087
 6036TIP3   OH218048   7.054   4.140   3.945
 6036TIP3    H118049   7.090   4.072   4.001
 6036TIP3    H218050   6.989   4.184   3.999
 6037TIP3   OH218051   1.063   4.609   2.733
 6037TIP3    H118052   1.002   4.537   2.746
 6037TIP3    H218053   1.008   4.687   2.729
 6038TIP3   OH218054   6.064   3.876   1.753
 6038TIP3    H118055   6.145   3.867   1.703
 6038TIP3    H218056   6.084   3.840   1.839
 6039TIP3   OH218057   7.656   4.958   6.816
 6039TIP3    H118058   7.584   4.959   6.880
 6039TIP3    H218059   7.631   5.023   6.751
 6040TIP3   OH218060   7.112   0.139   0.520
 6040TIP3    H118061   7.166   0.097   0.587
 6040TIP3    H218062   7.114   0.232   0.543
 6041TIP3   OH218063   6.725   1.878   2.753
 6041TIP3    H118064   6.770   1.795   2.738
 6041TIP3    H218065   6.795   1.939   2.778
 6042TIP3   OH218066   1.655   5.604   1.225
 6042TIP3    H118067   1.742   5.579   1.256
 6042TIP3    H218068   1.608   5.521   1.215
 6043TIP3   OH218069   1.757   1.559   4.962
 6043TIP3    H118070   1.750   1.549   4.867
 6043TIP3    H218071   1.846   1.528   4.983
 6044TIP3   OH218072   7.358   2.362   6.157
 6044TIP3    H118073   7.398   2.402   6.080
 6044TIP3    H218074   7.433   2.329   6.208
 6045TIP3   OH218075   2.256   7.779   3.653
 6045TIP3    H118076   2.260   7.803   3.560
 6045TIP3    H218077   2.347   7.780   3.682
 6046TIP3   OH218078   3.740   1.166   5.898
 6046TIP3    H118079   3.773   1.175   5.988
 6046TIP3    H218080   3.818   1.157   5.844
 6047TIP3   OH218081   2.676   7.617   2.560
 6047TIP3    H118082   2.660   7.635   2.652
 6047TIP3    H218083   2.589   7.596   2.524
 6048TIP3   OH218084   8.197   0.176   6.339
 6048TIP3    H118085   8.218   0.240   6.271
 6048TIP3    H218086   8.250   0.203   6.414
 6049TIP3   OH218087   1.325   0.908   5.080
 6049TIP3    H118088   1.360   0.969   5.145
 6049TIP3    H218089   1.385   0.834   5.081
 6050TIP3   OH218090   2.879   0.145   2.827
 6050TIP3    H118091   2.835   0.226   2.852
 6050TIP3    H218092   2.848   0.128   2.738
 6051TIP3   OH218093   5.751   6.267   3.166
 6051TIP3    H118094   5.828   6.320   3.147
 6051TIP3    H218095   5.776   6.178   3.143
 6052TIP3   OH218096   1.727   3.533   6.277
 6052TIP3    H118097   1.761   3.599   6.217
 6052TIP3    H218098   1.768   3.553   6.361
 6053TIP3   OH218099   0.522   3.060   6.058
 6053TIP3    H118100   0.485   2.999   6.122
 6053TIP3    H218101   0.610   3.078   6.091
 6054TIP3   OH218102   0.881   0.605   3.221
 6054TIP3    H118103   0.831   0.685   3.238
 6054TIP3    H218104   0.854   0.544   3.290
 6055TIP3   OH218105   5.741   5.044   1.691
 6055TIP3    H118106   5.725   5.121   1.746
 6055TIP3    H218107   5.662   5.035   1.639
 6056TIP3   OH218108   5.262   7.690   2.184
 6056TIP3    H118109   5.239   7.741   2.262
 6056TIP3    H218110   5.297   7.608   2.220
 6057TIP3   OH218111   0.667   2.047   6.048
 6057TIP3    H118112   0.642   2.091   6.129
 6057TIP3    H218113   0.741   1.991   6.073
 6058TIP3   OH218114   4.751   5.326   2.312
 6058TIP3    H118115   4.818   5.381   2.351
 6058TIP3    H218116   4.752   5.246   2.364
 6059TIP3   OH218117   3.799   0.371   2.175
 6059TIP3    H118118   3.802   0.451   2.228
 6059TIP3    H218119   3.741   0.313   2.223
 6060TIP3   OH218120   5.126   0.496   0.746
 6060TIP3    H118121   5.136   0.466   0.836
 6060TIP3    H218122   5.032   0.508   0.734
 6061TIP3   OH218123   7.428   4.174   1.809
 6061TIP3    H118124   7.345   4.221   1.801
 6061TIP3    H218125   7.419   4.099   1.751
 6062TIP3   OH218126   7.950   3.839   1.414
 6062TIP3    H118127   8.009   3.888   1.356
 6062TIP3    H218128   7.923   3.763   1.362
 6063TIP3   OH218129   8.218   4.874   0.151
 6063TIP3    H118130   8.196   4.862   0.243
 6063TIP3    H218131   8.311   4.851   0.146
 6064TIP3   OH218132   3.235   6.853   2.941
 6064TIP3    H118133   3.230   6.879   3.033
 6064TIP3    H218134   3.193   6.924   2.893
 6065TIP3   OH218135   7.188   6.248   4.037
 6065TIP3    H118136   7.150   6.217   4.119
 6065TIP3    H218137   7.137   6.202   3.969
 6066TIP3   OH218138   5.267   7.490  -0.039
 6066TIP3    H118139   5.295   7.555   0.025
 6066TIP3    H218140   5.174   7.477  -0.021
 6067TIP3   OH218141   4.022   1.700   3.088
 6067TIP3    H118142   3.992   1.620   3.044
 6067TIP3    H218143   3.941   1.749   3.106
 6068TIP3   OH218144   6.942   3.791   4.029
 6068TIP3    H118145   6.954   3.696   4.037
 6068TIP3    H218146   6.847   3.802   4.016
 6069TIP3   OH218147   2.242   3.979   4.140
 6069TIP3    H118148   2.329   4.009   4.169
 6069TIP3    H218149   2.218   3.911   4.202
 6070TIP3   OH218150   4.358   3.463   4.914
 6070TIP3    H118151   4.342   3.369   4.911
 6070TIP3    H218152   4.271   3.502   4.918
 6071TIP3   OH218153   4.587   7.620   1.573
 6071TIP3    H118154   4.603   7.591   1.484
 6071TIP3    H218155   4.496   7.594   1.591
 6072TIP3   OH218156   6.162   5.662   4.480
 6072TIP3    H118157   6.073   5.629   4.471
 6072TIP3    H218158   6.185   5.644   4.571
 6073TIP3   OH218159   3.766   0.921   3.630
 6073TIP3    H118160   3.838   0.942   3.571
 6073TIP3    H218161   3.804   0.860   3.693
 6074TIP3   OH218162   6.111   2.192   2.833
 6074TIP3    H118163   6.027   2.165   2.872
 6074TIP3    H218164   6.173   2.190   2.906
 6075TIP3   OH218165   6.443   5.881   0.276
 6075TIP3    H118166   6.426   5.966   0.235
 6075TIP3    H218167   6.522   5.894   0.328
 6076TIP3   OH218168   7.465   2.206   4.956
 6076TIP3    H118169   7.451   2.299   4.974
 6076TIP3    H218170   7.453   2.198   4.862
 6077TIP3   OH218171   0.894   5.627   1.439
 6077TIP3    H118172   0.817   5.664   1.396
 6077TIP3    H218173   0.935   5.701   1.483
 6078TIP3   OH218174   3.029   3.486   5.579
 6078TIP3    H118175   3.024   3.518   5.489
 6078TIP3    H218176   2.938   3.486   5.609
 6079TIP3   OH218177   3.933   0.578   2.326
 6079TIP3    H118178   3.967   0.539   2.406
 6079TIP3    H218179   3.990   0.654   2.310
 6080TIP3   OH218180   2.895   0.297   6.480
 6080TIP3    H118181   2.873   0.243   6.404
 6080TIP3    H218182   2.850   0.254   6.553
 6081TIP3   OH218183   7.349   6.881   5.672
 6081TIP3    H118184   7.344   6.863   5.766
 6081TIP3    H218185   7.259   6.903   5.647
 6082TIP3   OH218186   8.261   2.989   1.195
 6082TIP3    H118187   8.330   3.054   1.188
 6082TIP3    H218188   8.185   3.038   1.226
 6083TIP3   OH218189   3.119   4.903   1.096
 6083TIP3    H118190   3.177   4.950   1.036
 6083TIP3    H218191   3.177   4.863   1.160
 6084TIP3   OH218192   8.088   6.199   3.318
 6084TIP3    H118193   8.171   6.168   3.282
 6084TIP3    H218194   8.023   6.180   3.250
 6085TIP3   OH218195   1.309   1.435   1.896
 6085TIP3    H118196   1.230   1.449   1.844
 6085TIP3    H218197   1.278   1.427   1.986
 6086TIP3   OH218198   1.748   3.489   6.775
 6086TIP3    H118199   1.767   3.435   6.698
 6086TIP3    H218200   1.653   3.498   6.775
 6087TIP3   OH218201   4.646   2.039   2.664
 6087TIP3    H118202   4.577   2.106   2.671
 6087TIP3    H218203   4.600   1.957   2.682
 6088TIP3   OH218204   5.543   7.175   4.834
 6088TIP3    H118205   5.535   7.161   4.740
 6088TIP3    H218206   5.557   7.269   4.843
 6089TIP3   OH218207   2.427   7.153   6.806
 6089TIP3    H118208   2.469   7.155   6.720
 6089TIP3    H218209   2.448   7.239   6.845
 6090TIP3   OH218210   6.304   2.566   0.515
 6090TIP3    H118211   6.377   2.565   0.578
 6090TIP3    H218212   6.252   2.642   0.542
 6091TIP3   OH218213   4.658   0.368   4.431
 6091TIP3    H118214   4.637   0.395   4.520
 6091TIP3    H218215   4.693   0.280   4.440
 6092TIP3   OH218216   1.126   7.154   0.482
 6092TIP3    H118217   1.160   7.100   0.553
 6092TIP3    H218218   1.160   7.113   0.402
 6093TIP3   OH218219   4.223   2.111   0.105
 6093TIP3    H118220   4.250   2.161   0.182
 6093TIP3    H218221   4.130   2.131   0.095
 6094TIP3   OH218222   2.869   0.577   3.301
 6094TIP3    H118223   2.932   0.538   3.361
 6094TIP3    H218224   2.785   0.539   3.325
 6095TIP3   OH218225   1.370   0.345   1.025
 6095TIP3    H118226   1.304   0.385   1.082
 6095TIP3    H218227   1.335   0.358   0.937
 6096TIP3   OH218228   7.155   4.048   2.865
 6096TIP3    H118229   7.216   4.114   2.898
 6096TIP3    H218230   7.161   3.976   2.928
 6097TIP3   OH218231   2.778   0.921   4.860
 6097TIP3    H118232   2.816   0.980   4.925
 6097TIP3    H218233   2.684   0.937   4.866
 6098TIP3   OH218234   4.040   0.981   3.810
 6098TIP3    H118235   4.042   0.901   3.861
 6098TIP3    H218236   4.123   1.025   3.830
 6099TIP3   OH218237   0.205   0.882   4.409
 6099TIP3    H118238   0.298   0.864   4.398
 6099TIP3    H218239   0.193   0.969   4.371
 6100TIP3   OH218240   5.131   2.084   1.757
 6100TIP3    H118241   5.181   2.003   1.773
 6100TIP3    H218242   5.172   2.122   1.680
 6101TIP3   OH218243   6.344   6.394   5.780
 6101TIP3    H118244   6.320   6.310   5.821
 6101TIP3    H218245   6.403   6.435   5.844
 6102TIP3   OH218246   6.746   4.393   3.905
 6102TIP3    H118247   6.769   4.312   3.950
 6102TIP3    H218248   6.823   4.449   3.917
 6103TIP3   OH218249   4.862   0.533   3.111
 6103TIP3    H118250   4.769   0.513   3.109
 6103TIP3    H218251   4.867   0.620   3.152
 6104TIP3   OH218252   0.613   7.022   2.652
 6104TIP3    H118253   0.643   6.938   2.616
 6104TIP3    H218254   0.525   7.005   2.685
 6105TIP3   OH218255   5.011   4.125   4.686
 6105TIP3    H118256   5.086   4.072   4.713
 6105TIP3    H218257   4.946   4.062   4.655
 6106TIP3   OH218258   3.894   0.626   6.466
 6106TIP3    H118259   3.990   0.628   6.467
 6106TIP3    H218260   3.872   0.537   6.441
 6107TIP3   OH218261   1.427   2.422   0.636
 6107TIP3    H118262   1.418   2.439   0.543
 6107TIP3    H218263   1.342   2.446   0.673
 6108TIP3   OH218264   5.764   2.240   5.340
 6108TIP3    H118265   5.788   2.203   5.255
 6108TIP3    H218266   5.827   2.310   5.354
 6109TIP3   OH218267   3.430   6.596   0.605
 6109TIP3    H118268   3.470   6.671   0.649
 6109TIP3    H218269   3.482   6.585   0.525
 6110TIP3   OH218270   2.925   4.749   5.152
 6110TIP3    H118271   2.961   4.667   5.187
 6110TIP3    H218272   2.949   4.749   5.060
 6111TIP3   OH218273   2.428   7.072   2.422
 6111TIP3    H118274   2.395   7.045   2.508
 6111TIP3    H218275   2.409   6.997   2.365
 6112TIP3   OH218276   5.067   3.053   3.451
 6112TIP3    H118277   4.978   3.020   3.439
 6112TIP3    H218278   5.074   3.127   3.390
 6113TIP3   OH218279   6.203   1.486   5.330
 6113TIP3    H118280   6.141   1.546   5.290
 6113TIP3    H218281   6.204   1.511   5.423
 6114TIP3   OH218282   3.059   2.114   6.013
 6114TIP3    H118283   3.095   2.133   5.926
 6114TIP3    H218284   3.085   2.190   6.066
 6115TIP3   OH218285   8.289   0.321   0.260
 6115TIP3    H118286   8.259   0.231   0.272
 6115TIP3    H218287   8.236   0.354   0.187
 6116TIP3   OH218288   4.423   1.564   2.857
 6116TIP3    H118289   4.462   1.584   2.942
 6116TIP3    H218290   4.484   1.502   2.817
 6117TIP3   OH218291   2.391   1.705   0.174
 6117TIP3    H118292   2.307   1.718   0.131
 6117TIP3    H218293   2.379   1.626   0.226
 6118TIP3   OH218294   1.002   3.890   3.007
 6118TIP3    H118295   1.086   3.876   2.963
 6118TIP3    H218296   0.995   3.818   3.069
 6119TIP3   OH218297   5.799   6.573   0.115
 6119TIP3    H118298   5.757   6.538   0.193
 6119TIP3    H218299   5.832   6.659   0.142
 6120TIP3   OH218300   4.546   6.674   0.833
 6120TIP3    H118301   4.526   6.617   0.758
 6120TIP3    H218302   4.640   6.691   0.826
 6121TIP3   OH218303   1.968   3.057   5.492
 6121TIP3    H118304   2.010   3.124   5.546
 6121TIP3    H218305   1.899   3.021   5.547
 6122TIP3   OH218306   1.450   1.943   3.567
 6122TIP3    H118307   1.531   1.969   3.612
 6122TIP3    H218308   1.390   1.920   3.638
 6123TIP3   OH218309   7.053   3.982   5.711
 6123TIP3    H118310   7.102   3.913   5.756
 6123TIP3    H218311   7.118   4.051   5.697
 6124TIP3   OH218312   5.410   7.135   1.482
 6124TIP3    H118313   5.477   7.148   1.415
 6124TIP3    H218314   5.387   7.224   1.511
 6125TIP3   OH218315   5.470   4.152   5.421
 6125TIP3    H118316   5.518   4.070   5.433
 6125TIP3    H218317   5.430   4.143   5.334
 6126TIP3   OH218318   0.645   3.418   2.531
 6126TIP3    H118319   0.712   3.358   2.498
 6126TIP3    H218320   0.686   3.504   2.531
 6127TIP3   OH218321   1.364   1.216   2.273
 6127TIP3    H118322   1.326   1.302   2.255
 6127TIP3    H218323   1.433   1.206   2.208
 6128TIP3   OH218324   6.621   3.968   1.564
 6128TIP3    H118325   6.590   3.887   1.524
 6128TIP3    H218326   6.687   3.939   1.627
 6129TIP3   OH218327   1.938   6.580   0.385
 6129TIP3    H118328   1.925   6.554   0.294
 6129TIP3    H218329   1.872   6.648   0.400
 6130TIP3   OH218330   2.237   5.042   1.198
 6130TIP3    H118331   2.305   5.051   1.131
 6130TIP3    H218332   2.267   5.096   1.270
 6131TIP3   OH218333   8.037   6.438   2.472
 6131TIP3    H118334   7.943   6.455   2.466
 6131TIP3    H218335   8.078   6.508   2.421
 6132TIP3   OH218336   6.175   2.633   6.539
 6132TIP3    H118337   6.144   2.573   6.470
 6132TIP3    H218338   6.162   2.584   6.620
 6133TIP3   OH218339   1.290   6.887   2.473
 6133TIP3    H118340   1.295   6.976   2.510
 6133TIP3    H218341   1.198   6.876   2.450
 6134TIP3   OH218342   2.824   0.061   6.800
 6134TIP3    H118343   2.873   0.131   6.844
 6134TIP3    H218344   2.778   0.016   6.871
 6135TIP3   OH218345   4.322   7.601   2.782
 6135TIP3    H118346   4.327   7.650   2.700
 6135TIP3    H218347   4.266   7.526   2.763
 6136TIP3   OH218348   5.081   3.813   5.952
 6136TIP3    H118349   5.017   3.802   6.023
 6136TIP3    H218350   5.037   3.776   5.875
 6137TIP3   OH218351   2.986   6.865   0.357
 6137TIP3    H118352   3.068   6.883   0.403
 6137TIP3    H218353   3.004   6.890   0.266
 6138TIP3   OH218354   3.550   3.961   1.523
 6138TIP3    H118355   3.553   4.048   1.565
 6138TIP3    H218356   3.481   3.915   1.569
 6139TIP3   OH218357   3.861   6.373   3.980
 6139TIP3    H118358   3.920   6.324   4.038
 6139TIP3    H218359   3.913   6.388   3.901
 6140TIP3   OH218360   1.244   7.767   0.035
 6140TIP3    H118361   1.335   7.744   0.017
 6140TIP3    H218362   1.193   7.701  -0.012
 6141TIP3   OH218363   5.838   1.277   4.675
 6141TIP3    H118364   5.909   1.231   4.720
 6141TIP3    H218365   5.882   1.327   4.606
 6142TIP3   OH218366   1.394   0.791   2.913
 6142TIP3    H118367   1.454   0.721   2.889
 6142TIP3    H218368   1.307   0.755   2.896
 6143TIP3   OH218369   5.458   5.746   0.488
 6143TIP3    H118370   5.367   5.771   0.476
 6143TIP3    H218371   5.458   5.650   0.483
 6144TIP3   OH218372   0.171   5.199   0.440
 6144TIP3    H118373   0.142   5.289   0.450
 6144TIP3    H218374   0.166   5.162   0.528
 6145TIP3   OH218375   6.706   6.520   4.410
 6145TIP3    H118376   6.658   6.554   4.335
 6145TIP3    H218377   6.643   6.525   4.483
 6146TIP3   OH218378   7.011   4.600   3.685
 6146TIP3    H118379   7.091   4.591   3.737
 6146TIP3    H218380   6.969   4.514   3.691
 6147TIP3   OH218381   0.046   2.359   5.560
 6147TIP3    H118382   0.123   2.359   5.504
 6147TIP3    H218383  -0.016   2.301   5.515
 6148TIP3   OH218384   0.078   1.503   6.743
 6148TIP3    H118385   0.050   1.526   6.832
 6148TIP3    H218386   0.035   1.568   6.687
 6149TIP3   OH218387   8.261   4.714   1.044
 6149TIP3    H118388   8.251   4.640   0.986
 6149TIP3    H218389   8.237   4.681   1.131
 6150TIP3   OH218390   3.115   5.822   5.766
 6150TIP3    H118391   3.025   5.790   5.760
 6150TIP3    H218392   3.107   5.917   5.769
 6151TIP3   OH218393   5.293   2.921   3.584
 6151TIP3    H118394   5.366   2.980   3.567
 6151TIP3    H218395   5.224   2.949   3.523
 6152TIP3   OH218396   6.291   1.312   3.746
 6152TIP3    H118397   6.228   1.308   3.674
 6152TIP3    H218398   6.240   1.291   3.824
 6153TIP3   OH218399   3.765   7.475   4.523
 6153TIP3    H118400   3.685   7.526   4.537
 6153TIP3    H218401   3.802   7.465   4.611
 6154TIP3   OH218402   0.964   0.910   2.942
 6154TIP3    H118403   0.991   0.983   2.997
 6154TIP3    H218404   1.029   0.909   2.872
 6155TIP3   OH218405   1.121   5.809   4.236
 6155TIP3    H118406   1.114   5.904   4.232
 6155TIP3    H218407   1.030   5.779   4.229
 6156TIP3   OH218408   6.781   4.818   6.171
 6156TIP3    H118409   6.856   4.782   6.123
 6156TIP3    H218410   6.819   4.855   6.251
 6157TIP3   OH218411   6.120   3.509   6.006
 6157TIP3    H118412   6.172   3.510   6.086
 6157TIP3    H218413   6.029   3.510   6.035
 6158TIP3   OH218414   3.805   2.609   2.617
 6158TIP3    H118415   3.830   2.517   2.606
 6158TIP3    H218416   3.729   2.606   2.675
 6159TIP3   OH218417   3.020   5.447   2.181
 6159TIP3    H118418   3.093   5.385   2.179
 6159TIP3    H218419   3.023   5.490   2.096
 6160TIP3   OH218420   0.620   5.513   6.314
 6160TIP3    H118421   0.614   5.427   6.355
 6160TIP3    H218422   0.640   5.495   6.222
 6161TIP3   OH218423   4.483   1.431   4.585
 6161TIP3    H118424   4.565   1.386   4.608
 6161TIP3    H218425   4.510   1.521   4.567
 6162TIP3   OH218426   5.056   7.832   4.074
 6162TIP3    H118427   5.029   7.836   4.166
 6162TIP3    H218428   4.976   7.850   4.025
 6163TIP3   OH218429   3.791   7.346   0.910
 6163TIP3    H118430   3.792   7.310   0.999
 6163TIP3    H218431   3.850   7.289   0.861
 6164TIP3   OH218432   1.520   4.485   0.893
 6164TIP3    H118433   1.478   4.471   0.977
 6164TIP3    H218434   1.591   4.546   0.911
 6165TIP3   OH218435   3.487   2.544   2.589
 6165TIP3    H118436   3.420   2.570   2.652
 6165TIP3    H218437   3.438   2.513   2.513
 6166TIP3   OH218438   7.040   1.753   4.258
 6166TIP3    H118439   7.003   1.840   4.242
 6166TIP3    H218440   7.075   1.726   4.174
 6167TIP3   OH218441   7.942   6.341   4.726
 6167TIP3    H118442   7.926   6.313   4.816
 6167TIP3    H218443   7.858   6.327   4.681
 6168TIP3   OH218444   6.602   5.225   6.158
 6168TIP3    H118445   6.612   5.140   6.202
 6168TIP3    H218446   6.508   5.240   6.156
 6169TIP3   OH218447   4.572   5.320   6.270
 6169TIP3    H118448   4.521   5.274   6.203
 6169TIP3    H218449   4.549   5.412   6.258
 6170TIP3   OH218450   0.031   2.582   1.320
 6170TIP3    H118451   0.094   2.604   1.251
 6170TIP3    H218452   0.001   2.494   1.298
 6171TIP3   OH218453   4.718   3.712   4.283
 6171TIP3    H118454   4.810   3.737   4.279
 6171TIP3    H218455   4.717   3.630   4.334
 6172TIP3   OH218456   0.591   5.040   1.503
 6172TIP3    H118457   0.547   5.067   1.584
 6172TIP3    H218458   0.673   5.090   1.502
 6173TIP3   OH218459   4.261   0.044   4.102
 6173TIP3    H118460   4.293   0.114   4.159
 6173TIP3    H218461   4.321  -0.029   4.120
 6174TIP3   OH218462   5.800   7.504   3.203
 6174TIP3    H118463   5.863   7.526   3.272
 6174TIP3    H218464   5.765   7.589   3.174
 6175TIP3   OH218465   5.390   3.775   5.699
 6175TIP3    H118466   5.356   3.713   5.634
 6175TIP3    H218467   5.318   3.838   5.711
 6176TIP3   OH218468   3.782   6.094   1.952
 6176TIP3    H118469   3.719   6.145   2.002
 6176TIP3    H218470   3.759   6.111   1.861
 6177TIP3   OH218471   6.216   2.020   5.645
 6177TIP3    H118472   6.171   2.088   5.594
 6177TIP3    H218473   6.200   1.940   5.595
 6178TIP3   OH218474   2.650   1.203   6.261
 6178TIP3    H118475   2.624   1.244   6.179
 6178TIP3    H218476   2.576   1.219   6.320
 6179TIP3   OH218477   0.045   4.638   6.808
 6179TIP3    H118478  -0.045   4.610   6.794
 6179TIP3    H218479   0.097   4.584   6.748
 6180TIP3   OH218480   0.435   6.351   1.933
 6180TIP3    H118481   0.490   6.429   1.935
 6180TIP3    H218482   0.399   6.349   1.845
 6181TIP3   OH218483   7.876   5.712   4.860
 6181TIP3    H118484   7.821   5.748   4.929
 6181TIP3    H218485   7.816   5.659   4.807
 6182TIP3   OH218486   4.715   7.208   4.913
 6182TIP3    H118487   4.768   7.233   4.989
 6182TIP3    H218488   4.779   7.188   4.845
 6183TIP3   OH218489   4.558   2.667   6.005
 6183TIP3    H118490   4.606   2.599   5.957
 6183TIP3    H218491   4.492   2.620   6.055
 6184TIP3   OH218492   1.693   4.573   2.183
 6184TIP3    H118493   1.753   4.513   2.227
 6184TIP3    H218494   1.661   4.630   2.252
 6185TIP3   OH218495   6.268   0.278   6.302
 6185TIP3    H118496   6.231   0.190   6.300
 6185TIP3    H218497   6.358   0.267   6.272
 6186TIP3   OH218498   4.319   4.787   2.843
 6186TIP3    H118499   4.387   4.721   2.859
 6186TIP3    H218500   4.331   4.812   2.751
 6187TIP3   OH218501   2.334   0.140   6.536
 6187TIP3    H118502   2.318   0.145   6.631
 6187TIP3    H218503   2.399   0.207   6.519
 6188TIP3   OH218504   7.270   0.905   0.507
 6188TIP3    H118505   7.358   0.887   0.474
 6188TIP3    H218506   7.277   0.989   0.552
 6189TIP3   OH218507   0.786   4.690   4.975
 6189TIP3    H118508   0.860   4.678   5.035
 6189TIP3    H218509   0.715   4.640   5.015
 6190TIP3   OH218510   0.838   3.695   5.455
 6190TIP3    H118511   0.840   3.599   5.453
 6190TIP3    H218512   0.756   3.719   5.413
 6191TIP3   OH218513   3.150   5.426   0.826
 6191TIP3    H118514   3.208   5.494   0.793
 6191TIP3    H218515   3.185   5.404   0.913
 6192TIP3   OH218516   6.948   6.029   0.909
 6192TIP3    H118517   7.031   5.981   0.915
 6192TIP3    H218518   6.972   6.120   0.924
 6193TIP3   OH218519   1.136   1.040   0.847
 6193TIP3    H118520   1.088   1.041   0.929
 6193TIP3    H218521   1.099   0.966   0.798
 6194TIP3   OH218522   1.129   0.956   4.032
 6194TIP3    H118523   1.053   0.982   4.084
 6194TIP3    H218524   1.114   0.996   3.946
 6195TIP3   OH218525   4.473   1.079   2.600
 6195TIP3    H118526   4.391   1.029   2.594
 6195TIP3    H218527   4.458   1.140   2.672
 6196TIP3   OH218528   0.934   1.588   4.298
 6196TIP3    H118529   0.859   1.561   4.245
 6196TIP3    H218530   0.896   1.629   4.375
 6197TIP3   OH218531   0.650   4.723   6.094
 6197TIP3    H118532   0.681   4.753   6.180
 6197TIP3    H218533   0.705   4.648   6.074
 6198TIP3   OH218534   1.544   4.125   5.265
 6198TIP3    H118535   1.503   4.200   5.222
 6198TIP3    H218536   1.578   4.072   5.193
 6199TIP3   OH218537   8.208   7.150   6.356
 6199TIP3    H118538   8.297   7.158   6.391
 6199TIP3    H218539   8.190   7.056   6.357
 6200TIP3   OH218540   1.066   4.320   4.742
 6200TIP3    H118541   1.124   4.247   4.719
 6200TIP3    H218542   1.040   4.303   4.832
 6201TIP3   OH218543   7.994   0.083   0.447
 6201TIP3    H118544   8.056   0.126   0.505
 6201TIP3    H218545   7.924   0.146   0.435
 6202TIP3   OH218546   2.095   0.590   5.087
 6202TIP3    H118547   2.071   0.552   5.002
 6202TIP3    H218548   2.014   0.627   5.120
 6203TIP3   OH218549   1.634   1.019   1.117
 6203TIP3    H118550   1.563   1.054   1.171
 6203TIP3    H218551   1.708   1.078   1.133
 6204TIP3   OH218552   5.786   4.517   2.326
 6204TIP3    H118553   5.831   4.525   2.410
 6204TIP3    H218554   5.853   4.482   2.267
 6205TIP3   OH218555   7.889   3.669   3.241
 6205TIP3    H118556   7.843   3.645   3.321
 6205TIP3    H218557   7.819   3.700   3.182
 6206TIP3   OH218558   4.083   5.900   1.409
 6206TIP3    H118559   4.073   5.977   1.352
 6206TIP3    H218560   4.024   5.835   1.370
 6207TIP3   OH218561   1.631   0.060   3.660
 6207TIP3    H118562   1.676   0.140   3.632
 6207TIP3    H218563   1.582   0.086   3.738
 6208TIP3   OH218564   0.528   1.111   4.561
 6208TIP3    H118565   0.526   1.207   4.568
 6208TIP3    H218566   0.478   1.081   4.637
 6209TIP3   OH218567   2.017   3.151   1.102
 6209TIP3    H118568   2.020   3.217   1.170
 6209TIP3    H218569   2.066   3.189   1.028
 6210TIP3   OH218570   5.696   6.911   0.529
 6210TIP3    H118571   5.716   6.910   0.435
 6210TIP3    H218572   5.616   6.859   0.536
 6211TIP3   OH218573   7.729   4.119   2.050
 6211TIP3    H118574   7.776   4.085   2.126
 6211TIP3    H218575   7.637   4.100   2.067
 6212TIP3   OH218576   5.173   1.852   1.511
 6212TIP3    H118577   5.197   1.828   1.421
 6212TIP3    H218578   5.209   1.782   1.565
 6213TIP3   OH218579   2.696   1.902   6.325
 6213TIP3    H118580   2.758   1.888   6.396
 6213TIP3    H218581   2.661   1.990   6.340
 6214TIP3   OH218582   0.775   7.356   5.942
 6214TIP3    H118583   0.719   7.359   6.020
 6214TIP3    H218584   0.736   7.418   5.882
 6215TIP3   OH218585   3.442   1.323   4.114
 6215TIP3    H118586   3.513   1.366   4.066
 6215TIP3    H218587   3.463   1.230   4.112
 6216TIP3   OH218588   3.942   3.760   0.318
 6216TIP3    H118589   3.991   3.842   0.311
 6216TIP3    H218590   3.999   3.695   0.276
 6217TIP3   OH218591   0.560   1.840   1.744
 6217TIP3    H118592   0.588   1.866   1.832
 6217TIP3    H218593   0.465   1.852   1.744
 6218TIP3   OH218594   4.365   5.105   3.209
 6218TIP3    H118595   4.373   5.195   3.243
 6218TIP3    H218596   4.376   5.049   3.286
 6219TIP3   OH218597   3.217   5.413   5.368
 6219TIP3    H118598   3.202   5.358   5.291
 6219TIP3    H218599   3.161   5.489   5.354
 6220TIP3   OH218600   2.439   6.181   3.410
 6220TIP3    H118601   2.470   6.215   3.326
 6220TIP3    H218602   2.516   6.142   3.450
 6221TIP3   OH218603   2.855   1.625   4.758
 6221TIP3    H118604   2.801   1.645   4.682
 6221TIP3    H218605   2.883   1.711   4.790
 6222TIP3   OH218606   0.838   1.065   3.941
 6222TIP3    H118607   0.813   1.150   3.905
 6222TIP3    H218608   0.828   1.076   4.036
 6223TIP3   OH218609   4.377   0.253   4.255
 6223TIP3    H118610   4.373   0.224   4.346
 6223TIP3    H218611   4.352   0.345   4.258
 6224TIP3   OH218612   2.487   4.537   1.911
 6224TIP3    H118613   2.563   4.491   1.874
 6224TIP3    H218614   2.419   4.471   1.915
 6225TIP3   OH218615   0.913   6.999   0.748
 6225TIP3    H118616   0.868   7.050   0.681
 6225TIP3    H218617   0.976   6.945   0.699
 6226TIP3   OH218618   5.682   6.775   3.538
 6226TIP3    H118619   5.599   6.812   3.569
 6226TIP3    H218620   5.749   6.833   3.574
 6227TIP3   OH218621   0.209   0.233   2.839
 6227TIP3    H118622   0.304   0.242   2.827
 6227TIP3    H218623   0.200   0.154   2.892
 6228TIP3   OH218624   7.894   1.556   2.347
 6228TIP3    H118625   7.865   1.574   2.436
 6228TIP3    H218626   7.819   1.515   2.304
 6229TIP3   OH218627   5.944   5.562   3.934
 6229TIP3    H118628   5.898   5.636   3.895
 6229TIP3    H218629   6.036   5.588   3.934
 6230TIP3   OH218630   3.314   7.511   2.599
 6230TIP3    H118631   3.280   7.551   2.519
 6230TIP3    H218632   3.265   7.429   2.607
 6231TIP3   OH218633   5.774   0.643   1.015
 6231TIP3    H118634   5.710   0.606   1.077
 6231TIP3    H218635   5.823   0.706   1.067
 6232TIP3   OH218636   0.305   0.368   3.100
 6232TIP3    H118637   0.297   0.456   3.065
 6232TIP3    H218638   0.243   0.316   3.050
 6233TIP3   OH218639   1.418   5.503   6.327
 6233TIP3    H118640   1.480   5.432   6.313
 6233TIP3    H218641   1.423   5.520   6.422
 6234TIP3   OH218642   7.863   7.674   1.485
 6234TIP3    H118643   7.906   7.617   1.548
 6234TIP3    H218644   7.829   7.615   1.417
 6235TIP3   OH218645   4.257   6.571   2.940
 6235TIP3    H118646   4.338   6.529   2.967
 6235TIP3    H218647   4.210   6.504   2.890
 6236TIP3   OH218648   7.047   4.783   1.731
 6236TIP3    H118649   7.047   4.694   1.765
 6236TIP3    H218650   7.140   4.807   1.725
 6237TIP3   OH218651   3.765   2.733   0.478
 6237TIP3    H118652   3.676   2.726   0.442
 6237TIP3    H218653   3.752   2.764   0.567
 6238TIP3   OH218654   3.672   4.368   1.498
 6238TIP3    H118655   3.610   4.351   1.427
 6238TIP3    H218656   3.691   4.461   1.492
 6239TIP3   OH218657   8.202   4.611   1.290
 6239TIP3    H118658   8.265   4.555   1.335
 6239TIP3    H218659   8.174   4.673   1.357
 6240TIP3   OH218660   8.054   1.742   1.598
 6240TIP3    H118661   7.980   1.772   1.651
 6240TIP3    H218662   8.131   1.767   1.648
 6241TIP3   OH218663   0.444   6.754   0.392
 6241TIP3    H118664   0.410   6.711   0.470
 6241TIP3    H218665   0.536   6.773   0.413
 6242TIP3   OH218666   5.038   5.883   6.182
 6242TIP3    H118667   4.982   5.805   6.184
 6242TIP3    H218668   5.082   5.884   6.267
 6243TIP3   OH218669   5.984   7.483   2.850
 6243TIP3    H118670   5.903   7.438   2.828
 6243TIP3    H218671   6.007   7.450   2.937
 6244TIP3   OH218672   6.125   4.712   5.380
 6244TIP3    H118673   6.059   4.781   5.386
 6244TIP3    H218674   6.103   4.651   5.450
 6245TIP3   OH218675   2.209   3.836   3.256
 6245TIP3    H118676   2.158   3.906   3.296
 6245TIP3    H218677   2.199   3.850   3.162
 6246TIP3   OH218678   5.189   3.577   1.984
 6246TIP3    H118679   5.220   3.656   2.027
 6246TIP3    H218680   5.208   3.592   1.891
 6247TIP3   OH218681   0.892   5.062   5.410
 6247TIP3    H118682   0.910   5.122   5.338
 6247TIP3    H218683   0.944   4.984   5.391
 6248TIP3   OH218684   4.122   6.580   2.285
 6248TIP3    H118685   4.186   6.583   2.356
 6248TIP3    H218686   4.164   6.624   2.212
 6249TIP3   OH218687   3.368   3.599   5.333
 6249TIP3    H118688   3.273   3.599   5.348
 6249TIP3    H218689   3.396   3.511   5.360
 6250TIP3   OH218690   5.511   4.792   0.526
 6250TIP3    H118691   5.504   4.733   0.601
 6250TIP3    H218692   5.605   4.805   0.514
 6251TIP3   OH218693   3.714   3.399   0.673
 6251TIP3    H118694   3.668   3.322   0.708
 6251TIP3    H218695   3.802   3.393   0.709
 6252TIP3   OH218696   4.219   0.714   4.311
 6252TIP3    H118697   4.263   0.741   4.230
 6252TIP3    H218698   4.253   0.626   4.328
 6253TIP3   OH218699   4.297   3.226   0.506
 6253TIP3    H118700   4.333   3.303   0.461
 6253TIP3    H218701   4.343   3.152   0.467
 6254TIP3   OH218702   0.088   6.313   3.837
 6254TIP3    H118703   0.002   6.319   3.878
 6254TIP3    H218704   0.076   6.257   3.761
 6255TIP3   OH218705   7.368   1.059   6.789
 6255TIP3    H118706   7.435   1.054   6.721
 6255TIP3    H218707   7.338   1.150   6.787
 6256TIP3   OH218708   2.713   5.973   3.356
 6256TIP3    H118709   2.749   5.885   3.344
 6256TIP3    H218710   2.725   6.015   3.271
 6257TIP3   OH218711   2.238   5.623   2.209
 6257TIP3    H118712   2.316   5.656   2.253
 6257TIP3    H218713   2.167   5.678   2.242
 6258TIP3   OH218714   7.768   0.391   3.204
 6258TIP3    H118715   7.787   0.438   3.123
 6258TIP3    H218716   7.728   0.309   3.177
 6259TIP3   OH218717   7.918   3.220   2.712
 6259TIP3    H118718   7.908   3.263   2.797
 6259TIP3    H218719   7.880   3.282   2.650
 6260TIP3   OH218720   3.424   2.757   1.897
 6260TIP3    H118721   3.432   2.707   1.979
 6260TIP3    H218722   3.423   2.691   1.828
 6261TIP3   OH218723   5.144   4.636   4.483
 6261TIP3    H118724   5.068   4.644   4.425
 6261TIP3    H218725   5.109   4.650   4.571
 6262TIP3   OH218726   3.403   4.282   6.686
 6262TIP3    H118727   3.346   4.288   6.609
 6262TIP3    H218728   3.468   4.351   6.673
 6263TIP3   OH218729   5.933   2.486   6.487
 6263TIP3    H118730   5.849   2.527   6.466
 6263TIP3    H218731   5.911   2.416   6.548
 6264TIP3   OH218732   4.378   5.452   5.225
 6264TIP3    H118733   4.318   5.426   5.295
 6264TIP3    H218734   4.431   5.523   5.264
 6265TIP3   OH218735   8.392   2.461   5.008
 6265TIP3    H118736   8.325   2.454   4.941
 6265TIP3    H218737   8.440   2.379   5.004
 6266TIP3   OH218738   1.787   7.261   4.977
 6266TIP3    H118739   1.703   7.273   4.932
 6266TIP3    H218740   1.763   7.257   5.070
 6267TIP3   OH218741   2.254   4.600   5.920
 6267TIP3    H118742   2.333   4.546   5.916
 6267TIP3    H218743   2.201   4.571   5.846
 6268TIP3   OH218744   4.840   5.258   4.845
 6268TIP3    H118745   4.792   5.236   4.925
 6268TIP3    H218746   4.776   5.303   4.790
 6269TIP3   OH218747   4.611   4.330   1.334
 6269TIP3    H118748   4.638   4.291   1.251
 6269TIP3    H218749   4.668   4.407   1.343
 6270TIP3   OH218750   2.999   1.072   1.251
 6270TIP3    H118751   2.974   1.084   1.159
 6270TIP3    H218752   3.092   1.051   1.247
 6271TIP3   OH218753   7.084   6.543   3.933
 6271TIP3    H118754   7.003   6.502   3.965
 6271TIP3    H218755   7.137   6.469   3.903
 6272TIP3   OH218756   5.061   1.173   1.976
 6272TIP3    H118757   5.154   1.176   1.954
 6272TIP3    H218758   5.030   1.090   1.939
 6273TIP3   OH218759   5.640   6.403   4.735
 6273TIP3    H118760   5.667   6.449   4.815
 6273TIP3    H218761   5.721   6.386   4.688
 6274TIP3   OH218762   7.498   1.679   6.094
 6274TIP3    H118763   7.593   1.671   6.090
 6274TIP3    H218764   7.481   1.738   6.168
 6275TIP3   OH218765   5.314   6.405   1.208
 6275TIP3    H118766   5.380   6.465   1.173
 6275TIP3    H218767   5.233   6.429   1.163
 6276TIP3   OH218768   1.942   3.919   0.533
 6276TIP3    H118769   1.985   4.004   0.545
 6276TIP3    H218770   1.863   3.925   0.587
 6277TIP3   OH218771   6.816   6.046   5.115
 6277TIP3    H118772   6.739   6.000   5.150
 6277TIP3    H218773   6.878   6.046   5.187
 6278TIP3   OH218774   0.502   5.670   3.366
 6278TIP3    H118775   0.552   5.739   3.410
 6278TIP3    H218776   0.411   5.699   3.372
 6279TIP3   OH218777   7.690   2.757   5.829
 6279TIP3    H118778   7.783   2.780   5.840
 6279TIP3    H218779   7.663   2.728   5.916
 6280TIP3   OH218780   3.107   3.735   4.064
 6280TIP3    H118781   3.108   3.826   4.094
 6280TIP3    H218782   3.122   3.684   4.143
 6281TIP3   OH218783   7.699   5.262   2.015
 6281TIP3    H118784   7.765   5.297   2.074
 6281TIP3    H218785   7.736   5.180   1.983
 6282TIP3   OH218786   7.904   4.069   0.390
 6282TIP3    H118787   7.842   4.132   0.353
 6282TIP3    H218788   7.948   4.118   0.461
 6283TIP3   OH218789   1.635   4.832   0.090
 6283TIP3    H118790   1.694   4.880   0.031
 6283TIP3    H218791   1.676   4.746   0.100
 6284TIP3   OH218792   7.022   5.996   1.968
 6284TIP3    H118793   6.965   6.045   1.908
 6284TIP3    H218794   7.110   6.027   1.947
 6285TIP3   OH218795   7.527   6.801   6.329
 6285TIP3    H118796   7.472   6.728   6.300
 6285TIP3    H218797   7.610   6.761   6.353
 6286TIP3   OH218798   6.840   2.977   2.761
 6286TIP3    H118799   6.915   2.917   2.765
 6286TIP3    H218800   6.872   3.057   2.803
 6287TIP3   OH218801   6.050   6.076   1.332
 6287TIP3    H118802   6.035   6.036   1.246
 6287TIP3    H218803   6.140   6.052   1.354
 6288TIP3   OH218804   6.171   1.316   4.188
 6288TIP3    H118805   6.236   1.247   4.197
 6288TIP3    H218806   6.088   1.269   4.174
 6289TIP3   OH218807   2.946   3.226   5.447
 6289TIP3    H118808   3.021   3.246   5.502
 6289TIP3    H218809   2.872   3.223   5.507
 6290TIP3   OH218810   3.687   6.199   1.717
 6290TIP3    H118811   3.770   6.247   1.712
 6290TIP3    H218812   3.621   6.267   1.733
 6291TIP3   OH218813   1.758   5.048   0.249
 6291TIP3    H118814   1.707   4.991   0.191
 6291TIP3    H218815   1.719   5.034   0.335
 6292TIP3   OH218816   4.567   5.356   3.161
 6292TIP3    H118817   4.593   5.267   3.136
 6292TIP3    H218818   4.495   5.377   3.103
 6293TIP3   OH218819   4.997   5.355   3.940
 6293TIP3    H118820   5.078   5.338   3.892
 6293TIP3    H218821   4.994   5.450   3.951
 6294TIP3   OH218822   4.258   5.443   2.717
 6294TIP3    H118823   4.295   5.530   2.698
 6294TIP3    H218824   4.243   5.404   2.631
 6295TIP3   OH218825   1.347   6.814   5.560
 6295TIP3    H118826   1.385   6.810   5.473
 6295TIP3    H218827   1.393   6.747   5.610
 6296TIP3   OH218828   8.085   5.481   2.331
 6296TIP3    H118829   8.168   5.528   2.340
 6296TIP3    H218830   8.036   5.502   2.410
 6297TIP3   OH218831   6.386   4.949   0.941
 6297TIP3    H118832   6.464   4.970   0.993
 6297TIP3    H218833   6.316   4.940   1.006
 6298TIP3   OH218834   6.934   3.203   6.512
 6298TIP3    H118835   6.993   3.132   6.485
 6298TIP3    H218836   6.945   3.271   6.446
 6299TIP3   OH218837   8.175   1.986   4.594
 6299TIP3    H118838   8.193   2.052   4.527
 6299TIP3    H218839   8.083   2.000   4.616
 6300TIP3   OH218840   0.565   7.532   6.058
 6300TIP3    H118841   0.550   7.549   5.965
 6300TIP3    H218842   0.536   7.441   6.070
 6301TIP3   OH218843   1.785   3.951   3.612
 6301TIP3    H118844   1.813   4.008   3.540
 6301TIP3    H218845   1.787   3.863   3.574
 6302TIP3   OH218846   8.293   2.598   4.116
 6302TIP3    H118847   8.277   2.680   4.069
 6302TIP3    H218848   8.255   2.530   4.061
 6303TIP3   OH218849   6.180   4.830   1.584
 6303TIP3    H118850   6.235   4.793   1.515
 6303TIP3    H218851   6.231   4.904   1.617
 6304TIP3   OH218852   7.103   2.274   2.101
 6304TIP3    H118853   7.120   2.367   2.088
 6304TIP3    H218854   7.156   2.250   2.177
 6305TIP3   OH218855   0.839   1.415   4.737
 6305TIP3    H118856   0.923   1.410   4.782
 6305TIP3    H218857   0.855   1.373   4.652
 6306TIP3   OH218858   4.125   4.851   4.034
 6306TIP3    H118859   4.060   4.909   3.995
 6306TIP3    H218860   4.117   4.770   3.985
 6307TIP3   OH218861   7.818   7.618   2.585
 6307TIP3    H118862   7.779   7.541   2.543
 6307TIP3    H218863   7.841   7.588   2.673
 6308TIP3   OH218864   5.805   0.765   5.138
 6308TIP3    H118865   5.746   0.817   5.084
 6308TIP3    H218866   5.800   0.806   5.225
 6309TIP3   OH218867   0.260   5.286   4.515
 6309TIP3    H118868   0.187   5.235   4.550
 6309TIP3    H218869   0.294   5.233   4.443
 6310TIP3   OH218870   1.900   2.353   3.422
 6310TIP3    H118871   1.855   2.271   3.443
 6310TIP3    H218872   1.912   2.350   3.327
 6311TIP3   OH218873   1.582   6.497   6.488
 6311TIP3    H118874   1.661   6.530   6.446
 6311TIP3    H218875   1.593   6.517   6.581
 6312TIP3   OH218876   3.565   5.676   4.593
 6312TIP3    H118877   3.571   5.671   4.688
 6312TIP3    H218878   3.637   5.620   4.562
 6313TIP3   OH218879   3.670   0.404   1.937
 6313TIP3    H118880   3.730   0.476   1.917
 6313TIP3    H218881   3.676   0.394   2.032
 6314TIP3   OH218882   0.457   2.072   2.918
 6314TIP3    H118883   0.483   2.109   3.002
 6314TIP3    H218884   0.510   1.993   2.909
 6315TIP3   OH218885   3.785   5.141   1.443
 6315TIP3    H118886   3.816   5.190   1.519
 6315TIP3    H218887   3.723   5.200   1.400
 6316TIP3   OH218888   8.196   6.588   2.286
 6316TIP3    H118889   8.176   6.675   2.249
 6316TIP3    H218890   8.288   6.595   2.313
 6317TIP3   OH218891   5.412   3.124   0.845
 6317TIP3    H118892   5.497   3.163   0.827
 6317TIP3    H218893   5.368   3.187   0.902
 6318TIP3   OH218894   7.773   1.356   3.426
 6318TIP3    H118895   7.857   1.402   3.426
 6318TIP3    H218896   7.795   1.267   3.398
 6319TIP3   OH218897   7.121   0.056   3.084
 6319TIP3    H118898   7.142  -0.019   3.140
 6319TIP3    H218899   7.204   0.099   3.070
 6320TIP3   OH218900   1.858   6.115   6.491
 6320TIP3    H118901   1.923   6.172   6.533
 6320TIP3    H218902   1.907   6.072   6.421
 6321TIP3   OH218903   6.726   3.051   6.362
 6321TIP3    H118904   6.677   2.969   6.348
 6321TIP3    H218905   6.658   3.117   6.377
 6322TIP3   OH218906   6.571   6.313   3.319
 6322TIP3    H118907   6.641   6.248   3.316
 6322TIP3    H218908   6.517   6.294   3.242
 6323TIP3   OH218909   5.431   5.561   1.724
 6323TIP3    H118910   5.399   5.638   1.772
 6323TIP3    H218911   5.405   5.487   1.778
 6324TIP3   OH218912   8.117   7.111   2.605
 6324TIP3    H118913   8.023   7.128   2.609
 6324TIP3    H218914   8.157   7.191   2.639
 6325TIP3   OH218915   6.291   1.181   4.504
 6325TIP3    H118916   6.344   1.121   4.556
 6325TIP3    H218917   6.283   1.139   4.418
 6326TIP3   OH218918   0.155   7.878   2.184
 6326TIP3    H118919   0.117   7.799   2.146
 6326TIP3    H218920   0.249   7.870   2.168
 6327TIP3   OH218921   6.026   0.552   3.130
 6327TIP3    H118922   6.045   0.606   3.054
 6327TIP3    H218923   6.062   0.601   3.204
 6328TIP3   OH218924   0.459   7.716   1.539
 6328TIP3    H118925   0.408   7.693   1.616
 6328TIP3    H218926   0.482   7.808   1.553
 6329TIP3   OH218927   1.603   6.495   3.770
 6329TIP3    H118928   1.574   6.417   3.816
 6329TIP3    H218929   1.581   6.478   3.678
 6330TIP3   OH218930   1.712   4.292   3.098
 6330TIP3    H118931   1.806   4.275   3.104
 6330TIP3    H218932   1.688   4.262   3.011
 6331TIP3   OH218933   6.617   3.878   1.214
 6331TIP3    H118934   6.619   3.961   1.262
 6331TIP3    H218935   6.608   3.903   1.123
 6332TIP3   OH218936   7.996   0.025   2.307
 6332TIP3    H118937   8.057   0.056   2.374
 6332TIP3    H218938   8.019   0.075   2.229
 6333TIP3   OH218939   8.046   0.712   2.040
 6333TIP3    H118940   7.965   0.663   2.024
 6333TIP3    H218941   8.047   0.778   1.971
 6334TIP3   OH218942   7.091   0.120   3.564
 6334TIP3    H118943   7.156   0.144   3.630
 6334TIP3    H218944   7.052   0.039   3.597
 6335TIP3   OH218945   7.147   1.714   3.981
 6335TIP3    H118946   7.126   1.680   3.894
 6335TIP3    H218947   7.195   1.795   3.965
 6336TIP3   OH218948   0.184   1.091   4.216
 6336TIP3    H118949   0.207   1.069   4.126
 6336TIP3    H218950   0.093   1.063   4.225
 6337TIP3   OH218951   1.307   1.643   5.699
 6337TIP3    H118952   1.336   1.733   5.718
 6337TIP3    H218953   1.232   1.653   5.641
 6338TIP3   OH218954   7.804   6.479   5.581
 6338TIP3    H118955   7.824   6.572   5.571
 6338TIP3    H218956   7.763   6.472   5.667
 6339TIP3   OH218957   7.112   1.941   6.513
 6339TIP3    H118958   7.177   2.005   6.542
 6339TIP3    H218959   7.139   1.859   6.555
 6340TIP3   OH218960   3.839   5.677   6.137
 6340TIP3    H118961   3.811   5.642   6.222
 6340TIP3    H218962   3.928   5.645   6.126
 6341TIP3   OH218963   2.960   6.156   3.310
 6341TIP3    H118964   2.908   6.226   3.270
 6341TIP3    H218965   3.029   6.137   3.246
 6342TIP3   OH218966   1.641   6.668   3.258
 6342TIP3    H118967   1.684   6.659   3.174
 6342TIP3    H218968   1.555   6.628   3.246
 6343TIP3   OH218969   6.786   3.656   4.682
 6343TIP3    H118970   6.696   3.689   4.690
 6343TIP3    H218971   6.834   3.728   4.642
 6344TIP3   OH218972   8.042   0.295   1.603
 6344TIP3    H118973   8.089   0.378   1.602
 6344TIP3    H218974   8.110   0.228   1.605
 6345TIP3   OH218975   1.808   3.218   1.379
 6345TIP3    H118976   1.750   3.272   1.433
 6345TIP3    H218977   1.892   3.265   1.380
 6346TIP3   OH218978   1.773   0.190   1.906
 6346TIP3    H118979   1.839   0.122   1.895
 6346TIP3    H218980   1.689   0.145   1.894
 6347TIP3   OH218981   5.998   6.348   2.663
 6347TIP3    H118982   5.910   6.359   2.627
 6347TIP3    H218983   5.993   6.267   2.715
 6348TIP3   OH218984   4.590   0.282   3.562
 6348TIP3    H118985   4.685   0.269   3.562
 6348TIP3    H218986   4.578   0.373   3.590
 6349TIP3   OH218987   8.118   3.646   5.564
 6349TIP3    H118988   8.112   3.551   5.574
 6349TIP3    H218989   8.211   3.662   5.548
 6350TIP3   OH218990   5.009   1.359   1.307
 6350TIP3    H118991   5.004   1.400   1.221
 6350TIP3    H218992   5.029   1.267   1.289
 6351TIP3   OH218993   2.502   5.842   4.939
 6351TIP3    H118994   2.426   5.876   4.986
 6351TIP3    H218995   2.563   5.916   4.935
 6352TIP3   OH218996   7.559   3.686   5.782
 6352TIP3    H118997   7.504   3.721   5.851
 6352TIP3    H218998   7.638   3.655   5.827
 6353TIP3   OH218999   5.603   1.090   6.325
 6353TIP3    H119000   5.610   1.185   6.324
 6353TIP3    H219001   5.689   1.060   6.355
 6354TIP3   OH219002   4.735   1.482   6.582
 6354TIP3    H119003   4.779   1.453   6.662
 6354TIP3    H219004   4.737   1.578   6.587
 6355TIP3   OH219005   0.598   6.583   1.936
 6355TIP3    H119006   0.633   6.608   2.022
 6355TIP3    H219007   0.672   6.595   1.876
 6356TIP3   OH219008   3.966   0.024   2.966
 6356TIP3    H119009   3.984   0.097   3.026
 6356TIP3    H219010   4.004  -0.052   3.009
 6357TIP3   OH219011   5.415   3.120   6.399
 6357TIP3    H119012   5.505   3.151   6.387
 6357TIP3    H219013   5.377   3.124   6.311
 6358TIP3   OH219014   4.569   2.904   1.451
 6358TIP3    H119015   4.630   2.976   1.471
 6358TIP3    H219016   4.488   2.928   1.495
 6359TIP3   OH219017   7.984   1.486   5.721
 6359TIP3    H119018   8.052   1.533   5.674
 6359TIP3    H219019   8.008   1.394   5.714
 6360TIP3   OH219020   7.195   0.276   2.267
 6360TIP3    H119021   7.227   0.329   2.194
 6360TIP3    H219022   7.119   0.229   2.231
 6361TIP3   OH219023   4.166   2.524   6.784
 6361TIP3    H119024   4.102   2.462   6.750
 6361TIP3    H219025   4.241   2.470   6.809
 6362TIP3   OH219026   3.678   3.121   2.354
 6362TIP3    H119027   3.733   3.157   2.284
 6362TIP3    H219028   3.595   3.167   2.346
 6363TIP3   OH219029   5.315   1.084   1.285
 6363TIP3    H119030   5.298   0.992   1.267
 6363TIP3    H219031   5.265   1.102   1.365
 6364TIP3   OH219032   1.094   0.224   4.297
 6364TIP3    H119033   1.046   0.180   4.368
 6364TIP3    H219034   1.185   0.199   4.311
 6365TIP3   OH219035   3.601   6.795   4.825
 6365TIP3    H119036   3.584   6.886   4.798
 6365TIP3    H219037   3.538   6.744   4.775
 6366TIP3   OH219038   7.946   4.457   4.961
 6366TIP3    H119039   7.853   4.475   4.944
 6366TIP3    H219040   7.992   4.529   4.919
 6367TIP3   OH219041   0.683   0.786   6.333
 6367TIP3    H119042   0.769   0.745   6.322
 6367TIP3    H219043   0.677   0.805   6.426
 6368TIP3   OH219044   3.979   0.302   3.696
 6368TIP3    H119045   4.026   0.250   3.760
 6368TIP3    H219046   3.888   0.271   3.701
 6369TIP3   OH219047   1.487   6.130   5.212
 6369TIP3    H119048   1.507   6.159   5.123
 6369TIP3    H219049   1.396   6.156   5.226
 6370TIP3   OH219050   1.261   7.007   4.023
 6370TIP3    H119051   1.190   7.004   3.959
 6370TIP3    H219052   1.253   7.094   4.063
 6371TIP3   OH219053   7.407   6.248   1.015
 6371TIP3    H119054   7.340   6.194   0.973
 6371TIP3    H219055   7.357   6.308   1.071
 6372TIP3   OH219056   4.854   3.495   4.845
 6372TIP3    H119057   4.905   3.463   4.919
 6372TIP3    H219058   4.852   3.590   4.857
 6373TIP3   OH219059   2.837   6.306   1.171
 6373TIP3    H119060   2.915   6.359   1.156
 6373TIP3    H219061   2.806   6.332   1.258
 6374TIP3   OH219062   6.851   0.118   4.813
 6374TIP3    H119063   6.939   0.146   4.839
 6374TIP3    H219064   6.810   0.090   4.895
 6375TIP3   OH219065   0.755   3.097   5.835
 6375TIP3    H119066   0.756   3.045   5.915
 6375TIP3    H219067   0.810   3.172   5.854
 6376TIP3   OH219068   0.827   1.916   3.432
 6376TIP3    H119069   0.868   1.990   3.386
 6376TIP3    H219070   0.864   1.838   3.390
 6377TIP3   OH219071   8.212   2.996   1.906
 6377TIP3    H119072   8.228   3.001   1.812
 6377TIP3    H219073   8.280   2.937   1.939
 6378TIP3   OH219074   7.897   5.826   1.940
 6378TIP3    H119075   7.939   5.806   2.024
 6378TIP3    H219076   7.853   5.745   1.915
 6379TIP3   OH219077   0.181   0.327   0.055
 6379TIP3    H119078   0.116   0.260   0.073
 6379TIP3    H219079   0.200   0.319  -0.039
 6380TIP3   OH219080   7.243   2.161   2.335
 6380TIP3    H119081   7.283   2.244   2.361
 6380TIP3    H219082   7.179   2.143   2.404
 6381TIP3   OH219083   7.251   1.444   0.295
 6381TIP3    H119084   7.242   1.366   0.240
 6381TIP3    H219085   7.165   1.486   0.290
 6382TIP3   OH219086   5.580   0.405   5.530
 6382TIP3    H119087   5.552   0.382   5.619
 6382TIP3    H219088   5.568   0.500   5.525
 6383TIP3   OH219089   2.198   2.985   4.542
 6383TIP3    H119090   2.149   2.906   4.562
 6383TIP3    H219091   2.183   3.043   4.617
 6384TIP3   OH219092   1.844   5.295   0.966
 6384TIP3    H119093   1.819   5.255   0.883
 6384TIP3    H219094   1.770   5.277   1.024
 6385TIP3   OH219095   1.783   2.804   4.070
 6385TIP3    H119096   1.785   2.872   4.137
 6385TIP3    H219097   1.873   2.770   4.068
 6386TIP3   OH219098   1.593   1.111   3.446
 6386TIP3    H119099   1.646   1.094   3.368
 6386TIP3    H219100   1.517   1.053   3.436
 6387TIP3   OH219101   1.258   7.700   1.336
 6387TIP3    H119102   1.319   7.770   1.360
 6387TIP3    H219103   1.173   7.731   1.368
 6388TIP3   OH219104   4.762   0.822   4.195
 6388TIP3    H119105   4.826   0.854   4.131
 6388TIP3    H219106   4.790   0.732   4.213
 6389TIP3   OH219107   6.088   6.849   1.923
 6389TIP3    H119108   6.110   6.762   1.957
 6389TIP3    H219109   6.014   6.878   1.977
 6390TIP3   OH219110   0.093   6.721   0.763
 6390TIP3    H119111   0.034   6.655   0.799
 6390TIP3    H219112   0.039   6.770   0.700
 6391TIP3   OH219113   6.333   3.271   0.878
 6391TIP3    H119114   6.286   3.327   0.939
 6391TIP3    H219115   6.315   3.182   0.910
 6392TIP3   OH219116   2.935   0.952   0.493
 6392TIP3    H119117   2.959   0.900   0.569
 6392TIP3    H219118   2.935   1.042   0.524
 6393TIP3   OH219119   3.717   7.679   4.017
 6393TIP3    H119120   3.717   7.766   4.058
 6393TIP3    H219121   3.753   7.621   4.083
 6394TIP3   OH219122   5.498   5.254   4.287
 6394TIP3    H119123   5.513   5.160   4.302
 6394TIP3    H219124   5.545   5.273   4.206
 6395TIP3   OH219125   0.648   3.320   3.573
 6395TIP3    H119126   0.595   3.280   3.504
 6395TIP3    H219127   0.593   3.314   3.651
 6396TIP3   OH219128   7.880   2.138   5.142
 6396TIP3    H119129   7.792   2.103   5.155
 6396TIP3    H219130   7.867   2.231   5.127
 6397TIP3   OH219131   6.072   4.416   6.081
 6397TIP3    H119132   6.026   4.357   6.021
 6397TIP3    H219133   6.035   4.502   6.062
 6398TIP3   OH219134   3.502   3.708   4.356
 6398TIP3    H119135   3.455   3.701   4.440
 6398TIP3    H219136   3.487   3.624   4.313
 6399TIP3   OH219137   8.377   2.478   4.581
 6399TIP3    H119138   8.347   2.402   4.632
 6399TIP3    H219139   8.337   2.466   4.495
 6400TIP3   OH219140   2.726   5.023   0.130
 6400TIP3    H119141   2.722   5.041   0.224
 6400TIP3    H219142   2.777   5.095   0.093
 6401TIP3   OH219143   2.546   5.874   6.127
 6401TIP3    H119144   2.490   5.803   6.158
 6401TIP3    H219145   2.555   5.932   6.201
 6402TIP3   OH219146   7.512   2.452   6.741
 6402TIP3    H119147   7.458   2.393   6.688
 6402TIP3    H219148   7.575   2.489   6.678
 6403TIP3   OH219149   4.481   3.044   6.265
 6403TIP3    H119150   4.425   2.970   6.288
 6403TIP3    H219151   4.570   3.010   6.273
 6404TIP3   OH219152   0.215   3.952   5.218
 6404TIP3    H119153   0.176   4.033   5.251
 6404TIP3    H219154   0.232   3.900   5.296
 6405TIP3   OH219155   6.369   5.339   0.660
 6405TIP3    H119156   6.387   5.375   0.746
 6405TIP3    H219157   6.285   5.295   0.669
 6406TIP3   OH219158   7.142   0.665   4.827
 6406TIP3    H119159   7.061   0.679   4.877
 6406TIP3    H219160   7.119   0.690   4.738
 6407TIP3   OH219161   4.157   6.314   6.329
 6407TIP3    H119162   4.142   6.303   6.235
 6407TIP3    H219163   4.157   6.408   6.342
 6408TIP3   OH219164   7.387   7.767   0.961
 6408TIP3    H119165   7.449   7.705   0.923
 6408TIP3    H219166   7.429   7.853   0.949
 6409TIP3   OH219167   8.293   3.888   3.158
 6409TIP3    H119168   8.209   3.907   3.118
 6409TIP3    H219169   8.346   3.851   3.088
 6410TIP3   OH219170   1.382   6.054   6.284
 6410TIP3    H119171   1.407   6.048   6.191
 6410TIP3    H219172   1.461   6.085   6.328
 6411TIP3   OH219173   7.665   3.731   2.469
 6411TIP3    H119174   7.586   3.725   2.415
 6411TIP3    H219175   7.737   3.728   2.407
 6412TIP3   OH219176   4.797   1.938   5.444
 6412TIP3    H119177   4.759   1.856   5.477
 6412TIP3    H219178   4.869   1.957   5.504
 6413TIP3   OH219179   0.641   1.021   1.612
 6413TIP3    H119180   0.653   0.950   1.548
 6413TIP3    H219181   0.547   1.040   1.609
 6414TIP3   OH219182   1.100   2.764   1.620
 6414TIP3    H119183   1.162   2.718   1.675
 6414TIP3    H219184   1.122   2.738   1.531
 6415TIP3   OH219185   2.801   2.297   5.338
 6415TIP3    H119186   2.775   2.207   5.357
 6415TIP3    H219187   2.884   2.308   5.384
 6416TIP3   OH219188   2.337   1.031   0.345
 6416TIP3    H119189   2.327   1.074   0.431
 6416TIP3    H219190   2.426   0.995   0.347
 6417TIP3   OH219191   5.418   3.384   2.804
 6417TIP3    H119192   5.500   3.336   2.819
 6417TIP3    H219193   5.351   3.333   2.850
 6418TIP3   OH219194   4.775   5.084   2.470
 6418TIP3    H119195   4.797   5.068   2.562
 6418TIP3    H219196   4.766   4.996   2.432
 6419TIP3   OH219197   4.846   3.242   5.856
 6419TIP3    H119198   4.920   3.180   5.857
 6419TIP3    H219199   4.885   3.325   5.829
 6420TIP3   OH219200   3.326   1.670   6.663
 6420TIP3    H119201   3.308   1.717   6.581
 6420TIP3    H219202   3.387   1.601   6.638
 6421TIP3   OH219203   3.386   5.015   2.016
 6421TIP3    H119204   3.435   5.050   1.942
 6421TIP3    H219205   3.295   5.013   1.986
 6422TIP3   OH219206   0.148   4.506   3.982
 6422TIP3    H119207   0.170   4.501   4.074
 6422TIP3    H219208   0.198   4.437   3.940
 6423TIP3   OH219209   0.323   5.110   2.531
 6423TIP3    H119210   0.274   5.187   2.501
 6423TIP3    H219211   0.300   5.102   2.624
 6424TIP3   OH219212   1.610   0.222   6.220
 6424TIP3    H119213   1.528   0.173   6.220
 6424TIP3    H219214   1.650   0.201   6.305
 6425TIP3   OH219215   7.303   4.738   4.170
 6425TIP3    H119216   7.253   4.656   4.161
 6425TIP3    H219217   7.272   4.792   4.098
 6426TIP3   OH219218   0.123   3.608   5.171
 6426TIP3    H119219   0.107   3.657   5.090
 6426TIP3    H219220   0.159   3.673   5.231
 6427TIP3   OH219221   2.683   1.718   0.481
 6427TIP3    H119222   2.602   1.764   0.458
 6427TIP3    H219223   2.753   1.770   0.443
 6428TIP3   OH219224   7.552   5.467   5.775
 6428TIP3    H119225   7.581   5.384   5.812
 6428TIP3    H219226   7.462   5.477   5.806
 6429TIP3   OH219227   2.566   7.366   0.059
 6429TIP3    H119228   2.571   7.283   0.106
 6429TIP3    H219229   2.525   7.426   0.120
 6430TIP3   OH219230   6.947   2.217   1.795
 6430TIP3    H119231   6.949   2.136   1.846
 6430TIP3    H219232   6.855   2.228   1.772
 6431TIP3   OH219233   3.748   3.612   2.330
 6431TIP3    H119234   3.664   3.566   2.332
 6431TIP3    H219235   3.780   3.608   2.420
 6432TIP3   OH219236   5.643   7.652   1.937
 6432TIP3    H119237   5.601   7.727   1.978
 6432TIP3    H219238   5.692   7.688   1.864
 6433TIP3   OH219239   4.480   5.370   1.951
 6433TIP3    H119240   4.488   5.390   2.044
 6433TIP3    H219241   4.509   5.279   1.944
 6434TIP3   OH219242   0.818   5.874   6.481
 6434TIP3    H119243   0.733   5.849   6.519
 6434TIP3    H219244   0.808   5.967   6.460
 6435TIP3   OH219245   8.357   7.148   4.729
 6435TIP3    H119246   8.357   7.229   4.781
 6435TIP3    H219247   8.279   7.101   4.758
 6436TIP3   OH219248   8.117   1.158   4.579
 6436TIP3    H119249   8.061   1.081   4.572
 6436TIP3    H219250   8.070   1.226   4.531
 6437TIP3   OH219251   1.303   1.424   1.169
 6437TIP3    H119252   1.312   1.478   1.091
 6437TIP3    H219253   1.230   1.365   1.149
 6438TIP3   OH219254   2.932   2.655   5.584
 6438TIP3    H119255   2.849   2.611   5.567
 6438TIP3    H219256   2.980   2.595   5.641
 6439TIP3   OH219257   6.636   4.025   0.987
 6439TIP3    H119258   6.722   4.011   0.948
 6439TIP3    H219259   6.597   4.096   0.935
 6440TIP3   OH219260   6.925   7.786   5.282
 6440TIP3    H119261   6.839   7.746   5.288
 6440TIP3    H219262   6.911   7.878   5.308
 6441TIP3   OH219263   7.340   4.417   6.127
 6441TIP3    H119264   7.335   4.322   6.137
 6441TIP3    H219265   7.388   4.447   6.205
 6442TIP3   OH219266   5.821   2.312   0.848
 6442TIP3    H119267   5.846   2.278   0.762
 6442TIP3    H219268   5.795   2.234   0.898
 6443TIP3   OH219269   1.509   1.878   5.023
 6443TIP3    H119270   1.432   1.864   5.078
 6443TIP3    H219271   1.579   1.898   5.085
 6444TIP3   OH219272   2.481   5.426   4.502
 6444TIP3    H119273   2.485   5.474   4.419
 6444TIP3    H219274   2.538   5.350   4.489
 6445TIP3   OH219275   7.945   2.067   4.809
 6445TIP3    H119276   8.003   2.002   4.850
 6445TIP3    H219277   7.858   2.029   4.816
 6446TIP3   OH219278   2.806   7.381   1.382
 6446TIP3    H119279   2.863   7.304   1.379
 6446TIP3    H219280   2.732   7.355   1.436
 6447TIP3   OH219281   8.288   7.723   6.667
 6447TIP3    H119282   8.228   7.698   6.597
 6447TIP3    H219283   8.254   7.807   6.699
 6448TIP3   OH219284   1.572   4.328   0.462
 6448TIP3    H119285   1.610   4.244   0.488
 6448TIP3    H219286   1.509   4.348   0.531
 6449TIP3   OH219287   4.010   6.110   6.481
 6449TIP3    H119288   3.980   6.173   6.547
 6449TIP3    H219289   4.076   6.157   6.431
 6450TIP3   OH219290   2.975   3.057   3.734
 6450TIP3    H119291   3.022   2.995   3.789
 6450TIP3    H219292   2.967   3.136   3.789
 6451TIP3   OH219293   0.290   0.883   5.808
 6451TIP3    H119294   0.303   0.965   5.762
 6451TIP3    H219295   0.274   0.819   5.739
 6452TIP3   OH219296   8.298   5.753   2.021
 6452TIP3    H119297   8.293   5.838   2.064
 6452TIP3    H219298   8.384   5.719   2.045
 6453TIP3   OH219299   1.862   5.706   0.001
 6453TIP3    H119300   1.844   5.792   0.039
 6453TIP3    H219301   1.794   5.649   0.039
 6454TIP3   OH219302   7.424   1.358   0.798
 6454TIP3    H119303   7.352   1.327   0.854
 6454TIP3    H219304   7.431   1.451   0.818
 6455TIP3   OH219305   4.241   4.512   3.649
 6455TIP3    H119306   4.231   4.587   3.707
 6455TIP3    H219307   4.173   4.524   3.582
 6456TIP3   OH219308   6.857   3.402   3.275
 6456TIP3    H119309   6.910   3.472   3.316
 6456TIP3    H219310   6.767   3.426   3.296
 6457TIP3   OH219311   3.415   6.168   4.010
 6457TIP3    H119312   3.435   6.249   3.963
 6457TIP3    H219313   3.381   6.109   3.943
 6458TIP3   OH219314   1.741   2.427   1.219
 6458TIP3    H119315   1.685   2.392   1.149
 6458TIP3    H219316   1.684   2.487   1.266
 6459TIP3   OH219317   2.416   2.571   0.367
 6459TIP3    H119318   2.350   2.558   0.298
 6459TIP3    H219319   2.483   2.506   0.350
 6460TIP3   OH219320   1.361   7.776   1.826
 6460TIP3    H119321   1.360   7.871   1.817
 6460TIP3    H219322   1.280   7.755   1.873
 6461TIP3   OH219323   5.154   1.909   2.179
 6461TIP3    H119324   5.175   1.852   2.253
 6461TIP3    H219325   5.129   1.992   2.218
 6462TIP3   OH219326   3.686   7.105   3.375
 6462TIP3    H119327   3.745   7.102   3.299
 6462TIP3    H219328   3.741   7.134   3.447
 6463TIP3   OH219329   0.303   4.330   5.905
 6463TIP3    H119330   0.249   4.409   5.900
 6463TIP3    H219331   0.363   4.346   5.978
 6464TIP3   OH219332   5.583   5.708   6.235
 6464TIP3    H119333   5.601   5.801   6.222
 6464TIP3    H219334   5.517   5.706   6.304
 6465TIP3   OH219335   3.552   4.634   2.757
 6465TIP3    H119336   3.635   4.613   2.715
 6465TIP3    H219337   3.526   4.717   2.717
 6466TIP3   OH219338   4.975   7.592   5.913
 6466TIP3    H119339   5.047   7.623   5.968
 6466TIP3    H219340   4.901   7.584   5.974
 6467TIP3   OH219341   6.559   2.152   2.037
 6467TIP3    H119342   6.517   2.123   2.118
 6467TIP3    H219343   6.636   2.201   2.066
 6468TIP3   OH219344   6.259   3.901   3.894
 6468TIP3    H119345   6.188   3.845   3.925
 6468TIP3    H219346   6.290   3.859   3.814
 6469TIP3   OH219347   8.197   5.679   2.647
 6469TIP3    H119348   8.207   5.584   2.653
 6469TIP3    H219349   8.281   5.710   2.613
 6470TIP3   OH219350   0.140   2.677   3.119
 6470TIP3    H119351   0.106   2.745   3.061
 6470TIP3    H219352   0.092   2.598   3.094
 6471TIP3   OH219353   7.946   5.249   4.124
 6471TIP3    H119354   8.009   5.176   4.121
 6471TIP3    H219355   8.000   5.327   4.112
 6472TIP3   OH219356   2.516   4.171   6.096
 6472TIP3    H119357   2.536   4.099   6.036
 6472TIP3    H219358   2.505   4.247   6.040
 6473TIP3   OH219359   5.630   3.645   6.109
 6473TIP3    H119360   5.558   3.645   6.045
 6473TIP3    H219361   5.613   3.569   6.164
 6474TIP3   OH219362   6.713   5.397   3.066
 6474TIP3    H119363   6.742   5.380   2.976
 6474TIP3    H219364   6.748   5.324   3.117
 6475TIP3   OH219365   1.989   1.658   1.885
 6475TIP3    H119366   1.962   1.700   1.803
 6475TIP3    H219367   1.931   1.696   1.952
 6476TIP3   OH219368   6.589   5.563   4.660
 6476TIP3    H119369   6.643   5.583   4.737
 6476TIP3    H219370   6.513   5.517   4.696
 6477TIP3   OH219371   4.992   6.415   1.718
 6477TIP3    H119372   5.083   6.421   1.747
 6477TIP3    H219373   4.998   6.401   1.623
 6478TIP3   OH219374   8.090   4.719   2.415
 6478TIP3    H119375   8.028   4.725   2.343
 6478TIP3    H219376   8.148   4.793   2.404
 6479TIP3   OH219377   7.144   7.378   2.698
 6479TIP3    H119378   7.108   7.293   2.673
 6479TIP3    H219379   7.210   7.397   2.632
 6480TIP3   OH219380   3.092   2.797   0.683
 6480TIP3    H119381   3.171   2.849   0.695
 6480TIP3    H219382   3.117   2.709   0.708
 6481TIP3   OH219383   7.599   4.208   0.028
 6481TIP3    H119384   7.509   4.220  -0.001
 6481TIP3    H219385   7.619   4.117   0.005
 6482TIP3   OH219386   3.416   7.090   5.939
 6482TIP3    H119387   3.485   7.026   5.925
 6482TIP3    H219388   3.373   7.099   5.854
 6483TIP3   OH219389   8.180   4.269   4.198
 6483TIP3    H119390   8.252   4.296   4.142
 6483TIP3    H219391   8.216   4.271   4.287
 6484TIP3   OH219392   4.274   0.503   4.008
 6484TIP3    H119393   4.368   0.520   4.017
 6484TIP3    H219394   4.266   0.460   3.923
 6485TIP3   OH219395   2.076   1.327   6.503
 6485TIP3    H119396   2.122   1.282   6.574
 6485TIP3    H219397   2.145   1.371   6.453
 6486TIP3   OH219398   7.593   6.622   0.218
 6486TIP3    H119399   7.620   6.664   0.300
 6486TIP3    H219400   7.530   6.684   0.180
 6487TIP3   OH219401   0.534   4.473   6.363
 6487TIP3    H119402   0.550   4.566   6.380
 6487TIP3    H219403   0.608   4.427   6.402
 6488TIP3   OH219404   4.886   0.122   6.130
 6488TIP3    H119405   4.943   0.050   6.103
 6488TIP3    H219406   4.847   0.092   6.212
 6489TIP3   OH219407   4.530   1.433   1.982
 6489TIP3    H119408   4.447   1.397   2.013
 6489TIP3    H219409   4.523   1.527   1.998
 6490TIP3   OH219410   4.853   1.122   4.414
 6490TIP3    H119411   4.798   1.044   4.420
 6490TIP3    H219412   4.791   1.194   4.405
 6491TIP3   OH219413   6.419   0.457   0.984
 6491TIP3    H119414   6.509   0.485   0.964
 6491TIP3    H219415   6.428   0.396   1.057
 6492TIP3   OH219416   6.703   7.402   6.708
 6492TIP3    H119417   6.767   7.376   6.774
 6492TIP3    H219418   6.716   7.496   6.697
 6493TIP3   OH219419   6.753   3.821   2.509
 6493TIP3    H119420   6.767   3.915   2.521
 6493TIP3    H219421   6.674   3.803   2.561
 6494TIP3   OH219422   5.849   7.071   6.725
 6494TIP3    H119423   5.773   7.034   6.679
 6494TIP3    H219424   5.814   7.099   6.809
 6495TIP3   OH219425   0.828   0.084   1.930
 6495TIP3    H119426   0.860   0.116   2.015
 6495TIP3    H219427   0.743   0.046   1.950
 6496TIP3   OH219428   5.358   5.304   2.847
 6496TIP3    H119429   5.442   5.305   2.800
 6496TIP3    H219430   5.383   5.300   2.940
 6497TIP3   OH219431   3.471   0.059   6.308
 6497TIP3    H119432   3.472   0.147   6.347
 6497TIP3    H219433   3.401   0.063   6.243
 6498TIP3   OH219434   3.450   4.934   4.847
 6498TIP3    H119435   3.527   4.878   4.854
 6498TIP3    H219436   3.389   4.886   4.791
 6499TIP3   OH219437   3.561   5.649   1.043
 6499TIP3    H119438   3.595   5.739   1.037
 6499TIP3    H219439   3.467   5.661   1.059
 6500TIP3   OH219440   1.284   4.795   6.408
 6500TIP3    H119441   1.318   4.882   6.430
 6500TIP3    H219442   1.361   4.738   6.408
 6501TIP3   OH219443   6.938   5.834   1.542
 6501TIP3    H119444   7.025   5.823   1.505
 6501TIP3    H219445   6.928   5.928   1.554
 6502TIP3   OH219446   2.968   7.321   5.910
 6502TIP3    H119447   2.884   7.359   5.934
 6502TIP3    H219448   2.999   7.375   5.837
 6503TIP3   OH219449   8.149   3.379   2.715
 6503TIP3    H119450   8.162   3.357   2.622
 6503TIP3    H219451   8.079   3.320   2.744
 6504TIP3   OH219452   7.223   5.602   3.534
 6504TIP3    H119453   7.306   5.559   3.512
 6504TIP3    H219454   7.249   5.688   3.567
 6505TIP3   OH219455   0.325   6.606   4.784
 6505TIP3    H119456   0.241   6.646   4.762
 6505TIP3    H219457   0.304   6.516   4.808
 6506TIP3   OH219458   4.873   3.955   5.754
 6506TIP3    H119459   4.925   3.910   5.688
 6506TIP3    H219460   4.935   4.010   5.801
 6507TIP3   OH219461   4.815   2.952   3.368
 6507TIP3    H119462   4.782   3.040   3.347
 6507TIP3    H219463   4.738   2.905   3.399
 6508TIP3   OH219464   6.446   1.435   2.482
 6508TIP3    H119465   6.408   1.510   2.528
 6508TIP3    H219466   6.499   1.474   2.413
 6509TIP3   OH219467   5.195   7.587   6.481
 6509TIP3    H119468   5.216   7.608   6.572
 6509TIP3    H219469   5.219   7.666   6.432
 6510TIP3   OH219470   5.981   6.369   1.819
 6510TIP3    H119471   5.957   6.353   1.727
 6510TIP3    H219472   5.921   6.314   1.869
 6511TIP3   OH219473   5.502   4.577   0.714
 6511TIP3    H119474   5.545   4.584   0.800
 6511TIP3    H219475   5.414   4.545   0.734
 6512TIP3   OH219476   7.374   3.485   3.310
 6512TIP3    H119477   7.465   3.454   3.318
 6512TIP3    H219478   7.321   3.409   3.335
 6513TIP3   OH219479   5.647   1.966   4.460
 6513TIP3    H119480   5.614   1.877   4.469
 6513TIP3    H219481   5.724   1.969   4.517
 6514TIP3   OH219482   6.145   0.713   3.306
 6514TIP3    H119483   6.117   0.761   3.384
 6514TIP3    H219484   6.181   0.781   3.248
 6515TIP3   OH219485   0.477   0.570   4.923
 6515TIP3    H119486   0.438   0.585   4.837
 6515TIP3    H219487   0.405   0.537   4.977
 6516TIP3   OH219488   7.757   2.783   0.698
 6516TIP3    H119489   7.708   2.727   0.638
 6516TIP3    H219490   7.814   2.724   0.746
 6517TIP3   OH219491   1.255   4.753   0.345
 6517TIP3    H119492   1.303   4.832   0.319
 6517TIP3    H219493   1.309   4.681   0.315
 6518TIP3   OH219494   6.306   1.857   0.976
 6518TIP3    H119495   6.322   1.834   0.884
 6518TIP3    H219496   6.211   1.863   0.983
 6519TIP3   OH219497   1.427   3.087   6.270
 6519TIP3    H119498   1.454   3.088   6.178
 6519TIP3    H219499   1.452   3.173   6.304
 6520TIP3   OH219500   3.959   5.330   2.270
 6520TIP3    H119501   3.867   5.358   2.276
 6520TIP3    H219502   3.954   5.243   2.231
 6521TIP3   OH219503   3.049   2.469   0.572
 6521TIP3    H119504   3.078   2.396   0.516
 6521TIP3    H219505   3.106   2.542   0.547
 6522TIP3   OH219506   4.583   7.422   3.970
 6522TIP3    H119507   4.515   7.366   4.007
 6522TIP3    H219508   4.535   7.493   3.927
 6523TIP3   OH219509   7.955   5.347   2.853
 6523TIP3    H119510   7.890   5.284   2.822
 6523TIP3    H219511   7.927   5.371   2.941
 6524TIP3   OH219512   0.838   6.638   1.444
 6524TIP3    H119513   0.864   6.594   1.363
 6524TIP3    H219514   0.758   6.685   1.420
 6525TIP3   OH219515   5.765   5.412   0.553
 6525TIP3    H119516   5.733   5.496   0.586
 6525TIP3    H219517   5.859   5.414   0.569
 6526TIP3   OH219518   1.525   3.285   3.449
 6526TIP3    H119519   1.573   3.248   3.374
 6526TIP3    H219520   1.593   3.321   3.505
 6527TIP3   OH219521   4.989   2.393   0.875
 6527TIP3    H119522   5.052   2.367   0.808
 6527TIP3    H219523   4.986   2.489   0.870
 6528TIP3   OH219524   5.466   2.847   6.202
 6528TIP3    H119525   5.542   2.857   6.145
 6528TIP3    H219526   5.503   2.848   6.291
 6529TIP3   OH219527   7.872   7.539   0.480
 6529TIP3    H119528   7.870   7.523   0.575
 6529TIP3    H219529   7.964   7.523   0.456
 6530TIP3   OH219530   6.060   7.139   4.991
 6530TIP3    H119531   6.092   7.229   4.993
 6530TIP3    H219532   6.035   7.121   5.081
 6531TIP3   OH219533   8.335   7.014   1.750
 6531TIP3    H119534   8.368   6.924   1.745
 6531TIP3    H219535   8.385   7.061   1.684
 6532TIP3   OH219536   4.289   6.687   3.602
 6532TIP3    H119537   4.323   6.649   3.521
 6532TIP3    H219538   4.195   6.669   3.598
 6533TIP3   OH219539   5.143   0.047   2.406
 6533TIP3    H119540   5.160  -0.038   2.447
 6533TIP3    H219541   5.192   0.109   2.460
 6534TIP3   OH219542   0.584   4.644   0.271
 6534TIP3    H119543   0.596   4.667   0.178
 6534TIP3    H219544   0.533   4.563   0.269
 6535TIP3   OH219545   3.560   0.991   1.987
 6535TIP3    H119546   3.652   0.997   2.013
 6535TIP3    H219547   3.561   0.937   1.908
 6536TIP3   OH219548   4.058   0.253   3.420
 6536TIP3    H119549   4.150   0.231   3.437
 6536TIP3    H219550   4.023   0.277   3.505
 6537TIP3   OH219551   1.406   5.773   6.527
 6537TIP3    H119552   1.334   5.738   6.474
 6537TIP3    H219553   1.454   5.696   6.558
 6538TIP3   OH219554   7.653   1.531   5.395
 6538TIP3    H119555   7.582   1.583   5.357
 6538TIP3    H219556   7.683   1.582   5.470
 6539TIP3   OH219557   4.266   7.417   2.444
 6539TIP3    H119558   4.231   7.416   2.533
 6539TIP3    H219559   4.203   7.368   2.392
 6540TIP3   OH219560   4.657   5.131   5.021
 6540TIP3    H119561   4.714   5.068   5.066
 6540TIP3    H219562   4.570   5.113   5.056
 6541TIP3   OH219563   8.350   4.954   0.464
 6541TIP3    H119564   8.391   4.872   0.491
 6541TIP3    H219565   8.408   4.988   0.395
 6542TIP3   OH219566   6.697   7.407   1.738
 6542TIP3    H119567   6.732   7.366   1.659
 6542TIP3    H219568   6.757   7.480   1.756
 6543TIP3   OH219569   0.991   6.553   1.243
 6543TIP3    H119570   1.050   6.620   1.277
 6543TIP3    H219571   1.041   6.511   1.172
 6544TIP3   OH219572   7.404   3.794   4.544
 6544TIP3    H119573   7.315   3.770   4.569
 6544TIP3    H219574   7.444   3.712   4.516
 6545TIP3   OH219575   4.853   2.218   6.395
 6545TIP3    H119576   4.906   2.293   6.422
 6545TIP3    H219577   4.798   2.252   6.325
 6546TIP3   OH219578   0.704   4.539   4.771
 6546TIP3    H119579   0.761   4.587   4.831
 6546TIP3    H219580   0.721   4.579   4.685
 6547TIP3   OH219581   2.185   2.207   1.451
 6547TIP3    H119582   2.174   2.279   1.513
 6547TIP3    H219583   2.164   2.128   1.502
 6548TIP3   OH219584   1.151   7.523   3.418
 6548TIP3    H119585   1.147   7.619   3.414
 6548TIP3    H219586   1.188   7.504   3.504
 6549TIP3   OH219587   3.160   4.724   3.460
 6549TIP3    H119588   3.138   4.811   3.428
 6549TIP3    H219589   3.218   4.687   3.393
 6550TIP3   OH219590   5.919   4.156   3.220
 6550TIP3    H119591   5.991   4.097   3.196
 6550TIP3    H219592   5.846   4.098   3.241
 6551TIP3   OH219593   4.111   4.072   3.841
 6551TIP3    H119594   4.034   4.039   3.887
 6551TIP3    H219595   4.184   4.050   3.899
 6552TIP3   OH219596   4.826   5.388   3.103
 6552TIP3    H119597   4.844   5.321   3.037
 6552TIP3    H219598   4.733   5.375   3.125
 6553TIP3   OH219599   5.887   3.319   0.486
 6553TIP3    H119600   5.856   3.387   0.546
 6553TIP3    H219601   5.981   3.312   0.504
 6554TIP3   OH219602   0.564   6.464   0.758
 6554TIP3    H119603   0.551   6.557   0.778
 6554TIP3    H219604   0.515   6.417   0.826
 6555TIP3   OH219605   5.878   6.282   5.442
 6555TIP3    H119606   5.907   6.195   5.468
 6555TIP3    H219607   5.800   6.298   5.495
 6556TIP3   OH219608   6.908   6.453   1.146
 6556TIP3    H119609   6.993   6.409   1.150
 6556TIP3    H219610   6.846   6.383   1.125
 6557TIP3   OH219611   6.578   6.243   5.430
 6557TIP3    H119612   6.615   6.327   5.403
 6557TIP3    H219613   6.558   6.199   5.348
 6558TIP3   OH219614   7.899   0.785   4.939
 6558TIP3    H119615   7.902   0.741   4.854
 6558TIP3    H219616   7.917   0.715   5.002
 6559TIP3   OH219617   1.237   0.724   1.939
 6559TIP3    H119618   1.228   0.794   1.875
 6559TIP3    H219619   1.268   0.649   1.888
 6560TIP3   OH219620   6.780   7.475   6.267
 6560TIP3    H119621   6.854   7.464   6.326
 6560TIP3    H219622   6.780   7.396   6.212
 6561TIP3   OH219623   0.721   5.498   1.897
 6561TIP3    H119624   0.713   5.490   1.802
 6561TIP3    H219625   0.757   5.585   1.912
 6562TIP3   OH219626   5.751   4.993   6.367
 6562TIP3    H119627   5.809   4.941   6.423
 6562TIP3    H219628   5.740   4.941   6.288
 6563TIP3   OH219629   1.288   2.853   2.358
 6563TIP3    H119630   1.328   2.939   2.342
 6563TIP3    H219631   1.222   2.844   2.290
 6564TIP3   OH219632   1.743   7.519   3.267
 6564TIP3    H119633   1.708   7.601   3.301
 6564TIP3    H219634   1.716   7.453   3.331
 6565TIP3   OH219635   3.598   1.668   6.351
 6565TIP3    H119636   3.627   1.644   6.439
 6565TIP3    H219637   3.561   1.756   6.361
 6566TIP3   OH219638   1.273   5.994   3.547
 6566TIP3    H119639   1.304   6.020   3.633
 6566TIP3    H219640   1.343   6.019   3.487
 6567TIP3   OH219641   3.560   3.930   2.791
 6567TIP3    H119642   3.636   3.874   2.772
 6567TIP3    H219643   3.532   3.962   2.705
 6568TIP3   OH219644   2.972   6.540   2.010
 6568TIP3    H119645   3.052   6.520   1.961
 6568TIP3    H219646   2.987   6.629   2.043
 6569TIP3   OH219647   2.257   7.438   4.466
 6569TIP3    H119648   2.280   7.530   4.477
 6569TIP3    H219649   2.242   7.406   4.555
 6570TIP3   OH219650   8.194   7.757   5.180
 6570TIP3    H119651   8.162   7.774   5.268
 6570TIP3    H219652   8.133   7.693   5.144
 6571TIP3   OH219653   1.774   5.453   2.477
 6571TIP3    H119654   1.728   5.375   2.506
 6571TIP3    H219655   1.866   5.437   2.500
 6572TIP3   OH219656   5.819   2.161   0.319
 6572TIP3    H119657   5.764   2.089   0.288
 6572TIP3    H219658   5.908   2.125   0.316
 6573TIP3   OH219659   2.866   4.797   1.118
 6573TIP3    H119660   2.796   4.862   1.115
 6573TIP3    H219661   2.946   4.847   1.099
 6574TIP3   OH219662   3.741   3.641   0.764
 6574TIP3    H119663   3.784   3.689   0.693
 6574TIP3    H219664   3.724   3.554   0.727
 6575TIP3   OH219665   6.154   0.597   1.520
 6575TIP3    H119666   6.176   0.509   1.491
 6575TIP3    H219667   6.062   0.593   1.543
 6576TIP3   OH219668   2.111   3.043   2.283
 6576TIP3    H119669   2.136   2.978   2.217
 6576TIP3    H219670   2.153   3.012   2.364
 6577TIP3   OH219671   7.428   6.611   0.708
 6577TIP3    H119672   7.430   6.549   0.635
 6577TIP3    H219673   7.339   6.645   0.708
 6578TIP3   OH219674   4.827   3.704   5.995
 6578TIP3    H119675   4.778   3.622   6.004
 6578TIP3    H219676   4.788   3.747   5.919
 6579TIP3   OH219677   5.713   2.989   6.834
 6579TIP3    H119678   5.637   2.995   6.893
 6579TIP3    H219679   5.677   2.954   6.753
 6580TIP3   OH219680   0.941   7.581   2.409
 6580TIP3    H119681   0.979   7.669   2.410
 6580TIP3    H219682   1.000   7.530   2.353
 6581TIP3   OH219683   4.026   0.236   3.134
 6581TIP3    H119684   4.030   0.236   3.229
 6581TIP3    H219685   4.109   0.277   3.107
 6582TIP3   OH219686   2.169   4.364   2.417
 6582TIP3    H119687   2.247   4.347   2.470
 6582TIP3    H219688   2.096   4.334   2.471
 6583TIP3   OH219689   1.390   6.114   4.864
 6583TIP3    H119690   1.411   6.207   4.878
 6583TIP3    H219691   1.296   6.109   4.882
 6584TIP3   OH219692   5.494   4.886   2.172
 6584TIP3    H119693   5.415   4.877   2.224
 6584TIP3    H219694   5.464   4.919   2.087
 6585TIP3   OH219695   3.641   6.160   3.377
 6585TIP3    H119696   3.689   6.100   3.320
 6585TIP3    H219697   3.676   6.246   3.356
 6586TIP3   OH219698   5.045   5.095   0.024
 6586TIP3    H119699   5.108   5.028  -0.002
 6586TIP3    H219700   5.089   5.178   0.002
 6587TIP3   OH219701   6.909   3.766   3.117
 6587TIP3    H119702   6.919   3.749   3.210
 6587TIP3    H219703   6.817   3.750   3.099
 6588TIP3   OH219704   4.970   1.112   5.142
 6588TIP3    H119705   4.971   1.204   5.113
 6588TIP3    H219706   4.992   1.116   5.235
 6589TIP3   OH219707   3.094   2.733   2.366
 6589TIP3    H119708   3.041   2.668   2.321
 6589TIP3    H219709   3.067   2.817   2.327
 6590TIP3   OH219710   7.357   3.030   1.374
 6590TIP3    H119711   7.310   3.014   1.292
 6590TIP3    H219712   7.350   3.124   1.388
 6591TIP3   OH219713   2.564   1.540   6.598
 6591TIP3    H119714   2.513   1.485   6.658
 6591TIP3    H219715   2.598   1.610   6.654
 6592TIP3   OH219716   6.479   4.599   5.189
 6592TIP3    H119717   6.489   4.663   5.260
 6592TIP3    H219718   6.397   4.625   5.146
 6593TIP3   OH219719   5.488   3.293   0.472
 6593TIP3    H119720   5.510   3.385   0.461
 6593TIP3    H219721   5.443   3.269   0.392
 6594TIP3   OH219722   0.369   0.395   6.847
 6594TIP3    H119723   0.337   0.458   6.912
 6594TIP3    H219724   0.452   0.432   6.816
 6595TIP3   OH219725   7.433   2.918   6.403
 6595TIP3    H119726   7.379   2.839   6.402
 6595TIP3    H219727   7.475   2.917   6.489
 6596TIP3   OH219728   8.321   5.935   3.678
 6596TIP3    H119729   8.346   5.861   3.622
 6596TIP3    H219730   8.244   5.905   3.725
 6597TIP3   OH219731   4.489   2.556   2.782
 6597TIP3    H119732   4.574   2.570   2.824
 6597TIP3    H219733   4.427   2.604   2.836
 6598TIP3   OH219734   1.090   6.750   5.569
 6598TIP3    H119735   1.176   6.789   5.557
 6598TIP3    H219736   1.080   6.742   5.664
 6599TIP3   OH219737   5.325   6.163   1.085
 6599TIP3    H119738   5.310   6.238   1.143
 6599TIP3    H219739   5.351   6.202   1.002
 6600TIP3   OH219740   2.080   5.696   3.969
 6600TIP3    H119741   2.090   5.790   3.982
 6600TIP3    H219742   2.102   5.658   4.055
 6601TIP3   OH219743   2.800   0.978   6.486
 6601TIP3    H119744   2.882   0.944   6.451
 6601TIP3    H219745   2.773   1.045   6.424
 6602TIP3   OH219746   2.566   2.314   6.232
 6602TIP3    H119747   2.515   2.349   6.159
 6602TIP3    H219748   2.529   2.228   6.249
 6603TIP3   OH219749   8.206   7.717   5.872
 6603TIP3    H119750   8.234   7.799   5.913
 6603TIP3    H219751   8.166   7.668   5.943
 6604TIP3   OH219752   3.724   4.974   6.532
 6604TIP3    H119753   3.820   4.969   6.526
 6604TIP3    H219754   3.707   5.065   6.555
 6605TIP3   OH219755   5.254   2.220   1.292
 6605TIP3    H119756   5.209   2.271   1.225
 6605TIP3    H219757   5.183   2.176   1.340
 6606TIP3   OH219758   7.781   0.256   0.550
 6606TIP3    H119759   7.755   0.344   0.523
 6606TIP3    H219760   7.779   0.258   0.646
 6607TIP3   OH219761   0.446   6.332   0.323
 6607TIP3    H119762   0.373   6.393   0.311
 6607TIP3    H219763   0.500   6.373   0.391
 6608TIP3   OH219764   7.927   2.567   5.078
 6608TIP3    H119765   7.932   2.655   5.041
 6608TIP3    H219766   7.973   2.574   5.162
 6609TIP3   OH219767   1.988   4.042   4.504
 6609TIP3    H119768   1.956   4.070   4.590
 6609TIP3    H219769   1.989   3.946   4.509
 6610TIP3   OH219770   5.137   1.879   0.665
 6610TIP3    H119771   5.217   1.917   0.702
 6610TIP3    H219772   5.127   1.922   0.580
 6611TIP3   OH219773   3.557   0.325   2.787
 6611TIP3    H119774   3.473   0.367   2.800
 6611TIP3    H219775   3.539   0.253   2.727
 6612TIP3   OH219776   4.993   5.364   0.786
 6612TIP3    H119777   4.990   5.415   0.867
 6612TIP3    H219778   4.902   5.353   0.761
 6613TIP3   OH219779   6.075   1.339   4.483
 6613TIP3    H119780   6.002   1.325   4.422
 6613TIP3    H219781   6.119   1.254   4.489
 6614TIP3   OH219782   3.236   2.984   3.253
 6614TIP3    H119783   3.277   3.070   3.258
 6614TIP3    H219784   3.147   2.998   3.287
 6615TIP3   OH219785   8.376   4.249   5.295
 6615TIP3    H119786   8.343   4.301   5.221
 6615TIP3    H219787   8.381   4.311   5.367
 6616TIP3   OH219788   2.229   1.471   3.993
 6616TIP3    H119789   2.135   1.488   3.995
 6616TIP3    H219790   2.265   1.537   3.935
 6617TIP3   OH219791   7.004   6.055   4.781
 6617TIP3    H119792   7.071   6.101   4.832
 6617TIP3    H219793   6.970   6.120   4.720
 6618TIP3   OH219794   0.925   6.593   4.864
 6618TIP3    H119795   1.004   6.539   4.859
 6618TIP3    H219796   0.871   6.564   4.791
 6619TIP3   OH219797   2.735   7.337   6.416
 6619TIP3    H119798   2.682   7.378   6.485
 6619TIP3    H219799   2.777   7.263   6.460
 6620TIP3   OH219800   6.409   0.801   1.993
 6620TIP3    H119801   6.423   0.830   1.903
 6620TIP3    H219802   6.414   0.882   2.045
 6621TIP3   OH219803   6.766   6.477   6.054
 6621TIP3    H119804   6.820   6.548   6.019
 6621TIP3    H219805   6.830   6.415   6.091
 6622TIP3   OH219806   6.748   7.469   5.944
 6622TIP3    H119807   6.790   7.481   5.859
 6622TIP3    H219808   6.718   7.378   5.944
 6623TIP3   OH219809   0.463   2.688   5.129
 6623TIP3    H119810   0.471   2.716   5.220
 6623TIP3    H219811   0.467   2.593   5.133
 6624TIP3   OH219812   2.469   0.155   5.215
 6624TIP3    H119813   2.380   0.185   5.236
 6624TIP3    H219814   2.478   0.073   5.263
 6625TIP3   OH219815   1.665   2.328   5.564
 6625TIP3    H119816   1.609   2.397   5.601
 6625TIP3    H219817   1.702   2.367   5.485
 6626TIP3   OH219818   0.090   7.402   0.666
 6626TIP3    H119819   0.140   7.425   0.588
 6626TIP3    H219820   0.153   7.360   0.724
 6627TIP3   OH219821   2.987   5.467   5.066
 6627TIP3    H119822   3.016   5.555   5.040
 6627TIP3    H219823   2.927   5.440   4.996
 6628TIP3   OH219824   0.485   1.320   3.647
 6628TIP3    H119825   0.452   1.408   3.662
 6628TIP3    H219826   0.474   1.276   3.731
 6629TIP3   OH219827   6.560   2.104   6.512
 6629TIP3    H119828   6.604   2.019   6.522
 6629TIP3    H219829   6.538   2.109   6.419
 6630TIP3   OH219830   3.367   2.874   6.394
 6630TIP3    H119831   3.427   2.817   6.442
 6630TIP3    H219832   3.409   2.961   6.398
 6631TIP3   OH219833   8.286   6.248   2.449
 6631TIP3    H119834   8.197   6.274   2.422
 6631TIP3    H219835   8.272   6.177   2.511
 6632TIP3   OH219836   5.986   5.287   5.562
 6632TIP3    H119837   5.938   5.249   5.635
 6632TIP3    H219838   6.074   5.302   5.596
 6633TIP3   OH219839   7.406   3.644   6.260
 6633TIP3    H119840   7.463   3.567   6.268
 6633TIP3    H219841   7.365   3.651   6.346
 6634TIP3   OH219842   5.714   0.970   2.440
 6634TIP3    H119843   5.664   0.891   2.420
 6634TIP3    H219844   5.738   1.005   2.355
 6635TIP3   OH219845   1.336   4.826   5.040
 6635TIP3    H119846   1.334   4.745   5.091
 6635TIP3    H219847   1.364   4.798   4.953
 6636TIP3   OH219848   5.497   2.177   0.099
 6636TIP3    H119849   5.531   2.147   0.183
 6636TIP3    H219850   5.408   2.206   0.118
 6637TIP3   OH219851   0.638   1.559   4.025
 6637TIP3    H119852   0.640   1.654   4.033
 6637TIP3    H219853   0.690   1.540   3.946
 6638TIP3   OH219854   1.418   3.107   2.370
 6638TIP3    H119855   1.484   3.125   2.436
 6638TIP3    H219856   1.467   3.086   2.291
 6639TIP3   OH219857   0.079   5.950   6.451
 6639TIP3    H119858   0.161   5.900   6.460
 6639TIP3    H219859   0.017   5.903   6.507
 6640TIP3   OH219860   7.515   0.756   4.291
 6640TIP3    H119861   7.467   0.838   4.301
 6640TIP3    H219862   7.606   0.781   4.281
 6641TIP3   OH219863   1.975   2.658   0.913
 6641TIP3    H119864   2.003   2.724   0.977
 6641TIP3    H219865   1.998   2.574   0.953
 6642TIP3   OH219866   7.023   0.199   0.262
 6642TIP3    H119867   7.079   0.172   0.189
 6642TIP3    H219868   7.066   0.163   0.339
 6643TIP3   OH219869   7.619   7.365   5.700
 6643TIP3    H119870   7.549   7.430   5.701
 6643TIP3    H219871   7.585   7.292   5.752
 6644TIP3   OH219872   2.460   0.221   3.281
 6644TIP3    H119873   2.382   0.176   3.250
 6644TIP3    H219874   2.427   0.302   3.321
 6645TIP3   OH219875   1.572   5.086   3.484
 6645TIP3    H119876   1.651   5.043   3.452
 6645TIP3    H219877   1.503   5.020   3.472
 6646TIP3   OH219878   6.367   2.862   5.647
 6646TIP3    H119879   6.437   2.881   5.709
 6646TIP3    H219880   6.406   2.803   5.583
 6647TIP3   OH219881   4.769   3.035   6.470
 6647TIP3    H119882   4.789   3.003   6.383
 6647TIP3    H219883   4.733   2.959   6.516
 6648TIP3   OH219884   3.037   6.158   1.747
 6648TIP3    H119885   3.123   6.200   1.750
 6648TIP3    H219886   3.049   6.077   1.796
 6649TIP3   OH219887   6.467   7.700   5.525
 6649TIP3    H119888   6.468   7.668   5.615
 6649TIP3    H219889   6.429   7.788   5.532
 6650TIP3   OH219890   3.526   4.210   0.780
 6650TIP3    H119891   3.520   4.167   0.865
 6650TIP3    H219892   3.523   4.304   0.800
 6651TIP3   OH219893   5.600   6.749   2.287
 6651TIP3    H119894   5.632   6.710   2.206
 6651TIP3    H219895   5.665   6.816   2.309
 6652TIP3   OH219896   0.860   3.630   0.929
 6652TIP3    H119897   0.933   3.669   0.880
 6652TIP3    H219898   0.880   3.650   1.021
 6653TIP3   OH219899   3.460   4.654   0.238
 6653TIP3    H119900   3.459   4.601   0.158
 6653TIP3    H219901   3.383   4.710   0.230
 6654TIP3   OH219902   8.243   6.633   5.178
 6654TIP3    H119903   8.233   6.627   5.273
 6654TIP3    H219904   8.285   6.550   5.154
 6655TIP3   OH219905   5.041   7.316   6.747
 6655TIP3    H119906   4.953   7.292   6.716
 6655TIP3    H219907   5.099   7.292   6.674
 6656TIP3   OH219908   7.105   1.345   4.608
 6656TIP3    H119909   7.080   1.371   4.519
 6656TIP3    H219910   7.171   1.409   4.634
 6657TIP3   OH219911   3.568   1.185   3.555
 6657TIP3    H119912   3.594   1.095   3.572
 6657TIP3    H219913   3.649   1.235   3.563
 6658TIP3   OH219914   0.873   0.637   1.679
 6658TIP3    H119915   0.920   0.560   1.646
 6658TIP3    H219916   0.783   0.626   1.649
 6659TIP3   OH219917   0.507   5.911   6.075
 6659TIP3    H119918   0.581   5.850   6.083
 6659TIP3    H219919   0.465   5.908   6.161
 6660TIP3   OH219920   3.237   7.625   2.347
 6660TIP3    H119921   3.279   7.540   2.334
 6660TIP3    H219922   3.182   7.637   2.269
 6661TIP3   OH219923   6.125   5.726   6.593
 6661TIP3    H119924   6.118   5.815   6.628
 6661TIP3    H219925   6.071   5.727   6.514
 6662TIP3   OH219926   4.031   0.210   6.431
 6662TIP3    H119927   4.060   0.207   6.523
 6662TIP3    H219928   4.079   0.138   6.389
 6663TIP3   OH219929   7.779   3.707   1.206
 6663TIP3    H119930   7.823   3.622   1.215
 6663TIP3    H219931   7.702   3.689   1.153
 6664TIP3   OH219932   5.700   3.476   3.013
 6664TIP3    H119933   5.787   3.441   3.028
 6664TIP3    H219934   5.715   3.557   2.964
 6665TIP3   OH219935   2.934   3.962   5.253
 6665TIP3    H119936   3.005   3.906   5.222
 6665TIP3    H219937   2.857   3.933   5.204
 6666TIP3   OH219938   4.749   7.225   3.814
 6666TIP3    H119939   4.705   7.294   3.864
 6666TIP3    H219940   4.698   7.146   3.834
 6667TIP3   OH219941   3.372   0.166   2.199
 6667TIP3    H119942   3.462   0.195   2.214
 6667TIP3    H219943   3.345   0.127   2.282
 6668TIP3   OH219944   0.432   7.005   4.109
 6668TIP3    H119945   0.478   7.054   4.178
 6668TIP3    H219946   0.339   7.022   4.125
 6669TIP3   OH219947   0.933   4.598   3.807
 6669TIP3    H119948   0.980   4.650   3.742
 6669TIP3    H219949   0.843   4.631   3.804
 6670TIP3   OH219950   6.070   5.342   1.605
 6670TIP3    H119951   6.063   5.248   1.623
 6670TIP3    H219952   5.980   5.369   1.587
 6671TIP3   OH219953   2.520   5.176   4.958
 6671TIP3    H119954   2.475   5.215   4.883
 6671TIP3    H219955   2.493   5.084   4.957
 6672TIP3   OH219956   3.908   0.848   5.477
 6672TIP3    H119957   3.993   0.847   5.521
 6672TIP3    H219958   3.898   0.938   5.447
 6673TIP3   OH219959   4.464   6.657   4.807
 6673TIP3    H119960   4.471   6.705   4.890
 6673TIP3    H219961   4.372   6.664   4.782
 6674TIP3   OH219962   2.092   1.818   4.341
 6674TIP3    H119963   2.138   1.767   4.274
 6674TIP3    H219964   2.001   1.821   4.309
 6675TIP3   OH219965   5.879   0.676   1.682
 6675TIP3    H119966   5.911   0.585   1.681
 6675TIP3    H219967   5.953   0.727   1.716
 6676TIP3   OH219968   2.246   0.137   3.104
 6676TIP3    H119969   2.230   0.203   3.037
 6676TIP3    H219970   2.258   0.055   3.056
 6677TIP3   OH219971   5.427   6.436   2.380
 6677TIP3    H119972   5.339   6.416   2.410
 6677TIP3    H219973   5.431   6.532   2.381
 6678TIP3   OH219974   1.368   6.510   1.731
 6678TIP3    H119975   1.336   6.468   1.651
 6678TIP3    H219976   1.347   6.448   1.801
 6679TIP3   OH219977   5.708   7.375   4.404
 6679TIP3    H119978   5.662   7.458   4.412
 6679TIP3    H219979   5.650   7.311   4.445
 6680TIP3   OH219980   7.451   1.455   1.370
 6680TIP3    H119981   7.502   1.448   1.450
 6680TIP3    H219982   7.513   1.439   1.299
 6681TIP3   OH219983   1.243   2.080   3.184
 6681TIP3    H119984   1.238   2.129   3.102
 6681TIP3    H219985   1.336   2.079   3.206
 6682TIP3   OH219986   5.390   6.056   0.716
 6682TIP3    H119987   5.447   5.980   0.704
 6682TIP3    H219988   5.397   6.106   0.634
 6683TIP3   OH219989   0.154   7.444   0.065
 6683TIP3    H119990   0.167   7.364   0.115
 6683TIP3    H219991   0.218   7.506   0.100
 6684TIP3   OH219992   8.025   4.457   6.380
 6684TIP3    H119993   8.101   4.401   6.365
 6684TIP3    H219994   8.061   4.545   6.390
 6685TIP3   OH219995   7.719   4.499   3.120
 6685TIP3    H119996   7.783   4.466   3.183
 6685TIP3    H219997   7.771   4.544   3.053
 6686TIP3   OH219998   2.367   1.567   0.436
 6686TIP3    H119999   2.409   1.518   0.507
 6686TIP3    H220000   2.360   1.504   0.364
 6687TIP3   OH220001   0.873   1.033   1.053
 6687TIP3    H120002   0.821   1.016   1.131
 6687TIP3    H220003   0.828   1.105   1.008
 6688TIP3   OH220004   4.515   1.053   2.933
 6688TIP3    H120005   4.534   0.964   2.961
 6688TIP3    H220006   4.601   1.090   2.911
 6689TIP3   OH220007   0.954   0.093   2.612
 6689TIP3    H120008   0.979   0.029   2.679
 6689TIP3    H220009   0.944   0.175   2.659
 6690TIP3   OH220010   3.221   6.266   2.813
 6690TIP3    H120011   3.208   6.326   2.739
 6690TIP3    H220012   3.152   6.201   2.804
 6691TIP3   OH220013   5.865   6.426   5.183
 6691TIP3    H120014   5.855   6.395   5.272
 6691TIP3    H220015   5.959   6.442   5.174
 6692TIP3   OH220016   2.546   6.027   4.153
 6692TIP3    H120017   2.538   6.093   4.222
 6692TIP3    H220018   2.623   5.975   4.178
 6693TIP3   OH220019   3.756   1.164   6.458
 6693TIP3    H120020   3.731   1.075   6.433
 6693TIP3    H220021   3.685   1.220   6.424
 6694TIP3   OH220022   4.015   1.219   0.709
 6694TIP3    H120023   3.997   1.203   0.802
 6694TIP3    H220024   4.090   1.279   0.709
 6695TIP3   OH220025   4.404   2.633   4.685
 6695TIP3    H120026   4.425   2.671   4.771
 6695TIP3    H220027   4.485   2.640   4.636
 6696TIP3   OH220028   4.386   1.942   4.469
 6696TIP3    H120029   4.299   1.981   4.466
 6696TIP3    H220030   4.412   1.934   4.378
 6697TIP3   OH220031   3.739   6.786   2.591
 6697TIP3    H120032   3.820   6.735   2.590
 6697TIP3    H220033   3.710   6.789   2.500
 6698TIP3   OH220034   7.304   7.084   0.343
 6698TIP3    H120035   7.342   7.171   0.345
 6698TIP3    H220036   7.256   7.080   0.259
 6699TIP3   OH220037   2.039   2.409   0.449
 6699TIP3    H120038   2.045   2.488   0.503
 6699TIP3    H220039   1.945   2.394   0.440
 6700TIP3   OH220040   2.262   2.409   3.386
 6700TIP3    H120041   2.307   2.329   3.360
 6700TIP3    H220042   2.209   2.434   3.310
 6701TIP3   OH220043   2.661   5.650   5.064
 6701TIP3    H120044   2.711   5.656   4.982
 6701TIP3    H220045   2.593   5.717   5.055
 6702TIP3   OH220046   5.945   2.359   3.033
 6702TIP3    H120047   5.863   2.311   3.047
 6702TIP3    H220048   6.012   2.303   3.073
 6703TIP3   OH220049   5.383   7.666   0.160
 6703TIP3    H120050   5.358   7.740   0.105
 6703TIP3    H220051   5.477   7.657   0.147
 6704TIP3   OH220052   6.386   6.630   4.766
 6704TIP3    H120053   6.351   6.698   4.709
 6704TIP3    H220054   6.310   6.576   4.788
 6705TIP3   OH220055   8.180   1.903   0.762
 6705TIP3    H120056   8.248   1.915   0.696
 6705TIP3    H220057   8.226   1.881   0.842
 6706TIP3   OH220058   6.950   3.047   4.911
 6706TIP3    H120059   6.965   3.042   4.817
 6706TIP3    H220060   6.984   3.134   4.936
 6707TIP3   OH220061   7.045   0.951   5.857
 6707TIP3    H120062   7.105   0.892   5.903
 6707TIP3    H220063   7.058   1.036   5.901
 6708TIP3   OH220064   3.606   0.453   5.936
 6708TIP3    H120065   3.526   0.418   5.976
 6708TIP3    H220066   3.656   0.375   5.912
 6709TIP3   OH220067   4.557   4.001   4.045
 6709TIP3    H120068   4.620   3.932   4.021
 6709TIP3    H220069   4.607   4.060   4.101
 6710TIP3   OH220070   6.408   3.546   1.863
 6710TIP3    H120071   6.364   3.510   1.786
 6710TIP3    H220072   6.385   3.639   1.863
 6711TIP3   OH220073   1.663   0.840   6.642
 6711TIP3    H120074   1.717   0.918   6.630
 6711TIP3    H220075   1.660   0.799   6.555
 6712TIP3   OH220076   6.264   5.408   4.352
 6712TIP3    H120077   6.246   5.475   4.417
 6712TIP3    H220078   6.356   5.422   4.328
 6713TIP3   OH220079   0.966   1.763   5.926
 6713TIP3    H120080   0.879   1.734   5.898
 6713TIP3    H220081   0.974   1.853   5.893
 6714TIP3   OH220082   3.419   5.850   4.921
 6714TIP3    H120083   3.368   5.856   5.002
 6714TIP3    H220084   3.369   5.791   4.865
 6715TIP3   OH220085   2.751   6.880   4.283
 6715TIP3    H120086   2.693   6.894   4.208
 6715TIP3    H220087   2.745   6.961   4.333
 6716TIP3   OH220088   3.852   4.011   3.907
 6716TIP3    H120089   3.770   4.010   3.958
 6716TIP3    H220090   3.831   4.063   3.829
 6717TIP3   OH220091   4.717   2.868   4.534
 6717TIP3    H120092   4.740   2.959   4.553
 6717TIP3    H220093   4.728   2.859   4.440
 6718TIP3   OH220094   6.582   7.022   1.379
 6718TIP3    H120095   6.529   6.952   1.341
 6718TIP3    H220096   6.670   6.985   1.387
 6719TIP3   OH220097   2.379   1.843   3.685
 6719TIP3    H120098   2.347   1.933   3.688
 6719TIP3    H220099   2.461   1.848   3.636
 6720TIP3   OH220100   3.850   2.484   4.193
 6720TIP3    H120101   3.776   2.424   4.206
 6720TIP3    H220102   3.871   2.476   4.100
 6721TIP3   OH220103   3.559   5.657   3.833
 6721TIP3    H120104   3.528   5.624   3.917
 6721TIP3    H220105   3.606   5.738   3.855
 6722TIP3   OH220106   2.010   5.049   1.011
 6722TIP3    H120107   2.055   5.049   1.095
 6722TIP3    H220108   2.080   5.046   0.946
 6723TIP3   OH220109   7.240   2.109   6.156
 6723TIP3    H120110   7.300   2.058   6.211
 6723TIP3    H220111   7.278   2.197   6.155
 6724TIP3   OH220112   0.134   0.292   0.556
 6724TIP3    H120113   0.113   0.356   0.488
 6724TIP3    H220114   0.195   0.231   0.514
 6725TIP3   OH220115   1.587   6.862   1.949
 6725TIP3    H120116   1.573   6.951   1.917
 6725TIP3    H220117   1.507   6.815   1.925
 6726TIP3   OH220118   2.002   6.171   3.095
 6726TIP3    H120119   1.942   6.119   3.041
 6726TIP3    H220120   1.998   6.131   3.181
 6727TIP3   OH220121   6.045   1.789   6.553
 6727TIP3    H120122   6.085   1.874   6.535
 6727TIP3    H220123   6.098   1.727   6.502
 6728TIP3   OH220124   6.115   7.332   3.188
 6728TIP3    H120125   6.151   7.269   3.126
 6728TIP3    H220126   6.026   7.300   3.206
 6729TIP3   OH220127   5.871   6.846   0.718
 6729TIP3    H120128   5.845   6.924   0.766
 6729TIP3    H220129   5.849   6.865   0.627
 6730TIP3   OH220130   2.342   6.883   0.061
 6730TIP3    H120131   2.367   6.831   0.137
 6730TIP3    H220132   2.249   6.862   0.047
 6731TIP3   OH220133   5.190   1.368   5.750
 6731TIP3    H120134   5.202   1.297   5.813
 6731TIP3    H220135   5.154   1.440   5.803
 6732TIP3   OH220136   1.684   0.488   5.449
 6732TIP3    H120137   1.722   0.504   5.535
 6732TIP3    H220138   1.666   0.394   5.448
 6733TIP3   OH220139   7.329   4.982   2.449
 6733TIP3    H120140   7.347   5.045   2.379
 6733TIP3    H220141   7.401   4.993   2.511
 6734TIP3   OH220142   5.544   1.285   3.832
 6734TIP3    H120143   5.543   1.207   3.778
 6734TIP3    H220144   5.637   1.306   3.844
 6735TIP3   OH220145   7.896   7.366   0.224
 6735TIP3    H120146   7.864   7.456   0.223
 6735TIP3    H220147   7.831   7.316   0.175
 6736TIP3   OH220148   2.848   0.420   2.975
 6736TIP3    H120149   2.772   0.468   2.944
 6736TIP3    H220150   2.831   0.406   3.068
 6737TIP3   OH220151   4.059   6.722   4.721
 6737TIP3    H120152   4.107   6.782   4.665
 6737TIP3    H220153   4.101   6.730   4.807
 6738TIP3   OH220154   8.278   2.213   5.342
 6738TIP3    H120155   8.361   2.183   5.303
 6738TIP3    H220156   8.233   2.132   5.367
 6739TIP3   OH220157   4.218   1.649   0.666
 6739TIP3    H120158   4.124   1.663   0.673
 6739TIP3    H220159   4.241   1.678   0.578
 6740TIP3   OH220160   0.093   1.080   0.939
 6740TIP3    H120161   0.016   1.118   0.981
 6740TIP3    H220162   0.131   1.024   1.006
 6741TIP3   OH220163   2.114   4.913   2.717
 6741TIP3    H120164   2.081   4.836   2.671
 6741TIP3    H220165   2.170   4.879   2.786
 6742TIP3   OH220166   1.367   2.492   4.537
 6742TIP3    H120167   1.365   2.396   4.541
 6742TIP3    H220168   1.446   2.513   4.487
 6743TIP3   OH220169   3.532   3.223   1.324
 6743TIP3    H120170   3.586   3.241   1.401
 6743TIP3    H220171   3.563   3.285   1.257
 6744TIP3   OH220172   4.849   2.307   1.986
 6744TIP3    H120173   4.918   2.373   1.988
 6744TIP3    H220174   4.863   2.260   1.903
 6745TIP3   OH220175   7.296   0.711   4.604
 6745TIP3    H120176   7.262   0.734   4.518
 6745TIP3    H220177   7.323   0.619   4.596
 6746TIP3   OH220178   1.679   5.574   5.557
 6746TIP3    H120179   1.748   5.538   5.612
 6746TIP3    H220180   1.649   5.500   5.504
 6747TIP3   OH220181   4.071   0.393   2.797
 6747TIP3    H120182   4.112   0.433   2.875
 6747TIP3    H220183   3.977   0.402   2.813
 6748TIP3   OH220184   6.135   2.903   1.863
 6748TIP3    H120185   6.225   2.937   1.865
 6748TIP3    H220186   6.127   2.850   1.942
 6749TIP3   OH220187   5.865   4.805   2.105
 6749TIP3    H120188   5.827   4.717   2.106
 6749TIP3    H220189   5.857   4.832   2.013
 6750TIP3   OH220190   4.092   1.689   3.535
 6750TIP3    H120191   3.997   1.677   3.537
 6750TIP3    H220192   4.124   1.623   3.474
 6751TIP3   OH220193   0.731   3.411   5.869
 6751TIP3    H120194   0.736   3.491   5.923
 6751TIP3    H220195   0.639   3.404   5.845
 6752TIP3   OH220196   2.167   7.176   6.471
 6752TIP3    H120197   2.251   7.219   6.457
 6752TIP3    H220198   2.129   7.167   6.384
 6753TIP3   OH220199   3.714   6.430   3.289
 6753TIP3    H120200   3.647   6.472   3.235
 6753TIP3    H220201   3.779   6.499   3.305
 6754TIP3   OH220202   5.353   6.859   3.944
 6754TIP3    H120203   5.260   6.835   3.949
 6754TIP3    H220204   5.355   6.935   3.885
 6755TIP3   OH220205   7.696   0.761   3.695
 6755TIP3    H120206   7.646   0.841   3.679
 6755TIP3    H220207   7.635   0.690   3.678
 6756TIP3   OH220208   4.488   1.784   2.678
 6756TIP3    H120209   4.436   1.704   2.683
 6756TIP3    H220210   4.537   1.786   2.760
 6757TIP3   OH220211   6.859   7.439   5.139
 6757TIP3    H120212   6.929   7.487   5.184
 6757TIP3    H220213   6.863   7.470   5.049
 6758TIP3   OH220214   3.775   6.901   1.583
 6758TIP3    H120215   3.835   6.826   1.581
 6758TIP3    H220216   3.696   6.867   1.626
 6759TIP3   OH220217   6.404   5.985   0.669
 6759TIP3    H120218   6.342   5.960   0.601
 6759TIP3    H220219   6.356   5.971   0.751
 6760TIP3   OH220220   5.746   4.015   5.400
 6760TIP3    H120221   5.838   3.990   5.396
 6760TIP3    H220222   5.698   3.933   5.408
 6761TIP3   OH220223   2.789   5.259   4.791
 6761TIP3    H120224   2.849   5.226   4.857
 6761TIP3    H220225   2.702   5.229   4.820
 6762TIP3   OH220226   7.625   5.994   4.757
 6762TIP3    H120227   7.707   6.014   4.712
 6762TIP3    H220228   7.652   5.959   4.842
 6763TIP3   OH220229   7.392   7.173   4.535
 6763TIP3    H120230   7.442   7.114   4.479
 6763TIP3    H220231   7.433   7.163   4.622
 6764TIP3   OH220232   5.551   6.452   3.163
 6764TIP3    H120233   5.588   6.534   3.193
 6764TIP3    H220234   5.626   6.394   3.152
 6765TIP3   OH220235   0.494   4.858   1.796
 6765TIP3    H120236   0.508   4.891   1.885
 6765TIP3    H220237   0.422   4.911   1.762
 6766TIP3   OH220238   7.766   1.855   1.100
 6766TIP3    H120239   7.765   1.892   1.011
 6766TIP3    H220240   7.722   1.920   1.154
 6767TIP3   OH220241   0.045   4.834   0.845
 6767TIP3    H120242  -0.024   4.787   0.892
 6767TIP3    H220243   0.126   4.796   0.878
 6768TIP3   OH220244   3.068   6.974   1.498
 6768TIP3    H120245   2.987   6.939   1.463
 6768TIP3    H220246   3.054   6.975   1.593
 6769TIP3   OH220247   5.926   3.732   5.126
 6769TIP3    H120248   5.962   3.646   5.107
 6769TIP3    H220249   5.889   3.724   5.214
 6770TIP3   OH220250   1.255   3.659   1.027
 6770TIP3    H120251   1.238   3.577   1.075
 6770TIP3    H220252   1.181   3.668   0.967
 6771TIP3   OH220253   0.386   2.887   6.248
 6771TIP3    H120254   0.326   2.886   6.323
 6771TIP3    H220255   0.456   2.826   6.272
 6772TIP3   OH220256   5.622   1.032   4.272
 6772TIP3    H120257   5.562   1.071   4.336
 6772TIP3    H220258   5.695   1.000   4.325
 6773TIP3   OH220259   2.183   3.090   2.893
 6773TIP3    H120260   2.197   3.156   2.826
 6773TIP3    H220261   2.226   3.011   2.858
 6774TIP3   OH220262   2.245   1.199   0.599
 6774TIP3    H120263   2.229   1.117   0.645
 6774TIP3    H220264   2.159   1.224   0.564
 6775TIP3   OH220265   0.956   4.769   3.379
 6775TIP3    H120266   0.881   4.755   3.321
 6775TIP3    H220267   1.014   4.695   3.360
 6776TIP3   OH220268   1.255   2.948   3.784
 6776TIP3    H120269   1.217   3.025   3.742
 6776TIP3    H220270   1.332   2.981   3.831
 6777TIP3   OH220271   8.357   4.432   1.106
 6777TIP3    H120272   8.388   4.366   1.044
 6777TIP3    H220273   8.315   4.383   1.176
 6778TIP3   OH220274   6.412   5.816   5.926
 6778TIP3    H120275   6.491   5.840   5.973
 6778TIP3    H220276   6.341   5.838   5.987
 6779TIP3   OH220277   7.472   5.013   3.836
 6779TIP3    H120278   7.383   4.987   3.858
 6779TIP3    H220279   7.495   5.080   3.900
 6780TIP3   OH220280   1.744   1.128   0.485
 6780TIP3    H120281   1.680   1.058   0.478
 6780TIP3    H220282   1.693   1.209   0.480
 6781TIP3   OH220283   5.876   6.106   3.879
 6781TIP3    H120284   5.824   6.156   3.942
 6781TIP3    H220285   5.916   6.036   3.931
 6782TIP3   OH220286   7.018   0.463   1.488
 6782TIP3    H120287   7.105   0.433   1.465
 6782TIP3    H220288   7.032   0.524   1.560
 6783TIP3   OH220289   2.452   3.838   5.226
 6783TIP3    H120290   2.389   3.781   5.271
 6783TIP3    H220291   2.409   3.862   5.145
 6784TIP3   OH220292   2.187   3.821   6.608
 6784TIP3    H120293   2.192   3.913   6.583
 6784TIP3    H220294   2.255   3.778   6.556
 6785TIP3   OH220295   1.030   1.086   1.968
 6785TIP3    H120296   1.001   1.015   1.910
 6785TIP3    H220297   1.100   1.130   1.919
 6786TIP3   OH220298   4.656   4.738   4.608
 6786TIP3    H120299   4.671   4.766   4.518
 6786TIP3    H220300   4.624   4.817   4.653
 6787TIP3   OH220301   7.557   0.429   3.000
 6787TIP3    H120302   7.645   0.464   3.013
 6787TIP3    H220303   7.502   0.507   2.991
 6788TIP3   OH220304   3.826   4.360   0.557
 6788TIP3    H120305   3.745   4.399   0.524
 6788TIP3    H220306   3.891   4.429   0.551
 6789TIP3   OH220307   5.034   5.964   6.462
 6789TIP3    H120308   5.121   5.966   6.502
 6789TIP3    H220309   4.973   5.958   6.536
 6790TIP3   OH220310   4.165   4.978   6.829
 6790TIP3    H120311   4.110   4.946   6.900
 6790TIP3    H220312   4.225   5.040   6.870
 6791TIP3   OH220313   6.807   5.585   3.304
 6791TIP3    H120314   6.753   5.520   3.260
 6791TIP3    H220315   6.807   5.559   3.396
 6792TIP3   OH220316   7.378   4.776   5.569
 6792TIP3    H120317   7.431   4.708   5.611
 6792TIP3    H220318   7.441   4.826   5.516
 6793TIP3   OH220319   7.367   6.813   0.390
 6793TIP3    H120320   7.281   6.775   0.370
 6793TIP3    H220321   7.353   6.907   0.386
 6794TIP3   OH220322   7.863   2.363   2.279
 6794TIP3    H120323   7.956   2.373   2.296
 6794TIP3    H220324   7.847   2.419   2.202
 6795TIP3   OH220325   0.122   5.323   0.807
 6795TIP3    H120326   0.182   5.381   0.760
 6795TIP3    H220327   0.106   5.250   0.747
 6796TIP3   OH220328   7.999   0.722   5.331
 6796TIP3    H120329   8.001   0.814   5.303
 6796TIP3    H220330   7.994   0.673   5.249
 6797TIP3   OH220331   5.207   6.262   4.283
 6797TIP3    H120332   5.288   6.211   4.285
 6797TIP3    H220333   5.182   6.270   4.375
 6798TIP3   OH220334   4.283   2.675   2.916
 6798TIP3    H120335   4.269   2.679   3.011
 6798TIP3    H220336   4.268   2.584   2.894
 6799TIP3   OH220337   3.161   0.820   1.300
 6799TIP3    H120338   3.249   0.828   1.337
 6799TIP3    H220339   3.153   0.728   1.275
 6800TIP3   OH220340   2.541   2.822   3.592
 6800TIP3    H120341   2.607   2.881   3.629
 6800TIP3    H220342   2.475   2.880   3.555
 6801TIP3   OH220343   3.819   1.854   0.363
 6801TIP3    H120344   3.733   1.858   0.323
 6801TIP3    H220345   3.863   1.781   0.318
 6802TIP3   OH220346   2.479   5.966   6.597
 6802TIP3    H120347   2.399   5.916   6.580
 6802TIP3    H220348   2.486   5.967   6.693
 6803TIP3   OH220349   7.292   6.663   1.894
 6803TIP3    H120350   7.246   6.655   1.977
 6803TIP3    H220351   7.281   6.578   1.852
 6804TIP3   OH220352   8.017   2.281   6.797
 6804TIP3    H120353   7.994   2.300   6.706
 6804TIP3    H220354   8.056   2.362   6.830
 6805TIP3   OH220355   7.219   7.757   1.166
 6805TIP3    H120356   7.289   7.756   1.100
 6805TIP3    H220357   7.154   7.694   1.133
 6806TIP3   OH220358   6.693   0.453   5.315
 6806TIP3    H120359   6.696   0.456   5.220
 6806TIP3    H220360   6.784   0.442   5.342
 6807TIP3   OH220361   2.318   5.086   6.141
 6807TIP3    H120362   2.405   5.125   6.142
 6807TIP3    H220363   2.333   4.991   6.135
 6808TIP3   OH220364   8.103   6.782   0.386
 6808TIP3    H120365   8.046   6.835   0.442
 6808TIP3    H220366   8.056   6.778   0.303
 6809TIP3   OH220367   2.147   0.686   3.594
 6809TIP3    H120368   2.114   0.607   3.637
 6809TIP3    H220369   2.073   0.717   3.542
 6810TIP3   OH220370   6.478   4.966   4.730
 6810TIP3    H120371   6.458   4.889   4.784
 6810TIP3    H220372   6.481   4.932   4.640
 6811TIP3   OH220373   6.323   1.911   4.128
 6811TIP3    H120374   6.325   1.822   4.093
 6811TIP3    H220375   6.378   1.908   4.206
 6812TIP3   OH220376   1.408   4.290   6.542
 6812TIP3    H120377   1.404   4.223   6.474
 6812TIP3    H220378   1.501   4.300   6.560
 6813TIP3   OH220379   6.071   5.949   4.009
 6813TIP3    H120380   6.156   5.990   3.989
 6813TIP3    H220381   6.081   5.915   4.098
 6814TIP3   OH220382   1.078   6.473   0.475
 6814TIP3    H120383   1.028   6.526   0.537
 6814TIP3    H220384   1.095   6.391   0.521
 6815TIP3   OH220385   5.858   5.115   3.596
 6815TIP3    H120386   5.953   5.115   3.590
 6815TIP3    H220387   5.832   5.027   3.568
 6816TIP3   OH220388   7.136   4.224   5.046
 6816TIP3    H120389   7.184   4.208   5.127
 6816TIP3    H220390   7.065   4.283   5.071
 6817TIP3   OH220391   1.085   7.094   4.572
 6817TIP3    H120392   1.096   7.026   4.639
 6817TIP3    H220393   0.991   7.110   4.570
 6818TIP3   OH220394   7.933   0.991   1.996
 6818TIP3    H120395   7.839   1.010   1.994
 6818TIP3    H220396   7.973   1.062   1.947
 6819TIP3   OH220397   5.566   0.058   3.982
 6819TIP3    H120398   5.629  -0.001   4.022
 6819TIP3    H220399   5.480   0.024   4.007
 6820TIP3   OH220400   0.295   7.271   0.801
 6820TIP3    H120401   0.384   7.302   0.815
 6820TIP3    H220402   0.302   7.206   0.731
 6821TIP3   OH220403   1.590   1.730   5.400
 6821TIP3    H120404   1.598   1.685   5.484
 6821TIP3    H220405   1.613   1.664   5.334
 6822TIP3   OH220406   6.965   2.356   3.241
 6822TIP3    H120407   7.024   2.294   3.200
 6822TIP3    H220408   6.963   2.431   3.182
 6823TIP3   OH220409   3.397   0.292   5.418
 6823TIP3    H120410   3.326   0.354   5.429
 6823TIP3    H220411   3.476   0.340   5.443
 6824TIP3   OH220412   0.655   2.345   1.698
 6824TIP3    H120413   0.619   2.315   1.782
 6824TIP3    H220414   0.637   2.439   1.697
 6825TIP3   OH220415   2.036   0.469   0.891
 6825TIP3    H120416   2.030   0.414   0.969
 6825TIP3    H220417   1.951   0.512   0.884
 6826TIP3   OH220418   6.519   3.880   6.665
 6826TIP3    H120419   6.508   3.893   6.570
 6826TIP3    H220420   6.535   3.968   6.699
 6827TIP3   OH220421   4.743   0.571   0.201
 6827TIP3    H120422   4.792   0.507   0.149
 6827TIP3    H220423   4.705   0.521   0.273
 6828TIP3   OH220424   1.327   5.406   4.852
 6828TIP3    H120425   1.367   5.440   4.772
 6828TIP3    H220426   1.348   5.470   4.919
 6829TIP3   OH220427   2.005   6.547   1.943
 6829TIP3    H120428   1.924   6.514   1.982
 6829TIP3    H220429   1.976   6.604   1.872
 6830TIP3   OH220430   6.217   6.445   3.251
 6830TIP3    H120431   6.167   6.373   3.213
 6830TIP3    H220432   6.265   6.483   3.177
 6831TIP3   OH220433   5.008   2.499  -0.003
 6831TIP3    H120434   5.004   2.516   0.091
 6831TIP3    H220435   4.917   2.484  -0.029
 6832TIP3   OH220436   3.537   5.165   5.167
 6832TIP3    H120437   3.584   5.249   5.171
 6832TIP3    H220438   3.449   5.188   5.137
 6833TIP3   OH220439   5.953   1.416   6.627
 6833TIP3    H120440   5.919   1.449   6.710
 6833TIP3    H220441   6.037   1.374   6.650
 6834TIP3   OH220442   8.111   3.187   2.274
 6834TIP3    H120443   8.035   3.145   2.316
 6834TIP3    H220444   8.144   3.248   2.341
 6835TIP3   OH220445   3.111   7.152   4.838
 6835TIP3    H120446   3.111   7.066   4.880
 6835TIP3    H220447   3.132   7.213   4.908
 6836TIP3   OH220448   4.910   6.687   0.994
 6836TIP3    H120449   5.004   6.700   1.007
 6836TIP3    H220450   4.879   6.647   1.075
 6837TIP3   OH220451   2.105   1.780   3.711
 6837TIP3    H120452   2.135   1.702   3.665
 6837TIP3    H220453   2.181   1.837   3.714
 6838TIP3   OH220454   5.092   1.115   1.484
 6838TIP3    H120455   5.065   1.027   1.511
 6838TIP3    H220456   5.035   1.136   1.410
 6839TIP3   OH220457   5.606   0.111   4.791
 6839TIP3    H120458   5.582   0.026   4.754
 6839TIP3    H220459   5.524   0.160   4.797
 6840TIP3   OH220460   7.500   7.193   4.795
 6840TIP3    H120461   7.578   7.248   4.805
 6840TIP3    H220462   7.515   7.120   4.855
 6841TIP3   OH220463   8.213   4.815   2.121
 6841TIP3    H120464   8.123   4.837   2.145
 6841TIP3    H220465   8.264   4.892   2.147
 6842TIP3   OH220466   3.275   0.363   2.753
 6842TIP3    H120467   3.279   0.294   2.819
 6842TIP3    H220468   3.217   0.429   2.791
 6843TIP3   OH220469   1.013   6.671   4.038
 6843TIP3    H120470   1.013   6.751   4.090
 6843TIP3    H220471   0.927   6.631   4.055
 6844TIP3   OH220472   8.349   4.584   2.286
 6844TIP3    H120473   8.298   4.654   2.246
 6844TIP3    H220474   8.296   4.505   2.272
 6845TIP3   OH220475   3.404   1.276   0.643
 6845TIP3    H120476   3.325   1.327   0.623
 6845TIP3    H220477   3.392   1.194   0.594
 6846TIP3   OH220478   2.847   4.489   1.521
 6846TIP3    H120479   2.877   4.566   1.473
 6846TIP3    H220480   2.800   4.524   1.596
 6847TIP3   OH220481   7.833   2.146   3.482
 6847TIP3    H120482   7.919   2.115   3.511
 6847TIP3    H220483   7.800   2.197   3.556
 6848TIP3   OH220484   2.220   6.184   3.572
 6848TIP3    H120485   2.300   6.177   3.520
 6848TIP3    H220486   2.167   6.249   3.527
 6849TIP3   OH220487   4.118   5.573   4.580
 6849TIP3    H120488   4.145   5.523   4.503
 6849TIP3    H220489   4.199   5.609   4.615
 6850TIP3   OH220490   2.777   2.519   0.095
 6850TIP3    H120491   2.700   2.568   0.126
 6850TIP3    H220492   2.754   2.492   0.006
 6851TIP3   OH220493   6.902   1.229   0.302
 6851TIP3    H120494   6.859   1.150   0.270
 6851TIP3    H220495   6.845   1.262   0.371
 6852TIP3   OH220496   5.649   0.271   1.393
 6852TIP3    H120497   5.640   0.194   1.337
 6852TIP3    H220498   5.559   0.305   1.401
 6853TIP3   OH220499   8.207   0.252   5.684
 6853TIP3    H120500   8.249   0.330   5.720
 6853TIP3    H220501   8.227   0.254   5.591
 6854TIP3   OH220502   6.609   4.011   3.727
 6854TIP3    H120503   6.673   4.036   3.661
 6854TIP3    H220504   6.533   4.067   3.710
 6855TIP3   OH220505   2.938   1.682   0.891
 6855TIP3    H120506   2.990   1.619   0.942
 6855TIP3    H220507   2.906   1.744   0.956
 6856TIP3   OH220508   3.911   4.807   6.141
 6856TIP3    H120509   3.913   4.721   6.183
 6856TIP3    H220510   3.830   4.847   6.173
 6857TIP3   OH220511   6.779  -0.031   2.361
 6857TIP3    H120512   6.743   0.058   2.367
 6857TIP3    H220513   6.861  -0.026   2.409
 6858TIP3   OH220514   5.373   0.710   0.989
 6858TIP3    H120515   5.413   0.624   0.980
 6858TIP3    H220516   5.414   0.748   1.066
 6859TIP3   OH220517   4.603   5.110   3.030
 6859TIP3    H120518   4.627   5.082   2.942
 6859TIP3    H220519   4.642   5.044   3.088
 6860TIP3   OH220520   5.354   2.580   1.102
 6860TIP3    H120521   5.316   2.492   1.111
 6860TIP3    H220522   5.363   2.593   1.008
 6861TIP3   OH220523   1.368   7.364   2.412
 6861TIP3    H120524   1.333   7.453   2.412
 6861TIP3    H220525   1.461   7.374   2.429
 6862TIP3   OH220526   1.064   3.733   1.455
 6862TIP3    H120527   1.014   3.652   1.443
 6862TIP3    H220528   1.077   3.739   1.550
 6863TIP3   OH220529   5.298   4.205   0.938
 6863TIP3    H120530   5.282   4.116   0.971
 6863TIP3    H220531   5.319   4.193   0.846
 6864TIP3   OH220532   8.017   1.423   4.111
 6864TIP3    H120533   8.061   1.371   4.043
 6864TIP3    H220534   8.069   1.504   4.116
 6865TIP3   OH220535   7.133   5.272   2.913
 6865TIP3    H120536   7.140   5.364   2.938
 6865TIP3    H220537   7.222   5.246   2.891
 6866TIP3   OH220538   8.387   3.049   6.569
 6866TIP3    H120539   8.334   3.016   6.641
 6866TIP3    H220540   8.395   3.143   6.586
 6867TIP3   OH220541   6.161   4.238   2.175
 6867TIP3    H120542   6.135   4.178   2.245
 6867TIP3    H220543   6.084   4.242   2.118
 6868TIP3   OH220544   6.925   6.475   6.445
 6868TIP3    H120545   6.841   6.517   6.429
 6868TIP3    H220546   6.989   6.530   6.400
 6869TIP3   OH220547   5.590   4.773   5.878
 6869TIP3    H120548   5.616   4.684   5.853
 6869TIP3    H220549   5.672   4.822   5.881
 6870TIP3   OH220550   7.155   2.437   1.857
 6870TIP3    H120551   7.105   2.357   1.874
 6870TIP3    H220552   7.246   2.412   1.869
 6871TIP3   OH220553   7.586   1.842   2.278
 6871TIP3    H120554   7.633   1.921   2.251
 6871TIP3    H220555   7.633   1.811   2.355
 6872TIP3   OH220556   5.483   0.659   5.065
 6872TIP3    H120557   5.576   0.657   5.046
 6872TIP3    H220558   5.444   0.705   4.990
 6873TIP3   OH220559   6.951   7.017   6.395
 6873TIP3    H120560   6.858   6.999   6.384
 6873TIP3    H220561   6.956   7.111   6.409
 6874TIP3   OH220562   6.584   3.142   1.089
 6874TIP3    H120563   6.636   3.215   1.122
 6874TIP3    H220564   6.610   3.135   0.997
 6875TIP3   OH220565   8.187   4.904   4.452
 6875TIP3    H120566   8.104   4.893   4.407
 6875TIP3    H220567   8.199   4.999   4.457
 6876TIP3   OH220568   4.072   3.580   0.154
 6876TIP3    H120569   3.994   3.544   0.195
 6876TIP3    H220570   4.098   3.514   0.090
 6877TIP3   OH220571   6.116   3.572   5.476
 6877TIP3    H120572   6.106   3.492   5.425
 6877TIP3    H220573   6.203   3.603   5.454
 6878TIP3   OH220574   4.129   7.804   6.425
 6878TIP3    H120575   4.157   7.884   6.469
 6878TIP3    H220576   4.106   7.832   6.337
 6879TIP3   OH220577   6.598   6.522   3.523
 6879TIP3    H120578   6.629   6.456   3.462
 6879TIP3    H220579   6.546   6.582   3.470
 6880TIP3   OH220580   6.350   0.166   3.015
 6880TIP3    H120581   6.328   0.244   2.966
 6880TIP3    H220582   6.356   0.195   3.106
 6881TIP3   OH220583   3.581   4.368   3.668
 6881TIP3    H120584   3.592   4.324   3.752
 6881TIP3    H220585   3.669   4.398   3.644
 6882TIP3   OH220586   5.066   7.287   4.946
 6882TIP3    H120587   5.031   7.275   5.034
 6882TIP3    H220588   5.145   7.234   4.943
 6883TIP3   OH220589   6.957   5.385   1.463
 6883TIP3    H120590   6.999   5.436   1.532
 6883TIP3    H220591   6.927   5.306   1.508
 6884TIP3   OH220592   6.186   1.075   0.079
 6884TIP3    H120593   6.266   1.125   0.066
 6884TIP3    H220594   6.215   0.990   0.111
 6885TIP3   OH220595   6.991   0.224   1.669
 6885TIP3    H120596   6.990   0.261   1.581
 6885TIP3    H220597   7.082   0.233   1.698
 6886TIP3   OH220598   0.613   0.755   1.455
 6886TIP3    H120599   0.628   0.765   1.361
 6886TIP3    H220600   0.632   0.663   1.473
 6887TIP3   OH220601   8.158   2.855   0.574
 6887TIP3    H120602   8.103   2.829   0.648
 6887TIP3    H220603   8.242   2.812   0.590
 6888TIP3   OH220604   1.386   3.300   0.595
 6888TIP3    H120605   1.382   3.349   0.677
 6888TIP3    H220606   1.405   3.210   0.621
 6889TIP3   OH220607   2.767   3.690   6.474
 6889TIP3    H120608   2.829   3.735   6.417
 6889TIP3    H220609   2.818   3.671   6.553
 6890TIP3   OH220610   2.710   4.125   1.135
 6890TIP3    H120611   2.724   4.048   1.189
 6890TIP3    H220612   2.742   4.198   1.189
 6891TIP3   OH220613   0.911   6.211   1.160
 6891TIP3    H120614   0.905   6.215   1.255
 6891TIP3    H220615   1.005   6.213   1.142
 6892TIP3   OH220616   0.521   7.922   2.442
 6892TIP3    H120617   0.587   7.941   2.509
 6892TIP3    H220618   0.502   7.829   2.454
 6893TIP3   OH220619   1.568   6.893   1.628
 6893TIP3    H120620   1.645   6.883   1.572
 6893TIP3    H220621   1.603   6.926   1.711
 6894TIP3   OH220622   1.033   5.864   3.794
 6894TIP3    H120623   1.038   5.780   3.840
 6894TIP3    H220624   1.113   5.910   3.817
 6895TIP3   OH220625   7.702   5.349   5.214
 6895TIP3    H120626   7.631   5.290   5.237
 6895TIP3    H220627   7.658   5.427   5.179
 6896TIP3   OH220628   4.719   3.595   2.978
 6896TIP3    H120629   4.706   3.689   2.978
 6896TIP3    H220630   4.756   3.576   2.891
 6897TIP3   OH220631   7.745   2.457   5.525
 6897TIP3    H120632   7.840   2.467   5.519
 6897TIP3    H220633   7.718   2.438   5.435
 6898TIP3   OH220634   3.074   2.130   3.879
 6898TIP3    H120635   3.038   2.202   3.827
 6898TIP3    H220636   3.010   2.059   3.868
 6899TIP3   OH220637   7.817   4.106   5.298
 6899TIP3    H120638   7.851   4.060   5.221
 6899TIP3    H220639   7.810   4.198   5.270
 6900TIP3   OH220640   4.949   7.201   4.003
 6900TIP3    H120641   4.878   7.175   4.062
 6900TIP3    H220642   4.904   7.236   3.926
 6901TIP3   OH220643   6.685   4.794   2.269
 6901TIP3    H120644   6.756   4.857   2.279
 6901TIP3    H220645   6.656   4.775   2.358
 6902TIP3   OH220646   6.322   4.475   1.096
 6902TIP3    H120647   6.237   4.502   1.130
 6902TIP3    H220648   6.303   4.443   1.007
 6903TIP3   OH220649   5.769   3.701   2.070
 6903TIP3    H120650   5.707   3.646   2.119
 6903TIP3    H220651   5.751   3.790   2.101
 6904TIP3   OH220652   3.750   1.345   2.871
 6904TIP3    H120653   3.682   1.411   2.857
 6904TIP3    H220654   3.737   1.281   2.801
 6905TIP3   OH220655   7.400   0.781   0.796
 6905TIP3    H120656   7.428   0.872   0.784
 6905TIP3    H220657   7.383   0.750   0.708
 6906TIP3   OH220658   6.926   1.158   1.507
 6906TIP3    H120659   6.992   1.089   1.501
 6906TIP3    H220660   6.862   1.136   1.439
 6907TIP3   OH220661   3.061   3.603   0.423
 6907TIP3    H120662   3.029   3.635   0.507
 6907TIP3    H220663   2.982   3.581   0.374
 6908TIP3   OH220664   1.522   6.504   5.345
 6908TIP3    H120665   1.584   6.485   5.415
 6908TIP3    H220666   1.521   6.600   5.339
 6909TIP3   OH220667   2.575   4.744   0.957
 6909TIP3    H120668   2.584   4.830   0.996
 6909TIP3    H220669   2.576   4.683   1.031
 6910TIP3   OH220670   7.038   3.035   1.754
 6910TIP3    H120671   6.963   2.992   1.796
 6910TIP3    H220672   7.095   3.059   1.827
 6911TIP3   OH220673   1.474   6.751   2.226
 6911TIP3    H120674   1.427   6.809   2.285
 6911TIP3    H220675   1.521   6.810   2.167
 6912TIP3   OH220676   5.447   6.692   2.500
 6912TIP3    H120677   5.506   6.724   2.569
 6912TIP3    H220678   5.492   6.713   2.419
 6913TIP3   OH220679   2.793   6.944   3.697
 6913TIP3    H120680   2.841   7.011   3.648
 6913TIP3    H220681   2.848   6.866   3.689
 6914TIP3   OH220682   2.788   1.215   5.722
 6914TIP3    H120683   2.861   1.170   5.765
 6914TIP3    H220684   2.719   1.149   5.718
 6915TIP3   OH220685   7.509   2.706   3.264
 6915TIP3    H120686   7.591   2.733   3.305
 6915TIP3    H220687   7.496   2.615   3.291
 6916TIP3   OH220688   5.850   6.051   1.557
 6916TIP3    H120689   5.766   6.091   1.538
 6916TIP3    H220690   5.914   6.107   1.513
 6917TIP3   OH220691   0.377   0.557   6.566
 6917TIP3    H120692   0.401   0.614   6.639
 6917TIP3    H220693   0.328   0.615   6.507
 6918TIP3   OH220694   3.316   2.690   3.030
 6918TIP3    H120695   3.336   2.783   3.043
 6918TIP3    H220696   3.289   2.684   2.938
 6919TIP3   OH220697   2.311   2.253   6.518
 6919TIP3    H120698   2.218   2.274   6.528
 6919TIP3    H220699   2.354   2.338   6.505
 6920TIP3   OH220700   5.635   1.409   0.937
 6920TIP3    H120701   5.584   1.361   1.003
 6920TIP3    H220702   5.572   1.430   0.868
 6921TIP3   OH220703   6.258   3.883   1.536
 6921TIP3    H120704   6.344   3.853   1.508
 6921TIP3    H220705   6.196   3.837   1.480
 6922TIP3   OH220706   5.870   0.785   1.253
 6922TIP3    H120707   5.832   0.796   1.340
 6922TIP3    H220708   5.963   0.768   1.268
 6923TIP3   OH220709   0.337   7.488   2.649
 6923TIP3    H120710   0.422   7.529   2.664
 6923TIP3    H220711   0.358   7.407   2.602
 6924TIP3   OH220712   6.476   1.472   1.510
 6924TIP3    H120713   6.457   1.423   1.430
 6924TIP3    H220714   6.464   1.409   1.580
 6925TIP3   OH220715   1.638   1.734   1.247
 6925TIP3    H120716   1.657   1.650   1.205
 6925TIP3    H220717   1.710   1.747   1.308
 6926TIP3   OH220718   3.543   6.833   4.101
 6926TIP3    H120719   3.608   6.899   4.075
 6926TIP3    H220720   3.591   6.774   4.158
 6927TIP3   OH220721   1.467   5.091   5.900
 6927TIP3    H120722   1.520   5.156   5.855
 6927TIP3    H220723   1.434   5.135   5.978
 6928TIP3   OH220724   4.848   4.996   1.992
 6928TIP3    H120725   4.909   5.056   1.948
 6928TIP3    H220726   4.814   4.941   1.922
 6929TIP3   OH220727   8.020   0.458   5.425
 6929TIP3    H120728   8.028   0.551   5.401
 6929TIP3    H220729   7.968   0.458   5.505
 6930TIP3   OH220730   3.437   7.479   0.808
 6930TIP3    H120731   3.382   7.409   0.843
 6930TIP3    H220732   3.527   7.449   0.822
 6931TIP3   OH220733   1.015   0.187   6.420
 6931TIP3    H120734   1.069   0.220   6.492
 6931TIP3    H220735   1.001   0.095   6.441
 6932TIP3   OH220736   0.090   1.622   4.354
 6932TIP3    H120737   0.156   1.690   4.341
 6932TIP3    H220738   0.137   1.540   4.339
 6933TIP3   OH220739   7.699   6.414   0.086
 6933TIP3    H120740   7.757   6.376   0.151
 6933TIP3    H220741   7.668   6.495   0.126
 6934TIP3   OH220742   3.063   6.361   2.509
 6934TIP3    H120743   2.980   6.349   2.554
 6934TIP3    H220744   3.041   6.363   2.416
 6935TIP3   OH220745   7.497   0.577   1.002
 6935TIP3    H120746   7.473   0.630   0.925
 6935TIP3    H220747   7.588   0.553   0.987
 6936TIP3   OH220748   0.047   1.414   3.491
 6936TIP3    H120749   0.118   1.353   3.512
 6936TIP3    H220750   0.043   1.415   3.396
 6937TIP3   OH220751   6.779   1.652   1.279
 6937TIP3    H120752   6.722   1.576   1.270
 6937TIP3    H220753   6.858   1.630   1.230
 6938TIP3   OH220754   7.030   7.166   2.512
 6938TIP3    H120755   6.955   7.224   2.499
 6938TIP3    H220756   7.010   7.089   2.459
 6939TIP3   OH220757   2.560   3.509   5.538
 6939TIP3    H120758   2.566   3.536   5.629
 6939TIP3    H220759   2.572   3.414   5.539
 6940TIP3   OH220760   0.949   4.775   4.402
 6940TIP3    H120761   1.009   4.743   4.335
 6940TIP3    H220762   0.984   4.741   4.484
 6941TIP3   OH220763   3.571   1.832   4.726
 6941TIP3    H120764   3.539   1.907   4.676
 6941TIP3    H220765   3.556   1.757   4.669
 6942TIP3   OH220766   4.461   4.951   6.305
 6942TIP3    H120767   4.513   4.957   6.385
 6942TIP3    H220768   4.443   4.857   6.294
 6943TIP3   OH220769   1.255   6.172   1.358
 6943TIP3    H120770   1.286   6.212   1.439
 6943TIP3    H220771   1.267   6.239   1.291
 6944TIP3   OH220772   7.495   5.412   1.639
 6944TIP3    H120773   7.467   5.470   1.710
 6944TIP3    H220774   7.590   5.405   1.651
 6945TIP3   OH220775   2.491   2.971   6.577
 6945TIP3    H120776   2.400   2.946   6.562
 6945TIP3    H220777   2.486   3.063   6.606
 6946TIP3   OH220778   0.022   2.388   5.838
 6946TIP3    H120779   0.016   2.366   5.745
 6946TIP3    H220780   0.115   2.403   5.853
 6947TIP3   OH220781   7.834   1.161   3.699
 6947TIP3    H120782   7.840   1.256   3.699
 6947TIP3    H220783   7.863   1.135   3.612
 6948TIP3   OH220784   7.753   5.382   1.685
 6948TIP3    H120785   7.814   5.355   1.753
 6948TIP3    H220786   7.792   5.461   1.648
 6949TIP3   OH220787   3.947   6.769   6.680
 6949TIP3    H120788   3.964   6.863   6.667
 6949TIP3    H220789   3.977   6.752   6.769
 6950TIP3   OH220790   5.809   2.490   5.121
 6950TIP3    H120791   5.858   2.496   5.039
 6950TIP3    H220792   5.870   2.522   5.187
 6951TIP3   OH220793   8.370   1.720   6.620
 6951TIP3    H120794   8.439   1.775   6.581
 6951TIP3    H220795   8.309   1.704   6.548
 6952TIP3   OH220796   7.106   2.536   2.631
 6952TIP3    H120797   7.182   2.500   2.676
 6952TIP3    H220798   7.036   2.534   2.697
 6953TIP3   OH220799   1.568   2.832   3.312
 6953TIP3    H120800   1.522   2.796   3.389
 6953TIP3    H220801   1.498   2.862   3.254
 6954TIP3   OH220802   5.249   7.572   4.305
 6954TIP3    H120803   5.302   7.492   4.309
 6954TIP3    H220804   5.197   7.562   4.226
 6955TIP3   OH220805   3.585   7.618   1.076
 6955TIP3    H120806   3.673   7.624   1.113
 6955TIP3    H220807   3.588   7.673   0.998
 6956TIP3   OH220808   2.061   1.375   0.785
 6956TIP3    H120809   1.966   1.378   0.795
 6956TIP3    H220810   2.075   1.341   0.697
 6957TIP3   OH220811   1.604   4.298   2.206
 6957TIP3    H120812   1.581   4.389   2.226
 6957TIP3    H220813   1.678   4.305   2.146
 6958TIP3   OH220814   4.510   5.517   1.368
 6958TIP3    H120815   4.451   5.588   1.343
 6958TIP3    H220816   4.469   5.438   1.334
 6959TIP3   OH220817   6.796   2.196   0.435
 6959TIP3    H120818   6.795   2.112   0.482
 6959TIP3    H220819   6.845   2.178   0.354
 6960TIP3   OH220820   6.461   4.223   3.638
 6960TIP3    H120821   6.445   4.258   3.551
 6960TIP3    H220822   6.409   4.278   3.696
 6961TIP3   OH220823   4.556   1.229   6.613
 6961TIP3    H120824   4.608   1.252   6.536
 6961TIP3    H220825   4.550   1.311   6.663
 6962TIP3   OH220826   0.438   2.426   0.976
 6962TIP3    H120827   0.356   2.448   0.933
 6962TIP3    H220828   0.472   2.509   1.009
 6963TIP3   OH220829   5.179   3.399   5.932
 6963TIP3    H120830   5.237   3.435   5.999
 6963TIP3    H220831   5.213   3.433   5.849
 6964TIP3   OH220832   6.881   6.578   3.282
 6964TIP3    H120833   6.976   6.586   3.288
 6964TIP3    H220834   6.854   6.653   3.228
 6965TIP3   OH220835   1.150   6.113   6.509
 6965TIP3    H120836   1.228   6.078   6.551
 6965TIP3    H220837   1.176   6.199   6.477
 6966TIP3   OH220838   1.324   3.421   1.365
 6966TIP3    H120839   1.400   3.376   1.402
 6966TIP3    H220840   1.250   3.393   1.418
 6967TIP3   OH220841   8.266   4.024   3.582
 6967TIP3    H120842   8.172   4.015   3.567
 6967TIP3    H220843   8.300   3.935   3.574
 6968TIP3   OH220844   4.832   6.000   2.756
 6968TIP3    H120845   4.904   6.063   2.758
 6968TIP3    H220846   4.755   6.051   2.733
 6969TIP3   OH220847   8.172   4.678   6.432
 6969TIP3    H120848   8.143   4.769   6.429
 6969TIP3    H220849   8.267   4.684   6.442
 6970TIP3   OH220850   3.850   2.885   6.528
 6970TIP3    H120851   3.918   2.859   6.590
 6970TIP3    H220852   3.838   2.807   6.473
 6971TIP3   OH220853   3.603   6.792   5.720
 6971TIP3    H120854   3.538   6.768   5.654
 6971TIP3    H220855   3.653   6.712   5.735
 6972TIP3   OH220856   3.275   5.396   5.893
 6972TIP3    H120857   3.315   5.430   5.813
 6972TIP3    H220858   3.320   5.441   5.964
 6973TIP3   OH220859   0.229   5.965   2.184
 6973TIP3    H120860   0.170   6.035   2.212
 6973TIP3    H220861   0.281   6.003   2.113
 6974TIP3   OH220862   5.534   2.830   0.447
 6974TIP3    H120863   5.451   2.805   0.406
 6974TIP3    H220864   5.574   2.891   0.384
 6975TIP3   OH220865   7.106   1.165   0.502
 6975TIP3    H120866   7.020   1.179   0.462
 6975TIP3    H220867   7.163   1.227   0.458
 6976TIP3   OH220868   8.051   7.255   1.610
 6976TIP3    H120869   7.993   7.184   1.582
 6976TIP3    H220870   8.019   7.280   1.697
 6977TIP3   OH220871   0.735   0.168   4.264
 6977TIP3    H120872   0.684   0.245   4.240
 6977TIP3    H220873   0.786   0.194   4.340
 6978TIP3   OH220874   1.746   0.312   3.910
 6978TIP3    H120875   1.678   0.246   3.923
 6978TIP3    H220876   1.704   0.380   3.857
 6979TIP3   OH220877   8.337   0.039   4.261
 6979TIP3    H120878   8.265   0.044   4.198
 6979TIP3    H220879   8.413   0.071   4.213
 6980TIP3   OH220880   5.525   6.261   1.762
 6980TIP3    H120881   5.610   6.242   1.803
 6980TIP3    H220882   5.475   6.305   1.831
 6981TIP3   OH220883   0.672   0.051   2.929
 6981TIP3    H120884   0.624   0.008   3.001
 6981TIP3    H220885   0.759   0.068   2.966
 6982TIP3   OH220886   3.961   0.850   1.514
 6982TIP3    H120887   4.028   0.916   1.532
 6982TIP3    H220888   3.961   0.842   1.419
 6983TIP3   OH220889   5.440   3.658   2.818
 6983TIP3    H120890   5.417   3.567   2.800
 6983TIP3    H220891   5.358   3.698   2.847
 6984TIP3   OH220892   1.341   0.938   3.514
 6984TIP3    H120893   1.360   1.008   3.577
 6984TIP3    H220894   1.259   0.965   3.473
 6985TIP3   OH220895   3.183   5.014   4.055
 6985TIP3    H120896   3.141   4.929   4.070
 6985TIP3    H220897   3.120   5.079   4.085
 6986TIP3   OH220898   2.444   2.732   1.522
 6986TIP3    H120899   2.454   2.808   1.580
 6986TIP3    H220900   2.530   2.692   1.520
 6987TIP3   OH220901   1.313   6.389   0.794
 6987TIP3    H120902   1.273   6.459   0.742
 6987TIP3    H220903   1.407   6.400   0.782
 6988TIP3   OH220904   3.458   1.733   2.144
 6988TIP3    H120905   3.547   1.732   2.179
 6988TIP3    H220906   3.443   1.643   2.114
 6989TIP3   OH220907   1.947   1.772   6.501
 6989TIP3    H120908   1.877   1.707   6.496
 6989TIP3    H220909   2.024   1.722   6.526
 6990TIP3   OH220910   3.996   1.237   5.009
 6990TIP3    H120911   3.997   1.263   4.917
 6990TIP3    H220912   4.065   1.170   5.016
 6991TIP3   OH220913   3.740   4.506   2.974
 6991TIP3    H120914   3.766   4.435   2.915
 6991TIP3    H220915   3.698   4.571   2.916
 6992TIP3   OH220916   0.399   6.226   2.570
 6992TIP3    H120917   0.484   6.188   2.544
 6992TIP3    H220918   0.420   6.316   2.593
 6993TIP3   OH220919   5.730   6.498   2.569
 6993TIP3    H120920   5.643   6.509   2.531
 6993TIP3    H220921   5.790   6.518   2.496
 6994TIP3   OH220922   7.658   3.329   1.642
 6994TIP3    H120923   7.616   3.345   1.558
 6994TIP3    H220924   7.623   3.245   1.671
 6995TIP3   OH220925   7.270   2.720   1.687
 6995TIP3    H120926   7.244   2.631   1.664
 6995TIP3    H220927   7.254   2.771   1.607
 6996TIP3   OH220928   7.501   2.672   4.648
 6996TIP3    H120929   7.550   2.749   4.676
 6996TIP3    H220930   7.555   2.598   4.676
 6997TIP3   OH220931   1.294   2.314   1.735
 6997TIP3    H120932   1.254   2.227   1.730
 6997TIP3    H220933   1.271   2.346   1.822
 6998TIP3   OH220934   0.732   3.774   4.745
 6998TIP3    H120935   0.801   3.836   4.720
 6998TIP3    H220936   0.668   3.828   4.792
 6999TIP3   OH220937   3.414   6.476   6.394
 6999TIP3    H120938   3.340   6.416   6.389
 6999TIP3    H220939   3.445   6.469   6.484
 7000TIP3   OH220940   5.724   7.123   5.085
 7000TIP3    H120941   5.713   7.075   5.003
 7000TIP3    H220942   5.813   7.102   5.113
 7001TIP3   OH220943   1.970   7.081   1.416
 7001TIP3    H120944   1.951   7.096   1.323
 7001TIP3    H220945   2.014   7.160   1.444
 7002TIP3   OH220946   3.858   0.936   4.079
 7002TIP3    H120947   3.914   0.971   4.009
 7002TIP3    H220948   3.890   0.979   4.158
 7003TIP3   OH220949   6.944   0.112   6.814
 7003TIP3    H120950   6.897   0.084   6.892
 7003TIP3    H220951   7.036   0.094   6.833
 7004TIP3   OH220952   3.518   6.643   1.034
 7004TIP3    H120953   3.514   6.675   0.944
 7004TIP3    H220954   3.502   6.549   1.027
 7005TIP3   OH220955   3.874   6.000   2.404
 7005TIP3    H120956   3.905   5.920   2.361
 7005TIP3    H220957   3.779   5.987   2.411
 7006TIP3   OH220958   6.159   3.204   6.247
 7006TIP3    H120959   6.101   3.278   6.266
 7006TIP3    H220960   6.221   3.237   6.183
 7007TIP3   OH220961   6.124   3.155   4.836
 7007TIP3    H120962   6.219   3.143   4.835
 7007TIP3    H220963   6.110   3.242   4.800
 7008TIP3   OH220964   7.918   4.319   5.572
 7008TIP3    H120965   7.961   4.361   5.497
 7008TIP3    H220966   7.834   4.290   5.537
 7009TIP3   OH220967   6.870   6.863   2.212
 7009TIP3    H120968   6.935   6.864   2.282
 7009TIP3    H220969   6.885   6.944   2.163
 7010TIP3   OH220970   4.004   1.403   6.264
 7010TIP3    H120971   3.958   1.485   6.246
 7010TIP3    H220972   4.087   1.410   6.218
 7011TIP3   OH220973   8.137   6.223   6.610
 7011TIP3    H120974   8.083   6.290   6.652
 7011TIP3    H220975   8.083   6.188   6.539
 7012TIP3   OH220976   3.696   5.547   0.814
 7012TIP3    H120977   3.758   5.618   0.801
 7012TIP3    H220978   3.626   5.585   0.867
 7013TIP3   OH220979   1.436   1.730   3.793
 7013TIP3    H120980   1.489   1.682   3.729
 7013TIP3    H220981   1.359   1.675   3.807
 7014TIP3   OH220982   8.182   1.993   5.734
 7014TIP3    H120983   8.186   1.911   5.783
 7014TIP3    H220984   8.191   1.966   5.642
 7015TIP3   OH220985   8.215   0.824   4.835
 7015TIP3    H120986   8.186   0.835   4.745
 7015TIP3    H220987   8.221   0.730   4.847
 7016TIP3   OH220988   1.215   4.847   1.975
 7016TIP3    H120989   1.196   4.813   2.063
 7016TIP3    H220990   1.129   4.874   1.941
 7017TIP3   OH220991   5.306   4.742   1.904
 7017TIP3    H120992   5.278   4.761   1.814
 7017TIP3    H220993   5.314   4.646   1.907
 7018TIP3   OH220994   1.432   4.856   2.678
 7018TIP3    H120995   1.400   4.835   2.766
 7018TIP3    H220996   1.508   4.913   2.693
 7019TIP3   OH220997   4.355   6.599   3.980
 7019TIP3    H120998   4.279   6.630   3.931
 7019TIP3    H220999   4.407   6.677   3.998
 7020TIP3   OH221000   3.847   2.707   4.360
 7020TIP3    H121001   3.877   2.781   4.308
 7020TIP3    H221002   3.844   2.634   4.299
 7021TIP3   OH221003   2.634   1.813   0.917
 7021TIP3    H121004   2.619   1.723   0.888
 7021TIP3    H221005   2.593   1.867   0.849
 7022TIP3   OH221006   3.502   2.581   4.313
 7022TIP3    H121007   3.474   2.511   4.253
 7022TIP3    H221008   3.487   2.545   4.400
 7023TIP3   OH221009   5.014   1.667   0.065
 7023TIP3    H121010   4.956   1.744   0.072
 7023TIP3    H221011   5.054   1.675  -0.021
 7024TIP3   OH221012   3.346   4.490   1.995
 7024TIP3    H121013   3.342   4.585   1.979
 7024TIP3    H221014   3.257   4.459   1.976
 7025TIP3   OH221015   1.173   6.391   6.395
 7025TIP3    H121016   1.199   6.482   6.406
 7025TIP3    H221017   1.156   6.382   6.301
 7026TIP3   OH221018   3.371   3.745   0.313
 7026TIP3    H121019   3.295   3.802   0.300
 7026TIP3    H221020   3.445   3.805   0.321
 7027TIP3   OH221021   6.296   6.523   6.147
 7027TIP3    H121022   6.230   6.532   6.078
 7027TIP3    H221023   6.364   6.468   6.109
 7028TIP3   OH221024   5.913   4.843   1.067
 7028TIP3    H121025   5.880   4.789   0.995
 7028TIP3    H221026   5.857   4.820   1.141
 7029TIP3   OH221027   0.166   0.496   5.351
 7029TIP3    H121028   0.246   0.546   5.365
 7029TIP3    H221029   0.095   0.557   5.369
 7030TIP3   OH221030   4.407   5.623   2.293
 7030TIP3    H121031   4.347   5.665   2.355
 7030TIP3    H221032   4.461   5.695   2.259
 7031TIP3   OH221033   6.140   1.395   1.701
 7031TIP3    H121034   6.101   1.404   1.615
 7031TIP3    H221035   6.071   1.360   1.756
 7032TIP3   OH221036   3.275   0.398   4.718
 7032TIP3    H121037   3.342   0.467   4.716
 7032TIP3    H221038   3.197   0.442   4.752
 7033TIP3   OH221039   0.711   4.048   6.335
 7033TIP3    H121040   0.661   4.107   6.277
 7033TIP3    H221041   0.797   4.088   6.341
 7034TIP3   OH221042   8.321   4.883   2.454
 7034TIP3    H121043   8.364   4.837   2.526
 7034TIP3    H221044   8.307   4.972   2.486
 7035TIP3   OH221045   2.017   7.752   3.054
 7035TIP3    H121046   2.090   7.734   2.996
 7035TIP3    H221047   2.054   7.811   3.121
 7036TIP3   OH221048   6.489   7.214   6.473
 7036TIP3    H121049   6.482   7.306   6.447
 7036TIP3    H221050   6.399   7.185   6.484
 7037TIP3   OH221051   0.639   2.825   5.702
 7037TIP3    H121052   0.607   2.740   5.671
 7037TIP3    H221053   0.683   2.863   5.626
 7038TIP3   OH221054   8.116   4.413   0.140
 7038TIP3    H121055   8.103   4.319   0.152
 7038TIP3    H221056   8.207   4.428   0.168
 7039TIP3   OH221057   4.199   0.044   4.509
 7039TIP3    H121058   4.212  -0.049   4.491
 7039TIP3    H221059   4.135   0.072   4.444
 7040TIP3   OH221060   0.139   1.914   6.830
 7040TIP3    H121061   0.158   1.986   6.770
 7040TIP3    H221062   0.149   1.835   6.777
 7041TIP3   OH221063   1.726   2.944   1.479
 7041TIP3    H121064   1.800   2.887   1.499
 7041TIP3    H221065   1.765   3.021   1.437
 7042TIP3   OH221066   1.831   2.430   5.893
 7042TIP3    H121067   1.752   2.376   5.897
 7042TIP3    H221068   1.865   2.431   5.982
 7043TIP3   OH221069   1.330   1.885   1.070
 7043TIP3    H121070   1.408   1.936   1.049
 7043TIP3    H221071   1.350   1.844   1.154
 7044TIP3   OH221072   7.200   3.349   1.447
 7044TIP3    H121073   7.105   3.355   1.455
 7044TIP3    H221074   7.232   3.356   1.536
 7045TIP3   OH221075   6.956   7.076   3.639
 7045TIP3    H121076   6.975   6.985   3.620
 7045TIP3    H221077   6.973   7.086   3.733
 7046TIP3   OH221078   0.108   7.885   3.484
 7046TIP3    H121079   0.039   7.837   3.529
 7046TIP3    H221080   0.095   7.866   3.391
 7047TIP3   OH221081   3.216   0.498   5.462
 7047TIP3    H121082   3.219   0.591   5.437
 7047TIP3    H221083   3.123   0.474   5.452
 7048TIP3   OH221084   6.585   2.884   5.815
 7048TIP3    H121085   6.629   2.969   5.818
 7048TIP3    H221086   6.639   2.827   5.871
 7049TIP3   OH221087   8.209   2.719   2.271
 7049TIP3    H121088   8.156   2.652   2.314
 7049TIP3    H221089   8.292   2.717   2.318
 7050TIP3   OH221090   1.317   6.572   4.379
 7050TIP3    H121091   1.305   6.533   4.466
 7050TIP3    H221092   1.335   6.498   4.322
 7051TIP3   OH221093   3.178   4.560   2.937
 7051TIP3    H121094   3.124   4.485   2.965
 7051TIP3    H221095   3.254   4.557   2.996
 7052TIP3   OH221096   1.102   0.704   3.092
 7052TIP3    H121097   1.050   0.766   3.040
 7052TIP3    H221098   1.037   0.662   3.149
 7053TIP3   OH221099   6.586   6.890   4.934
 7053TIP3    H121100   6.498   6.924   4.950
 7053TIP3    H221101   6.641   6.967   4.926
 7054TIP3   OH221102   8.318   2.135   0.153
 7054TIP3    H121103   8.264   2.064   0.186
 7054TIP3    H221104   8.270   2.167   0.076
 7055TIP3   OH221105   0.728   7.399   0.373
 7055TIP3    H121106   0.735   7.352   0.456
 7055TIP3    H221107   0.748   7.332   0.307
 7056TIP3   OH221108   2.746   6.939   4.963
 7056TIP3    H121109   2.651   6.931   4.974
 7056TIP3    H221110   2.779   6.954   5.051
 7057TIP3   OH221111   8.364   1.787   0.527
 7057TIP3    H121112   8.417   1.836   0.589
 7057TIP3    H221113   8.418   1.783   0.448
 7058TIP3   OH221114   1.572   5.155   4.744
 7058TIP3    H121115   1.562   5.211   4.821
 7058TIP3    H221116   1.485   5.152   4.705
 7059TIP3   OH221117   4.260   2.605   3.186
 7059TIP3    H121118   4.249   2.589   3.279
 7059TIP3    H221119   4.342   2.560   3.163
 7060TIP3   OH221120   2.730   2.100   6.673
 7060TIP3    H121121   2.664   2.078   6.607
 7060TIP3    H221122   2.680   2.107   6.754
 7061TIP3   OH221123   3.272   3.415   4.994
 7061TIP3    H121124   3.314   3.366   5.065
 7061TIP3    H221125   3.186   3.376   4.984
 7062TIP3   OH221126   3.931   3.111   5.955
 7062TIP3    H121127   4.001   3.151   5.904
 7062TIP3    H221128   3.872   3.074   5.889
 7063TIP3   OH221129   1.776   2.069   1.146
 7063TIP3    H121130   1.773   2.104   1.236
 7063TIP3    H221131   1.866   2.040   1.134
 7064TIP3   OH221132   3.577   2.216   5.017
 7064TIP3    H121133   3.503   2.201   4.959
 7064TIP3    H221134   3.650   2.169   4.976
 7065TIP3   OH221135   3.144   4.087   4.921
 7065TIP3    H121136   3.123   4.111   4.831
 7065TIP3    H221137   3.124   3.994   4.926
 7066TIP3   OH221138   0.091   7.718   4.229
 7066TIP3    H121139   0.181   7.697   4.252
 7066TIP3    H221140   0.071   7.659   4.155
 7067TIP3   OH221141   1.570   2.231   3.936
 7067TIP3    H121142   1.637   2.253   4.000
 7067TIP3    H221143   1.569   2.135   3.934
 7068TIP3   OH221144   3.291   0.548   1.433
 7068TIP3    H121145   3.321   0.613   1.370
 7068TIP3    H221146   3.215   0.507   1.392
 7069TIP3   OH221147   1.815   1.703   2.079
 7069TIP3    H121148   1.872   1.687   2.154
 7069TIP3    H221149   1.732   1.661   2.103
 7070TIP3   OH221150   0.570   3.891   0.956
 7070TIP3    H121151   0.609   3.804   0.950
 7070TIP3    H221152   0.525   3.904   0.873
 7071TIP3   OH221153   0.400   1.033   0.708
 7071TIP3    H121154   0.364   0.979   0.638
 7071TIP3    H221155   0.389   0.981   0.787
 7072TIP3   OH221156   0.113   2.881   5.294
 7072TIP3    H121157   0.094   2.844   5.208
 7072TIP3    H221158   0.138   2.806   5.348
 7073TIP3   OH221159   0.691   6.384   5.401
 7073TIP3    H121160   0.624   6.377   5.468
 7073TIP3    H221161   0.764   6.429   5.444
 7074TIP3   OH221162   4.041   1.499   0.080
 7074TIP3    H121163   4.057   1.405   0.075
 7074TIP3    H221164   4.028   1.526  -0.011
 7075TIP3   OH221165   3.020   2.916   3.026
 7075TIP3    H121166   2.987   2.998   2.988
 7075TIP3    H221167   3.093   2.943   3.082
 7076TIP3   OH221168   7.475   7.315   1.694
 7076TIP3    H121169   7.554   7.369   1.692
 7076TIP3    H221170   7.455   7.298   1.602
 7077TIP3   OH221171   7.183   5.472   1.037
 7077TIP3    H121172   7.118   5.487   1.106
 7077TIP3    H221173   7.229   5.556   1.029
 7078TIP3   OH221174   5.823   3.670   3.208
 7078TIP3    H121175   5.826   3.737   3.276
 7078TIP3    H221176   5.731   3.645   3.202
 7079TIP3   OH221177   7.336   1.572   1.104
 7079TIP3    H121178   7.357   1.639   1.038
 7079TIP3    H221179   7.422   1.542   1.135
 7080TIP3   OH221180   1.503   2.480   6.073
 7080TIP3    H121181   1.523   2.556   6.018
 7080TIP3    H221182   1.407   2.481   6.080
 7081TIP3   OH221183   4.657   7.068   1.488
 7081TIP3    H121184   4.579   7.054   1.435
 7081TIP3    H221185   4.729   7.032   1.435
 7082TIP3   OH221186   1.327   1.349   0.392
 7082TIP3    H121187   1.258   1.412   0.368
 7082TIP3    H221188   1.282   1.265   0.392
 7083TIP3   OH221189   5.813   6.940   4.865
 7083TIP3    H121190   5.887   6.879   4.869
 7083TIP3    H221191   5.761   6.910   4.791
 7084TIP3   OH221192   4.743   7.702   0.490
 7084TIP3    H121193   4.650   7.722   0.479
 7084TIP3    H221194   4.788   7.779   0.456
 7085TIP3   OH221195   5.143   2.272   2.033
 7085TIP3    H121196   5.143   2.185   1.992
 7085TIP3    H221197   5.142   2.333   1.959
 7086TIP3   OH221198   8.142   6.166   5.841
 7086TIP3    H121199   8.221   6.164   5.787
 7086TIP3    H221200   8.173   6.144   5.929
 7087TIP3   OH221201   6.202   5.673   3.996
 7087TIP3    H121202   6.201   5.751   4.050
 7087TIP3    H221203   6.295   5.650   3.989
 7088TIP3   OH221204   0.648   7.187   2.888
 7088TIP3    H121205   0.656   7.150   2.800
 7088TIP3    H221206   0.705   7.264   2.886
 7089TIP3   OH221207   7.555   3.670   1.471
 7089TIP3    H121208   7.491   3.678   1.542
 7089TIP3    H221209   7.524   3.597   1.419
 7090TIP3   OH221210   5.815   1.662   1.306
 7090TIP3    H121211   5.898   1.704   1.286
 7090TIP3    H221212   5.768   1.727   1.359
 7091TIP3   OH221213   3.537   4.129   0.529
 7091TIP3    H121214   3.536   4.156   0.621
 7091TIP3    H221215   3.623   4.088   0.517
 7092TIP3   OH221216   5.735   3.953   2.180
 7092TIP3    H121217   5.681   4.022   2.142
 7092TIP3    H221218   5.729   3.967   2.274
 7093TIP3   OH221219   2.581   3.995   4.122
 7093TIP3    H121220   2.524   4.006   4.199
 7093TIP3    H221221   2.623   4.080   4.111
 7094TIP3   OH221222   6.711   6.743   2.582
 7094TIP3    H121223   6.638   6.726   2.642
 7094TIP3    H221224   6.676   6.723   2.495
 7095TIP3   OH221225   6.653   1.358   0.106
 7095TIP3    H121226   6.672   1.310   0.026
 7095TIP3    H221227   6.720   1.427   0.109
 7096TIP3   OH221228   4.901   0.578   4.824
 7096TIP3    H121229   4.933   0.598   4.912
 7096TIP3    H221230   4.955   0.504   4.795
 7097TIP3   OH221231   3.859   6.744   4.044
 7097TIP3    H121232   3.841   6.691   3.967
 7097TIP3    H221233   3.940   6.791   4.024
 7098TIP3   OH221234   0.235   6.495   5.866
 7098TIP3    H121235   0.254   6.507   5.773
 7098TIP3    H221236   0.153   6.541   5.879
 7099TIP3   OH221237   1.826   7.775   2.737
 7099TIP3    H121238   1.732   7.767   2.727
 7099TIP3    H221239   1.838   7.850   2.795
 7100TIP3   OH221240   0.994   4.391   5.551
 7100TIP3    H121241   1.003   4.413   5.458
 7100TIP3    H221242   0.950   4.467   5.589
 7101TIP3   OH221243   4.704   5.634   1.858
 7101TIP3    H121244   4.743   5.561   1.905
 7101TIP3    H221245   4.674   5.694   1.926
 7102TIP3   OH221246   6.871   6.121   1.774
 7102TIP3    H121247   6.819   6.121   1.694
 7102TIP3    H221248   6.810   6.154   1.841
 7103TIP3   OH221249   8.234   6.233   1.534
 7103TIP3    H121250   8.269   6.190   1.612
 7103TIP3    H221251   8.239   6.327   1.554
 7104TIP3   OH221252   6.899   5.880   5.802
 7104TIP3    H121253   6.936   5.894   5.715
 7104TIP3    H221254   6.846   5.801   5.793
 7105TIP3   OH221255   7.985   5.645   5.119
 7105TIP3    H121256   8.046   5.716   5.140
 7105TIP3    H221257   7.964   5.659   5.027
 7106TIP3   OH221258   2.492   3.498   6.484
 7106TIP3    H121259   2.546   3.529   6.556
 7106TIP3    H221260   2.443   3.575   6.455
 7107TIP3   OH221261   6.440   1.522   3.582
 7107TIP3    H121262   6.515   1.526   3.641
 7107TIP3    H221263   6.456   1.446   3.527
 7108TIP3   OH221264   2.310   1.260   3.641
 7108TIP3    H121265   2.338   1.254   3.732
 7108TIP3    H221266   2.390   1.245   3.590
 7109TIP3   OH221267   6.685   6.638   3.776
 7109TIP3    H121268   6.652   6.590   3.700
 7109TIP3    H221269   6.608   6.682   3.812
 7110TIP3   OH221270   4.230   4.279   4.323
 7110TIP3    H121271   4.300   4.223   4.358
 7110TIP3    H221272   4.275   4.337   4.261
 7111TIP3   OH221273   1.261   3.260   0.354
 7111TIP3    H121274   1.273   3.166   0.337
 7111TIP3    H221275   1.289   3.272   0.445
 7112TIP3   OH221276   2.929   7.612   1.306
 7112TIP3    H121277   2.953   7.644   1.393
 7112TIP3    H221278   2.882   7.531   1.322
 7113TIP3   OH221279   2.887   0.969   3.119
 7113TIP3    H121280   2.899   1.003   3.030
 7113TIP3    H221281   2.816   0.905   3.110
 7114TIP3   OH221282   4.986   7.450   1.668
 7114TIP3    H121283   5.046   7.382   1.697
 7114TIP3    H221284   5.028   7.490   1.592
 7115TIP3   OH221285   1.574   7.046   2.437
 7115TIP3    H121286   1.484   7.049   2.470
 7115TIP3    H221287   1.565   7.058   2.343
 7116TIP3   OH221288   8.058   4.352   1.449
 7116TIP3    H121289   8.083   4.432   1.495
 7116TIP3    H221290   8.054   4.285   1.517
 7117TIP3   OH221291   0.813   7.122   3.982
 7117TIP3    H121292   0.799   7.122   4.077
 7117TIP3    H221293   0.737   7.075   3.947
 7118TIP3   OH221294   3.314   2.125   4.895
 7118TIP3    H121295   3.290   2.211   4.928
 7118TIP3    H221296   3.231   2.083   4.874
 7119TIP3   OH221297   3.213   2.817   1.639
 7119TIP3    H121298   3.166   2.733   1.638
 7119TIP3    H221299   3.221   2.839   1.732
 7120TIP3   OH221300   0.481   7.072   0.993
 7120TIP3    H121301   0.409   7.027   0.950
 7120TIP3    H221302   0.549   7.077   0.925
 7121TIP3   OH221303   7.729   6.726   6.059
 7121TIP3    H121304   7.687   6.801   6.018
 7121TIP3    H221305   7.817   6.757   6.082
 7122TIP3   OH221306   3.810   6.229   5.265
 7122TIP3    H121307   3.903   6.250   5.264
 7122TIP3    H221308   3.770   6.297   5.211
 7123TIP3   OH221309   7.360   7.562   6.615
 7123TIP3    H121310   7.265   7.576   6.610
 7123TIP3    H221311   7.394   7.640   6.659
 7124TIP3   OH221312   7.643   0.301   5.058
 7124TIP3    H121313   7.596   0.242   4.999
 7124TIP3    H221314   7.574   0.348   5.104
 7125TIP3   OH221315   2.175   1.757   1.499
 7125TIP3    H121316   2.235   1.716   1.561
 7125TIP3    H221317   2.171   1.696   1.425
 7126TIP3   OH221318   7.042   7.472   0.261
 7126TIP3    H121319   7.032   7.396   0.204
 7126TIP3    H221320   7.092   7.440   0.336
 7127TIP3   OH221321   1.095   5.217   2.005
 7127TIP3    H121322   1.069   5.272   1.931
 7127TIP3    H221323   1.182   5.186   1.983
 7128TIP3   OH221324   2.296   4.193   3.143
 7128TIP3    H121325   2.360   4.133   3.104
 7128TIP3    H221326   2.344   4.276   3.151
 7129TIP3   OH221327   1.458   3.947   1.285
 7129TIP3    H121328   1.409   3.865   1.288
 7129TIP3    H221329   1.500   3.947   1.199
 7130TIP3   OH221330   0.854   0.301   3.838
 7130TIP3    H121331   0.828   0.241   3.767
 7130TIP3    H221332   0.829   0.254   3.918
 7131TIP3   OH221333   1.489   0.824   4.513
 7131TIP3    H121334   1.422   0.893   4.510
 7131TIP3    H221335   1.474   0.773   4.433
 7132TIP3   OH221336   2.007   7.326   3.556
 7132TIP3    H121337   2.048   7.401   3.514
 7132TIP3    H221338   1.991   7.264   3.485
 7133TIP3   OH221339   0.208   4.951   1.419
 7133TIP3    H121340   0.169   4.898   1.488
 7133TIP3    H221341   0.134   4.992   1.375
 7134TIP3   OH221342   2.155   3.299   0.899
 7134TIP3    H121343   2.139   3.393   0.899
 7134TIP3    H221344   2.120   3.269   0.815
 7135TIP3   OH221345   4.067   4.536   0.030
 7135TIP3    H121346   4.149   4.535   0.080
 7135TIP3    H221347   4.088   4.587  -0.048
 7136TIP3   OH221348   4.184   5.233   5.150
 7136TIP3    H121349   4.240   5.311   5.150
 7136TIP3    H221350   4.154   5.224   5.240
 7137TIP3   OH221351   1.765   2.725   1.695
 7137TIP3    H121352   1.744   2.648   1.642
 7137TIP3    H221353   1.838   2.767   1.649
 7138TIP3   OH221354   4.000   6.685   2.598
 7138TIP3    H121355   4.026   6.704   2.688
 7138TIP3    H221356   4.072   6.634   2.562
 7139TIP3   OH221357   4.565   3.262   4.913
 7139TIP3    H121358   4.616   3.231   4.987
 7139TIP3    H221359   4.602   3.216   4.837
 7140TIP3   OH221360   1.555   2.152   2.672
 7140TIP3    H121361   1.573   2.139   2.765
 7140TIP3    H221362   1.640   2.140   2.629
 7141TIP3   OH221363   1.206   1.925   0.817
 7141TIP3    H121364   1.237   1.903   0.904
 7141TIP3    H221365   1.218   2.020   0.811
 7142TIP3   OH221366   1.547   0.867   3.157
 7142TIP3    H121367   1.617   0.824   3.107
 7142TIP3    H221368   1.470   0.813   3.142
 7143TIP3   OH221369   7.498   4.407   1.621
 7143TIP3    H121370   7.526   4.439   1.706
 7143TIP3    H221371   7.578   4.375   1.579
 7144TIP3   OH221372   5.053   0.440   6.400
 7144TIP3    H121373   5.095   0.367   6.355
 7144TIP3    H221374   4.965   0.444   6.362
 7145TIP3   OH221375   2.133   5.606   6.240
 7145TIP3    H121376   2.078   5.651   6.176
 7145TIP3    H221377   2.118   5.512   6.224
 7146TIP3   OH221378   4.513   7.402   2.329
 7146TIP3    H121379   4.558   7.381   2.410
 7146TIP3    H221380   4.420   7.405   2.353
 7147TIP3   OH221381   7.314   1.837   2.250
 7147TIP3    H121382   7.408   1.823   2.243
 7147TIP3    H221383   7.290   1.885   2.172
 7148TIP3   OH221384   6.653   7.417   3.750
 7148TIP3    H121385   6.603   7.439   3.671
 7148TIP3    H221386   6.666   7.322   3.744
 7149TIP3   OH221387   5.041   6.541   6.159
 7149TIP3    H121388   5.089   6.524   6.240
 7149TIP3    H221389   5.102   6.516   6.089
 7150TIP3   OH221390   6.722   0.647   4.654
 7150TIP3    H121391   6.698   0.563   4.615
 7150TIP3    H221392   6.817   0.651   4.648
 7151TIP3   OH221393   6.360   5.377   1.806
 7151TIP3    H121394   6.298   5.448   1.822
 7151TIP3    H221395   6.348   5.354   1.714
 7152TIP3   OH221396   0.040   5.123   4.537
 7152TIP3    H121397   0.014   5.034   4.512
 7152TIP3    H221398  -0.040   5.175   4.526
 7153TIP3   OH221399   2.610   1.791   4.760
 7153TIP3    H121400   2.594   1.697   4.768
 7153TIP3    H221401   2.598   1.825   4.849
 7154TIP3   OH221402   0.400   1.580   4.312
 7154TIP3    H121403   0.394   1.532   4.229
 7154TIP3    H221404   0.412   1.671   4.286
 7155TIP3   OH221405   3.141   1.642   4.438
 7155TIP3    H121406   3.223   1.621   4.394
 7155TIP3    H221407   3.167   1.674   4.524
 7156TIP3   OH221408   6.548   4.160   4.289
 7156TIP3    H121409   6.557   4.076   4.334
 7156TIP3    H221410   6.478   4.145   4.225
 7157TIP3   OH221411   2.057   4.723   2.889
 7157TIP3    H121412   2.031   4.796   2.945
 7157TIP3    H221413   1.996   4.726   2.816
 7158TIP3   OH221414   4.262   2.995   3.591
 7158TIP3    H121415   4.201   3.035   3.530
 7158TIP3    H221416   4.280   2.908   3.554
 7159TIP3   OH221417   7.774   5.288   3.063
 7159TIP3    H121418   7.730   5.352   3.120
 7159TIP3    H221419   7.783   5.210   3.117
 7160TIP3   OH221420   0.366   4.148   4.806
 7160TIP3    H121421   0.299   4.207   4.838
 7160TIP3    H221422   0.427   4.204   4.758
 7161TIP3   OH221423   1.202   4.976   2.547
 7161TIP3    H121424   1.129   4.986   2.608
 7161TIP3    H221425   1.268   4.929   2.597
 7162TIP3   OH221426   3.985   2.101   6.692
 7162TIP3    H121427   3.920   2.031   6.701
 7162TIP3    H221428   4.056   2.075   6.752
 7163TIP3   OH221429   4.599   3.475   3.981
 7163TIP3    H121430   4.527   3.441   4.034
 7163TIP3    H221431   4.649   3.397   3.956
 7164TIP3   OH221432   0.353   6.084   0.402
 7164TIP3    H121433   0.427   6.059   0.347
 7164TIP3    H221434   0.380   6.165   0.444
 7165TIP3   OH221435   1.411   7.638   1.607
 7165TIP3    H121436   1.389   7.673   1.693
 7165TIP3    H221437   1.361   7.693   1.546
 7166TIP3   OH221438   2.545   2.320   0.297
 7166TIP3    H121439   2.482   2.250   0.318
 7166TIP3    H221440   2.550   2.320   0.202
 7167TIP3   OH221441   4.478   5.155   4.400
 7167TIP3    H121442   4.475   5.061   4.384
 7167TIP3    H221443   4.388   5.178   4.424
 7168TIP3   OH221444   3.687   1.168   6.862
 7168TIP3    H121445   3.747   1.144   6.791
 7168TIP3    H221446   3.609   1.115   6.846
 7169TIP3   OH221447   3.514   7.370   1.165
 7169TIP3    H121448   3.505   7.458   1.128
 7169TIP3    H221449   3.606   7.365   1.194
 7170TIP3   OH221450   3.658   0.084   2.977
 7170TIP3    H121451   3.752   0.077   2.964
 7170TIP3    H221452   3.631   0.154   2.918
 7171TIP3   OH221453   2.200   4.791   3.898
 7171TIP3    H121454   2.219   4.883   3.879
 7171TIP3    H221455   2.105   4.788   3.910
 7172TIP3   OH221456   0.515   2.644   0.189
 7172TIP3    H121457   0.593   2.590   0.195
 7172TIP3    H221458   0.452   2.603   0.249
 7173TIP3   OH221459   4.706   4.185   4.663
 7173TIP3    H121460   4.671   4.258   4.611
 7173TIP3    H221461   4.798   4.208   4.677
 7174TIP3   OH221462   6.263   5.800   5.692
 7174TIP3    H121463   6.290   5.723   5.643
 7174TIP3    H221464   6.340   5.825   5.743
 7175TIP3   OH221465   7.255   2.524   5.509
 7175TIP3    H121466   7.219   2.526   5.598
 7175TIP3    H221467   7.347   2.547   5.520
 7176TIP3   OH221468   2.984   4.595   0.630
 7176TIP3    H121469   3.044   4.541   0.682
 7176TIP3    H221470   2.902   4.594   0.680
 7177TIP3   OH221471   0.799   6.535   2.513
 7177TIP3    H121472   0.828   6.450   2.546
 7177TIP3    H221473   0.865   6.559   2.449
 7178TIP3   OH221474   0.641   6.748   2.586
 7178TIP3    H121475   0.643   6.763   2.680
 7178TIP3    H221476   0.685   6.664   2.574
 7179TIP3   OH221477   0.313   7.399   1.944
 7179TIP3    H121478   0.254   7.400   2.020
 7179TIP3    H221479   0.400   7.410   1.981
 7180TIP3   OH221480   3.362   2.213   1.146
 7180TIP3    H121481   3.308   2.170   1.213
 7180TIP3    H221482   3.449   2.173   1.157
 7181TIP3   OH221483   5.082   5.818   5.319
 7181TIP3    H121484   5.059   5.731   5.352
 7181TIP3    H221485   5.011   5.841   5.260
 7182TIP3   OH221486   5.166   5.764   0.376
 7182TIP3    H121487   5.144   5.856   0.386
 7182TIP3    H221488   5.122   5.721   0.450
 7183TIP3   OH221489   5.893   4.329   5.878
 7183TIP3    H121490   5.894   4.425   5.877
 7183TIP3    H221491   5.811   4.305   5.835
 7184TIP3   OH221492   5.898   2.910   3.718
 7184TIP3    H121493   5.922   2.881   3.630
 7184TIP3    H221494   5.952   2.856   3.776
 7185TIP3   OH221495   0.953   1.558   1.976
 7185TIP3    H121496   0.879   1.607   1.939
 7185TIP3    H221497   0.954   1.583   2.068
 7186TIP3   OH221498   8.011   2.854   0.833
 7186TIP3    H121499   8.061   2.933   0.856
 7186TIP3    H221500   7.935   2.887   0.785
 7187TIP3   OH221501   0.267   3.083   5.543
 7187TIP3    H121502   0.342   3.071   5.485
 7187TIP3    H221503   0.289   3.161   5.594
 7188TIP3   OH221504   7.424   1.951   2.584
 7188TIP3    H121505   7.382   2.023   2.537
 7188TIP3    H221506   7.415   1.876   2.525
 7189TIP3   OH221507   6.544   5.866   1.398
 7189TIP3    H121508   6.473   5.927   1.377
 7189TIP3    H221509   6.509   5.813   1.470
 7190TIP3   OH221510   4.320   4.960   5.853
 7190TIP3    H121511   4.349   4.871   5.836
 7190TIP3    H221512   4.274   4.955   5.937
 7191TIP3   OH221513   0.268   0.470   5.051
 7191TIP3    H121514   0.199   0.405   5.043
 7191TIP3    H221515   0.222   0.554   5.058
 7192TIP3   OH221516   7.442   7.490   2.983
 7192TIP3    H121517   7.360   7.510   2.938
 7192TIP3    H221518   7.414   7.464   3.071
 7193TIP3   OH221519   6.548   2.513   4.496
 7193TIP3    H121520   6.609   2.562   4.440
 7193TIP3    H221521   6.468   2.566   4.496
 7194TIP3   OH221522   7.296   6.341   5.516
 7194TIP3    H121523   7.253   6.410   5.567
 7194TIP3    H221524   7.280   6.261   5.566
 7195TIP3   OH221525   1.506   1.247   0.591
 7195TIP3    H121526   1.480   1.296   0.513
 7195TIP3    H221527   1.455   1.166   0.586
 7196TIP3   OH221528   0.950   3.383   0.672
 7196TIP3    H121529   0.903   3.312   0.629
 7196TIP3    H221530   0.929   3.372   0.765
 7197TIP3   OH221531   5.976   1.692   0.786
 7197TIP3    H121532   5.915   1.744   0.734
 7197TIP3    H221533   5.929   1.677   0.868
 7198TIP3   OH221534   7.139   2.644   3.839
 7198TIP3    H121535   7.144   2.551   3.861
 7198TIP3    H221536   7.210   2.684   3.888
 7199TIP3   OH221537   3.440   5.575   0.216
 7199TIP3    H121538   3.365   5.615   0.260
 7199TIP3    H221539   3.503   5.558   0.287
 7200TIP3   OH221540   6.380   4.553   1.677
 7200TIP3    H121541   6.474   4.538   1.667
 7200TIP3    H221542   6.353   4.490   1.744
 7201TIP3   OH221543   1.203   6.842   2.851
 7201TIP3    H121544   1.175   6.864   2.940
 7201TIP3    H221545   1.288   6.799   2.863
 7202TIP3   OH221546   6.876   3.822   1.232
 7202TIP3    H121547   6.782   3.807   1.227
 7202TIP3    H221548   6.910   3.745   1.276
 7203TIP3   OH221549   4.522   3.539   0.777
 7203TIP3    H121550   4.560   3.485   0.707
 7203TIP3    H221551   4.498   3.621   0.734
 7204TIP3   OH221552   2.096   5.668   1.002
 7204TIP3    H121553   2.115   5.678   0.909
 7204TIP3    H221554   2.116   5.576   1.020
 7205TIP3   OH221555   2.469   6.718   5.534
 7205TIP3    H121556   2.515   6.718   5.618
 7205TIP3    H221557   2.525   6.770   5.476
 7206TIP3   OH221558   5.032   4.896   3.869
 7206TIP3    H121559   4.968   4.835   3.906
 7206TIP3    H221560   5.058   4.951   3.943
 7207TIP3   OH221561   0.589   1.374   3.198
 7207TIP3    H121562   0.611   1.293   3.152
 7207TIP3    H221563   0.617   1.444   3.138
 7208TIP3   OH221564   1.327   1.111   4.146
 7208TIP3    H121565   1.292   1.145   4.228
 7208TIP3    H221566   1.256   1.057   4.111
 7209TIP3   OH221567   2.019   3.296   5.656
 7209TIP3    H121568   1.926   3.316   5.667
 7209TIP3    H221569   2.064   3.357   5.714
 7210TIP3   OH221570   3.707   5.634   6.380
 7210TIP3    H121571   3.762   5.711   6.398
 7210TIP3    H221572   3.622   5.656   6.416
 7211TIP3   OH221573   2.161   1.011   2.120
 7211TIP3    H121574   2.146   0.930   2.170
 7211TIP3    H221575   2.252   1.034   2.139
 7212TIP3   OH221576   1.289   1.119   1.825
 7212TIP3    H121577   1.260   1.031   1.799
 7212TIP3    H221578   1.264   1.175   1.752
 7213TIP3   OH221579   1.249   6.446   1.504
 7213TIP3    H121580   1.200   6.375   1.546
 7213TIP3    H221581   1.182   6.510   1.480
 7214TIP3   OH221582   0.458   3.367   3.779
 7214TIP3    H121583   0.480   3.310   3.852
 7214TIP3    H221584   0.411   3.311   3.717
 7215TIP3   OH221585   2.248   2.259   2.267
 7215TIP3    H121586   2.187   2.236   2.197
 7215TIP3    H221587   2.326   2.206   2.249
 7216TIP3   OH221588   2.029   2.432   4.903
 7216TIP3    H121589   2.029   2.425   4.998
 7216TIP3    H221590   1.956   2.378   4.875
 7217TIP3   OH221591   5.411   3.165   3.578
 7217TIP3    H121592   5.473   3.238   3.576
 7217TIP3    H221593   5.356   3.182   3.655
 7218TIP3   OH221594   2.603   5.658   5.892
 7218TIP3    H121595   2.622   5.574   5.851
 7218TIP3    H221596   2.512   5.650   5.922
 7219TIP3   OH221597   3.718   5.244   0.868
 7219TIP3    H121598   3.706   5.339   0.871
 7219TIP3    H221599   3.790   5.230   0.806
 7220TIP3   OH221600   3.692   1.503   1.040
 7220TIP3    H121601   3.674   1.425   0.987
 7220TIP3    H221602   3.639   1.491   1.119
 7221TIP3   OH221603   1.398   1.334   3.069
 7221TIP3    H121604   1.466   1.266   3.067
 7221TIP3    H221605   1.400   1.371   2.980
 7222TIP3   OH221606   1.810   7.722   3.792
 7222TIP3    H121607   1.754   7.656   3.753
 7222TIP3    H221608   1.780   7.805   3.755
 7223TIP3   OH221609   1.659   3.753   0.737
 7223TIP3    H121610   1.565   3.735   0.744
 7223TIP3    H221611   1.665   3.847   0.722
 7224TIP3   OH221612   4.571   0.516   4.660
 7224TIP3    H121613   4.602   0.594   4.614
 7224TIP3    H221614   4.483   0.540   4.691
 7225TIP3   OH221615   6.721   4.994   4.501
 7225TIP3    H121616   6.715   5.089   4.514
 7225TIP3    H221617   6.635   4.969   4.467
 7226TIP3   OH221618   5.590   5.732   2.607
 7226TIP3    H121619   5.502   5.769   2.602
 7226TIP3    H221620   5.639   5.777   2.538
 7227TIP3   OH221621   3.545   1.191  -0.006
 7227TIP3    H121622   3.627   1.232   0.020
 7227TIP3    H221623   3.510   1.154   0.075
 7228TIP3   OH221624   3.623   1.884   4.265
 7228TIP3    H121625   3.559   1.933   4.215
 7228TIP3    H221626   3.689   1.948   4.290
 7229TIP3   OH221627   0.153   0.010   1.888
 7229TIP3    H121628   0.077   0.068   1.881
 7229TIP3    H221629   0.212   0.040   1.819
 7230TIP3   OH221630   8.266   5.706   3.166
 7230TIP3    H121631   8.340   5.698   3.106
 7230TIP3    H221632   8.250   5.801   3.171
 7231TIP3   OH221633   1.795   7.527   4.929
 7231TIP3    H121634   1.702   7.516   4.952
 7231TIP3    H221635   1.832   7.440   4.938
 7232TIP3   OH221636   1.623   1.562   4.131
 7232TIP3    H121637   1.536   1.532   4.159
 7232TIP3    H221638   1.656   1.492   4.076
 7233TIP3   OH221639   2.708   6.158   2.814
 7233TIP3    H121640   2.734   6.250   2.824
 7233TIP3    H221641   2.732   6.136   2.724
 7234TIP3   OH221642   2.349   7.472   6.779
 7234TIP3    H121643   2.337   7.567   6.791
 7234TIP3    H221644   2.426   7.450   6.832
 7235TIP3   OH221645   5.977   4.704   4.185
 7235TIP3    H121646   6.040   4.776   4.191
 7235TIP3    H221647   5.892   4.744   4.203
 7236TIP3   OH221648   1.551   3.819   2.273
 7236TIP3    H121649   1.608   3.880   2.321
 7236TIP3    H221650   1.484   3.794   2.336
 7237TIP3   OH221651   5.012   0.483   1.863
 7237TIP3    H121652   5.079   0.434   1.815
 7237TIP3    H221653   4.951   0.417   1.895
 7238TIP3   OH221654   6.185   5.032   1.373
 7238TIP3    H121655   6.200   5.125   1.360
 7238TIP3    H221656   6.130   5.027   1.451
 7239TIP3   OH221657   2.580   4.405   2.932
 7239TIP3    H121658   2.534   4.333   2.889
 7239TIP3    H221659   2.533   4.417   3.015
 7240TIP3   OH221660   0.091   6.713   6.342
 7240TIP3    H121661   0.185   6.734   6.346
 7240TIP3    H221662   0.053   6.783   6.289
 7241TIP3   OH221663   2.629   6.711   5.753
 7241TIP3    H121664   2.604   6.792   5.797
 7241TIP3    H221665   2.711   6.685   5.795
 7242TIP3   OH221666   3.454   6.790   6.507
 7242TIP3    H121667   3.536   6.758   6.469
 7242TIP3    H221668   3.456   6.885   6.491
 7243TIP3   OH221669   3.964   7.012   6.396
 7243TIP3    H121670   3.935   7.087   6.345
 7243TIP3    H221671   3.997   6.950   6.331
 7244TIP3   OH221672   0.232   0.764   6.461
 7244TIP3    H121673   0.145   0.791   6.431
 7244TIP3    H221674   0.285   0.843   6.454
 7245TIP3   OH221675   6.888   7.533   1.177
 7245TIP3    H121676   6.818   7.508   1.117
 7245TIP3    H221677   6.964   7.548   1.121
 7246TIP3   OH221678   6.874   0.406   3.092
 7246TIP3    H121679   6.801   0.384   3.034
 7246TIP3    H221680   6.876   0.336   3.157
 7247TIP3   OH221681   4.348   2.156   2.253
 7247TIP3    H121682   4.255   2.179   2.244
 7247TIP3    H221683   4.390   2.238   2.278
 7248TIP3   OH221684   4.405   1.360   5.347
 7248TIP3    H121685   4.393   1.269   5.320
 7248TIP3    H221686   4.325   1.382   5.395
 7249TIP3   OH221687   7.124   3.787   6.147
 7249TIP3    H121688   7.066   3.863   6.146
 7249TIP3    H221689   7.159   3.784   6.236
 7250TIP3   OH221690   3.562   3.051   1.595
 7250TIP3    H121691   3.609   2.986   1.646
 7250TIP3    H221692   3.626   3.120   1.578
 7251TIP3   OH221693   4.588   0.842   6.355
 7251TIP3    H121694   4.502   0.874   6.330
 7251TIP3    H221695   4.573   0.792   6.435
 7252TIP3   OH221696   3.785   5.375   2.998
 7252TIP3    H121697   3.844   5.363   3.073
 7252TIP3    H221698   3.839   5.421   2.933
 7253TIP3   OH221699   4.186   1.317   4.447
 7253TIP3    H121700   4.235   1.240   4.476
 7253TIP3    H221701   4.099   1.306   4.485
 7254TIP3   OH221702   5.883   2.051   2.876
 7254TIP3    H121703   5.883   1.962   2.909
 7254TIP3    H221704   5.798   2.087   2.900
 7255TIP3   OH221705   1.410   4.373   0.673
 7255TIP3    H121706   1.462   4.437   0.722
 7255TIP3    H221707   1.341   4.346   0.734
 7256TIP3   OH221708   5.360   7.088   2.603
 7256TIP3    H121709   5.444   7.047   2.627
 7256TIP3    H221710   5.317   7.022   2.548
 7257TIP3   OH221711   5.368   1.444   1.208
 7257TIP3    H121712   5.360   1.524   1.155
 7257TIP3    H221713   5.325   1.377   1.156
 7258TIP3   OH221714   0.333   1.314   1.994
 7258TIP3    H121715   0.269   1.337   2.061
 7258TIP3    H221716   0.360   1.225   2.015
 7259TIP3   OH221717   1.459   1.510   2.396
 7259TIP3    H121718   1.510   1.515   2.316
 7259TIP3    H221719   1.442   1.601   2.420
 7260TIP3   OH221720   1.345   6.406   6.621
 7260TIP3    H121721   1.418   6.412   6.560
 7260TIP3    H221722   1.272   6.450   6.577
 7261TIP3   OH221723   1.864   0.074   3.879
 7261TIP3    H121724   1.857   0.169   3.887
 7261TIP3    H221725   1.910   0.060   3.797
 7262TIP3   OH221726   0.732   5.532   2.587
 7262TIP3    H121727   0.693   5.447   2.606
 7262TIP3    H221728   0.737   5.536   2.492
 7263TIP3   OH221729   0.819   0.782   1.239
 7263TIP3    H121730   0.878   0.759   1.168
 7263TIP3    H221731   0.867   0.758   1.319
 7264TIP3   OH221732   2.216   6.096   6.521
 7264TIP3    H121733   2.296   6.104   6.469
 7264TIP3    H221734   2.180   6.011   6.497
 7265TIP3   OH221735   4.707   4.390   1.676
 7265TIP3    H121736   4.715   4.464   1.616
 7265TIP3    H221737   4.706   4.430   1.763
 7266TIP3   OH221738   3.067   2.409   1.176
 7266TIP3    H121739   3.062   2.321   1.139
 7266TIP3    H221740   3.117   2.397   1.257
 7267TIP3   OH221741   7.792   6.102   3.811
 7267TIP3    H121742   7.837   6.019   3.790
 7267TIP3    H221743   7.849   6.170   3.775
 7268TIP3   OH221744   3.536   7.042   4.531
 7268TIP3    H121745   3.611   7.054   4.472
 7268TIP3    H221746   3.570   7.066   4.617
 7269TIP3   OH221747   1.258   1.639   6.193
 7269TIP3    H121748   1.244   1.616   6.285
 7269TIP3    H221749   1.216   1.568   6.144
 7270TIP3   OH221750   4.984   3.061   4.336
 7270TIP3    H121751   4.917   3.087   4.399
 7270TIP3    H221752   5.037   2.996   4.383
 7271TIP3   OH221753   3.994   2.087   5.499
 7271TIP3    H121754   3.971   2.028   5.427
 7271TIP3    H221755   3.910   2.125   5.526
 7272TIP3   OH221756   5.004   6.830   1.687
 7272TIP3    H121757   4.916   6.792   1.696
 7272TIP3    H221758   5.024   6.865   1.774
 7273TIP3   OH221759   5.180  -0.014   2.889
 7273TIP3    H121760   5.184   0.074   2.926
 7273TIP3    H221761   5.270  -0.032   2.861
 7274TIP3   OH221762   1.185   3.982   5.779
 7274TIP3    H121763   1.192   4.025   5.693
 7274TIP3    H221764   1.132   4.042   5.831
 7275TIP3   OH221765   7.156   7.912   4.246
 7275TIP3    H121766   7.079   7.856   4.254
 7275TIP3    H221767   7.183   7.903   4.154
 7276TIP3   OH221768   1.006   6.358   2.166
 7276TIP3    H121769   1.042   6.418   2.232
 7276TIP3    H221770   1.079   6.301   2.143
 7277TIP3   OH221771   8.091   7.603   4.111
 7277TIP3    H121772   8.109   7.690   4.147
 7277TIP3    H221773   8.176   7.560   4.109
 7278TIP3   OH221774   2.503   7.873   4.985
 7278TIP3    H121775   2.555   7.798   4.957
 7278TIP3    H221776   2.539   7.897   5.070
 7279TIP3   OH221777   3.417   5.050   3.395
 7279TIP3    H121778   3.355   5.070   3.325
 7279TIP3    H221779   3.498   5.026   3.350
 7280TIP3   OH221780   6.111   1.556   1.973
 7280TIP3    H121781   6.095   1.585   1.883
 7280TIP3    H221782   6.178   1.487   1.964
 7281TIP3   OH221783   0.823   2.131   4.599
 7281TIP3    H121784   0.759   2.105   4.666
 7281TIP3    H221785   0.875   2.200   4.641
 7282TIP3   OH221786   4.707   1.045   1.265
 7282TIP3    H121787   4.679   0.963   1.224
 7282TIP3    H221788   4.642   1.109   1.236
 7283TIP3   OH221789   1.764   6.094   5.098
 7283TIP3    H121790   1.813   6.102   5.016
 7283TIP3    H221791   1.720   6.178   5.107
 7284TIP3   OH221792   5.442   2.654   0.851
 7284TIP3    H121793   5.488   2.572   0.868
 7284TIP3    H221794   5.512   2.719   0.838
 7285TIP3   OH221795   0.871   3.495   3.948
 7285TIP3    H121796   0.813   3.569   3.961
 7285TIP3    H221797   0.918   3.514   3.867
 7286TIP3   OH221798   0.261   2.935   3.838
 7286TIP3    H121799   0.309   2.853   3.830
 7286TIP3    H221800   0.304   2.981   3.911
 7287TIP3   OH221801   4.057   2.357   3.466
 7287TIP3    H121802   3.966   2.334   3.488
 7287TIP3    H221803   4.065   2.334   3.374
 7288TIP3   OH221804   5.935   7.544   1.801
 7288TIP3    H121805   5.969   7.563   1.888
 7288TIP3    H221806   6.012   7.516   1.751
 7289TIP3   OH221807   4.699   5.102   5.486
 7289TIP3    H121808   4.751   5.176   5.516
 7289TIP3    H221809   4.624   5.099   5.545
 7290TIP3   OH221810   8.143   7.853   3.871
 7290TIP3    H121811   8.085   7.877   3.943
 7290TIP3    H221812   8.120   7.763   3.849
 7291TIP3   OH221813   3.454   1.971   5.509
 7291TIP3    H121814   3.547   1.956   5.525
 7291TIP3    H221815   3.434   2.052   5.555
 7292TIP3   OH221816   3.785   5.961   5.422
 7292TIP3    H121817   3.785   6.049   5.459
 7292TIP3    H221818   3.837   5.969   5.342
 7293TIP3   OH221819   5.202   3.653   1.590
 7293TIP3    H121820   5.116   3.620   1.616
 7293TIP3    H221821   5.211   3.625   1.499
 7294TIP3   OH221822   7.493   3.069   1.611
 7294TIP3    H121823   7.580   3.046   1.579
 7294TIP3    H221824   7.434   3.052   1.537
 7295TIP3   OH221825   3.401   1.152   0.259
 7295TIP3    H121826   3.440   1.231   0.297
 7295TIP3    H221827   3.307   1.160   0.278
 7296TIP3   OH221828   7.495   4.573   3.549
 7296TIP3    H121829   7.555   4.571   3.474
 7296TIP3    H221830   7.420   4.624   3.517
 7297TIP3   OH221831   1.167   0.963   2.689
 7297TIP3    H121832   1.201   1.025   2.754
 7297TIP3    H221833   1.245   0.923   2.650
 7298TIP3   OH221834   5.937   3.134   5.510
 7298TIP3    H121835   5.907   3.054   5.469
 7298TIP3    H221836   5.978   3.105   5.592
 7299TIP3   OH221837   1.314   3.912   0.206
 7299TIP3    H121838   1.301   3.908   0.301
 7299TIP3    H221839   1.399   3.870   0.192
 7300TIP3   OH221840   2.370   2.634   2.994
 7300TIP3    H121841   2.406   2.600   3.076
 7300TIP3    H221842   2.318   2.562   2.959
 7301TIP3   OH221843   5.319   0.772   6.634
 7301TIP3    H121844   5.275   0.853   6.608
 7301TIP3    H221845   5.384   0.799   6.698
 7302TIP3   OH221846   2.587   4.668   5.077
 7302TIP3    H121847   2.655   4.601   5.066
 7302TIP3    H221848   2.531   4.659   5.000
 7303TIP3   OH221849   4.573   6.102   2.700
 7303TIP3    H121850   4.512   6.041   2.658
 7303TIP3    H221851   4.568   6.080   2.793
 7304TIP3   OH221852   1.147   6.549   3.117
 7304TIP3    H121853   1.164   6.521   3.027
 7304TIP3    H221854   1.052   6.557   3.121
 7305TIP3   OH221855   5.945   2.419   4.049
 7305TIP3    H121856   6.002   2.348   4.019
 7305TIP3    H221857   5.861   2.377   4.064
 7306TIP3   OH221858   2.902   5.638   0.647
 7306TIP3    H121859   2.903   5.554   0.693
 7306TIP3    H221860   2.927   5.702   0.713
 7307TIP3   OH221861   6.665   4.788   2.545
 7307TIP3    H121862   6.582   4.755   2.577
 7307TIP3    H221863   6.731   4.729   2.581
 7308TIP3   OH221864   7.665   4.777   6.138
 7308TIP3    H121865   7.718   4.804   6.213
 7308TIP3    H221866   7.578   4.764   6.173
 7309TIP3   OH221867   2.782   4.474   0.156
 7309TIP3    H121868   2.778   4.379   0.160
 7309TIP3    H221869   2.769   4.495   0.063
 7310TIP3   OH221870   7.227   2.695   4.233
 7310TIP3    H121871   7.284   2.631   4.275
 7310TIP3    H221872   7.277   2.727   4.158
 7311TIP3   OH221873   4.991   6.681   5.792
 7311TIP3    H121874   5.019   6.699   5.882
 7311TIP3    H221875   5.027   6.595   5.772
 7312TIP3   OH221876   0.991   2.342   0.834
 7312TIP3    H121877   1.009   2.251   0.812
 7312TIP3    H221878   0.901   2.356   0.805
 7313TIP3   OH221879   3.065   1.339   4.512
 7313TIP3    H121880   3.135   1.280   4.484
 7313TIP3    H221881   3.086   1.359   4.603
 7314TIP3   OH221882   7.465   0.256   1.057
 7314TIP3    H121883   7.423   0.175   1.031
 7314TIP3    H221884   7.555   0.230   1.080
 7315TIP3   OH221885   0.526   7.332   2.401
 7315TIP3    H121886   0.489   7.269   2.463
 7315TIP3    H221887   0.480   7.314   2.319
 7316TIP3   OH221888   5.870   5.994   6.482
 7316TIP3    H121889   5.846   6.082   6.510
 7316TIP3    H221890   5.836   5.937   6.551
 7317TIP3   OH221891   7.581   7.073   5.081
 7317TIP3    H121892   7.520   7.146   5.089
 7317TIP3    H221893   7.581   7.032   5.168
 7318TIP3   OH221894   1.557   4.806   4.166
 7318TIP3    H121895   1.463   4.821   4.172
 7318TIP3    H221896   1.566   4.720   4.125
 7319TIP3   OH221897   0.681   7.720   5.332
 7319TIP3    H121898   0.726   7.666   5.266
 7319TIP3    H221899   0.621   7.774   5.281
 7320TIP3   OH221900   4.152   4.787   1.165
 7320TIP3    H121901   4.118   4.710   1.211
 7320TIP3    H221902   4.087   4.806   1.098
 7321TIP3   OH221903   6.917   6.682   1.434
 7321TIP3    H121904   6.985   6.637   1.383
 7321TIP3    H221905   6.932   6.654   1.524
 7322TIP3   OH221906   0.887   3.000   2.977
 7322TIP3    H121907   0.938   3.080   2.966
 7322TIP3    H221908   0.803   3.019   2.937
 7323TIP3   OH221909   2.874   5.506   5.678
 7323TIP3    H121910   2.910   5.516   5.590
 7323TIP3    H221911   2.781   5.523   5.668
 7324TIP3   OH221912   7.635   4.423   4.041
 7324TIP3    H121913   7.567   4.399   4.105
 7324TIP3    H221914   7.703   4.465   4.094
 7325TIP3   OH221915   6.783   2.523   2.063
 7325TIP3    H121916   6.778   2.604   2.114
 7325TIP3    H221917   6.745   2.545   1.979
 7326TIP3   OH221918   6.660   7.713   5.302
 7326TIP3    H121919   6.618   7.636   5.264
 7326TIP3    H221920   6.610   7.729   5.383
 7327TIP3   OH221921   2.069   3.697   6.179
 7327TIP3    H121922   1.979   3.700   6.145
 7327TIP3    H221923   2.121   3.743   6.113
 7328TIP3   OH221924   2.992   1.760   1.850
 7328TIP3    H121925   3.038   1.683   1.817
 7328TIP3    H221926   2.908   1.760   1.804
 7329TIP3   OH221927   0.102   4.593   5.189
 7329TIP3    H121928   0.066   4.604   5.277
 7329TIP3    H221929   0.057   4.660   5.137
 7330TIP3   OH221930   1.245   3.901   0.496
 7330TIP3    H121931   1.191   3.963   0.446
 7330TIP3    H221932   1.198   3.890   0.579
 7331TIP3   OH221933   4.374   2.188   6.315
 7331TIP3    H121934   4.285   2.174   6.280
 7331TIP3    H221935   4.432   2.152   6.248
 7332TIP3   OH221936   6.499   3.742   1.436
 7332TIP3    H121937   6.440   3.668   1.421
 7332TIP3    H221938   6.547   3.751   1.354
 7333TIP3   OH221939   0.797   4.513   2.564
 7333TIP3    H121940   0.882   4.471   2.573
 7333TIP3    H221941   0.761   4.516   2.653
 7334TIP3   OH221942   0.247   3.288   5.998
 7334TIP3    H121943   0.279   3.378   5.994
 7334TIP3    H221944   0.156   3.292   5.970
 7335TIP3   OH221945   2.340   5.578   5.514
 7335TIP3    H121946   2.327   5.493   5.556
 7335TIP3    H221947   2.360   5.557   5.423
 7336TIP3   OH221948   4.769   4.825   2.423
 7336TIP3    H121949   4.723   4.758   2.474
 7336TIP3    H221950   4.727   4.824   2.338
 7337TIP3   OH221951   0.282   6.009   3.000
 7337TIP3    H121952   0.300   5.979   2.911
 7337TIP3    H221953   0.344   6.080   3.015
 7338TIP3   OH221954   3.704   0.702   3.167
 7338TIP3    H121955   3.679   0.729   3.255
 7338TIP3    H221956   3.785   0.750   3.149
 7339TIP3   OH221957   5.939   0.145   5.830
 7339TIP3    H121958   5.995   0.128   5.906
 7339TIP3    H221959   5.963   0.077   5.767
 7340TIP3   OH221960   5.848   7.378   1.106
 7340TIP3    H121961   5.880   7.373   1.196
 7340TIP3    H221962   5.825   7.287   1.084
 7341TIP3   OH221963   3.860   0.760   4.926
 7341TIP3    H121964   3.871   0.838   4.871
 7341TIP3    H221965   3.771   0.769   4.960
 7342TIP3   OH221966   4.329   7.241   4.675
 7342TIP3    H121967   4.277   7.163   4.693
 7342TIP3    H221968   4.417   7.219   4.703
 7343TIP3   OH221969   1.097   2.380   1.954
 7343TIP3    H121970   1.068   2.416   2.037
 7343TIP3    H221971   1.088   2.285   1.964
 7344TIP3   OH221972   5.588   7.568   3.746
 7344TIP3    H121973   5.638   7.518   3.811
 7344TIP3    H221974   5.498   7.565   3.777
 7345TIP3   OH221975   0.681   2.881   3.708
 7345TIP3    H121976   0.690   2.866   3.802
 7345TIP3    H221977   0.684   2.976   3.699
 7346TIP3   OH221978   3.107   4.337   3.108
 7346TIP3    H121979   3.038   4.341   3.174
 7346TIP3    H221980   3.185   4.309   3.157
 7347TIP3   OH221981   4.099   1.907   5.706
 7347TIP3    H121982   4.177   1.851   5.702
 7347TIP3    H221983   4.080   1.929   5.615
 7348TIP3   OH221984   2.802   2.232   5.798
 7348TIP3    H121985   2.794   2.208   5.890
 7348TIP3    H221986   2.778   2.152   5.751
 7349TIP3   OH221987   6.400   7.806   2.277
 7349TIP3    H121988   6.421   7.811   2.184
 7349TIP3    H221989   6.402   7.897   2.307
 7350TIP3   OH221990   1.567   3.264   5.062
 7350TIP3    H121991   1.493   3.239   5.118
 7350TIP3    H221992   1.570   3.360   5.068
 7351TIP3   OH221993   5.930   3.905   3.130
 7351TIP3    H121994   5.891   3.822   3.104
 7351TIP3    H221995   6.017   3.882   3.163
 7352TIP3   OH221996   1.081   0.773   2.324
 7352TIP3    H121997   1.078   0.857   2.278
 7352TIP3    H221998   1.081   0.796   2.417
 7353TIP3   OH221999   8.018   2.703   3.886
 7353TIP3    H122000   8.027   2.741   3.799
 7353TIP3    H222001   8.106   2.703   3.922
 7354TIP3   OH222002   2.359   5.692   0.331
 7354TIP3    H122003   2.447   5.708   0.365
 7354TIP3    H222004   2.367   5.705   0.236
 7355TIP3   OH222005   6.785   6.490   4.779
 7355TIP3    H122006   6.824   6.550   4.843
 7355TIP3    H222007   6.820   6.404   4.802
 7356TIP3   OH222008   3.644   0.138   2.214
 7356TIP3    H122009   3.660   0.105   2.302
 7356TIP3    H222010   3.704   0.088   2.159
 7357TIP3   OH222011   2.381   0.156   5.581
 7357TIP3    H122012   2.328   0.078   5.599
 7357TIP3    H222013   2.316   0.226   5.569
 7358TIP3   OH222014   1.979   0.171   6.769
 7358TIP3    H122015   2.072   0.184   6.785
 7358TIP3    H222016   1.936   0.211   6.845
 7359TIP3   OH222017   7.493   1.145   0.369
 7359TIP3    H122018   7.443   1.223   0.393
 7359TIP3    H222019   7.571   1.148   0.425
 7360TIP3   OH222020   5.275   2.362   6.460
 7360TIP3    H122021   5.245   2.272   6.473
 7360TIP3    H222022   5.200   2.416   6.486
 7361TIP3   OH222023   2.140   2.270   5.137
 7361TIP3    H122024   2.110   2.356   5.164
 7361TIP3    H222025   2.161   2.225   5.219
 7362TIP3   OH222026   0.738   5.939   5.063
 7362TIP3    H122027   0.704   6.021   5.025
 7362TIP3    H222028   0.793   5.902   4.993
 7363TIP3   OH222029   5.938   5.140   4.048
 7363TIP3    H122030   6.016   5.187   4.017
 7363TIP3    H222031   5.939   5.152   4.143
 7364TIP3   OH222032   5.476   6.334   2.040
 7364TIP3    H122033   5.425   6.413   2.025
 7364TIP3    H222034   5.460   6.312   2.132
 7365TIP3   OH222035   2.475   0.653   0.135
 7365TIP3    H122036   2.440   0.664   0.047
 7365TIP3    H222037   2.441   0.569   0.165
 7366TIP3   OH222038   2.412   3.587   4.968
 7366TIP3    H122039   2.381   3.677   4.978
 7366TIP3    H222040   2.507   3.595   4.961
 7367TIP3   OH222041   1.170   1.503   0.094
 7367TIP3    H122042   1.249   1.549   0.120
 7367TIP3    H222043   1.119   1.568   0.045
 7368TIP3   OH222044   3.626   3.237   3.938
 7368TIP3    H122045   3.576   3.245   3.857
 7368TIP3    H222046   3.688   3.166   3.922
 7369TIP3   OH222047   2.635   7.907   1.908
 7369TIP3    H122048   2.575   7.834   1.897
 7369TIP3    H222049   2.607   7.971   1.844
 7370TIP3   OH222050   0.510   0.798   5.115
 7370TIP3    H122051   0.563   0.850   5.055
 7370TIP3    H222052   0.500   0.713   5.070
 7371TIP3   OH222053   0.330   2.009   3.321
 7371TIP3    H122054   0.277   1.959   3.383
 7371TIP3    H222055   0.420   2.003   3.355
 7372TIP3   OH222056   1.338   3.788   1.911
 7372TIP3    H122057   1.320   3.721   1.845
 7372TIP3    H222058   1.282   3.764   1.985
 7373TIP3   OH222059   0.513   2.471   0.559
 7373TIP3    H122060   0.537   2.556   0.521
 7373TIP3    H222061   0.431   2.448   0.517
 7374TIP3   OH222062   3.968   6.871   3.741
 7374TIP3    H122063   4.006   6.957   3.725
 7374TIP3    H222064   3.874   6.887   3.745
 7375TIP3   OH222065   0.269   2.440   0.753
 7375TIP3    H122066   0.353   2.458   0.710
 7375TIP3    H222067   0.222   2.383   0.692
 7376TIP3   OH222068   4.728   6.498   6.171
 7376TIP3    H122069   4.811   6.461   6.142
 7376TIP3    H222070   4.662   6.442   6.130
 7377TIP3   OH222071   0.171   7.902   1.493
 7377TIP3    H122072   0.203   7.877   1.406
 7377TIP3    H222073   0.244   7.948   1.533
 7378TIP3   OH222074   5.112   7.547   1.448
 7378TIP3    H122075   5.060   7.617   1.409
 7378TIP3    H222076   5.130   7.487   1.376
 7379TIP3   OH222077   6.625   2.438   1.810
 7379TIP3    H122078   6.562   2.440   1.882
 7379TIP3    H222079   6.664   2.351   1.814
 7380TIP3   OH222080   7.113   4.130   2.587
 7380TIP3    H122081   7.129   4.129   2.682
 7380TIP3    H222082   7.193   4.095   2.549
 7381TIP3   OH222083   7.919   2.854   4.316
 7381TIP3    H122084   7.863   2.892   4.249
 7381TIP3    H222085   8.006   2.890   4.298
 7382TIP3   OH222086   1.384   0.224   2.583
 7382TIP3    H122087   1.399   0.306   2.537
 7382TIP3    H222088   1.443   0.162   2.540
 7383TIP3   OH222089   6.873   3.603   5.393
 7383TIP3    H122090   6.879   3.696   5.371
 7383TIP3    H222091   6.906   3.598   5.483
 7384TIP3   OH222092   4.147   4.038   3.138
 7384TIP3    H122093   4.103   4.017   3.056
 7384TIP3    H222094   4.079   4.074   3.194
 7385TIP3   OH222095   6.534   6.256   3.727
 7385TIP3    H122096   6.562   6.332   3.677
 7385TIP3    H222097   6.570   6.181   3.678
 7386TIP3   OH222098   6.633   5.494   1.420
 7386TIP3    H122099   6.645   5.420   1.361
 7386TIP3    H222100   6.693   5.561   1.387
 7387TIP3   OH222101   0.416   0.453   2.102
 7387TIP3    H122102   0.476   0.510   2.055
 7387TIP3    H222103   0.331   0.496   2.093
 7388TIP3   OH222104   1.505   7.675   6.118
 7388TIP3    H122105   1.570   7.687   6.187
 7388TIP3    H222106   1.545   7.614   6.056
 7389TIP3   OH222107   1.292   0.577   2.157
 7389TIP3    H122108   1.288   0.639   2.084
 7389TIP3    H222109   1.202   0.545   2.165
 7390TIP3   OH222110   2.033   6.800   2.647
 7390TIP3    H122111   2.015   6.717   2.690
 7390TIP3    H222112   2.091   6.847   2.707
 7391TIP3   OH222113   6.648   0.618   0.952
 7391TIP3    H122114   6.742   0.637   0.946
 7391TIP3    H222115   6.606   0.695   0.913
 7392TIP3   OH222116   7.400   6.408   3.985
 7392TIP3    H122117   7.323   6.363   4.018
 7392TIP3    H222118   7.463   6.339   3.967
 7393TIP3   OH222119   4.176   1.024   2.096
 7393TIP3    H122120   4.198   1.089   2.162
 7393TIP3    H222121   4.088   1.047   2.067
 7394TIP3   OH222122   1.701   1.021   2.454
 7394TIP3    H122123   1.753   1.020   2.374
 7394TIP3    H222124   1.743   0.955   2.510
 7395TIP3   OH222125   0.674   4.882   5.352
 7395TIP3    H122126   0.756   4.922   5.379
 7395TIP3    H222127   0.650   4.928   5.271
 7396TIP3   OH222128   3.524   4.827   3.157
 7396TIP3    H122129   3.555   4.908   3.198
 7396TIP3    H222130   3.450   4.855   3.103
 7397TIP3   OH222131   1.239   0.834   0.998
 7397TIP3    H122132   1.331   0.809   1.003
 7397TIP3    H222133   1.236   0.902   0.932
 7398TIP3   OH222134   2.051   2.281   6.617
 7398TIP3    H122135   2.079   2.227   6.691
 7398TIP3    H222136   1.956   2.272   6.615
 7399TIP3   OH222137   1.288   2.507   5.449
 7399TIP3    H122138   1.314   2.543   5.364
 7399TIP3    H222139   1.316   2.416   5.446
 7400TIP3   OH222140   6.866   3.276   1.644
 7400TIP3    H122141   6.844   3.340   1.711
 7400TIP3    H222142   6.902   3.202   1.692
 7401TIP3   OH222143   0.474   3.507   1.435
 7401TIP3    H122144   0.447   3.558   1.359
 7401TIP3    H222145   0.398   3.453   1.456
 7402TIP3   OH222146   5.535   0.345   3.651
 7402TIP3    H122147   5.540   0.261   3.604
 7402TIP3    H222148   5.443   0.371   3.642
 7403TIP3   OH222149   5.698   2.779   3.916
 7403TIP3    H122150   5.756   2.704   3.907
 7403TIP3    H222151   5.700   2.822   3.830
 7404TIP3   OH222152   0.129   4.046   6.839
 7404TIP3    H122153   0.204   4.101   6.861
 7404TIP3    H222154   0.053   4.104   6.848
 7405TIP3   OH222155   2.385   0.435   6.393
 7405TIP3    H122156   2.377   0.485   6.312
 7405TIP3    H222157   2.396   0.502   6.461
 7406TIP3   OH222158   2.320   4.356   0.899
 7406TIP3    H122159   2.242   4.332   0.850
 7406TIP3    H222160   2.355   4.272   0.930
 7407TIP3   OH222161   6.356   0.217   2.136
 7407TIP3    H122162   6.320   0.131   2.156
 7407TIP3    H222163   6.449   0.210   2.159
 7408TIP3   OH222164   5.225   5.464   2.328
 7408TIP3    H122165   5.267   5.401   2.270
 7408TIP3    H222166   5.280   5.542   2.323
 7409TIP3   OH222167   2.578   3.457   3.707
 7409TIP3    H122168   2.569   3.456   3.802
 7409TIP3    H222169   2.634   3.532   3.689
 7410TIP3   OH222170   1.851   5.017   0.764
 7410TIP3    H122171   1.901   4.999   0.685
 7410TIP3    H222172   1.918   5.027   0.832
 7411TIP3   OH222173   3.407   7.924   6.405
 7411TIP3    H122174   3.361   7.987   6.461
 7411TIP3    H222175   3.480   7.894   6.458
 7412TIP3   OH222176   1.097   4.112   0.397
 7412TIP3    H122177   1.163   4.143   0.334
 7412TIP3    H222178   1.014   4.119   0.350
 7413TIP3   OH222179   1.968   7.692   6.497
 7413TIP3    H122180   1.939   7.604   6.474
 7413TIP3    H222181   1.889   7.736   6.527
 7414TIP3   OH222182   2.689   5.435   1.564
 7414TIP3    H122183   2.687   5.342   1.585
 7414TIP3    H222184   2.664   5.479   1.646
 7415TIP3   OH222185   0.516   6.492   2.329
 7415TIP3    H122186   0.448   6.547   2.368
 7415TIP3    H222187   0.571   6.466   2.403
 7416TIP3   OH222188   5.699   0.095   1.585
 7416TIP3    H122189   5.654   0.077   1.503
 7416TIP3    H222190   5.742   0.180   1.572
 7417TIP3   OH222191   0.632   3.409   0.185
 7417TIP3    H122192   0.710   3.456   0.215
 7417TIP3    H222193   0.650   3.390   0.092
 7418TIP3   OH222194   1.493   1.049   1.627
 7418TIP3    H122195   1.490   1.119   1.691
 7418TIP3    H222196   1.420   1.067   1.567
 7419TIP3   OH222197   0.445   1.730   1.451
 7419TIP3    H122198   0.454   1.685   1.535
 7419TIP3    H222199   0.525   1.706   1.404
 7420TIP3   OH222200   5.551   6.759   4.156
 7420TIP3    H122201   5.485   6.767   4.225
 7420TIP3    H222202   5.519   6.688   4.101
 7421TIP3   OH222203   4.808   3.876   3.435
 7421TIP3    H122204   4.785   3.796   3.389
 7421TIP3    H222205   4.904   3.877   3.437
 7422TIP3   OH222206   7.093   1.381   3.342
 7422TIP3    H122207   7.118   1.291   3.324
 7422TIP3    H222208   7.152   1.409   3.412
 7423TIP3   OH222209   0.236   7.079   5.215
 7423TIP3    H122210   0.268   7.043   5.133
 7423TIP3    H222211   0.294   7.153   5.233
 7424TIP3   OH222212   0.940   4.742   0.941
 7424TIP3    H122213   0.897   4.658   0.922
 7424TIP3    H222214   0.868   4.802   0.959
 7425TIP3   OH222215   5.876   2.678   6.808
 7425TIP3    H122216   5.838   2.718   6.729
 7425TIP3    H222217   5.971   2.689   6.797
 7426TIP3   OH222218   2.752   7.719   2.068
 7426TIP3    H122219   2.710   7.779   2.007
 7426TIP3    H222220   2.680   7.683   2.120
 7427TIP3   OH222221   5.450   1.596   4.865
 7427TIP3    H122222   5.465   1.680   4.907
 7427TIP3    H222223   5.506   1.598   4.787
 7428TIP3   OH222224   7.117   6.286   3.731
 7428TIP3    H122225   7.092   6.195   3.751
 7428TIP3    H222226   7.047   6.317   3.673
 7429TIP3   OH222227   3.722   6.219   0.585
 7429TIP3    H122228   3.634   6.238   0.554
 7429TIP3    H222229   3.733   6.125   0.570
 7430TIP3   OH222230   1.883   7.553   2.304
 7430TIP3    H122231   1.954   7.568   2.242
 7430TIP3    H222232   1.923   7.504   2.375
 7431TIP3   OH222233   2.933   0.183   4.632
 7431TIP3    H122234   3.006   0.149   4.683
 7431TIP3    H222235   2.856   0.166   4.687
 7432TIP3   OH222236   0.095   1.926   0.727
 7432TIP3    H122237   0.141   1.890   0.802
 7432TIP3    H222238   0.052   2.005   0.761
 7433TIP3   OH222239   2.862   5.912   2.647
 7433TIP3    H122240   2.870   5.880   2.558
 7433TIP3    H222241   2.934   5.870   2.694
 7434TIP3   OH222242   4.396   6.438   1.304
 7434TIP3    H122243   4.461   6.426   1.372
 7434TIP3    H222244   4.430   6.510   1.250
 7435TIP3   OH222245   1.356   0.714   3.703
 7435TIP3    H122246   1.384   0.778   3.637
 7435TIP3    H222247   1.298   0.764   3.760
 7436TIP3   OH222248   2.046   4.532   3.749
 7436TIP3    H122249   2.025   4.544   3.841
 7436TIP3    H222250   2.003   4.605   3.705
 7437TIP3   OH222251   7.965   1.589   6.014
 7437TIP3    H122252   7.888   1.646   6.021
 7437TIP3    H222253   7.933   1.511   5.970
 7438TIP3   OH222254   2.200   2.453   2.876
 7438TIP3    H122255   2.253   2.396   2.821
 7438TIP3    H222256   2.117   2.463   2.828
 7439TIP3   OH222257   5.862   5.229   4.498
 7439TIP3    H122258   5.863   5.272   4.584
 7439TIP3    H222259   5.858   5.136   4.518
 7440TIP3   OH222260   3.959   5.079   0.107
 7440TIP3    H122261   3.902   5.089   0.031
 7440TIP3    H222262   4.015   5.156   0.105
 7441TIP3   OH222263   1.755   1.417   6.400
 7441TIP3    H122264   1.674   1.371   6.376
 7441TIP3    H222265   1.757   1.493   6.343
 7442TIP3   OH222266   2.247   6.023   0.960
 7442TIP3    H122267   2.229   5.976   1.042
 7442TIP3    H222268   2.292   5.959   0.905
 7443TIP3   OH222269   0.068   7.741   3.210
 7443TIP3    H122270   0.106   7.658   3.180
 7443TIP3    H222271  -0.026   7.732   3.194
 7444TIP3   OH222272   0.191   6.067   3.975
 7444TIP3    H122273   0.180   6.067   3.880
 7444TIP3    H222274   0.215   6.157   3.996
 7445TIP3   OH222275   2.574   6.935   3.097
 7445TIP3    H122276   2.519   6.883   3.156
 7445TIP3    H222277   2.577   7.022   3.137
 7446TIP3   OH222278   8.339   4.273   0.444
 7446TIP3    H122279   8.349   4.188   0.401
 7446TIP3    H222280   8.339   4.254   0.537
 7447TIP3   OH222281   1.415   3.346   5.408
 7447TIP3    H122282   1.490   3.404   5.417
 7447TIP3    H222283   1.361   3.364   5.484
 7448TIP3   OH222284   3.140   1.376   2.202
 7448TIP3    H122285   3.151   1.294   2.154
 7448TIP3    H222286   3.083   1.428   2.145
 7449TIP3   OH222287   5.550   6.431   0.696
 7449TIP3    H122288   5.616   6.500   0.692
 7449TIP3    H222289   5.507   6.434   0.610
 7450TIP3   OH222290   6.889   3.993   1.440
 7450TIP3    H122291   6.797   4.016   1.429
 7450TIP3    H222292   6.906   3.927   1.372
 7451TIP3   OH222293   1.321   2.391   4.933
 7451TIP3    H122294   1.259   2.372   5.004
 7451TIP3    H222295   1.267   2.400   4.855
 7452TIP3   OH222296   8.250   1.096   3.362
 7452TIP3    H122297   8.341   1.066   3.365
 7452TIP3    H222298   8.198   1.017   3.379
 7453TIP3   OH222299   6.515   4.754   0.813
 7453TIP3    H122300   6.570   4.704   0.874
 7453TIP3    H222301   6.464   4.811   0.869
 7454TIP3   OH222302   8.388   3.885   5.593
 7454TIP3    H122303   8.310   3.928   5.627
 7454TIP3    H222304   8.381   3.893   5.498
 7455TIP3   OH222305   2.457   6.919   1.226
 7455TIP3    H122306   2.428   7.003   1.192
 7455TIP3    H222307   2.400   6.855   1.182
 7456TIP3   OH222308   8.250   0.462   5.095
 7456TIP3    H122309   8.277   0.493   5.009
 7456TIP3    H222310   8.282   0.372   5.100
 7457TIP3   OH222311   5.498   4.016   0.226
 7457TIP3    H122312   5.570   3.982   0.279
 7457TIP3    H222313   5.467   4.093   0.274
 7458TIP3   OH222314   7.651   7.233   1.926
 7458TIP3    H122315   7.602   7.291   1.985
 7458TIP3    H222316   7.589   7.213   1.856
 7459TIP3   OH222317   3.714   2.846   2.308
 7459TIP3    H122318   3.659   2.848   2.230
 7459TIP3    H222319   3.710   2.935   2.343
 7460TIP3   OH222320   8.380   6.730   2.967
 7460TIP3    H122321   8.452   6.790   2.949
 7460TIP3    H222322   8.325   6.734   2.889
 7461TIP3   OH222323   2.132   6.292   1.892
 7461TIP3    H122324   2.109   6.383   1.912
 7461TIP3    H222325   2.100   6.278   1.803
 7462TIP3   OH222326   2.617   4.914   3.141
 7462TIP3    H122327   2.593   4.882   3.228
 7462TIP3    H222328   2.573   4.999   3.133
 7463TIP3   OH222329   0.618   4.978   3.508
 7463TIP3    H122330   0.584   5.005   3.423
 7463TIP3    H222331   0.693   5.036   3.524
 7464TIP3   OH222332   8.156   6.714   1.967
 7464TIP3    H122333   8.108   6.738   2.046
 7464TIP3    H222334   8.138   6.621   1.955
 7465TIP3   OH222335   8.248   0.987   5.063
 7465TIP3    H122336   8.226   0.921   4.998
 7465TIP3    H222337   8.288   1.058   5.013
 7466TIP3   OH222338   3.805   4.284   2.180
 7466TIP3    H122339   3.888   4.331   2.166
 7466TIP3    H222340   3.768   4.274   2.092
 7467TIP3   OH222341   4.613   1.753   6.643
 7467TIP3    H122342   4.661   1.743   6.726
 7467TIP3    H222343   4.521   1.741   6.667
 7468TIP3   OH222344   0.040   0.987   1.897
 7468TIP3    H122345   0.005   1.056   1.952
 7468TIP3    H222346   0.075   0.923   1.959
 7469TIP3   OH222347   6.653   1.234   4.094
 7469TIP3    H122348   6.599   1.183   4.154
 7469TIP3    H222349   6.741   1.198   4.105
 7470TIP3   OH222350   5.171   5.844  -0.008
 7470TIP3    H122351   5.115   5.841   0.069
 7470TIP3    H222352   5.245   5.788   0.014
 7471TIP3   OH222353   6.791   2.315   2.870
 7471TIP3    H122354   6.801   2.324   2.775
 7471TIP3    H222355   6.794   2.405   2.903
 7472TIP3   OH222356   7.617   3.368   3.353
 7472TIP3    H122357   7.686   3.341   3.293
 7472TIP3    H222358   7.662   3.380   3.437
 7473TIP3   OH222359   1.569   1.329   4.940
 7473TIP3    H122360   1.590   1.313   5.032
 7473TIP3    H222361   1.503   1.397   4.942
 7474TIP3   OH222362   1.173   7.688   5.023
 7474TIP3    H122363   1.156   7.777   5.052
 7474TIP3    H222364   1.088   7.654   4.996
 7475TIP3   OH222365   0.071   1.483   0.441
 7475TIP3    H122366   0.112   1.567   0.423
 7475TIP3    H222367  -0.014   1.506   0.480
 7476TIP3   OH222368   1.804   6.120   0.439
 7476TIP3    H122369   1.894   6.152   0.434
 7476TIP3    H222370   1.791   6.072   0.357
 7477TIP3   OH222371   4.258   4.500   3.154
 7477TIP3    H122372   4.186   4.467   3.100
 7477TIP3    H222373   4.265   4.593   3.130
 7478TIP3   OH222374   0.942   3.773   4.077
 7478TIP3    H122375   1.016   3.822   4.040
 7478TIP3    H222376   0.933   3.808   4.165
 7479TIP3   OH222377   7.354   1.576   2.281
 7479TIP3    H122378   7.303   1.656   2.282
 7479TIP3    H222379   7.324   1.527   2.358
 7480TIP3   OH222380   0.255   5.831   1.624
 7480TIP3    H122381   0.161   5.826   1.603
 7480TIP3    H222382   0.273   5.924   1.630
 7481TIP3   OH222383   0.732   7.500   4.951
 7481TIP3    H122384   0.744   7.449   5.032
 7481TIP3    H222385   0.793   7.461   4.889
 7482TIP3   OH222386   0.474   4.012   1.737
 7482TIP3    H122387   0.457   3.959   1.659
 7482TIP3    H222388   0.394   4.005   1.788
 7483TIP3   OH222389   6.550   6.622   4.211
 7483TIP3    H122390   6.532   6.690   4.146
 7483TIP3    H222391   6.497   6.547   4.183
 7484TIP3   OH222392   7.943   6.703   5.005
 7484TIP3    H122393   7.900   6.681   4.922
 7484TIP3    H222394   7.880   6.760   5.050
 7485TIP3   OH222395   5.610   6.608   0.338
 7485TIP3    H122396   5.555   6.648   0.405
 7485TIP3    H222397   5.588   6.655   0.257
 7486TIP3   OH222398   1.762   1.930   5.926
 7486TIP3    H122399   1.729   1.853   5.973
 7486TIP3    H222400   1.767   1.998   5.993
 7487TIP3   OH222401   5.634   4.462   5.305
 7487TIP3    H122402   5.593   4.547   5.317
 7487TIP3    H222403   5.646   4.428   5.393
 7488TIP3   OH222404   0.308   2.098   5.450
 7488TIP3    H122405   0.354   2.125   5.529
 7488TIP3    H222406   0.279   2.009   5.469
 7489TIP3   OH222407   7.036   0.419   3.916
 7489TIP3    H122408   7.101   0.470   3.867
 7489TIP3    H222409   6.975   0.388   3.849
 7490TIP3   OH222410   8.334   3.321   1.379
 7490TIP3    H122411   8.398   3.392   1.378
 7490TIP3    H222412   8.334   3.287   1.290
 7491TIP3   OH222413   2.188   6.380   6.479
 7491TIP3    H122414   2.276   6.401   6.449
 7491TIP3    H222415   2.187   6.284   6.486
 7492TIP3   OH222416   4.102   3.525   5.185
 7492TIP3    H122417   4.029   3.468   5.207
 7492TIP3    H222418   4.081   3.558   5.098
 7493TIP3   OH222419   1.718   3.651   3.587
 7493TIP3    H122420   1.625   3.674   3.596
 7493TIP3    H222421   1.718   3.555   3.585
 7494TIP3   OH222422   8.093   5.550   4.103
 7494TIP3    H122423   8.041   5.580   4.177
 7494TIP3    H222424   8.135   5.630   4.069
 7495TIP3   OH222425   7.213   6.639   6.024
 7495TIP3    H122426   7.122   6.615   6.004
 7495TIP3    H222427   7.231   6.598   6.108
 7496TIP3   OH222428   2.718   5.297   3.215
 7496TIP3    H122429   2.732   5.391   3.210
 7496TIP3    H222430   2.692   5.281   3.306
 7497TIP3   OH222431   5.367   1.326   3.581
 7497TIP3    H122432   5.395   1.411   3.547
 7497TIP3    H222433   5.445   1.272   3.580
 7498TIP3   OH222434   7.211   6.199   0.702
 7498TIP3    H122435   7.258   6.227   0.624
 7498TIP3    H222436   7.259   6.121   0.732
 7499TIP3   OH222437   6.663   3.758   0.160
 7499TIP3    H122438   6.755   3.732   0.147
 7499TIP3    H222439   6.637   3.795   0.076
 7500TIP3   OH222440   1.969   3.341   3.326
 7500TIP3    H122441   1.977   3.250   3.296
 7500TIP3    H222442   2.053   3.359   3.369
 7501TIP3   OH222443   3.070   2.160   4.724
 7501TIP3    H122444   3.033   2.247   4.732
 7501TIP3    H222445   3.098   2.155   4.632
 7502TIP3   OH222446   7.214   7.019   5.161
 7502TIP3    H122447   7.221   6.956   5.089
 7502TIP3    H222448   7.299   7.015   5.204
 7503TIP3   OH222449   3.187   7.600   6.536
 7503TIP3    H122450   3.231   7.518   6.512
 7503TIP3    H222451   3.114   7.606   6.473
 7504TIP3   OH222452   6.219   2.530   1.219
 7504TIP3    H122453   6.127   2.536   1.193
 7504TIP3    H222454   6.217   2.532   1.315
 7505TIP3   OH222455   5.045   2.320   5.912
 7505TIP3    H122456   5.124   2.364   5.943
 7505TIP3    H222457   5.019   2.264   5.985
 7506TIP3   OH222458   0.399   5.005   6.424
 7506TIP3    H122459   0.491   5.015   6.448
 7506TIP3    H222460   0.375   5.089   6.385
 7507TIP3   OH222461   6.334   3.248   6.031
 7507TIP3    H122462   6.299   3.285   5.950
 7507TIP3    H222463   6.372   3.164   6.004
 7508TIP3   OH222464   0.571   7.128   4.333
 7508TIP3    H122465   0.495   7.182   4.354
 7508TIP3    H222466   0.646   7.185   4.349
 7509TIP3   OH222467   0.841   7.699   6.861
 7509TIP3    H122468   0.829   7.771   6.799
 7509TIP3    H222469   0.815   7.621   6.812
 7510TIP3   OH222470   3.351   3.810   1.665
 7510TIP3    H122471   3.357   3.814   1.761
 7510TIP3    H222472   3.333   3.718   1.646
 7511TIP3   OH222473   7.267   6.837   4.609
 7511TIP3    H122474   7.329   6.848   4.537
 7511TIP3    H222475   7.254   6.926   4.643
 7512TIP3   OH222476   3.919   2.587   6.033
 7512TIP3    H122477   3.906   2.679   6.053
 7512TIP3    H222478   3.994   2.586   5.973
 7513TIP3   OH222479   1.998   4.264   6.098
 7513TIP3    H122480   1.923   4.318   6.122
 7513TIP3    H222481   2.022   4.219   6.179
 7514TIP3   OH222482   4.763   2.553   4.187
 7514TIP3    H122483   4.825   2.617   4.221
 7514TIP3    H222484   4.677   2.592   4.203
 7515TIP3   OH222485   1.951   4.047   0.119
 7515TIP3    H122486   1.913   4.098   0.191
 7515TIP3    H222487   1.884   3.982   0.098
 7516TIP3   OH222488   7.148   4.836   4.630
 7516TIP3    H122489   7.056   4.859   4.638
 7516TIP3    H222490   7.148   4.751   4.585
 7517TIP3   OH222491   2.843   3.404   5.767
 7517TIP3    H122492   2.815   3.420   5.857
 7517TIP3    H222493   2.823   3.312   5.752
 7518TIP3   OH222494   3.723   7.408   2.423
 7518TIP3    H122495   3.761   7.344   2.362
 7518TIP3    H222496   3.751   7.379   2.509
 7519TIP3   OH222497   7.592   3.307   1.380
 7519TIP3    H122498   7.520   3.351   1.335
 7519TIP3    H222499   7.636   3.258   1.311
 7520TIP3   OH222500   6.960   2.938   5.684
 7520TIP3    H122501   6.969   2.883   5.762
 7520TIP3    H222502   6.984   3.026   5.713
 7521TIP3   OH222503   1.998   6.728   5.949
 7521TIP3    H122504   2.042   6.709   5.866
 7521TIP3    H222505   2.061   6.783   5.997
 7522TIP3   OH222506   4.295   5.514   0.211
 7522TIP3    H122507   4.240   5.578   0.166
 7522TIP3    H222508   4.379   5.558   0.222
 7523TIP3   OH222509   6.480   3.016   6.033
 7523TIP3    H122510   6.433   2.979   6.107
 7523TIP3    H222511   6.481   2.946   5.967
 7524TIP3   OH222512   4.384   5.761   5.631
 7524TIP3    H122513   4.374   5.845   5.675
 7524TIP3    H222514   4.478   5.744   5.632
 7525TIP3   OH222515   4.250   2.553   3.459
 7525TIP3    H122516   4.286   2.548   3.547
 7525TIP3    H222517   4.178   2.490   3.459
 7526TIP3   OH222518   2.331   3.435   2.519
 7526TIP3    H122519   2.403   3.498   2.527
 7526TIP3    H222520   2.347   3.390   2.436
 7527TIP3   OH222521   3.059   4.059   4.077
 7527TIP3    H122522   2.974   4.016   4.076
 7527TIP3    H222523   3.061   4.110   3.996
 7528TIP3   OH222524   7.882   1.573   2.867
 7528TIP3    H122525   7.945   1.646   2.870
 7528TIP3    H222526   7.859   1.558   2.958
 7529TIP3   OH222527   7.040   4.230   5.987
 7529TIP3    H122528   6.983   4.180   5.928
 7529TIP3    H222529   7.108   4.168   6.012
 7530TIP3   OH222530   2.037   2.473   0.169
 7530TIP3    H122531   2.064   2.449   0.258
 7530TIP3    H222532   1.956   2.523   0.181
 7531TIP3   OH222533   1.173   3.488   3.801
 7531TIP3    H122534   1.233   3.469   3.730
 7531TIP3    H222535   1.170   3.407   3.853
 7532TIP3   OH222536   1.981   0.284   5.159
 7532TIP3    H122537   1.903   0.259   5.209
 7532TIP3    H222538   2.054   0.261   5.217
 7533TIP3   OH222539   6.607   5.286   5.801
 7533TIP3    H122540   6.576   5.223   5.865
 7533TIP3    H222541   6.531   5.304   5.746
 7534TIP3   OH222542   1.029   2.040   2.310
 7534TIP3    H122543   1.061   2.053   2.221
 7534TIP3    H222544   0.943   2.000   2.299
 7535TIP3   OH222545   1.952   2.214   2.190
 7535TIP3    H122546   1.880   2.190   2.131
 7535TIP3    H222547   2.006   2.273   2.138
 7536TIP3   OH222548   2.203   4.118   5.199
 7536TIP3    H122549   2.197   4.143   5.107
 7536TIP3    H222550   2.173   4.027   5.201
 7537TIP3   OH222551   7.844   6.970   2.327
 7537TIP3    H122552   7.789   7.000   2.399
 7537TIP3    H222553   7.846   7.043   2.265
 7538TIP3   OH222554   4.795   5.855   1.159
 7538TIP3    H122555   4.827   5.861   1.069
 7538TIP3    H222556   4.849   5.917   1.207
 7539TIP3   OH222557   2.364   2.699   3.359
 7539TIP3    H122558   2.413   2.636   3.306
 7539TIP3    H222559   2.293   2.648   3.398
 7540TIP3   OH222560   8.215   4.940   6.363
 7540TIP3    H122561   8.148   5.004   6.340
 7540TIP3    H222562   8.281   4.990   6.411
 7541TIP3   OH222563   3.192   5.119   1.839
 7541TIP3    H122564   3.238   5.136   1.757
 7541TIP3    H222565   3.176   5.206   1.876
 7542TIP3   OH222566   5.543   6.927   2.988
 7542TIP3    H122567   5.622   6.877   3.006
 7542TIP3    H222568   5.485   6.866   2.943
 7543TIP3   OH222569   1.191   0.095   6.033
 7543TIP3    H122570   1.184   0.190   6.027
 7543TIP3    H222571   1.269   0.080   6.086
 7544TIP3   OH222572   2.843   6.971   5.238
 7544TIP3    H122573   2.913   6.974   5.302
 7544TIP3    H222574   2.827   7.063   5.215
 7545TIP3   OH222575   3.922   5.991   1.041
 7545TIP3    H122576   3.906   6.054   0.970
 7545TIP3    H222577   3.835   5.963   1.068
 7546TIP3   OH222578   4.906   7.148   2.851
 7546TIP3    H122579   4.984   7.144   2.795
 7546TIP3    H222580   4.885   7.242   2.854
 7547TIP3   OH222581   4.708   2.094   5.909
 7547TIP3    H122582   4.715   2.135   5.823
 7547TIP3    H222583   4.794   2.106   5.949
 7548TIP3   OH222584   0.732   0.426   1.889
 7548TIP3    H122585   0.809   0.415   1.944
 7548TIP3    H222586   0.685   0.500   1.927
 7549TIP3   OH222587   6.826   0.669   1.257
 7549TIP3    H122588   6.896   0.646   1.318
 7549TIP3    H222589   6.850   0.626   1.175
 7550TIP3   OH222590   2.375   1.982   2.586
 7550TIP3    H122591   2.322   2.059   2.608
 7550TIP3    H222592   2.366   1.925   2.662
 7551TIP3   OH222593   3.688   6.260   2.282
 7551TIP3    H122594   3.767   6.236   2.330
 7551TIP3    H222595   3.718   6.319   2.214
 7552TIP3   OH222596   1.810   6.238   4.030
 7552TIP3    H122597   1.715   6.227   4.031
 7552TIP3    H222598   1.824   6.328   4.060
 7553TIP3   OH222599   8.351   3.873   0.621
 7553TIP3    H122600   8.349   3.908   0.532
 7553TIP3    H222601   8.302   3.791   0.616
 7554TIP3   OH222602   0.025   5.699   3.549
 7554TIP3    H122603   0.083   5.645   3.602
 7554TIP3    H222604  -0.028   5.636   3.500
 7555TIP3   OH222605   1.805   6.349   4.346
 7555TIP3    H122606   1.882   6.406   4.343
 7555TIP3    H222607   1.752   6.377   4.272
 7556TIP3   OH222608   6.010   4.678   4.972
 7556TIP3    H122609   5.919   4.697   4.994
 7556TIP3    H222610   6.014   4.688   4.877
 7557TIP3   OH222611   5.109   0.198   1.899
 7557TIP3    H122612   5.090   0.215   1.991
 7557TIP3    H222613   5.195   0.237   1.884
 7558TIP3   OH222614   1.088   3.812   1.718
 7558TIP3    H122615   1.047   3.889   1.757
 7558TIP3    H222616   1.054   3.738   1.767
 7559TIP3   OH222617   2.243   7.124   0.274
 7559TIP3    H122618   2.338   7.115   0.265
 7559TIP3    H222619   2.221   7.067   0.348
 7560TIP3   OH222620   8.101   6.141   4.593
 7560TIP3    H122621   8.057   6.212   4.640
 7560TIP3    H222622   8.193   6.149   4.617
 7561TIP3   OH222623   3.001   2.089   5.358
 7561TIP3    H122624   2.960   2.026   5.418
 7561TIP3    H222625   3.011   2.169   5.410
 7562TIP3   OH222626   8.160   5.783   0.988
 7562TIP3    H122627   8.156   5.845   0.915
 7562TIP3    H222628   8.075   5.739   0.986
 7563TIP3   OH222629   7.864   4.370   3.884
 7563TIP3    H122630   7.775   4.374   3.918
 7563TIP3    H222631   7.861   4.302   3.816
 7564TIP3   OH222632   3.414   2.223   2.718
 7564TIP3    H122633   3.416   2.238   2.812
 7564TIP3    H222634   3.323   2.237   2.693
 7565TIP3   OH222635   3.015   4.531   3.825
 7565TIP3    H122636   2.925   4.561   3.832
 7565TIP3    H222637   3.065   4.611   3.807
 7566TIP3   OH222638   8.104   2.011   3.117
 7566TIP3    H122639   8.144   1.992   3.201
 7566TIP3    H222640   8.018   1.969   3.121
 7567TIP3   OH222641   1.699   4.730   0.424
 7567TIP3    H122642   1.776   4.733   0.367
 7567TIP3    H222643   1.731   4.695   0.507
 7568TIP3   OH222644   7.839   7.388   5.995
 7568TIP3    H122645   7.932   7.365   5.989
 7568TIP3    H222646   7.794   7.303   5.992
 7569TIP3   OH222647   1.155   6.034   0.596
 7569TIP3    H122648   1.088   6.102   0.590
 7569TIP3    H222649   1.209   6.060   0.671
 7570TIP3   OH222650   6.711   3.870   5.747
 7570TIP3    H122651   6.764   3.948   5.732
 7570TIP3    H222652   6.721   3.851   5.841
 7571TIP3   OH222653   6.016   3.458   3.158
 7571TIP3    H122654   5.979   3.406   3.230
 7571TIP3    H222655   5.998   3.549   3.183
 7572TIP3   OH222656   6.185   0.923   5.597
 7572TIP3    H122657   6.159   1.013   5.577
 7572TIP3    H222658   6.104   0.880   5.624
 7573TIP3   OH222659   6.842   6.921   1.334
 7573TIP3    H122660   6.868   6.837   1.373
 7573TIP3    H222661   6.905   6.935   1.264
 7574TIP3   OH222662   6.950   2.375   0.591
 7574TIP3    H122663   6.885   2.321   0.546
 7574TIP3    H222664   6.901   2.453   0.619
 7575TIP3   OH222665   5.185   7.524   3.709
 7575TIP3    H122666   5.219   7.435   3.716
 7575TIP3    H222667   5.239   7.576   3.768
 7576TIP3   OH222668   2.279   6.516   4.121
 7576TIP3    H122669   2.327   6.594   4.146
 7576TIP3    H222670   2.346   6.451   4.101
 7577TIP3   OH222671   3.483   5.389   1.975
 7577TIP3    H122672   3.409   5.430   1.930
 7577TIP3    H222673   3.459   5.391   2.068
 7578TIP3   OH222674   3.831   1.391   0.271
 7578TIP3    H122675   3.894   1.326   0.301
 7578TIP3    H222676   3.747   1.361   0.305
 7579TIP3   OH222677   2.667   5.721   6.376
 7579TIP3    H122678   2.714   5.801   6.402
 7579TIP3    H222679   2.735   5.654   6.373
 7580TIP3   OH222680   1.761   5.988   2.529
 7580TIP3    H122681   1.726   6.050   2.592
 7580TIP3    H222682   1.715   5.906   2.548
 7581TIP3   OH222683   6.189   4.118   1.381
 7581TIP3    H122684   6.165   4.206   1.411
 7581TIP3    H222685   6.167   4.061   1.455
 7582TIP3   OH222686   2.344   1.575   2.492
 7582TIP3    H122687   2.321   1.534   2.575
 7582TIP3    H222688   2.269   1.557   2.434
 7583TIP3   OH222689   1.988  -0.024   6.035
 7583TIP3    H122690   2.047  -0.011   6.109
 7583TIP3    H222691   1.926   0.049   6.040
 7584TIP3   OH222692   2.944   5.177   1.753
 7584TIP3    H122693   2.888   5.102   1.775
 7584TIP3    H222694   3.029   5.154   1.789
 7585TIP3   OH222695   7.077   3.256   2.018
 7585TIP3    H122696   7.130   3.177   2.035
 7585TIP3    H222697   7.141   3.327   2.017
 7586TIP3   OH222698   0.901   0.902   5.235
 7586TIP3    H122699   0.858   0.868   5.156
 7586TIP3    H222700   0.939   0.825   5.277
 7587TIP3   OH222701   1.571   1.774   2.443
 7587TIP3    H122702   1.653   1.730   2.466
 7587TIP3    H222703   1.549   1.824   2.522
 7588TIP3   OH222704   5.157   5.219   2.619
 7588TIP3    H122705   5.226   5.195   2.682
 7588TIP3    H222706   5.100   5.278   2.668
 7589TIP3   OH222707   5.261   2.579   3.843
 7589TIP3    H122708   5.307   2.563   3.926
 7589TIP3    H222709   5.278   2.500   3.791
 7590TIP3   OH222710   8.287   1.816   1.720
 7590TIP3    H122711   8.363   1.764   1.695
 7590TIP3    H222712   8.320   1.906   1.724
 7591TIP3   OH222713   6.200   7.226   3.416
 7591TIP3    H122714   6.162   7.140   3.396
 7591TIP3    H222715   6.189   7.276   3.336
 7592TIP3   OH222716   1.121   1.833   1.776
 7592TIP3    H122717   1.089   1.776   1.706
 7592TIP3    H222718   1.210   1.803   1.793
 7593TIP3   OH222719   7.182   3.356   5.828
 7593TIP3    H122720   7.254   3.389   5.774
 7593TIP3    H222721   7.208   3.375   5.918
 7594TIP3   OH222722   5.524   7.326   0.010
 7594TIP3    H122723   5.446   7.381   0.002
 7594TIP3    H222724   5.530   7.306   0.104
 7595TIP3   OH222725   7.546   6.188   3.354
 7595TIP3    H122726   7.459   6.227   3.359
 7595TIP3    H222727   7.562   6.153   3.442
 7596TIP3   OH222728   0.284   7.472   3.590
 7596TIP3    H122729   0.276   7.558   3.630
 7596TIP3    H222730   0.358   7.431   3.635
 7597TIP3   OH222731   3.053   1.423   6.546
 7597TIP3    H122732   3.129   1.421   6.488
 7597TIP3    H222733   2.983   1.382   6.496
 7598TIP3   OH222734   5.387   4.713   2.585
 7598TIP3    H122735   5.319   4.749   2.641
 7598TIP3    H222736   5.383   4.618   2.601
 7599TIP3   OH222737   2.489   3.237   6.627
 7599TIP3    H122738   2.410   3.243   6.680
 7599TIP3    H222739   2.503   3.327   6.595
 7600TIP3   OH222740   0.242   6.832   5.950
 7600TIP3    H122741   0.203   6.903   5.899
 7600TIP3    H222742   0.328   6.864   5.976
 7601TIP3   OH222743   7.564   5.036   6.358
 7601TIP3    H122744   7.501   4.970   6.329
 7601TIP3    H222745   7.646   5.013   6.314
 7602TIP3   OH222746   8.151   7.667   6.425
 7602TIP3    H122747   8.100   7.691   6.347
 7602TIP3    H222748   8.201   7.590   6.397
 7603TIP3   OH222749   4.990   1.750   5.760
 7603TIP3    H122750   4.933   1.692   5.709
 7603TIP3    H222751   4.930   1.794   5.820
 7604TIP3   OH222752   8.419   1.802   5.907
 7604TIP3    H122753   8.460   1.723   5.873
 7604TIP3    H222754   8.325   1.785   5.901
 7605TIP3   OH222755   3.015   2.923   2.198
 7605TIP3    H122756   2.947   2.966   2.145
 7605TIP3    H222757   3.038   2.844   2.148
 7606TIP3   OH222758   6.403   4.290   0.055
 7606TIP3    H122759   6.474   4.336   0.011
 7606TIP3    H222760   6.382   4.344   0.131
 7607TIP3   OH222761   4.872   4.843   5.933
 7607TIP3    H122762   4.965   4.820   5.930
 7607TIP3    H222763   4.868   4.931   5.896
 7608TIP3   OH222764   7.794   5.757   3.408
 7608TIP3    H122765   7.710   5.802   3.422
 7608TIP3    H222766   7.856   5.828   3.388
 7609TIP3   OH222767   4.023   5.189   3.503
 7609TIP3    H122768   3.990   5.100   3.515
 7609TIP3    H222769   4.029   5.200   3.408
 7610TIP3   OH222770   7.084   7.559   1.004
 7610TIP3    H122771   7.075   7.619   0.930
 7610TIP3    H222772   7.074   7.472   0.966
 7611TIP3   OH222773   8.058   6.079   6.366
 7611TIP3    H122774   7.994   6.120   6.308
 7611TIP3    H222775   8.047   5.985   6.351
 7612TIP3   OH222776   7.151   4.531   0.033
 7612TIP3    H122777   7.124   4.603   0.091
 7612TIP3    H222778   7.225   4.491   0.078
 7613TIP3   OH222779   6.164   2.327   0.420
 7613TIP3    H122780   6.241   2.307   0.366
 7613TIP3    H222781   6.174   2.420   0.442
 7614TIP3   OH222782   4.991   1.819   1.976
 7614TIP3    H122783   4.927   1.891   1.976
 7614TIP3    H222784   5.057   1.846   2.040
 7615TIP3   OH222785   3.317   6.633   2.088
 7615TIP3    H122786   3.261   6.615   2.013
 7615TIP3    H222787   3.399   6.589   2.068
 7616TIP3   OH222788   3.608   6.429   0.239
 7616TIP3    H122789   3.663   6.469   0.307
 7616TIP3    H222790   3.519   6.454   0.263
 7617TIP3   OH222791   4.661   6.985   3.389
 7617TIP3    H122792   4.610   7.029   3.456
 7617TIP3    H222793   4.752   7.007   3.409
 7618TIP3   OH222794   8.168   2.806   5.472
 7618TIP3    H122795   8.217   2.725   5.485
 7618TIP3    H222796   8.233   2.875   5.484
 7619TIP3   OH222797   2.887   1.523   1.475
 7619TIP3    H122798   2.975   1.561   1.477
 7619TIP3    H222799   2.844   1.558   1.553
 7620TIP3   OH222800   5.833   1.606   0.999
 7620TIP3    H122801   5.840   1.591   1.093
 7620TIP3    H222802   5.762   1.548   0.970
 7621TIP3   OH222803   6.611   2.762   4.863
 7621TIP3    H122804   6.655   2.740   4.782
 7621TIP3    H222805   6.618   2.858   4.869
 7622TIP3   OH222806   3.164   6.890   5.523
 7622TIP3    H122807   3.084   6.838   5.517
 7622TIP3    H222808   3.168   6.938   5.440
 7623TIP3   OH222809   6.935   7.371   3.699
 7623TIP3    H122810   6.852   7.418   3.704
 7623TIP3    H222811   6.917   7.296   3.642
 7624TIP3   OH222812   1.153   6.190   4.573
 7624TIP3    H122813   1.146   6.104   4.615
 7624TIP3    H222814   1.064   6.224   4.572
 7625TIP3   OH222815   8.338   6.848   4.524
 7625TIP3    H122816   8.272   6.809   4.466
 7625TIP3    H222817   8.410   6.785   4.523
 7626TIP3   OH222818   7.924   2.582   4.203
 7626TIP3    H122819   7.926   2.565   4.297
 7626TIP3    H222820   7.943   2.675   4.195
 7627TIP3   OH222821   2.408   7.772   0.654
 7627TIP3    H122822   2.335   7.800   0.710
 7627TIP3    H222823   2.367   7.753   0.569
 7628TIP3   OH222824   6.002   7.164   5.248
 7628TIP3    H122825   5.966   7.236   5.300
 7628TIP3    H222826   6.076   7.131   5.300
 7629TIP3   OH222827   1.923   1.849   6.220
 7629TIP3    H122828   1.964   1.815   6.300
 7629TIP3    H222829   1.946   1.942   6.219
 7630TIP3   OH222830   4.353   3.760   6.420
 7630TIP3    H122831   4.298   3.740   6.344
 7630TIP3    H222832   4.310   3.717   6.494
 7631TIP3   OH222833   2.330   5.625   5.994
 7631TIP3    H122834   2.333   5.536   6.030
 7631TIP3    H222835   2.281   5.675   6.059
 7632TIP3   OH222836   3.773   2.642   0.915
 7632TIP3    H122837   3.786   2.690   0.997
 7632TIP3    H222838   3.861   2.631   0.879
 7633TIP3   OH222839   4.840   0.510   0.716
 7633TIP3    H122840   4.853   0.537   0.625
 7633TIP3    H222841   4.777   0.438   0.711
 7634TIP3   OH222842   0.606   2.761   2.788
 7634TIP3    H122843   0.562   2.686   2.828
 7634TIP3    H222844   0.698   2.736   2.784
 7635TIP3   OH222845   6.351   7.757   2.748
 7635TIP3    H122846   6.281   7.700   2.715
 7635TIP3    H222847   6.304   7.828   2.793
 7636TIP3   OH222848   2.481   4.883   6.432
 7636TIP3    H122849   2.489   4.825   6.507
 7636TIP3    H222850   2.488   4.971   6.470
 7637TIP3   OH222851   6.721   6.744   5.374
 7637TIP3    H122852   6.741   6.723   5.465
 7637TIP3    H222853   6.730   6.839   5.369
 7638TIP3   OH222854   0.441   4.993   1.277
 7638TIP3    H122855   0.362   4.988   1.331
 7638TIP3    H222856   0.512   5.010   1.339
 7639TIP3   OH222857   3.736   5.364   3.291
 7639TIP3    H122858   3.669   5.360   3.360
 7639TIP3    H222859   3.752   5.457   3.278
 7640TIP3   OH222860   0.658   7.661   1.926
 7640TIP3    H122861   0.718   7.712   1.982
 7640TIP3    H222862   0.701   7.661   1.840
 7641TIP3   OH222863   3.123   2.019   0.067
 7641TIP3    H122864   3.118   2.093   0.128
 7641TIP3    H222865   3.169   1.950   0.116
 7642TIP3   OH222866   3.163   5.781   3.583
 7642TIP3    H122867   3.190   5.871   3.602
 7642TIP3    H222868   3.219   5.727   3.638
 7643TIP3   OH222869   1.571   2.310   4.838
 7643TIP3    H122870   1.550   2.307   4.745
 7643TIP3    H222871   1.489   2.336   4.880
 7644TIP3   OH222872   5.249   1.980   3.921
 7644TIP3    H122873   5.193   2.056   3.938
 7644TIP3    H222874   5.320   2.015   3.868
 7645TIP3   OH222875   1.163   5.641   4.000
 7645TIP3    H122876   1.168   5.725   4.046
 7645TIP3    H222877   1.225   5.585   4.047
 7646TIP3   OH222878   1.797   7.654   0.257
 7646TIP3    H122879   1.804   7.749   0.250
 7646TIP3    H222880   1.809   7.636   0.351
 7647TIP3   OH222881   7.752   3.433   5.617
 7647TIP3    H122882   7.751   3.528   5.628
 7647TIP3    H222883   7.748   3.398   5.706
 7648TIP3   OH222884   2.528   2.157   4.016
 7648TIP3    H122885   2.532   2.137   3.923
 7648TIP3    H222886   2.591   2.096   4.056
 7649TIP3   OH222887   7.735   6.118   6.647
 7649TIP3    H122888   7.740   6.038   6.595
 7649TIP3    H222889   7.641   6.133   6.660
 7650TIP3   OH222890   8.092   6.554   0.521
 7650TIP3    H122891   8.154   6.494   0.479
 7650TIP3    H222892   8.098   6.634   0.469
 7651TIP3   OH222893   0.637   0.370   5.285
 7651TIP3    H122894   0.716   0.366   5.339
 7651TIP3    H222895   0.594   0.285   5.298
 7652TIP3   OH222896   0.022   2.828   4.294
 7652TIP3    H122897  -0.057   2.778   4.271
 7652TIP3    H222898   0.038   2.805   4.386
 7653TIP3   OH222899   8.110   2.823   1.579
 7653TIP3    H122900   8.203   2.830   1.558
 7653TIP3    H222901   8.079   2.749   1.527
 7654TIP3   OH222902   3.673   1.627   4.221
 7654TIP3    H122903   3.722   1.638   4.139
 7654TIP3    H222904   3.643   1.715   4.243
 7655TIP3   OH222905   1.808   1.952   2.689
 7655TIP3    H122906   1.831   1.936   2.780
 7655TIP3    H222907   1.720   1.916   2.680
 7656TIP3   OH222908   3.821   3.817   2.734
 7656TIP3    H122909   3.787   3.755   2.669
 7656TIP3    H222910   3.907   3.843   2.700
 7657TIP3   OH222911   6.336   4.263   1.845
 7657TIP3    H122912   6.333   4.254   1.749
 7657TIP3    H222913   6.266   4.325   1.865
 7658TIP3   OH222914   3.748   1.428   0.018
 7658TIP3    H122915   3.801   1.409   0.095
 7658TIP3    H222916   3.810   1.459  -0.047
 7659TIP3   OH222917   2.357   6.469   2.718
 7659TIP3    H122918   2.316   6.417   2.649
 7659TIP3    H222919   2.372   6.407   2.789
 7660TIP3   OH222920   7.662   2.330   5.274
 7660TIP3    H122921   7.680   2.382   5.196
 7660TIP3    H222922   7.567   2.317   5.272
 7661TIP3   OH222923   0.981   4.454   4.296
 7661TIP3    H122924   1.001   4.522   4.231
 7661TIP3    H222925   0.956   4.502   4.374
 7662TIP3   OH222926   4.958   4.566   5.660
 7662TIP3    H122927   4.958   4.577   5.565
 7662TIP3    H222928   4.866   4.573   5.685
 7663TIP3   OH222929   5.993   4.750   2.578
 7663TIP3    H122930   5.937   4.672   2.573
 7663TIP3    H222931   6.009   4.774   2.487
 7664TIP3   OH222932   2.016   2.759   2.875
 7664TIP3    H122933   2.111   2.762   2.883
 7664TIP3    H222934   1.998   2.790   2.786
 7665TIP3   OH222935   4.008   4.173   0.514
 7665TIP3    H122936   4.035   4.184   0.605
 7665TIP3    H222937   3.949   4.246   0.497
 7666TIP3   OH222938   1.829   2.966   5.697
 7666TIP3    H122939   1.791   3.053   5.710
 7666TIP3    H222940   1.838   2.930   5.785
 7667TIP3   OH222941   1.603   4.371   4.742
 7667TIP3    H122942   1.596   4.309   4.814
 7667TIP3    H222943   1.657   4.442   4.777
 7668TIP3   OH222944   2.202   4.424   4.436
 7668TIP3    H122945   2.161   4.402   4.352
 7668TIP3    H222946   2.295   4.402   4.424
 7669TIP3   OH222947   2.120   2.887   5.171
 7669TIP3    H122948   2.197   2.926   5.212
 7669TIP3    H222949   2.154   2.843   5.093
 7670TIP3   OH222950   8.293   2.047   3.386
 7670TIP3    H122951   8.373   1.994   3.393
 7670TIP3    H222952   8.319   2.134   3.415
 7671TIP3   OH222953   5.033   7.265   4.272
 7671TIP3    H122954   5.104   7.215   4.311
 7671TIP3    H222955   4.970   7.198   4.244
 7672TIP3   OH222956   3.153   2.275   0.184
 7672TIP3    H122957   3.147   2.226   0.266
 7672TIP3    H222958   3.086   2.343   0.191
 7673TIP3   OH222959   4.964   0.192   4.679
 7673TIP3    H122960   5.011   0.125   4.728
 7673TIP3    H222961   4.879   0.199   4.724
 7674TIP3   OH222962   3.290   1.712   1.080
 7674TIP3    H122963   3.322   1.721   1.170
 7674TIP3    H222964   3.305   1.620   1.058
 7675TIP3   OH222965   7.239   4.339   2.823
 7675TIP3    H122966   7.192   4.358   2.904
 7675TIP3    H222967   7.185   4.379   2.755
 7676TIP3   OH222968   0.161   5.999   4.600
 7676TIP3    H122969   0.184   5.958   4.683
 7676TIP3    H222970   0.210   5.949   4.534
 7677TIP3   OH222971   5.614   4.514   5.737
 7677TIP3    H122972   5.639   4.463   5.660
 7677TIP3    H222973   5.519   4.523   5.729
 7678TIP3   OH222974   6.137   1.177   1.283
 7678TIP3    H122975   6.074   1.222   1.340
 7678TIP3    H222976   6.095   1.173   1.198
 7679TIP3   OH222977   6.851   1.287   5.754
 7679TIP3    H122978   6.792   1.361   5.774
 7679TIP3    H222979   6.794   1.210   5.757
 7680TIP3   OH222980   2.324   4.645   0.840
 7680TIP3    H122981   2.335   4.564   0.890
 7680TIP3    H222982   2.406   4.692   0.852
 7681TIP3   OH222983   2.526   2.071   6.465
 7681TIP3    H122984   2.464   1.999   6.451
 7681TIP3    H222985   2.470   2.148   6.476
 7682TIP3   OH222986   5.803   4.159   1.230
 7682TIP3    H122987   5.861   4.227   1.197
 7682TIP3    H222988   5.761   4.123   1.151
 7683TIP3   OH222989   1.845   0.254   6.053
 7683TIP3    H122990   1.761   0.221   6.083
 7683TIP3    H222991   1.886   0.291   6.131
 7684TIP3   OH222992   4.999   6.501   1.453
 7684TIP3    H122993   5.015   6.516   1.359
 7684TIP3    H222994   5.053   6.567   1.497
 7685TIP3   OH222995   2.641   1.582   5.335
 7685TIP3    H122996   2.654   1.528   5.413
 7685TIP3    H222997   2.726   1.624   5.320
 7686TIP3   OH222998   7.107   0.939   4.985
 7686TIP3    H122999   7.083   1.030   4.965
 7686TIP3    H223000   7.025   0.897   5.011
 7687TIP3   OH223001   5.727   2.167   3.665
 7687TIP3    H123002   5.706   2.154   3.573
 7687TIP3    H223003   5.668   2.107   3.712
 7688TIP3   OH223004   6.034   1.848   6.822
 7688TIP3    H123005   6.037   1.850   6.726
 7688TIP3    H223006   5.948   1.883   6.844
 7689TIP3   OH223007   5.424   3.462   4.785
 7689TIP3    H123008   5.405   3.377   4.744
 7689TIP3    H223009   5.390   3.453   4.874
 7690TIP3   OH223010   1.005   3.820   2.657
 7690TIP3    H123011   1.082   3.787   2.705
 7690TIP3    H223012   0.986   3.905   2.697
 7691TIP3   OH223013   3.816   0.506   6.793
 7691TIP3    H123014   3.812   0.602   6.790
 7691TIP3    H223015   3.887   0.488   6.855
 7692TIP3   OH223016   2.584   4.106   4.884
 7692TIP3    H123017   2.584   4.123   4.979
 7692TIP3    H223018   2.645   4.171   4.849
 7693TIP3   OH223019   8.350   2.682   3.754
 7693TIP3    H123020   8.330   2.675   3.661
 7693TIP3    H223021   8.400   2.604   3.775
 7694TIP3   OH223022   8.082   6.702   0.742
 7694TIP3    H123023   8.163   6.685   0.790
 7694TIP3    H223024   8.095   6.659   0.657
 7695TIP3   OH223025   1.541   7.566   1.932
 7695TIP3    H123026   1.472   7.606   1.879
 7695TIP3    H223027   1.620   7.573   1.877
 7696TIP3   OH223028   6.910   5.224   4.718
 7696TIP3    H123029   6.904   5.223   4.622
 7696TIP3    H223030   7.000   5.249   4.736
 7697TIP3   OH223031   6.180   7.097   6.495
 7697TIP3    H123032   6.193   7.189   6.469
 7697TIP3    H223033   6.166   7.101   6.589
 7698TIP3   OH223034   3.596   3.290   5.021
 7698TIP3    H123035   3.641   3.373   5.035
 7698TIP3    H223036   3.518   3.295   5.077
 7699TIP3   OH223037   8.328   7.638   5.492
 7699TIP3    H123038   8.348   7.639   5.585
 7699TIP3    H223039   8.317   7.546   5.470
 7700TIP3   OH223040   4.755   1.352   5.230
 7700TIP3    H123041   4.702   1.311   5.162
 7700TIP3    H223042   4.758   1.444   5.206
 7701TIP3   OH223043   4.684   6.322   5.120
 7701TIP3    H123044   4.718   6.337   5.032
 7701TIP3    H223045   4.594   6.293   5.107
 7702TIP3   OH223046   0.803   5.229   0.723
 7702TIP3    H123047   0.726   5.177   0.700
 7702TIP3    H223048   0.824   5.277   0.643
 7703TIP3   OH223049   6.709   4.572   4.813
 7703TIP3    H123050   6.666   4.581   4.898
 7703TIP3    H223051   6.764   4.494   4.822
 7704TIP3   OH223052   1.813   3.819   0.273
 7704TIP3    H123053   1.859   3.895   0.309
 7704TIP3    H223054   1.875   3.746   0.282
 7705TIP3   OH223055   7.106   0.670   4.126
 7705TIP3    H123056   7.173   0.637   4.066
 7705TIP3    H223057   7.084   0.595   4.181
 7706TIP3   OH223058   5.907   1.194   4.284
 7706TIP3    H123059   5.916   1.155   4.197
 7706TIP3    H223060   5.875   1.122   4.339
 7707TIP3   OH223061   6.880   4.641   2.116
 7707TIP3    H123062   6.918   4.728   2.128
 7707TIP3    H223063   6.793   4.647   2.154
 7708TIP3   OH223064   4.670   2.311   2.189
 7708TIP3    H123065   4.738   2.326   2.124
 7708TIP3    H223066   4.633   2.225   2.166
 7709TIP3   OH223067   7.768   0.300   0.185
 7709TIP3    H123068   7.777   0.205   0.178
 7709TIP3    H223069   7.676   0.314   0.208
 7710TIP3   OH223070   1.019   7.357   3.920
 7710TIP3    H123071   0.930   7.373   3.890
 7710TIP3    H223072   1.035   7.265   3.901
 7711TIP3   OH223073   7.268   4.621   3.029
 7711TIP3    H123074   7.246   4.702   3.075
 7711TIP3    H223075   7.264   4.644   2.936
 7712TIP3   OH223076   1.369   3.178   3.076
 7712TIP3    H123077   1.446   3.234   3.083
 7712TIP3    H223078   1.397   3.106   3.019
 7713TIP3   OH223079   8.292   3.822   2.251
 7713TIP3    H123080   8.208   3.819   2.204
 7713TIP3    H223081   8.335   3.740   2.228
 7714TIP3   OH223082   7.123   4.522   1.489
 7714TIP3    H123083   7.150   4.440   1.530
 7714TIP3    H223084   7.035   4.538   1.522
 7715TIP3   OH223085   3.985   7.869   4.591
 7715TIP3    H123086   4.016   7.906   4.674
 7715TIP3    H223087   3.957   7.944   4.540
 7716TIP3   OH223088   1.507   3.437   1.817
 7716TIP3    H123089   1.455   3.475   1.888
 7716TIP3    H223090   1.466   3.469   1.737
 7717TIP3   OH223091   0.958   5.393   5.058
 7717TIP3    H123092   0.987   5.428   5.142
 7717TIP3    H223093   0.886   5.451   5.031
 7718TIP3   OH223094   2.595   0.979   4.117
 7718TIP3    H123095   2.595   1.074   4.126
 7718TIP3    H223096   2.517   0.950   4.164
 7719TIP3   OH223097   4.868   7.633   2.096
 7719TIP3    H123098   4.820   7.636   2.013
 7719TIP3    H223099   4.939   7.697   2.084
 7720TIP3   OH223100   2.482   0.481   0.733
 7720TIP3    H123101   2.419   0.553   0.740
 7720TIP3    H223102   2.566   0.521   0.755
 7721TIP3   OH223103   7.385   2.729   3.968
 7721TIP3    H123104   7.434   2.710   3.889
 7721TIP3    H223105   7.441   2.697   4.039
 7722TIP3   OH223106   4.145   2.357   4.413
 7722TIP3    H123107   4.073   2.401   4.459
 7722TIP3    H223108   4.129   2.376   4.320
 7723TIP3   OH223109   7.818   6.041   5.874
 7723TIP3    H123110   7.732   6.019   5.836
 7723TIP3    H223111   7.871   6.066   5.798
 7724TIP3   OH223112   4.545   0.333   4.892
 7724TIP3    H123113   4.620   0.287   4.929
 7724TIP3    H223114   4.580   0.377   4.814
 7725TIP3   OH223115   4.022   7.363   4.093
 7725TIP3    H123116   4.079   7.440   4.096
 7725TIP3    H223117   3.977   7.364   4.177
 7726TIP3   OH223118   1.379   5.614   5.006
 7726TIP3    H123119   1.369   5.708   5.015
 7726TIP3    H223120   1.432   5.588   5.082
 7727TIP3   OH223121   7.200   1.000   1.698
 7727TIP3    H123122   7.194   0.910   1.728
 7727TIP3    H223123   7.197   0.994   1.602
 7728TIP3   OH223124   7.363   6.287   5.974
 7728TIP3    H123125   7.307   6.271   6.050
 7728TIP3    H223126   7.332   6.224   5.909
 7729TIP3   OH223127   7.763   7.255   6.673
 7729TIP3    H123128   7.809   7.172   6.685
 7729TIP3    H223129   7.765   7.270   6.578
 7730TIP3   OH223130   7.097   3.474   6.145
 7730TIP3    H123131   7.062   3.447   6.230
 7730TIP3    H223132   7.095   3.570   6.148
 7731TIP3   OH223133   6.366   6.845   1.333
 7731TIP3    H123134   6.287   6.873   1.380
 7731TIP3    H223135   6.334   6.780   1.270
 7732TIP3   OH223136   3.995   4.554   0.969
 7732TIP3    H123137   4.005   4.506   1.051
 7732TIP3    H223138   3.914   4.519   0.930
 7733TIP3   OH223139   7.132   2.411   4.510
 7733TIP3    H123140   7.046   2.452   4.507
 7733TIP3    H223141   7.148   2.395   4.603
 7734TIP3   OH223142   5.741   6.626   2.063
 7734TIP3    H123143   5.709   6.579   1.986
 7734TIP3    H223144   5.836   6.628   2.051
 7735TIP3   OH223145   1.502   5.880   5.358
 7735TIP3    H123146   1.463   5.902   5.443
 7735TIP3    H223147   1.490   5.958   5.305
 7736TIP3   OH223148   8.262   1.631   1.404
 7736TIP3    H123149   8.220   1.683   1.472
 7736TIP3    H223150   8.290   1.551   1.448
 7737TIP3   OH223151   2.131   5.435   3.855
 7737TIP3    H123152   2.051   5.406   3.811
 7737TIP3    H223153   2.110   5.524   3.885
 7738TIP3   OH223154   0.370   3.960   0.446
 7738TIP3    H123155   0.322   3.878   0.446
 7738TIP3    H223156   0.379   3.983   0.353
 7739TIP3   OH223157   6.193   7.890   1.715
 7739TIP3    H123158   6.189   7.802   1.676
 7739TIP3    H223159   6.206   7.873   1.808
 7740TIP3   OH223160   5.340   2.835   1.251
 7740TIP3    H123161   5.414   2.867   1.199
 7740TIP3    H223162   5.331   2.743   1.224
 7741TIP3   OH223163   4.080   4.834   5.118
 7741TIP3    H123164   3.999   4.783   5.118
 7741TIP3    H223165   4.086   4.871   5.206
 7742TIP3   OH223166   6.359   5.827   6.433
 7742TIP3    H123167   6.308   5.794   6.507
 7742TIP3    H223168   6.401   5.906   6.466
 7743TIP3   OH223169   0.942   4.671   5.635
 7743TIP3    H123170   0.986   4.746   5.596
 7743TIP3    H223171   0.849   4.693   5.634
 7744TIP3   OH223172   3.142   0.173   1.331
 7744TIP3    H123173   3.101   0.260   1.331
 7744TIP3    H223174   3.085   0.120   1.274
 7745TIP3   OH223175   2.195   3.159   6.715
 7745TIP3    H123176   2.103   3.135   6.730
 7745TIP3    H223177   2.240   3.128   6.793
 7746TIP3   OH223178   0.655   0.513   6.021
 7746TIP3    H123179   0.600   0.585   5.988
 7746TIP3    H223180   0.723   0.503   5.955
 7747TIP3   OH223181   2.696   0.288   1.866
 7747TIP3    H123182   2.767   0.231   1.896
 7747TIP3    H223183   2.716   0.304   1.774
 7748TIP3   OH223184   3.294   6.723   4.630
 7748TIP3    H123185   3.312   6.770   4.548
 7748TIP3    H223186   3.364   6.659   4.636
 7749TIP3   OH223187   2.780   3.196   3.337
 7749TIP3    H123188   2.780   3.101   3.328
 7749TIP3    H223189   2.702   3.215   3.390
 7750TIP3   OH223190   7.583   4.095   5.443
 7750TIP3    H123191   7.658   4.071   5.389
 7750TIP3    H223192   7.575   4.024   5.507
 7751TIP3   OH223193   2.332   1.951   5.028
 7751TIP3    H123194   2.306   2.043   5.022
 7751TIP3    H223195   2.316   1.928   5.120
 7752TIP3   OH223196   8.037   4.144   2.513
 7752TIP3    H123197   8.009   4.070   2.567
 7752TIP3    H223198   7.980   4.217   2.540
 7753TIP3   OH223199   7.025   3.248   0.054
 7753TIP3    H123200   7.097   3.190   0.076
 7753TIP3    H223201   6.963   3.237   0.126
 7754TIP3   OH223202   7.425   5.051   5.678
 7754TIP3    H123203   7.501   5.007   5.638
 7754TIP3    H223204   7.367   4.980   5.704
 7755TIP3   OH223205   1.169   7.653   4.189
 7755TIP3    H123206   1.159   7.565   4.153
 7755TIP3    H223207   1.109   7.656   4.263
 7756TIP3   OH223208   4.134   1.904   0.293
 7756TIP3    H123209   4.210   1.905   0.352
 7756TIP3    H223210   4.074   1.968   0.330
 7757TIP3   OH223211   3.449   4.259   1.881
 7757TIP3    H123212   3.392   4.247   1.805
 7757TIP3    H223213   3.419   4.341   1.920
 7758TIP3   OH223214   7.861   1.785   4.653
 7758TIP3    H123215   7.867   1.705   4.602
 7758TIP3    H223216   7.912   1.767   4.732
 7759TIP3   OH223217   8.149   6.552   5.870
 7759TIP3    H123218   8.172   6.460   5.885
 7759TIP3    H223219   8.225   6.601   5.899
 7760TIP3   OH223220   2.819   1.139   0.264
 7760TIP3    H123221   2.837   1.214   0.208
 7760TIP3    H223222   2.884   1.074   0.240
 7761TIP3   OH223223   7.379   5.906   0.489
 7761TIP3    H123224   7.302   5.865   0.527
 7761TIP3    H223225   7.375   5.884   0.396
 7762TIP3   OH223226   6.263   1.329   3.266
 7762TIP3    H123227   6.354   1.346   3.288
 7762TIP3    H223228   6.215   1.347   3.347
 7763TIP3   OH223229   3.540   2.485   5.730
 7763TIP3    H123230   3.601   2.559   5.730
 7763TIP3    H223231   3.590   2.413   5.690
 7764TIP3   OH223232   1.667   7.771   4.107
 7764TIP3    H123233   1.626   7.765   4.020
 7764TIP3    H223234   1.735   7.704   4.106
 7765TIP3   OH223235   2.335   7.692   1.035
 7765TIP3    H123236   2.325   7.747   1.112
 7765TIP3    H223237   2.267   7.721   0.975
 7766TIP3   OH223238   5.497   3.119   1.404
 7766TIP3    H123239   5.508   3.118   1.309
 7766TIP3    H223240   5.582   3.145   1.438
 7767TIP3   OH223241   2.677   5.177   0.642
 7767TIP3    H123242   2.681   5.099   0.587
 7767TIP3    H223243   2.674   5.250   0.580
 7768TIP3   OH223244   5.997   2.071   3.463
 7768TIP3    H123245   6.072   2.100   3.514
 7768TIP3    H223246   6.033   2.046   3.378
 7769TIP3   OH223247   6.521   2.082   3.822
 7769TIP3    H123248   6.558   2.170   3.823
 7769TIP3    H223249   6.491   2.068   3.912
 7770TIP3   OH223250   5.318   3.323   3.794
 7770TIP3    H123251   5.266   3.403   3.802
 7770TIP3    H223252   5.404   3.353   3.765
 7771TIP3   OH223253   0.287   3.038   2.642
 7771TIP3    H123254   0.283   3.030   2.547
 7771TIP3    H223255   0.326   3.124   2.658
 7772TIP3   OH223256   0.156   3.644   2.716
 7772TIP3    H123257   0.231   3.614   2.663
 7772TIP3    H223258   0.080   3.632   2.658
 7773TIP3   OH223259   7.829   0.488   4.064
 7773TIP3    H123260   7.738   0.460   4.065
 7773TIP3    H223261   7.826   0.583   4.053
 7774TIP3   OH223262   7.384   2.493   4.441
 7774TIP3    H123263   7.412   2.540   4.520
 7774TIP3    H223264   7.312   2.437   4.471
 7775TIP3   OH223265   6.220   0.852   0.604
 7775TIP3    H123266   6.278   0.928   0.605
 7775TIP3    H223267   6.278   0.777   0.617
 7776TIP3   OH223268   7.259   1.733   2.681
 7776TIP3    H123269   7.305   1.813   2.653
 7776TIP3    H223270   7.200   1.763   2.750
 7777TIP3   OH223271   5.339   5.723   2.332
 7777TIP3    H123272   5.386   5.721   2.249
 7777TIP3    H223273   5.328   5.816   2.351
 7778TIP3   OH223274   2.130   6.450   0.520
 7778TIP3    H123275   2.062   6.506   0.482
 7778TIP3    H223276   2.093   6.362   0.516
 7779TIP3   OH223277   6.486   7.185   3.723
 7779TIP3    H123278   6.543   7.130   3.669
 7779TIP3    H223279   6.400   7.179   3.682
 7780TIP3   OH223280   6.118   2.088   1.200
 7780TIP3    H123281   6.091   2.016   1.142
 7780TIP3    H223282   6.214   2.081   1.203
 7781TIP3   OH223283   5.908   2.164   5.106
 7781TIP3    H123284   5.873   2.147   5.018
 7781TIP3    H223285   5.999   2.189   5.090
 7782TIP3   OH223286   0.916   4.149   2.598
 7782TIP3    H123287   0.883   4.087   2.533
 7782TIP3    H223288   0.891   4.110   2.682
 7783TIP3   OH223289   3.590   5.837   1.984
 7783TIP3    H123290   3.523   5.849   1.917
 7783TIP3    H223291   3.577   5.909   2.045
 7784TIP3   OH223292   0.404   1.755   5.381
 7784TIP3    H123293   0.387   1.661   5.379
 7784TIP3    H223294   0.347   1.788   5.450
 7785TIP3   OH223295   8.315   2.890   2.742
 7785TIP3    H123296   8.298   2.814   2.686
 7785TIP3    H223297   8.252   2.956   2.714
 7786TIP3   OH223298   3.470   3.786   0.696
 7786TIP3    H123299   3.560   3.798   0.727
 7786TIP3    H223300   3.478   3.725   0.623
 7787TIP3   OH223301   4.150   4.336   4.781
 7787TIP3    H123302   4.131   4.250   4.817
 7787TIP3    H223303   4.111   4.334   4.693
 7788TIP3   OH223304   6.508   1.565   2.859
 7788TIP3    H123305   6.494   1.558   2.765
 7788TIP3    H223306   6.421   1.553   2.897
 7789TIP3   OH223307   1.763   5.407   6.696
 7789TIP3    H123308   1.847   5.389   6.654
 7789TIP3    H223309   1.786   5.455   6.775
 7790TIP3   OH223310   4.604   3.634   1.029
 7790TIP3    H123311   4.566   3.615   0.943
 7790TIP3    H223312   4.687   3.586   1.030
 7791TIP3   OH223313   0.227   5.699   5.102
 7791TIP3    H123314   0.302   5.742   5.144
 7791TIP3    H223315   0.214   5.748   5.021
 7792TIP3   OH223316   2.193   5.726   5.095
 7792TIP3    H123317   2.252   5.799   5.078
 7792TIP3    H223318   2.111   5.768   5.122
 7793TIP3   OH223319   5.580   3.963   2.910
 7793TIP3    H123320   5.640   4.038   2.918
 7793TIP3    H223321   5.505   3.998   2.861
 7794TIP3   OH223322   2.844   3.025   4.717
 7794TIP3    H123323   2.891   3.057   4.794
 7794TIP3    H223324   2.911   2.983   4.663
 7795TIP3   OH223325   5.503   6.506   6.652
 7795TIP3    H123326   5.565   6.497   6.579
 7795TIP3    H223327   5.451   6.583   6.630
 7796TIP3   OH223328   2.475   0.385   1.975
 7796TIP3    H123329   2.555   0.344   1.943
 7796TIP3    H223330   2.414   0.380   1.901
 7797TIP3   OH223331   6.969   2.875   4.653
 7797TIP3    H123332   6.902   2.809   4.673
 7797TIP3    H223333   7.046   2.825   4.628
 7798TIP3   OH223334   5.077   2.439   5.068
 7798TIP3    H123335   5.065   2.355   5.024
 7798TIP3    H223336   5.050   2.424   5.158
 7799TIP3   OH223337   0.555   1.755   6.681
 7799TIP3    H123338   0.623   1.696   6.714
 7799TIP3    H223339   0.474   1.722   6.720
 7800TIP3   OH223340   5.746   3.521   0.247
 7800TIP3    H123341   5.752   3.426   0.233
 7800TIP3    H223342   5.721   3.555   0.161
 7801TIP3   OH223343   5.744   5.596   5.890
 7801TIP3    H123344   5.805   5.569   5.958
 7801TIP3    H223345   5.751   5.528   5.823
 7802TIP3   OH223346   2.137   5.111   4.482
 7802TIP3    H123347   2.079   5.180   4.450
 7802TIP3    H223348   2.182   5.079   4.403
 7803TIP3   OH223349   7.178   2.145   4.080
 7803TIP3    H123350   7.265   2.110   4.101
 7803TIP3    H223351   7.153   2.101   3.999
 7804TIP3   OH223352   1.758   7.119   6.007
 7804TIP3    H123353   1.689   7.180   5.980
 7804TIP3    H223354   1.826   7.128   5.941
 7805TIP3   OH223355   5.097   5.352   4.930
 7805TIP3    H123356   5.014   5.333   4.886
 7805TIP3    H223357   5.129   5.266   4.958
 7806TIP3   OH223358   1.070   4.913   6.603
 7806TIP3    H123359   1.116   4.831   6.588
 7806TIP3    H223360   1.052   4.948   6.515
 7807TIP3   OH223361   6.794   2.088   4.067
 7807TIP3    H123362   6.709   2.129   4.086
 7807TIP3    H223363   6.772   2.007   4.022
 7808TIP3   OH223364   2.690   2.907   3.343
 7808TIP3    H123365   2.648   2.839   3.289
 7808TIP3    H223366   2.672   2.880   3.433
 7809TIP3   OH223367   6.380   6.631   2.725
 7809TIP3    H123368   6.347   6.692   2.658
 7809TIP3    H223369   6.353   6.545   2.693
 7810TIP3   OH223370   3.566   7.573   3.414
 7810TIP3    H123371   3.550   7.597   3.323
 7810TIP3    H223372   3.662   7.572   3.422
 7811TIP3   OH223373   1.046   7.630   2.934
 7811TIP3    H123374   1.087   7.682   3.003
 7811TIP3    H223375   1.011   7.553   2.979
 7812TIP3   OH223376   6.697   7.380   0.460
 7812TIP3    H123377   6.728   7.363   0.372
 7812TIP3    H223378   6.632   7.449   0.450
 7813TIP3   OH223379   3.494   7.357   2.720
 7813TIP3    H123380   3.558   7.395   2.781
 7813TIP3    H223381   3.448   7.432   2.683
 7814TIP3   OH223382   3.022   6.100   4.375
 7814TIP3    H123383   3.084   6.160   4.334
 7814TIP3    H223384   2.982   6.151   4.445
 7815TIP3   OH223385   8.232   6.945   3.952
 7815TIP3    H123386   8.290   7.008   3.911
 7815TIP3    H223387   8.276   6.861   3.941
 7816TIP3   OH223388   3.871   0.215   6.057
 7816TIP3    H123389   3.836   0.144   6.110
 7816TIP3    H223390   3.812   0.220   5.981
 7817TIP3   OH223391   0.731   1.574   0.589
 7817TIP3    H123392   0.731   1.506   0.522
 7817TIP3    H223393   0.788   1.541   0.658
 7818TIP3   OH223394   7.572   0.180   5.688
 7818TIP3    H123395   7.594   0.182   5.595
 7818TIP3    H223396   7.480   0.204   5.691
 7819TIP3   OH223397   5.563   4.700   1.759
 7819TIP3    H123398   5.527   4.662   1.839
 7819TIP3    H223399   5.580   4.625   1.702
 7820TIP3   OH223400   4.474   6.669   0.262
 7820TIP3    H123401   4.438   6.584   0.237
 7820TIP3    H223402   4.420   6.733   0.216
 7821TIP3   OH223403   3.325   6.996   0.887
 7821TIP3    H123404   3.266   7.068   0.913
 7821TIP3    H223405   3.312   6.930   0.955
 7822TIP3   OH223406   4.348   0.066   1.637
 7822TIP3    H123407   4.386   0.005   1.699
 7822TIP3    H223408   4.262   0.086   1.673
 7823TIP3   OH223409   1.666   4.383   6.638
 7823TIP3    H123410   1.745   4.350   6.680
 7823TIP3    H223411   1.696   4.449   6.577
 7824TIP3   OH223412   6.377   7.387   2.117
 7824TIP3    H123413   6.465   7.369   2.150
 7824TIP3    H223414   6.346   7.460   2.170
 7825TIP3   OH223415   4.159   4.062   6.639
 7825TIP3    H123416   4.133   4.033   6.552
 7825TIP3    H223417   4.247   4.099   6.627
 7826TIP3   OH223418   5.449   3.436   1.206
 7826TIP3    H123419   5.502   3.377   1.152
 7826TIP3    H223420   5.509   3.464   1.276
 7827TIP3   OH223421   1.213   3.289   2.123
 7827TIP3    H123422   1.139   3.346   2.146
 7827TIP3    H223423   1.171   3.209   2.091
 7828TIP3   OH223424   3.705   6.927   3.751
 7828TIP3    H123425   3.635   6.895   3.808
 7828TIP3    H223426   3.708   7.022   3.768
 7829TIP3   OH223427   3.892   3.732   0.584
 7829TIP3    H123428   3.898   3.719   0.489
 7829TIP3    H223429   3.880   3.827   0.594
 7830TIP3   OH223430   3.389   6.247   0.294
 7830TIP3    H123431   3.393   6.338   0.322
 7830TIP3    H223432   3.334   6.204   0.359
 7831TIP3   OH223433   6.030   7.809   3.429
 7831TIP3    H123434   5.979   7.768   3.499
 7831TIP3    H223435   6.070   7.736   3.382
 7832TIP3   OH223436   6.666   0.150   0.133
 7832TIP3    H123437   6.723   0.201   0.075
 7832TIP3    H223438   6.578   0.164   0.098
 7833TIP3   OH223439   8.059   7.888   2.933
 7833TIP3    H123440   8.021   7.821   2.989
 7833TIP3    H223441   8.143   7.851   2.906
 7834TIP3   OH223442   1.038   3.381   5.331
 7834TIP3    H123443   0.960   3.338   5.364
 7834TIP3    H223444   1.094   3.393   5.407
 7835TIP3   OH223445   2.781   2.214   2.997
 7835TIP3    H123446   2.800   2.308   3.002
 7835TIP3    H223447   2.866   2.171   3.007
 7836TIP3   OH223448   5.895   7.160   0.928
 7836TIP3    H123449   5.831   7.115   0.873
 7836TIP3    H223450   5.980   7.137   0.891
 7837TIP3   OH223451   2.381   5.313   3.972
 7837TIP3    H123452   2.409   5.326   4.062
 7837TIP3    H223453   2.299   5.362   3.965
 7838TIP3   OH223454   2.664   2.600   6.053
 7838TIP3    H123455   2.656   2.591   6.148
 7838TIP3    H223456   2.611   2.528   6.018
 7839TIP3   OH223457   6.241   0.392   3.960
 7839TIP3    H123458   6.192   0.376   3.879
 7839TIP3    H223459   6.332   0.373   3.938
 7840TIP3   OH223460   2.422   7.524   5.355
 7840TIP3    H123461   2.348   7.557   5.406
 7840TIP3    H223462   2.388   7.518   5.265
 7841TIP3   OH223463   8.241   1.110   2.987
 7841TIP3    H123464   8.254   1.146   3.075
 7841TIP3    H223465   8.292   1.029   2.986
 7842TIP3   OH223466   2.120   4.907   3.325
 7842TIP3    H123467   2.127   4.932   3.417
 7842TIP3    H223468   2.193   4.952   3.282
 7843TIP3   OH223469   1.882   5.437   2.820
 7843TIP3    H123470   1.900   5.361   2.763
 7843TIP3    H223471   1.859   5.507   2.759
 7844TIP3   OH223472   3.325   5.272   3.934
 7844TIP3    H123473   3.238   5.295   3.966
 7844TIP3    H223474   3.349   5.193   3.982
 7845TIP3   OH223475   3.166   7.872   6.618
 7845TIP3    H123476   3.104   7.912   6.556
 7845TIP3    H223477   3.178   7.783   6.585
 7846TIP3   OH223478   2.808   2.842   4.445
 7846TIP3    H123479   2.774   2.767   4.495
 7846TIP3    H223480   2.883   2.873   4.495
 7847TIP3   OH223481   2.231   5.093   4.743
 7847TIP3    H123482   2.241   5.131   4.656
 7847TIP3    H223483   2.146   5.124   4.774
 7848TIP3   OH223484   5.158   1.297   6.093
 7848TIP3    H123485   5.110   1.372   6.057
 7848TIP3    H223486   5.126   1.289   6.183
 7849TIP3   OH223487   5.391   0.016   5.682
 7849TIP3    H123488   5.392   0.050   5.771
 7849TIP3    H223489   5.304   0.040   5.649
 7850TIP3   OH223490   6.911   4.514   2.411
 7850TIP3    H123491   6.832   4.534   2.362
 7850TIP3    H223492   6.940   4.598   2.446
 7851TIP3   OH223493   5.197   7.127   4.012
 7851TIP3    H123494   5.239   7.123   3.926
 7851TIP3    H223495   5.105   7.144   3.993
 7852TIP3   OH223496   1.362   0.204   3.462
 7852TIP3    H123497   1.449   0.227   3.494
 7852TIP3    H223498   1.325   0.286   3.431
 7853TIP3   OH223499   4.089   2.854   0.908
 7853TIP3    H123500   4.135   2.817   0.833
 7853TIP3    H223501   4.028   2.785   0.935
 7854TIP3   OH223502   6.365   2.953   6.809
 7854TIP3    H123503   6.421   2.907   6.871
 7854TIP3    H223504   6.397   3.043   6.811
 7855TIP3   OH223505   3.599   3.200   2.099
 7855TIP3    H123506   3.523   3.226   2.048
 7855TIP3    H223507   3.657   3.277   2.098
 7856TIP3   OH223508   8.335   5.872   2.295
 7856TIP3    H123509   8.271   5.927   2.250
 7856TIP3    H223510   8.408   5.930   2.315
 7857TIP3   OH223511   1.879   2.999   2.935
 7857TIP3    H123512   1.964   3.024   2.900
 7857TIP3    H223513   1.878   2.903   2.929
 7858TIP3   OH223514   3.767   0.310   0.348
 7858TIP3    H123515   3.760   0.323   0.443
 7858TIP3    H223516   3.692   0.255   0.326
 7859TIP3   OH223517   4.554   1.369   3.558
 7859TIP3    H123518   4.482   1.317   3.522
 7859TIP3    H223519   4.626   1.308   3.567
 7860TIP3   OH223520   3.892   7.309   5.392
 7860TIP3    H123521   3.917   7.350   5.309
 7860TIP3    H223522   3.867   7.220   5.368
 7861TIP3   OH223523   2.938   1.260   2.924
 7861TIP3    H123524   2.993   1.186   2.949
 7861TIP3    H223525   2.999   1.331   2.905
 7862TIP3   OH223526   2.316   7.551   5.688
 7862TIP3    H123527   2.268   7.512   5.615
 7862TIP3    H223528   2.248   7.574   5.751
 7863TIP3   OH223529   0.189   2.021   1.040
 7863TIP3    H123530   0.172   2.061   1.125
 7863TIP3    H223531   0.284   2.021   1.032
 7864TIP3   OH223532   6.412   5.517   0.881
 7864TIP3    H123533   6.485   5.578   0.882
 7864TIP3    H223534   6.339   5.568   0.845
 7865TIP3   OH223535   2.546   5.379   5.824
 7865TIP3    H123536   2.490   5.353   5.897
 7865TIP3    H223537   2.490   5.373   5.747
 7866TIP3   OH223538   2.326   0.055   0.850
 7866TIP3    H123539   2.376  -0.011   0.899
 7866TIP3    H223540   2.349   0.138   0.892
 7867TIP3   OH223541   3.306   1.507  -0.011
 7867TIP3    H123542   3.362   1.520   0.065
 7867TIP3    H223543   3.361   1.530  -0.086
 7868TIP3   OH223544   2.806   6.970   1.431
 7868TIP3    H123545   2.715   6.950   1.452
 7868TIP3    H223546   2.808   6.973   1.335
 7869TIP3   OH223547   3.159   2.620   4.994
 7869TIP3    H123548   3.185   2.662   5.075
 7869TIP3    H223549   3.241   2.593   4.953
 7870TIP3   OH223550   3.168   7.118   3.726
 7870TIP3    H123551   3.253   7.152   3.753
 7870TIP3    H223552   3.112   7.128   3.803
 7871TIP3   OH223553   7.586   7.443   6.771
 7871TIP3    H123554   7.647   7.378   6.735
 7871TIP3    H223555   7.506   7.432   6.720
 7872TIP3   OH223556   0.126   0.575   6.708
 7872TIP3    H123557   0.210   0.571   6.663
 7872TIP3    H223558   0.100   0.484   6.719
 7873TIP3   OH223559   6.915   4.039   0.892
 7873TIP3    H123560   6.930   3.961   0.839
 7873TIP3    H223561   6.992   4.046   0.948
 7874TIP3   OH223562   3.522   1.554   2.464
 7874TIP3    H123563   3.613   1.528   2.451
 7874TIP3    H223564   3.475   1.511   2.392
 7875TIP3   OH223565   6.792   2.572   5.767
 7875TIP3    H123566   6.773   2.545   5.677
 7875TIP3    H223567   6.774   2.494   5.820
 7876TIP3   OH223568   0.716   4.395   4.406
 7876TIP3    H123569   0.712   4.477   4.356
 7876TIP3    H223570   0.769   4.416   4.482
 7877TIP3   OH223571   4.558   6.124   2.993
 7877TIP3    H123572   4.564   6.110   3.087
 7877TIP3    H223573   4.639   6.172   2.971
 7878TIP3   OH223574   0.810   6.279   5.132
 7878TIP3    H123575   0.721   6.270   5.098
 7878TIP3    H223576   0.799   6.285   5.226
 7879TIP3   OH223577   2.919   5.875   6.277
 7879TIP3    H123578   3.008   5.858   6.308
 7879TIP3    H223579   2.877   5.923   6.349
 7880TIP3   OH223580   4.433   0.616   0.307
 7880TIP3    H123581   4.411   0.582   0.220
 7880TIP3    H223582   4.463   0.705   0.291
 7881TIP3   OH223583   6.688   0.716   4.313
 7881TIP3    H123584   6.635   0.767   4.252
 7881TIP3    H223585   6.714   0.778   4.381
 7882TIP3   OH223586   6.100   7.675   6.516
 7882TIP3    H123587   6.099   7.769   6.533
 7882TIP3    H223588   6.072   7.635   6.598
 7883TIP3   OH223589   6.719   1.198   6.055
 7883TIP3    H123590   6.626   1.174   6.057
 7883TIP3    H223591   6.728   1.250   5.975
 7884TIP3   OH223592   4.501   4.052   6.759
 7884TIP3    H123593   4.464   4.066   6.672
 7884TIP3    H223594   4.451   3.978   6.795
 7885TIP3   OH223595   6.649   0.754   4.904
 7885TIP3    H123596   6.706   0.721   4.835
 7885TIP3    H223597   6.585   0.684   4.919
 7886TIP3   OH223598   7.074   1.889   6.221
 7886TIP3    H123599   7.069   1.912   6.314
 7886TIP3    H223600   7.086   1.973   6.177
 7887TIP3   OH223601   5.534   3.181   4.010
 7887TIP3    H123602   5.447   3.169   4.046
 7887TIP3    H223603   5.592   3.182   4.086
 7888TIP3   OH223604   7.087   5.988   4.496
 7888TIP3    H123605   7.017   5.944   4.545
 7888TIP3    H223606   7.164   5.980   4.553
 7889TIP3   OH223607   5.184   7.571   1.918
 7889TIP3    H123608   5.161   7.648   1.865
 7889TIP3    H223609   5.196   7.606   2.006
 7890TIP3   OH223610   6.275   6.857   6.708
 7890TIP3    H123611   6.293   6.949   6.731
 7890TIP3    H223612   6.199   6.834   6.761
 7891TIP3   OH223613   2.891   1.466   3.689
 7891TIP3    H123614   2.966   1.482   3.747
 7891TIP3    H223615   2.891   1.372   3.675
 7892TIP3   OH223616   2.907   6.642   5.028
 7892TIP3    H123617   2.828   6.635   5.081
 7892TIP3    H223618   2.960   6.567   5.054
 7893TIP3   OH223619   5.359   7.176   2.104
 7893TIP3    H123620   5.382   7.240   2.036
 7893TIP3    H223621   5.269   7.151   2.083
 7894TIP3   OH223622   6.629   5.349   1.859
 7894TIP3    H123623   6.533   5.349   1.853
 7894TIP3    H223624   6.649   5.278   1.920
 7895TIP3   OH223625   2.843   0.188   3.189
 7895TIP3    H123626   2.760   0.203   3.145
 7895TIP3    H223627   2.818   0.164   3.279
 7896TIP3   OH223628   0.154   4.748   4.944
 7896TIP3    H123629   0.111   4.780   4.865
 7896TIP3    H223630   0.226   4.694   4.912
 7897TIP3   OH223631   6.119   0.232   5.641
 7897TIP3    H123632   6.050   0.235   5.708
 7897TIP3    H223633   6.144   0.140   5.636
 7898TIP3   OH223634   8.128   5.956   0.672
 7898TIP3    H123635   8.221   5.970   0.692
 7898TIP3    H223636   8.125   5.869   0.633
 7899TIP3   OH223637   2.997   1.053  -0.004
 7899TIP3    H123638   2.993   1.017   0.085
 7899TIP3    H223639   2.930   1.006  -0.053
 7900TIP3   OH223640   7.462   5.937   5.967
 7900TIP3    H123641   7.434   5.933   6.058
 7900TIP3    H223642   7.531   5.871   5.961
 7901TIP3   OH223643   2.284   4.522   2.865
 7901TIP3    H123644   2.216   4.577   2.905
 7901TIP3    H223645   2.280   4.441   2.915
 7902TIP3   OH223646   3.251   5.179   6.851
 7902TIP3    H123647   3.336   5.209   6.881
 7902TIP3    H223648   3.252   5.085   6.867
 7903TIP3   OH223649   4.880   3.536   0.973
 7903TIP3    H123650   4.914   3.454   1.009
 7903TIP3    H223651   4.937   3.604   1.010
 7904TIP3   OH223652   0.671   0.432   4.788
 7904TIP3    H123653   0.631   0.464   4.869
 7904TIP3    H223654   0.605   0.376   4.748
 7905TIP3   OH223655   8.318   7.041   3.081
 7905TIP3    H123656   8.327   7.001   3.168
 7905TIP3    H223657   8.408   7.052   3.051
 7906TIP3   OH223658   1.748   0.524   3.335
 7906TIP3    H123659   1.674   0.512   3.275
 7906TIP3    H223660   1.708   0.546   3.419
 7907TIP3   OH223661   4.879   5.236   2.869
 7907TIP3    H123662   4.880   5.309   2.806
 7907TIP3    H223663   4.814   5.175   2.834
 7908TIP3   OH223664   2.044   5.921   5.466
 7908TIP3    H123665   1.953   5.931   5.496
 7908TIP3    H223666   2.072   5.837   5.501
 7909TIP3   OH223667   3.476   0.477   0.587
 7909TIP3    H123668   3.382   0.473   0.603
 7909TIP3    H223669   3.487   0.445   0.497
 7910TIP3   OH223670   0.879   6.613   3.107
 7910TIP3    H123671   0.865   6.545   3.042
 7910TIP3    H223672   0.854   6.694   3.063
 7911TIP3   OH223673   2.451   5.452   3.068
 7911TIP3    H123674   2.531   5.491   3.033
 7911TIP3    H223675   2.430   5.381   3.006
 7912TIP3   OH223676   5.602   5.758   4.589
 7912TIP3    H123677   5.604   5.665   4.568
 7912TIP3    H223678   5.518   5.771   4.634
 7913TIP3   OH223679   5.914   4.548   1.453
 7913TIP3    H123680   5.905   4.520   1.362
 7913TIP3    H223681   5.954   4.474   1.497
 7914TIP3   OH223682   7.556   4.967   0.403
 7914TIP3    H123683   7.649   4.973   0.381
 7914TIP3    H223684   7.555   4.938   0.495
 7915TIP3   OH223685   0.617   2.051   4.769
 7915TIP3    H123686   0.538   2.042   4.716
 7915TIP3    H223687   0.610   2.139   4.807
 7916TIP3   OH223688   5.114   1.856   6.656
 7916TIP3    H123689   5.119   1.762   6.667
 7916TIP3    H223690   5.160   1.873   6.573
 7917TIP3   OH223691   7.413   2.699   1.145
 7917TIP3    H123692   7.412   2.688   1.050
 7917TIP3    H223693   7.324   2.724   1.167
 7918TIP3   OH223694   1.368   0.616   0.557
 7918TIP3    H123695   1.283   0.576   0.539
 7918TIP3    H223696   1.347   0.706   0.583
 7919TIP3   OH223697   6.449   2.270   1.479
 7919TIP3    H123698   6.379   2.286   1.542
 7919TIP3    H223699   6.482   2.357   1.457
 7920TIP3   OH223700   5.239   1.300   4.310
 7920TIP3    H123701   5.252   1.384   4.354
 7920TIP3    H223702   5.228   1.323   4.218
 7921TIP3   OH223703   7.942   5.492   5.527
 7921TIP3    H123704   7.945   5.402   5.497
 7921TIP3    H223705   7.889   5.489   5.607
 7922TIP3   OH223706   7.374   1.985   6.645
 7922TIP3    H123707   7.425   1.993   6.726
 7922TIP3    H223708   7.410   1.908   6.601
 7923TIP3   OH223709   8.144   2.142   4.229
 7923TIP3    H123710   8.171   2.181   4.313
 7923TIP3    H223711   8.151   2.048   4.243
 7924TIP3   OH223712   4.442   4.803   1.039
 7924TIP3    H123713   4.434   4.821   0.945
 7924TIP3    H223714   4.359   4.761   1.062
 7925TIP3   OH223715   1.236   4.662   3.203
 7925TIP3    H123716   1.190   4.619   3.275
 7925TIP3    H223717   1.168   4.675   3.136
 7926TIP3   OH223718   1.802   1.555   4.687
 7926TIP3    H123719   1.788   1.488   4.620
 7926TIP3    H223720   1.742   1.626   4.663
 7927TIP3   OH223721   3.249   7.315   6.510
 7927TIP3    H123722   3.233   7.257   6.436
 7927TIP3    H223723   3.163   7.325   6.552
 7928TIP3   OH223724  -0.004   0.232   6.553
 7928TIP3    H123725   0.016   0.139   6.564
 7928TIP3    H223726   0.063   0.264   6.493
 7929TIP3   OH223727   0.685   2.459   2.172
 7929TIP3    H123728   0.591   2.477   2.178
 7929TIP3    H223729   0.705   2.409   2.251
 7930TIP3   OH223730   1.936   7.402   2.526
 7930TIP3    H123731   2.026   7.431   2.546
 7930TIP3    H223732   1.897   7.384   2.611
 7931TIP3   OH223733   4.955   0.204   2.730
 7931TIP3    H123734   5.020   0.136   2.715
 7931TIP3    H223735   4.882   0.181   2.673
 7932TIP3   OH223736   6.265   4.007   1.143
 7932TIP3    H123737   6.346   4.050   1.170
 7932TIP3    H223738   6.216   3.994   1.225
 7933TIP3   OH223739   3.302   4.812   1.273
 7933TIP3    H123740   3.301   4.721   1.301
 7933TIP3    H223741   3.345   4.812   1.188
 7934TIP3   OH223742   3.898   2.492   3.925
 7934TIP3    H123743   3.896   2.587   3.913
 7934TIP3    H223744   3.964   2.462   3.861
 7935TIP3   OH223745   6.541   1.076   1.221
 7935TIP3    H123746   6.559   1.116   1.136
 7935TIP3    H223747   6.553   0.982   1.207
 7936TIP3   OH223748   5.564   2.874   0.716
 7936TIP3    H123749   5.498   2.934   0.750
 7936TIP3    H223750   5.556   2.881   0.620
 7937TIP3   OH223751   0.497   7.590   1.017
 7937TIP3    H123752   0.428   7.615   0.955
 7937TIP3    H223753   0.565   7.551   0.962
 7938TIP3   OH223754   4.602   5.378   0.960
 7938TIP3    H123755   4.636   5.417   1.040
 7938TIP3    H223756   4.548   5.305   0.991
 7939TIP3   OH223757   0.461   2.362   3.521
 7939TIP3    H123758   0.537   2.307   3.506
 7939TIP3    H223759   0.477   2.405   3.605
 7940TIP3   OH223760   0.118   2.236   0.635
 7940TIP3    H123761   0.042   2.228   0.578
 7940TIP3    H223762   0.090   2.202   0.719
 7941TIP3   OH223763   8.183   3.020   6.766
 7941TIP3    H123764   8.235   2.993   6.842
 7941TIP3    H223765   8.093   3.002   6.791
 7942TIP3   OH223766   0.238   3.989   4.572
 7942TIP3    H123767   0.245   3.965   4.665
 7942TIP3    H223768   0.145   3.983   4.552
 7943TIP3   OH223769   0.457   5.768   3.674
 7943TIP3    H123770   0.486   5.832   3.608
 7943TIP3    H223771   0.531   5.759   3.733
 7944TIP3   OH223772   0.469   0.535   3.434
 7944TIP3    H123773   0.453   0.458   3.380
 7944TIP3    H223774   0.484   0.500   3.522
 7945TIP3   OH223775   4.925   6.817   6.146
 7945TIP3    H123776   4.837   6.809   6.182
 7945TIP3    H223777   4.957   6.727   6.141
 7946TIP3   OH223778   6.953   4.004   4.316
 7946TIP3    H123779   6.998   4.081   4.281
 7946TIP3    H223780   6.968   4.007   4.410
 7947TIP3   OH223781   1.298   0.489   2.995
 7947TIP3    H123782   1.233   0.461   2.930
 7947TIP3    H223783   1.252   0.553   3.048
 7948TIP3   OH223784   2.566   7.028   3.849
 7948TIP3    H123785   2.647   6.995   3.810
 7948TIP3    H223786   2.506   7.037   3.775
 7949TIP3   OH223787   4.235   3.120   3.187
 7949TIP3    H123788   4.274   3.037   3.161
 7949TIP3    H223789   4.282   3.186   3.135
 7950TIP3   OH223790   6.634   1.971   3.193
 7950TIP3    H123791   6.625   1.906   3.123
 7950TIP3    H223792   6.559   1.956   3.249
 7951TIP3   OH223793   1.536   0.709   2.608
 7951TIP3    H123794   1.593   0.664   2.545
 7951TIP3    H223795   1.563   0.674   2.693
 7952TIP3   OH223796   4.384   4.430   0.623
 7952TIP3    H123797   4.340   4.457   0.704
 7952TIP3    H223798   4.466   4.390   0.651
 7953TIP3   OH223799   0.147   2.457   5.233
 7953TIP3    H123800   0.107   2.491   5.153
 7953TIP3    H223801   0.150   2.362   5.220
 7954TIP3   OH223802   3.239   5.853   0.362
 7954TIP3    H123803   3.188   5.828   0.285
 7954TIP3    H223804   3.211   5.942   0.382
 7955TIP3   OH223805   6.389   4.712   4.245
 7955TIP3    H123806   6.468   4.737   4.198
 7955TIP3    H223807   6.335   4.669   4.179
 7956TIP3   OH223808   4.997   3.603   5.412
 7956TIP3    H123809   4.913   3.631   5.376
 7956TIP3    H223810   5.011   3.661   5.487
 7957TIP3   OH223811   4.842   7.842   5.750
 7957TIP3    H123812   4.817   7.930   5.722
 7957TIP3    H223813   4.913   7.856   5.812
 7958TIP3   OH223814   7.275   7.888   1.424
 7958TIP3    H123815   7.256   7.821   1.357
 7958TIP3    H223816   7.196   7.943   1.425
 7959TIP3   OH223817   4.929   1.922   3.334
 7959TIP3    H123818   4.931   2.000   3.389
 7959TIP3    H223819   4.894   1.854   3.391
 7960TIP3   OH223820   1.784   6.406   1.523
 7960TIP3    H123821   1.708   6.369   1.478
 7960TIP3    H223822   1.844   6.332   1.534
 7961TIP3   OH223823   5.222   1.947   6.392
 7961TIP3    H123824   5.191   2.029   6.430
 7961TIP3    H223825   5.255   1.971   6.305
 7962TIP3   OH223826   3.158   7.077   2.790
 7962TIP3    H123827   3.248   7.078   2.759
 7962TIP3    H223828   3.154   7.149   2.854
 7963TIP3   OH223829   6.156   6.184   2.841
 7963TIP3    H123830   6.159   6.119   2.911
 7963TIP3    H223831   6.204   6.259   2.875
 7964TIP3   OH223832   0.524   1.816   4.263
 7964TIP3    H123833   0.613   1.846   4.282
 7964TIP3    H223834   0.476   1.896   4.242
 7965TIP3   OH223835   6.203   1.664   6.358
 7965TIP3    H123836   6.242   1.580   6.333
 7965TIP3    H223837   6.136   1.679   6.290
 7966TIP3   OH223838   4.070   1.296   2.543
 7966TIP3    H123839   3.975   1.300   2.551
 7966TIP3    H223840   4.094   1.372   2.490
 7967TIP3   OH223841   5.907   1.026   4.054
 7967TIP3    H123842   5.883   0.935   4.036
 7967TIP3    H223843   5.886   1.073   3.974
 7968TIP3   OH223844   2.149   2.210   2.520
 7968TIP3    H123845   2.160   2.291   2.571
 7968TIP3    H223846   2.193   2.228   2.437
 7969TIP3   OH223847   6.405   3.813   0.715
 7969TIP3    H123848   6.470   3.751   0.748
 7969TIP3    H223849   6.343   3.822   0.788
 7970TIP3   OH223850   5.932   3.928   0.045
 7970TIP3    H123851   6.016   3.930   0.090
 7970TIP3    H223852   5.867   3.952   0.112
 7971TIP3   OH223853   3.355   5.873   1.816
 7971TIP3    H123854   3.361   5.902   1.725
 7971TIP3    H223855   3.264   5.885   1.840
 7972TIP3   OH223856   0.305   5.567   6.012
 7972TIP3    H123857   0.294   5.631   6.083
 7972TIP3    H223858   0.216   5.553   5.979
 7973TIP3   OH223859   3.560   4.928   1.409
 7973TIP3    H123860   3.643   4.974   1.393
 7973TIP3    H223861   3.513   4.934   1.326
 7974TIP3   OH223862   3.362   3.153   1.001
 7974TIP3    H123863   3.270   3.153   0.974
 7974TIP3    H223864   3.389   3.245   0.991
 7975TIP3   OH223865   2.716   3.749   5.385
 7975TIP3    H123866   2.762   3.833   5.389
 7975TIP3    H223867   2.636   3.762   5.435
 7976TIP3   OH223868   4.358   6.898   1.099
 7976TIP3    H123869   4.400   6.964   1.044
 7976TIP3    H223870   4.288   6.861   1.044
 7977TIP3   OH223871   7.458   0.400   5.483
 7977TIP3    H123872   7.532   0.385   5.542
 7977TIP3    H223873   7.407   0.469   5.525
 7978TIP3   OH223874   6.886   1.517   0.054
 7978TIP3    H123875   6.946   1.548   0.121
 7978TIP3    H223876   6.932   1.445   0.011
 7979TIP3   OH223877   7.646   3.893   0.356
 7979TIP3    H123878   7.737   3.882   0.384
 7979TIP3    H223879   7.614   3.968   0.406
 7980TIP3   OH223880   3.732   2.073   4.828
 7980TIP3    H123881   3.684   2.136   4.774
 7980TIP3    H223882   3.718   1.989   4.784
 7981TIP3   OH223883   6.086   1.722   1.310
 7981TIP3    H123884   6.145   1.684   1.246
 7981TIP3    H223885   6.132   1.712   1.393
 7982TIP3   OH223886   4.535   1.599   3.392
 7982TIP3    H123887   4.533   1.514   3.435
 7982TIP3    H223888   4.618   1.600   3.345
 7983TIP3   OH223889   3.638   4.918   0.781
 7983TIP3    H123890   3.543   4.912   0.777
 7983TIP3    H223891   3.665   4.920   0.689
 7984TIP3   OH223892   1.286   6.418   4.603
 7984TIP3    H123893   1.253   6.337   4.564
 7984TIP3    H223894   1.226   6.437   4.675
 7985TIP3   OH223895   3.454   2.948   3.048
 7985TIP3    H123896   3.420   3.037   3.054
 7985TIP3    H223897   3.511   2.938   3.124
 7986TIP3   OH223898   0.197   3.738   0.767
 7986TIP3    H123899   0.215   3.727   0.673
 7986TIP3    H223900   0.152   3.822   0.773
 7987TIP3   OH223901   0.956   1.807   0.788
 7987TIP3    H123902   0.968   1.769   0.875
 7987TIP3    H223903   1.029   1.867   0.777
 7988TIP3   OH223904   5.215   2.848   3.867
 7988TIP3    H123905   5.253   2.890   3.790
 7988TIP3    H223906   5.235   2.755   3.856
 7989TIP3   OH223907   2.474   4.455   0.685
 7989TIP3    H123908   2.405   4.521   0.679
 7989TIP3    H223909   2.443   4.393   0.750
 7990TIP3   OH223910   3.166   0.851   2.867
 7990TIP3    H123911   3.202   0.780   2.814
 7990TIP3    H223912   3.073   0.833   2.873
 7991TIP3   OH223913   6.558   1.778   4.728
 7991TIP3    H123914   6.561   1.686   4.754
 7991TIP3    H223915   6.635   1.790   4.672
 7992TIP3   OH223916   4.756   2.561   2.262
 7992TIP3    H123917   4.749   2.593   2.352
 7992TIP3    H223918   4.704   2.480   2.261
 7993TIP3   OH223919   6.616   3.684   3.042
 7993TIP3    H123920   6.561   3.609   3.017
 7993TIP3    H223921   6.673   3.699   2.966
 7994TIP3   OH223922   8.116   1.463   0.254
 7994TIP3    H123923   8.164   1.457   0.337
 7994TIP3    H223924   8.166   1.408   0.193
 7995TIP3   OH223925   7.373   5.003   3.439
 7995TIP3    H123926   7.440   4.969   3.378
 7995TIP3    H223927   7.291   4.969   3.405
 7996TIP3   OH223928   5.003   3.813   4.468
 7996TIP3    H123929   5.069   3.747   4.489
 7996TIP3    H223930   5.048   3.897   4.481
 7997TIP3   OH223931   0.522   7.530   5.500
 7997TIP3    H123932   0.606   7.570   5.477
 7997TIP3    H223933   0.461   7.560   5.433
 7998TIP3   OH223934   0.006   3.105   2.560
 7998TIP3    H123935  -0.038   3.034   2.607
 7998TIP3    H223936   0.098   3.097   2.588
 7999TIP3   OH223937   3.340   1.752   4.059
 7999TIP3    H123938   3.260   1.782   4.102
 7999TIP3    H223939   3.385   1.833   4.034
 8000TIP3   OH223940   5.610   2.318   1.538
 8000TIP3    H123941   5.570   2.231   1.531
 8000TIP3    H223942   5.668   2.313   1.614
 8001TIP3   OH223943   7.744   7.851   0.055
 8001TIP3    H123944   7.761   7.759   0.036
 8001TIP3    H223945   7.794   7.868   0.135
 8002TIP3   OH223946   2.474   6.119   2.408
 8002TIP3    H123947   2.505   6.050   2.468
 8002TIP3    H223948   2.442   6.071   2.332
 8003TIP3   OH223949   0.695   2.106   3.963
 8003TIP3    H123950   0.617   2.118   4.017
 8003TIP3    H223951   0.738   2.192   3.963
 8004TIP3   OH223952   5.952   1.626   3.940
 8004TIP3    H123953   5.909   1.710   3.930
 8004TIP3    H223954   6.014   1.639   4.012
 8005TIP3   OH223955   3.360   7.542   5.569
 8005TIP3    H123956   3.365   7.638   5.575
 8005TIP3    H223957   3.284   7.526   5.512
 8006TIP3   OH223958   7.894   2.793   6.222
 8006TIP3    H123959   7.928   2.867   6.273
 8006TIP3    H223960   7.971   2.758   6.176
 8007TIP3   OH223961   4.311   4.661   2.595
 8007TIP3    H123962   4.303   4.740   2.541
 8007TIP3    H223963   4.255   4.597   2.551
 8008TIP3   OH223964   2.459   7.852   6.314
 8008TIP3    H123965   2.534   7.810   6.272
 8008TIP3    H223966   2.496   7.902   6.386
 8009TIP3   OH223967   2.515   2.267   2.966
 8009TIP3    H123968   2.495   2.313   2.884
 8009TIP3    H223969   2.609   2.247   2.960
 8010TIP3   OH223970   7.652   6.111   1.055
 8010TIP3    H123971   7.557   6.100   1.059
 8010TIP3    H223972   7.664   6.194   1.009
 8011TIP3   OH223973   3.324   0.045   6.005
 8011TIP3    H123974   3.229   0.040   6.016
 8011TIP3    H223975   3.336   0.098   5.926
 8012TIP3   OH223976   3.247   1.669   2.435
 8012TIP3    H123977   3.332   1.643   2.400
 8012TIP3    H223978   3.208   1.588   2.468
 8013TIP3   OH223979   3.526   2.489   6.000
 8013TIP3    H123980   3.451   2.544   6.024
 8013TIP3    H223981   3.510   2.467   5.908
 8014TIP3   OH223982   1.243   3.590   4.884
 8014TIP3    H123983   1.330   3.583   4.923
 8014TIP3    H223984   1.258   3.594   4.790
 8015TIP3   OH223985   1.287   1.076   0.618
 8015TIP3    H123986   1.237   1.096   0.697
 8015TIP3    H223987   1.343   1.002   0.642
 8016TIP3   OH223988   4.005   7.441   1.838
 8016TIP3    H123989   3.941   7.469   1.904
 8016TIP3    H223990   4.056   7.372   1.882
 8017TIP3   OH223991   5.339   2.780   2.256
 8017TIP3    H123992   5.335   2.716   2.327
 8017TIP3    H223993   5.273   2.846   2.278
 8018TIP3   OH223994   6.186   4.111   3.003
 8018TIP3    H123995   6.214   4.027   3.039
 8018TIP3    H223996   6.259   4.171   3.019
 8019TIP3   OH223997   1.857   3.744   0.916
 8019TIP3    H123998   1.853   3.830   0.956
 8019TIP3    H223999   1.777   3.737   0.865
 8020TIP3   OH224000   2.572   6.390   3.618
 8020TIP3    H124001   2.576   6.296   3.600
 8020TIP3    H224002   2.508   6.398   3.689
 8021TIP3   OH224003   2.153   0.708   4.668
 8021TIP3    H124004   2.069   0.684   4.630
 8021TIP3    H224005   2.151   0.671   4.756
 8022TIP3   OH224006   4.375   3.883   0.218
 8022TIP3    H124007   4.338   3.843   0.297
 8022TIP3    H224008   4.442   3.943   0.251
 8023TIP3   OH224009   0.206   0.597   2.134
 8023TIP3    H124010   0.142   0.559   2.195
 8023TIP3    H224011   0.186   0.691   2.135
 8024TIP3   OH224012   6.696   5.762   4.385
 8024TIP3    H124013   6.614   5.796   4.348
 8024TIP3    H224014   6.692   5.668   4.369
 8025TIP3   OH224015   0.174   2.365   6.692
 8025TIP3    H124016   0.241   2.406   6.746
 8025TIP3    H224017   0.151   2.432   6.628
 8026TIP3   OH224018   7.578   5.929   1.348
 8026TIP3    H124019   7.652   5.873   1.324
 8026TIP3    H224020   7.533   5.880   1.417
 8027TIP3   OH224021   6.839   7.626   0.605
 8027TIP3    H124022   6.845   7.655   0.514
 8027TIP3    H224023   6.888   7.692   0.654
 8028TIP3   OH224024   4.841   3.235   3.342
 8028TIP3    H124025   4.772   3.275   3.288
 8028TIP3    H224026   4.923   3.263   3.301
 8029TIP3   OH224027   8.306   6.548   0.833
 8029TIP3    H124028   8.255   6.492   0.776
 8029TIP3    H224029   8.327   6.493   0.909
 8030TIP3   OH224030   3.715   6.989   2.144
 8030TIP3    H124031   3.707   6.923   2.214
 8030TIP3    H224032   3.632   7.037   2.148
 8031TIP3   OH224033   0.521   0.029   1.331
 8031TIP3    H124034   0.540   0.082   1.253
 8031TIP3    H224035   0.553   0.080   1.404
 8032TIP3   OH224036   4.334   6.283   2.181
 8032TIP3    H124037   4.278   6.294   2.257
 8032TIP3    H224038   4.332   6.189   2.162
 8033TIP3   OH224039   5.868   0.532   4.693
 8033TIP3    H124040   5.923   0.609   4.712
 8033TIP3    H224041   5.797   0.567   4.639
 8034TIP3   OH224042   1.618   6.559   0.221
 8034TIP3    H124043   1.550   6.580   0.157
 8034TIP3    H224044   1.653   6.475   0.191
 8035TIP3   OH224045   2.342   4.457   6.499
 8035TIP3    H124046   2.393   4.398   6.443
 8035TIP3    H224047   2.251   4.436   6.477
 8036TIP3   OH224048   4.620   0.828   0.170
 8036TIP3    H124049   4.696   0.769   0.164
 8036TIP3    H224050   4.580   0.822   0.083
 8037TIP3   OH224051   0.467   5.228   6.746
 8037TIP3    H124052   0.445   5.313   6.783
 8037TIP3    H224053   0.499   5.176   6.820
 8038TIP3   OH224054   3.998   3.685   3.386
 8038TIP3    H124055   4.086   3.653   3.369
 8038TIP3    H224056   3.994   3.695   3.481
 8039TIP3   OH224057   7.779   3.838   6.368
 8039TIP3    H124058   7.745   3.841   6.457
 8039TIP3    H224059   7.847   3.906   6.366
 8040TIP3   OH224060   5.252   4.625   5.526
 8040TIP3    H124061   5.330   4.626   5.472
 8040TIP3    H224062   5.184   4.586   5.471
 8041TIP3   OH224063   6.741   5.116   5.491
 8041TIP3    H124064   6.780   5.202   5.507
 8041TIP3    H224065   6.763   5.096   5.399
 8042TIP3   OH224066   5.412   5.881   3.440
 8042TIP3    H124067   5.490   5.855   3.487
 8042TIP3    H224068   5.362   5.933   3.502
 8043TIP3   OH224069   0.807   0.695   4.628
 8043TIP3    H124070   0.890   0.706   4.675
 8043TIP3    H224071   0.751   0.647   4.690
 8044TIP3   OH224072   6.876   6.775   3.625
 8044TIP3    H124073   6.813   6.715   3.664
 8044TIP3    H224074   6.957   6.760   3.674
 8045TIP3   OH224075   6.235   2.228   1.662
 8045TIP3    H124076   6.245   2.149   1.609
 8045TIP3    H224077   6.318   2.235   1.711
 8046TIP3   OH224078   8.121   5.006   3.968
 8046TIP3    H124079   8.093   5.060   3.894
 8046TIP3    H224080   8.145   4.922   3.928
 8047TIP3   OH224081   7.073   5.813   1.071
 8047TIP3    H124082   7.109   5.874   1.006
 8047TIP3    H224083   7.150   5.782   1.120
 8048TIP3   OH224084   1.255   7.588   6.094
 8048TIP3    H124085   1.257   7.558   6.185
 8048TIP3    H224086   1.347   7.603   6.072
 8049TIP3   OH224087   1.948   2.824   2.629
 8049TIP3    H124088   1.923   2.746   2.581
 8049TIP3    H224089   1.917   2.897   2.575
 8050TIP3   OH224090   3.889   7.047   0.029
 8050TIP3    H124091   3.895   7.087   0.116
 8050TIP3    H224092   3.795   7.046   0.010
 8051TIP3   OH224093   1.719   7.132   3.723
 8051TIP3    H124094   1.756   7.106   3.639
 8051TIP3    H224095   1.711   7.051   3.773
 8052TIP3   OH224096   4.449   5.133   6.115
 8052TIP3    H124097   4.458   5.058   6.174
 8052TIP3    H224098   4.492   5.105   6.034
 8053TIP3   OH224099   3.600   6.029   1.337
 8053TIP3    H124100   3.687   6.054   1.370
 8053TIP3    H224101   3.539   6.080   1.389
 8054TIP3   OH224102   6.779   6.826   6.192
 8054TIP3    H124103   6.689   6.797   6.176
 8054TIP3    H224104   6.772   6.887   6.265
 8055TIP3   OH224105   6.613   4.159   1.275
 8055TIP3    H124106   6.545   4.226   1.277
 8055TIP3    H224107   6.626   4.141   1.182
 8056TIP3   OH224108   4.425   5.672   0.513
 8056TIP3    H124109   4.365   5.712   0.576
 8056TIP3    H224110   4.430   5.580   0.540
 8057TIP3   OH224111   4.805   0.308   1.922
 8057TIP3    H124112   4.795   0.283   2.014
 8057TIP3    H224113   4.817   0.225   1.876
 8058TIP3   OH224114   5.130   5.945   1.568
 8058TIP3    H124115   5.208   5.941   1.513
 8058TIP3    H224116   5.165   5.951   1.657
 8059TIP3   OH224117   2.923   4.158   0.082
 8059TIP3    H124118   2.942   4.141   0.175
 8059TIP3    H224119   2.831   4.184   0.080
 8060TIP3   OH224120  -0.016   6.068   2.990
 8060TIP3    H124121   0.065   6.038   2.947
 8060TIP3    H224122  -0.082   6.003   2.965
 8061TIP3   OH224123   3.783   7.066   4.394
 8061TIP3    H124124   3.789   7.138   4.331
 8061TIP3    H224125   3.825   6.992   4.350
 8062TIP3   OH224126   0.975   1.245   6.449
 8062TIP3    H124127   0.925   1.295   6.512
 8062TIP3    H224128   0.909   1.201   6.395
 8063TIP3   OH224129   4.085   4.557   0.591
 8063TIP3    H124130   4.162   4.506   0.616
 8063TIP3    H224131   4.097   4.642   0.635
 8064TIP3   OH224132   1.989   7.338   4.366
 8064TIP3    H124133   2.070   7.318   4.412
 8064TIP3    H224134   2.007   7.317   4.275
 8065TIP3   OH224135   6.893   1.061   3.355
 8065TIP3    H124136   6.853   1.062   3.442
 8065TIP3    H224137   6.900   0.969   3.333
 8066TIP3   OH224138   5.409   2.498   2.943
 8066TIP3    H124139   5.458   2.576   2.970
 8066TIP3    H224140   5.325   2.531   2.913
 8067TIP3   OH224141   5.637   6.809   2.657
 8067TIP3    H124142   5.580   6.776   2.726
 8067TIP3    H224143   5.672   6.891   2.692
 8068TIP3   OH224144   1.895   1.646   2.920
 8068TIP3    H124145   1.941   1.580   2.972
 8068TIP3    H224146   1.851   1.595   2.852
 8069TIP3   OH224147   5.433   2.261   3.066
 8069TIP3    H124148   5.428   2.335   3.006
 8069TIP3    H224149   5.401   2.295   3.149
 8070TIP3   OH224150   6.093   5.669   1.509
 8070TIP3    H124151   6.179   5.681   1.549
 8070TIP3    H224152   6.096   5.581   1.472
 8071TIP3   OH224153   2.739   4.848   4.035
 8071TIP3    H124154   2.813   4.801   4.074
 8071TIP3    H224155   2.733   4.816   3.946
 8072TIP3   OH224156   4.352   6.069   6.797
 8072TIP3    H124157   4.302   6.119   6.862
 8072TIP3    H224158   4.335   6.113   6.714
 8073TIP3   OH224159   7.813   0.735   3.955
 8073TIP3    H124160   7.779   0.729   3.865
 8073TIP3    H224161   7.816   0.829   3.972
 8074TIP3   OH224162   7.691   5.936   0.173
 8074TIP3    H124163   7.745   5.938   0.252
 8074TIP3    H224164   7.619   5.996   0.191
 8075TIP3   OH224165   8.249   1.509   4.927
 8075TIP3    H124166   8.209   1.466   4.852
 8075TIP3    H224167   8.245   1.443   4.997
 8076TIP3   OH224168   0.508   7.076   0.332
 8076TIP3    H124169   0.591   7.108   0.297
 8076TIP3    H224170   0.473   7.019   0.263
 8077TIP3   OH224171   0.601   3.969   3.114
 8077TIP3    H124172   0.597   3.880   3.078
 8077TIP3    H224173   0.607   4.026   3.037
 8078TIP3   OH224174   7.287   0.937   6.180
 8078TIP3    H124175   7.313   0.950   6.088
 8078TIP3    H224176   7.227   1.009   6.198
 8079TIP3   OH224177   8.219   3.668   1.488
 8079TIP3    H124178   8.147   3.645   1.429
 8079TIP3    H224179   8.283   3.598   1.476
 8080TIP3   OH224180   0.744   2.480   6.451
 8080TIP3    H124181   0.806   2.433   6.395
 8080TIP3    H224182   0.762   2.572   6.435
 8081TIP3   OH224183   1.102   1.899   6.220
 8081TIP3    H124184   1.197   1.910   6.223
 8081TIP3    H224185   1.089   1.816   6.175
 8082TIP3   OH224186   0.476   6.797   1.756
 8082TIP3    H124187   0.385   6.821   1.737
 8082TIP3    H224188   0.475   6.773   1.849
 8083TIP3   OH224189   7.059   3.994   4.567
 8083TIP3    H124190   7.041   4.027   4.656
 8083TIP3    H224191   7.116   3.918   4.581
 8084TIP3   OH224192   6.598   5.124   3.019
 8084TIP3    H124193   6.521   5.101   3.072
 8084TIP3    H224194   6.562   5.172   2.945
 8085TIP3   OH224195   4.654   3.193   6.068
 8085TIP3    H124196   4.700   3.221   5.989
 8085TIP3    H224197   4.654   3.097   6.063
 8086TIP3   OH224198   6.014   3.352   5.358
 8086TIP3    H124199   6.001   3.277   5.416
 8086TIP3    H224200   5.942   3.347   5.295
 8087TIP3   OH224201   6.633   6.719   2.300
 8087TIP3    H124202   6.712   6.769   2.279
 8087TIP3    H224203   6.567   6.753   2.239
 8088TIP3   OH224204   6.517   0.275   3.854
 8088TIP3    H124205   6.581   0.246   3.918
 8088TIP3    H224206   6.559   0.349   3.809
 8089TIP3   OH224207   0.597   0.471   5.590
 8089TIP3    H124208   0.532   0.540   5.583
 8089TIP3    H224209   0.599   0.430   5.503
 8090TIP3   OH224210   6.240   2.480   4.189
 8090TIP3    H124211   6.299   2.555   4.193
 8090TIP3    H224212   6.186   2.496   4.112
 8091TIP3   OH224213   7.812   5.839   2.720
 8091TIP3    H124214   7.878   5.868   2.657
 8091TIP3    H224215   7.732   5.828   2.668
 8092TIP3   OH224216   6.889   4.250   6.408
 8092TIP3    H124217   6.926   4.304   6.338
 8092TIP3    H224218   6.837   4.184   6.362
 8093TIP3   OH224219   4.910   7.798   2.892
 8093TIP3    H124220   4.928   7.816   2.799
 8093TIP3    H224221   4.996   7.794   2.933
 8094TIP3   OH224222   5.249   6.187   5.983
 8094TIP3    H124223   5.226   6.182   6.076
 8094TIP3    H224224   5.246   6.096   5.954
 8095TIP3   OH224225   2.770   6.068   5.187
 8095TIP3    H124226   2.774   5.984   5.234
 8095TIP3    H224227   2.858   6.103   5.193
 8096TIP3   OH224228   8.020   3.847   0.474
 8096TIP3    H124229   8.106   3.869   0.439
 8096TIP3    H224230   7.962   3.915   0.440
 8097TIP3   OH224231   5.992   3.510   6.616
 8097TIP3    H124232   5.967   3.580   6.676
 8097TIP3    H224233   5.930   3.439   6.635
 8098TIP3   OH224234   4.327   4.803   2.027
 8098TIP3    H124235   4.342   4.882   2.079
 8098TIP3    H224236   4.402   4.801   1.967
 8099TIP3   OH224237   1.585   2.508   5.152
 8099TIP3    H124238   1.573   2.418   5.122
 8099TIP3    H224239   1.667   2.507   5.201
 8100TIP3   OH224240   6.823   2.754   6.712
 8100TIP3    H124241   6.871   2.684   6.757
 8100TIP3    H224242   6.885   2.788   6.648
 8101TIP3   OH224243   0.259   4.812   6.580
 8101TIP3    H124244   0.316   4.812   6.657
 8101TIP3    H224245   0.302   4.871   6.518
 8102TIP3   OH224246   5.211   7.134   4.448
 8102TIP3    H124247   5.165   7.064   4.493
 8102TIP3    H224248   5.299   7.133   4.486
 8103TIP3   OH224249   1.412   3.588   2.850
 8103TIP3    H124250   1.489   3.538   2.877
 8103TIP3    H224251   1.377   3.539   2.776
 8104TIP3   OH224252   3.182   5.887   6.334
 8104TIP3    H124253   3.236   5.911   6.258
 8104TIP3    H224254   3.239   5.902   6.409
 8105TIP3   OH224255   1.719   0.515   6.537
 8105TIP3    H124256   1.776   0.547   6.607
 8105TIP3    H224257   1.681   0.594   6.499
 8106TIP3   OH224258   3.708   7.742   4.679
 8106TIP3    H124259   3.802   7.756   4.662
 8106TIP3    H224260   3.703   7.731   4.774
 8107TIP3   OH224261   0.397   1.327   5.872
 8107TIP3    H124262   0.491   1.345   5.865
 8107TIP3    H224263   0.386   1.291   5.960
 8108TIP3   OH224264   1.178   3.508   0.804
 8108TIP3    H124265   1.185   3.558   0.723
 8108TIP3    H224266   1.127   3.431   0.780
 8109TIP3   OH224267   3.846   5.742   0.948
 8109TIP3    H124268   3.791   5.746   1.026
 8109TIP3    H224269   3.888   5.828   0.943
 8110TIP3   OH224270   4.921   1.067   4.137
 8110TIP3    H124271   4.861   1.097   4.205
 8110TIP3    H224272   5.005   1.055   4.182
 8111TIP3   OH224273   5.546   1.429   4.571
 8111TIP3    H124274   5.585   1.400   4.489
 8111TIP3    H224275   5.557   1.355   4.630
 8112TIP3   OH224276   1.759   0.637   3.816
 8112TIP3    H124277   1.688   0.619   3.877
 8112TIP3    H224278   1.786   0.726   3.836
 8113TIP3   OH224279   0.834   4.309   1.056
 8113TIP3    H124280   0.797   4.282   1.140
 8113TIP3    H224281   0.831   4.230   1.002
 8114TIP3   OH224282   6.255   3.201   5.328
 8114TIP3    H124283   6.303   3.251   5.261
 8114TIP3    H224284   6.168   3.241   5.328
 8115TIP3   OH224285   5.221   5.241   3.240
 8115TIP3    H124286   5.314   5.230   3.218
 8115TIP3    H224287   5.218   5.323   3.289
 8116TIP3   OH224288   5.437   0.199   6.150
 8116TIP3    H124289   5.484   0.116   6.143
 8116TIP3    H224290   5.490   0.251   6.211
 8117TIP3   OH224291   1.190   7.358   3.217
 8117TIP3    H124292   1.179   7.416   3.292
 8117TIP3    H224293   1.284   7.342   3.212
 8118TIP3   OH224294   4.587   3.049   2.846
 8118TIP3    H124295   4.591   3.144   2.834
 8118TIP3    H224296   4.506   3.035   2.895
 8119TIP3   OH224297   6.697   2.207   1.650
 8119TIP3    H124298   6.605   2.181   1.657
 8119TIP3    H224299   6.701   2.257   1.568
 8120TIP3   OH224300   7.533   6.027   4.275
 8120TIP3    H124301   7.464   6.038   4.209
 8120TIP3    H224302   7.602   6.087   4.248
 8121TIP3   OH224303   2.404   7.185   1.568
 8121TIP3    H124304   2.371   7.218   1.652
 8121TIP3    H224305   2.361   7.239   1.502
 8122TIP3   OH224306   5.035   2.871   6.279
 8122TIP3    H124307   4.996   2.956   6.296
 8122TIP3    H224308   4.976   2.808   6.321
 8123TIP3   OH224309   5.238   1.329   2.739
 8123TIP3    H124310   5.194   1.371   2.813
 8123TIP3    H224311   5.324   1.371   2.735
 8124TIP3   OH224312   1.897   5.055   4.837
 8124TIP3    H124313   1.933   4.981   4.788
 8124TIP3    H224314   1.877   5.120   4.770
 8125TIP3   OH224315   3.547   7.384   5.402
 8125TIP3    H124316   3.475   7.424   5.451
 8125TIP3    H224317   3.624   7.397   5.457
 8126TIP3   OH224318   7.232   4.398   0.739
 8126TIP3    H124319   7.226   4.478   0.687
 8126TIP3    H224320   7.161   4.406   0.804
 8127TIP3   OH224321   3.298   6.724   6.275
 8127TIP3    H124322   3.336   6.779   6.344
 8127TIP3    H224323   3.302   6.635   6.310
 8128TIP3   OH224324   4.319   6.431   0.971
 8128TIP3    H124325   4.317   6.355   1.030
 8128TIP3    H224326   4.403   6.474   0.989
 8129TIP3   OH224327   8.312   1.174   2.079
 8129TIP3    H124328   8.281   1.137   2.162
 8129TIP3    H224329   8.260   1.254   2.068
 8130TIP3   OH224330   1.246   3.781   4.316
 8130TIP3    H124331   1.211   3.700   4.279
 8130TIP3    H224332   1.168   3.830   4.343
 8131TIP3   OH224333   6.875   3.984   0.347
 8131TIP3    H124334   6.781   3.993   0.366
 8131TIP3    H224335   6.908   4.074   0.347
 8132TIP3   OH224336   7.586   7.135   4.000
 8132TIP3    H124337   7.537   7.138   3.918
 8132TIP3    H224338   7.593   7.042   4.021
 8133TIP3   OH224339   3.687   6.176   0.169
 8133TIP3    H124340   3.692   6.119   0.246
 8133TIP3    H224341   3.633   6.249   0.196
 8134TIP3   OH224342   5.815   7.709   0.919
 8134TIP3    H124343   5.885   7.748   0.970
 8134TIP3    H224344   5.798   7.772   0.848
 8135TIP3   OH224345   4.286   4.468   5.707
 8135TIP3    H124346   4.226   4.517   5.651
 8135TIP3    H224347   4.269   4.376   5.685
 8136TIP3   OH224348   3.818   6.653   0.674
 8136TIP3    H124349   3.793   6.602   0.751
 8136TIP3    H224350   3.839   6.740   0.707
 8137TIP3   OH224351   5.576   2.025   1.589
 8137TIP3    H124352   5.551   2.001   1.678
 8137TIP3    H224353   5.524   1.969   1.533
 8138TIP3   OH224354   3.690   2.827   0.747
 8138TIP3    H124355   3.636   2.872   0.812
 8138TIP3    H224356   3.711   2.743   0.788
 8139TIP3   OH224357   4.910   1.293   5.808
 8139TIP3    H124358   4.915   1.313   5.902
 8139TIP3    H224359   4.826   1.246   5.799
 8140TIP3   OH224360   7.275   3.869   3.677
 8140TIP3    H124361   7.270   3.775   3.659
 8140TIP3    H224362   7.184   3.899   3.675
 8141TIP3   OH224363   4.332   1.277   2.116
 8141TIP3    H124364   4.290   1.353   2.155
 8141TIP3    H224365   4.369   1.229   2.190
 8142TIP3   OH224366   2.810   3.368   5.227
 8142TIP3    H124367   2.717   3.391   5.237
 8142TIP3    H224368   2.824   3.301   5.294
 8143TIP3   OH224369   2.948   3.117   4.088
 8143TIP3    H124370   2.923   3.041   4.037
 8143TIP3    H224371   3.041   3.103   4.109
 8144TIP3   OH224372   7.881   2.070   1.476
 8144TIP3    H124373   7.818   2.116   1.420
 8144TIP3    H224374   7.831   1.999   1.515
 8145TIP3   OH224375   7.652   2.695   2.214
 8145TIP3    H124376   7.579   2.734   2.261
 8145TIP3    H224377   7.730   2.727   2.260
 8146TIP3   OH224378   5.656   3.213   2.864
 8146TIP3    H124379   5.680   3.167   2.944
 8146TIP3    H224380   5.636   3.144   2.801
 8147TIP3   OH224381   0.700   1.939   0.856
 8147TIP3    H124382   0.763   1.887   0.806
 8147TIP3    H224383   0.667   1.880   0.923
 8148TIP3   OH224384   4.693   7.379   5.565
 8148TIP3    H124385   4.615   7.416   5.524
 8148TIP3    H224386   4.660   7.335   5.644
 8149TIP3   OH224387   4.907   7.594   3.085
 8149TIP3    H124388   4.976   7.536   3.052
 8149TIP3    H224389   4.883   7.648   3.009
 8150TIP3   OH224390   5.495   0.745   1.246
 8150TIP3    H124391   5.547   0.793   1.310
 8150TIP3    H224392   5.552   0.674   1.216
 8151TIP3   OH224393   0.227   6.602   1.741
 8151TIP3    H124394   0.203   6.564   1.826
 8151TIP3    H224395   0.164   6.672   1.727
 8152TIP3   OH224396   3.239   4.949   4.377
 8152TIP3    H124397   3.293   4.889   4.325
 8152TIP3    H224398   3.174   4.983   4.315
 8153TIP3   OH224399   7.296   4.073   5.239
 8153TIP3    H124400   7.388   4.096   5.255
 8153TIP3    H224401   7.298   4.019   5.161
 8154TIP3   OH224402   8.152   3.997   0.776
 8154TIP3    H124403   8.187   3.952   0.700
 8154TIP3    H224404   8.130   3.928   0.838
 8155TIP3   OH224405   0.286   3.748   5.362
 8155TIP3    H124406   0.296   3.655   5.385
 8155TIP3    H224407   0.310   3.795   5.442
 8156TIP3   OH224408   7.269   6.091   1.915
 8156TIP3    H124409   7.256   6.168   1.969
 8156TIP3    H224410   7.320   6.122   1.840
 8157TIP3   OH224411   0.800   6.273   5.805
 8157TIP3    H124412   0.724   6.241   5.853
 8157TIP3    H224413   0.875   6.243   5.856
 8158TIP3   OH224414   4.561   1.209   3.265
 8158TIP3    H124415   4.585   1.128   3.221
 8158TIP3    H224416   4.645   1.252   3.283
 8159TIP3   OH224417   4.160   2.912   0.533
 8159TIP3    H124418   4.069   2.938   0.521
 8159TIP3    H224419   4.192   2.897   0.444
 8160TIP3   OH224420   5.264   1.467   3.881
 8160TIP3    H124421   5.244   1.554   3.847
 8160TIP3    H224422   5.328   1.432   3.819
 8161TIP3   OH224423   3.505   2.359   4.120
 8161TIP3    H124424   3.575   2.305   4.082
 8161TIP3    H224425   3.428   2.341   4.065
 8162TIP3   OH224426   4.293   1.193   3.006
 8162TIP3    H124427   4.221   1.217   2.948
 8162TIP3    H224428   4.345   1.130   2.955
 8163TIP3   OH224429   8.320   2.622   5.584
 8163TIP3    H124430   8.400   2.571   5.577
 8163TIP3    H224431   8.256   2.562   5.623
 8164TIP3   OH224432   5.435   5.605   5.181
 8164TIP3    H124433   5.422   5.534   5.244
 8164TIP3    H224434   5.492   5.667   5.227
 8165TIP3   OH224435   6.664   0.479   3.606
 8165TIP3    H124436   6.697   0.392   3.631
 8165TIP3    H224437   6.669   0.479   3.510
 8166TIP3   OH224438   2.595   4.752   3.359
 8166TIP3    H124439   2.501   4.752   3.376
 8166TIP3    H224440   2.627   4.671   3.398
 8167TIP3   OH224441   8.039   0.640   1.052
 8167TIP3    H124442   8.069   0.585   0.980
 8167TIP3    H224443   7.985   0.707   1.010
 8168TIP3   OH224444   6.649   1.673   0.046
 8168TIP3    H124445   6.731   1.626   0.065
 8168TIP3    H224446   6.665   1.715  -0.038
 8169TIP3   OH224447   7.594   6.313   2.006
 8169TIP3    H124448   7.647   6.383   1.967
 8169TIP3    H224449   7.613   6.236   1.952
 8170TIP3   OH224450   0.060   0.523   4.623
 8170TIP3    H124451   0.002   0.512   4.547
 8170TIP3    H224452   0.098   0.436   4.636
 8171TIP3   OH224453   5.615   6.574   5.209
 8171TIP3    H124454   5.669   6.578   5.130
 8171TIP3    H224455   5.674   6.541   5.277
 8172TIP3   OH224456   3.481   0.166   0.038
 8172TIP3    H124457   3.435   0.129  -0.038
 8172TIP3    H224458   3.412   0.190   0.099
 8173TIP3   OH224459   1.671   4.271   5.461
 8173TIP3    H124460   1.651   4.211   5.389
 8173TIP3    H224461   1.596   4.263   5.520
 8174TIP3   OH224462   4.317   4.247   0.187
 8174TIP3    H124463   4.222   4.248   0.185
 8174TIP3    H224464   4.339   4.209   0.272
 8175TIP3   OH224465   7.996   5.271   1.741
 8175TIP3    H124466   7.948   5.198   1.777
 8175TIP3    H224467   8.026   5.241   1.655
 8176TIP3   OH224468   4.897   3.203   2.466
 8176TIP3    H124469   4.855   3.211   2.381
 8176TIP3    H224470   4.981   3.248   2.456
 8177TIP3   OH224471   7.892   0.315   5.196
 8177TIP3    H124472   7.939   0.366   5.261
 8177TIP3    H224473   7.802   0.349   5.200
 8178TIP3   OH224474   7.640   3.924   0.057
 8178TIP3    H124475   7.640   3.942   0.151
 8178TIP3    H224476   7.550   3.899   0.037
 8179TIP3   OH224477   3.443   3.591   6.863
 8179TIP3    H124478   3.427   3.670   6.813
 8179TIP3    H224479   3.449   3.521   6.797
 8180TIP3   OH224480   5.665   3.483   5.016
 8180TIP3    H124481   5.713   3.409   5.052
 8180TIP3    H224482   5.579   3.447   4.993
 8181TIP3   OH224483   6.559   1.336   3.371
 8181TIP3    H124484   6.611   1.294   3.439
 8181TIP3    H224485   6.565   1.278   3.296
 8182TIP3   OH224486   0.160   3.894   1.155
 8182TIP3    H124487   0.079   3.845   1.139
 8182TIP3    H224488   0.206   3.890   1.071
 8183TIP3   OH224489   7.341   5.238   3.581
 8183TIP3    H124490   7.288   5.240   3.660
 8183TIP3    H224491   7.328   5.150   3.545
 8184TIP3   OH224492   3.045   4.983   4.589
 8184TIP3    H124493   3.092   4.977   4.506
 8184TIP3    H224494   2.964   5.029   4.567
 8185TIP3   OH224495   4.378   5.144   2.757
 8185TIP3    H124496   4.373   5.240   2.761
 8185TIP3    H224497   4.340   5.115   2.840
 8186TIP3   OH224498   2.730   1.867   5.826
 8186TIP3    H124499   2.657   1.871   5.886
 8186TIP3    H224500   2.738   1.774   5.803
 8187TIP3   OH224501   3.369   2.259   1.664
 8187TIP3    H124502   3.280   2.226   1.654
 8187TIP3    H224503   3.407   2.205   1.734
 8188TIP3   OH224504   4.364   4.226   3.139
 8188TIP3    H124505   4.292   4.162   3.136
 8188TIP3    H224506   4.436   4.183   3.094
 8189TIP3   OH224507   5.289   2.419   6.043
 8189TIP3    H124508   5.268   2.511   6.031
 8189TIP3    H224509   5.379   2.419   6.075
 8190TIP3   OH224510   5.018   4.772   5.421
 8190TIP3    H124511   5.035   4.739   5.333
 8190TIP3    H224512   5.105   4.786   5.459
 8191TIP3   OH224513   5.239   1.249   1.070
 8191TIP3    H124514   5.257   1.182   1.135
 8191TIP3    H224515   5.266   1.209   0.987
 8192TIP3   OH224516   6.080   2.196   6.590
 8192TIP3    H124517   6.068   2.184   6.496
 8192TIP3    H224518   6.175   2.193   6.602
 8193TIP3   OH224519   4.557   7.000   3.850
 8193TIP3    H124520   4.508   6.971   3.774
 8193TIP3    H224521   4.493   7.007   3.921
 8194TIP3   OH224522   0.092   1.462   0.874
 8194TIP3    H124523   0.133   1.520   0.810
 8194TIP3    H224524   0.139   1.379   0.865
 8195TIP3   OH224525   0.317   4.357   3.554
 8195TIP3    H124526   0.322   4.315   3.468
 8195TIP3    H224527   0.271   4.294   3.608
 8196TIP3   OH224528   4.426   5.450   2.947
 8196TIP3    H124529   4.376   5.453   2.866
 8196TIP3    H224530   4.517   5.457   2.919
 8197TIP3   OH224531   4.266   3.784   0.445
 8197TIP3    H124532   4.285   3.775   0.539
 8197TIP3    H224533   4.211   3.863   0.440
 8198TIP3   OH224534   6.600   0.629   0.287
 8198TIP3    H124535   6.654   0.567   0.237
 8198TIP3    H224536   6.518   0.583   0.302
 8199TIP3   OH224537   4.585   6.316   4.140
 8199TIP3    H124538   4.640   6.240   4.159
 8199TIP3    H224539   4.619   6.385   4.196
 8200TIP3   OH224540   8.263   3.659   6.402
 8200TIP3    H124541   8.333   3.593   6.411
 8200TIP3    H224542   8.192   3.613   6.357
 8201TIP3   OH224543   1.221   5.584   0.067
 8201TIP3    H124544   1.168   5.559   0.143
 8201TIP3    H224545   1.284   5.646   0.103
 8202TIP3   OH224546   0.489   6.556   5.020
 8202TIP3    H124547   0.412   6.559   4.962
 8202TIP3    H224548   0.462   6.501   5.093
 8203TIP3   OH224549   1.643   5.351   2.918
 8203TIP3    H124550   1.726   5.390   2.890
 8203TIP3    H224551   1.593   5.340   2.837
 8204TIP3   OH224552   2.466   6.295   2.910
 8204TIP3    H124553   2.547   6.259   2.874
 8204TIP3    H224554   2.404   6.222   2.906
 8205TIP3   OH224555   1.370   2.616   2.052
 8205TIP3    H124556   1.435   2.649   1.990
 8205TIP3    H224557   1.415   2.617   2.137
 8206TIP3   OH224558   7.157   5.067   3.671
 8206TIP3    H124559   7.212   5.038   3.598
 8206TIP3    H224560   7.142   4.988   3.723
 8207TIP3   OH224561   0.306   6.506   5.605
 8207TIP3    H124562   0.401   6.495   5.605
 8207TIP3    H224563   0.287   6.559   5.528
 8208TIP3   OH224564   3.622   7.036   2.575
 8208TIP3    H124565   3.665   6.951   2.579
 8208TIP3    H224566   3.693   7.099   2.588
 8209TIP3   OH224567   2.597   7.383   4.368
 8209TIP3    H124568   2.668   7.425   4.417
 8209TIP3    H224569   2.518   7.404   4.418
 8210TIP3   OH224570   4.029   5.857   5.268
 8210TIP3    H124571   3.977   5.784   5.235
 8210TIP3    H224572   4.041   5.914   5.193
 8211TIP3   OH224573   3.341   3.784  -0.002
 8211TIP3    H124574   3.341   3.853  -0.069
 8211TIP3    H224575   3.427   3.792   0.040
 8212TIP3   OH224576   6.806   1.801   5.465
 8212TIP3    H124577   6.775   1.736   5.402
 8212TIP3    H224578   6.897   1.778   5.482
 8213TIP3   OH224579   1.261   4.183   3.200
 8213TIP3    H124580   1.217   4.257   3.157
 8213TIP3    H224581   1.190   4.131   3.238
 8214TIP3   OH224582   7.619   2.065   5.156
 8214TIP3    H124583   7.539   2.018   5.178
 8214TIP3    H224584   7.598   2.112   5.075
 8215TIP3   OH224585   6.839   1.046   5.237
 8215TIP3    H124586   6.908   1.011   5.293
 8215TIP3    H224587   6.836   1.139   5.257
 8216TIP3   OH224588  -0.009   3.776   2.905
 8216TIP3    H124589  -0.082   3.715   2.917
 8216TIP3    H224590   0.040   3.741   2.831
 8217TIP3   OH224591   8.353   7.502   4.649
 8217TIP3    H124592   8.284   7.513   4.715
 8217TIP3    H224593   8.420   7.566   4.673
 8218TIP3   OH224594   4.217   6.610   0.460
 8218TIP3    H124595   4.263   6.693   0.473
 8218TIP3    H224596   4.239   6.558   0.537
 8219TIP3   OH224597   2.822   1.396   0.190
 8219TIP3    H124598   2.763   1.470   0.200
 8219TIP3    H224599   2.881   1.421   0.119
 8220TIP3   OH224600   1.022   3.681   4.661
 8220TIP3    H124601   1.116   3.694   4.649
 8220TIP3    H224602   1.013   3.652   4.752
 8221TIP3   OH224603   4.080   6.875   1.247
 8221TIP3    H124604   4.094   6.781   1.240
 8221TIP3    H224605   4.135   6.902   1.321
 8222TIP3   OH224606   7.994   0.515   1.292
 8222TIP3    H124607   7.989   0.579   1.220
 8222TIP3    H224608   8.055   0.448   1.261
 8223TIP3   OH224609   2.983   0.173   5.416
 8223TIP3    H124610   3.015   0.181   5.327
 8223TIP3    H224611   2.913   0.107   5.410
 8224TIP3   OH224612   3.209   3.806   0.793
 8224TIP3    H124613   3.193   3.883   0.846
 8224TIP3    H224614   3.288   3.828   0.742
 8225TIP3   OH224615   4.920   6.278   6.077
 8225TIP3    H124616   5.009   6.290   6.111
 8225TIP3    H224617   4.882   6.210   6.133
 8226TIP3   OH224618   1.218   3.218   0.959
 8226TIP3    H124619   1.303   3.177   0.978
 8226TIP3    H224620   1.177   3.160   0.895
 8227TIP3   OH224621   6.068   4.305   2.759
 8227TIP3    H124622   6.099   4.258   2.836
 8227TIP3    H224623   6.091   4.249   2.685
 8228TIP3   OH224624   6.088   7.454   5.085
 8228TIP3    H124625   6.094   7.489   4.996
 8228TIP3    H224626   6.000   7.476   5.114
 8229TIP3   OH224627   5.839   6.106   4.755
 8229TIP3    H124628   5.800   6.036   4.703
 8229TIP3    H224629   5.867   6.171   4.690
 8230TIP3   OH224630   4.949   3.220   6.561
 8230TIP3    H124631   4.918   3.304   6.596
 8230TIP3    H224632   4.875   3.161   6.575
 8231TIP3   OH224633   1.259   7.506   5.271
 8231TIP3    H124634   1.221   7.541   5.352
 8231TIP3    H224635   1.212   7.552   5.201
 8232TIP3   OH224636   6.080   1.908   3.880
 8232TIP3    H124637   6.000   1.903   3.828
 8232TIP3    H224638   6.146   1.943   3.820
 8233TIP3   OH224639   1.703   7.853   4.464
 8233TIP3    H124640   1.637   7.823   4.527
 8233TIP3    H224641   1.708   7.948   4.478
 8234TIP3   OH224642   6.377   0.899   2.497
 8234TIP3    H124643   6.423   0.884   2.580
 8234TIP3    H224644   6.427   0.969   2.455
 8235TIP3   OH224645   7.517   0.051   4.999
 8235TIP3    H124646   7.580   0.025   5.067
 8235TIP3    H224647   7.436   0.007   5.024
 8236TIP3   OH224648   6.595   6.152   0.792
 8236TIP3    H124649   6.583   6.114   0.879
 8236TIP3    H224650   6.530   6.107   0.738
 8237TIP3   OH224651   3.467   6.135   2.785
 8237TIP3    H124652   3.492   6.150   2.694
 8237TIP3    H224653   3.395   6.195   2.801
 8238TIP3   OH224654   8.332   1.529   4.560
 8238TIP3    H124655   8.374   1.575   4.488
 8238TIP3    H224656   8.403   1.484   4.606
 8239TIP3   OH224657   7.813   5.089   3.243
 8239TIP3    H124658   7.903   5.113   3.262
 8239TIP3    H224659   7.763   5.117   3.320
 8240TIP3   OH224660   1.740   4.247   1.086
 8240TIP3    H124661   1.746   4.262   1.180
 8240TIP3    H224662   1.810   4.301   1.048
 8241TIP3   OH224663   7.042   6.273   1.644
 8241TIP3    H124664   7.006   6.295   1.558
 8241TIP3    H224665   6.977   6.214   1.683
 8242TIP3   OH224666   7.590   1.910   4.888
 8242TIP3    H124667   7.610   1.821   4.917
 8242TIP3    H224668   7.509   1.932   4.933
 8243TIP3   OH224669   8.113   2.876   3.220
 8243TIP3    H124670   8.124   2.924   3.302
 8243TIP3    H224671   8.201   2.872   3.182
 8244TIP3   OH224672   2.611   4.209   5.137
 8244TIP3    H124673   2.555   4.226   5.212
 8244TIP3    H224674   2.646   4.295   5.113
 8245TIP3   OH224675   0.677   5.018   6.520
 8245TIP3    H124676   0.708   5.095   6.568
 8245TIP3    H224677   0.665   4.951   6.587
 8246TIP3   OH224678   2.307   7.504   2.726
 8246TIP3    H124679   2.218   7.540   2.727
 8246TIP3    H224680   2.296   7.411   2.708
 8247TIP3   OH224681   2.551   2.094   5.195
 8247TIP3    H124682   2.470   2.080   5.146
 8247TIP3    H224683   2.522   2.126   5.280
 8248TIP3   OH224684   2.028   5.142   0.340
 8248TIP3    H124685   1.954   5.109   0.289
 8248TIP3    H224686   1.989   5.204   0.402
 8249TIP3   OH224687   1.951   3.294   2.001
 8249TIP3    H124688   1.961   3.320   1.910
 8249TIP3    H224689   1.907   3.368   2.043
 8250TIP3   OH224690   8.086   7.898   1.618
 8250TIP3    H124691   8.087   7.803   1.608
 8250TIP3    H224692   8.176   7.925   1.598
 8251TIP3   OH224693   3.704   2.162   0.116
 8251TIP3    H124694   3.795   2.183   0.096
 8251TIP3    H224695   3.695   2.069   0.094
 8252TIP3   OH224696   6.928   1.695   0.525
 8252TIP3    H124697   6.980   1.637   0.581
 8252TIP3    H224698   6.846   1.648   0.512
 8253TIP3   OH224699   2.564   6.126   5.487
 8253TIP3    H124700   2.469   6.116   5.485
 8253TIP3    H224701   2.598   6.037   5.486
 8254TIP3   OH224702   1.127   3.721   5.500
 8254TIP3    H124703   1.162   3.773   5.428
 8254TIP3    H224704   1.037   3.754   5.512
 8255TIP3   OH224705   2.621   0.074   1.198
 8255TIP3    H124706   2.649   0.061   1.289
 8255TIP3    H224707   2.525   0.080   1.203
 8256TIP3   OH224708   6.659   2.560   3.419
 8256TIP3    H124709   6.702   2.638   3.382
 8256TIP3    H224710   6.617   2.592   3.499
 8257TIP3   OH224711   4.271   5.112   0.836
 8257TIP3    H124712   4.325   5.149   0.766
 8257TIP3    H224713   4.300   5.022   0.844
 8258TIP3   OH224714   5.371   0.218   4.827
 8258TIP3    H124715   5.326   0.142   4.864
 8258TIP3    H224716   5.310   0.253   4.762
 8259TIP3   OH224717   7.671   7.563   6.187
 8259TIP3    H124718   7.669   7.472   6.216
 8259TIP3    H224719   7.744   7.567   6.126
 8260TIP3   OH224720   5.567   1.790   4.055
 8260TIP3    H124721   5.550   1.740   3.975
 8260TIP3    H224722   5.580   1.723   4.122
 8261TIP3   OH224723   5.501   7.322   6.236
 8261TIP3    H124724   5.519   7.235   6.272
 8261TIP3    H224725   5.449   7.305   6.158
 8262TIP3   OH224726   7.482   1.398   6.089
 8262TIP3    H124727   7.541   1.370   6.159
 8262TIP3    H224728   7.465   1.491   6.107
 8263TIP3   OH224729   2.914   7.122   5.496
 8263TIP3    H124730   2.951   7.094   5.580
 8263TIP3    H224731   2.819   7.121   5.510
 8264TIP3   OH224732   8.032   6.009   5.652
 8264TIP3    H124733   7.976   6.081   5.623
 8264TIP3    H224734   8.093   6.050   5.714
 8265TIP3   OH224735   1.884   4.101   5.130
 8265TIP3    H124736   1.889   4.195   5.142
 8265TIP3    H224737   1.957   4.066   5.182
 8266TIP3   OH224738   6.585   4.665   1.426
 8266TIP3    H124739   6.533   4.746   1.431
 8266TIP3    H224740   6.606   4.646   1.517
 8267TIP3   OH224741   8.350   4.475   3.510
 8267TIP3    H124742   8.328   4.490   3.603
 8267TIP3    H224743   8.410   4.546   3.489
 8268TIP3   OH224744   6.119   6.054   4.837
 8268TIP3    H124745   6.035   6.081   4.801
 8268TIP3    H224746   6.173   6.034   4.760
 8269TIP3   OH224747   7.337   1.067   1.273
 8269TIP3    H124748   7.309   1.144   1.223
 8269TIP3    H224749   7.380   1.011   1.208
 8270TIP3   OH224750   5.799   0.417   3.017
 8270TIP3    H124751   5.746   0.346   3.053
 8270TIP3    H224752   5.857   0.442   3.089
 8271TIP3   OH224753   3.249   4.458   4.374
 8271TIP3    H124754   3.333   4.417   4.393
 8271TIP3    H224755   3.188   4.384   4.363
 8272TIP3   OH224756   0.111   0.817   6.843
 8272TIP3    H124757   0.130   0.759   6.769
 8272TIP3    H224758   0.022   0.849   6.825
 8273TIP3   OH224759   1.518   1.261   3.998
 8273TIP3    H124760   1.467   1.285   3.921
 8273TIP3    H224761   1.456   1.215   4.054
 8274TIP3   OH224762   2.787   1.877   4.564
 8274TIP3    H124763   2.723   1.882   4.635
 8274TIP3    H224764   2.787   1.965   4.525
 8275TIP3   OH224765   6.799   5.163   1.679
 8275TIP3    H124766   6.806   5.081   1.728
 8275TIP3    H224767   6.745   5.220   1.734
 8276TIP3   OH224768   1.453   5.941   4.380
 8276TIP3    H124769   1.486   5.967   4.466
 8276TIP3    H224770   1.499   5.997   4.318
 8277TIP3   OH224771   3.061   4.236   1.367
 8277TIP3    H124772   3.066   4.149   1.328
 8277TIP3    H224773   3.063   4.220   1.462
 8278TIP3   OH224774   8.001   0.689   4.271
 8278TIP3    H124775   7.959   0.768   4.303
 8278TIP3    H224776   7.975   0.621   4.334
 8279TIP3   OH224777   2.670   3.201   3.891
 8279TIP3    H124778   2.736   3.250   3.841
 8279TIP3    H224779   2.685   3.229   3.982
 8280TIP3   OH224780   6.625   5.244   5.189
 8280TIP3    H124781   6.561   5.218   5.123
 8280TIP3    H224782   6.683   5.168   5.197
 8281TIP3   OH224783   3.524   3.916   3.681
 8281TIP3    H124784   3.484   3.835   3.714
 8281TIP3    H224785   3.540   3.899   3.588
 8282TIP3   OH224786   0.199   0.427   3.376
 8282TIP3    H124787   0.205   0.419   3.281
 8282TIP3    H224788   0.261   0.496   3.398
 8283TIP3   OH224789   0.320   3.607   6.594
 8283TIP3    H124790   0.301   3.655   6.513
 8283TIP3    H224791   0.236   3.604   6.640
 8284TIP3   OH224792   6.604   1.615   5.095
 8284TIP3    H124793   6.623   1.637   5.186
 8284TIP3    H224794   6.550   1.536   5.101
 8285TIP3   OH224795   6.520   7.596   2.908
 8285TIP3    H124796   6.605   7.620   2.872
 8285TIP3    H224797   6.458   7.655   2.865
 8286TIP3   OH224798   8.111   5.421   2.622
 8286TIP3    H124799   8.024   5.394   2.654
 8286TIP3    H224800   8.121   5.373   2.539
 8287TIP3   OH224801   2.175   7.242   2.646
 8287TIP3    H124802   2.249   7.196   2.685
 8287TIP3    H224803   2.098   7.200   2.685
 8288TIP3   OH224804   1.435   1.554   0.173
 8288TIP3    H124805   1.390   1.604   0.241
 8288TIP3    H224806   1.516   1.525   0.214
 8289TIP3   OH224807   0.460   7.467   3.946
 8289TIP3    H124808   0.435   7.396   3.886
 8289TIP3    H224809   0.548   7.445   3.974
 8290TIP3   OH224810   2.872   4.275   4.876
 8290TIP3    H124811   2.914   4.196   4.909
 8290TIP3    H224812   2.936   4.344   4.891
 8291TIP3   OH224813   4.408   3.761   2.508
 8291TIP3    H124814   4.370   3.777   2.421
 8291TIP3    H224815   4.337   3.779   2.569
 8292TIP3   OH224816   4.094   6.325   4.659
 8292TIP3    H124817   4.021   6.279   4.700
 8292TIP3    H224818   4.162   6.258   4.649
 8293TIP3   OH224819   7.483   3.793   2.104
 8293TIP3    H124820   7.479   3.765   2.196
 8293TIP3    H224821   7.475   3.888   2.108
 8294TIP3   OH224822   8.043   4.009   5.789
 8294TIP3    H124823   7.999   3.937   5.743
 8294TIP3    H224824   8.115   3.967   5.836
 8295TIP3   OH224825   2.044   1.901   5.915
 8295TIP3    H124826   2.085   1.844   5.980
 8295TIP3    H224827   1.951   1.902   5.938
 8296TIP3   OH224828   5.085   4.775   3.234
 8296TIP3    H124829   5.165   4.734   3.266
 8296TIP3    H224830   5.091   4.866   3.263
 8297TIP3   OH224831   3.932   7.740   6.170
 8297TIP3    H124832   3.967   7.829   6.167
 8297TIP3    H224833   3.844   7.750   6.207
 8298TIP3   OH224834   1.269   2.173   2.656
 8298TIP3    H124835   1.351   2.131   2.629
 8298TIP3    H224836   1.297   2.255   2.697
 8299TIP3   OH224837   4.881   2.213   5.056
 8299TIP3    H124838   4.863   2.123   5.028
 8299TIP3    H224839   4.817   2.266   5.008
 8300TIP3   OH224840   2.971   3.545   0.912
 8300TIP3    H124841   2.949   3.458   0.877
 8300TIP3    H224842   2.921   3.606   0.858
 8301TIP3   OH224843   3.589   7.329   5.750
 8301TIP3    H124844   3.666   7.372   5.713
 8301TIP3    H224845   3.597   7.237   5.722
 8302TIP3   OH224846   0.717   1.079   2.359
 8302TIP3    H124847   0.663   1.101   2.435
 8302TIP3    H224848   0.742   0.988   2.372
 8303TIP3   OH224849   3.928   2.416   3.020
 8303TIP3    H124850   3.844   2.396   2.978
 8303TIP3    H224851   3.950   2.504   2.989
 8304TIP3   OH224852   4.371   1.408   4.935
 8304TIP3    H124853   4.467   1.410   4.931
 8304TIP3    H224854   4.342   1.433   4.847
 8305TIP3   OH224855   7.910   2.327   0.573
 8305TIP3    H124856   7.891   2.235   0.552
 8305TIP3    H224857   7.999   2.341   0.539
 8306TIP3   OH224858   1.624   6.282   4.543
 8306TIP3    H124859   1.693   6.293   4.478
 8306TIP3    H224860   1.595   6.371   4.564
 8307TIP3   OH224861   4.863   3.812   3.800
 8307TIP3    H124862   4.842   3.736   3.746
 8307TIP3    H224863   4.803   3.807   3.874
 8308TIP3   OH224864   1.544   4.757   1.354
 8308TIP3    H124865   1.632   4.767   1.389
 8308TIP3    H224866   1.508   4.681   1.400
 8309TIP3   OH224867   4.593   7.426   0.214
 8309TIP3    H124868   4.571   7.412   0.122
 8309TIP3    H224869   4.673   7.478   0.211
 8310TIP3   OH224870   1.658   6.416   3.500
 8310TIP3    H124871   1.716   6.479   3.541
 8310TIP3    H224872   1.709   6.378   3.429
 8311TIP3   OH224873   1.065   0.416   1.719
 8311TIP3    H124874   1.009   0.338   1.717
 8311TIP3    H224875   1.036   0.466   1.795
 8312TIP3   OH224876   0.423   7.629   1.792
 8312TIP3    H124877   0.506   7.638   1.840
 8312TIP3    H224878   0.377   7.559   1.838
 8313TIP3   OH224879   2.601   1.278   0.360
 8313TIP3    H124880   2.690   1.251   0.341
 8313TIP3    H224881   2.554   1.269   0.278
 8314TIP3   OH224882   2.600   4.800   6.200
 8314TIP3    H124883   2.550   4.831   6.275
 8314TIP3    H224884   2.661   4.872   6.180
 8315TIP3   OH224885   8.138   6.087   0.024
 8315TIP3    H124886   8.054   6.084  -0.022
 8315TIP3    H224887   8.147   6.178   0.052
 8316TIP3   OH224888   2.398   0.448   2.785
 8316TIP3    H124889   2.487   0.452   2.821
 8316TIP3    H224890   2.376   0.539   2.765
 8317TIP3   OH224891   4.039   5.896   2.019
 8317TIP3    H124892   4.046   5.859   2.107
 8317TIP3    H224893   4.033   5.820   1.961
 8318TIP3   OH224894   3.810   6.612   4.772
 8318TIP3    H124895   3.746   6.674   4.807
 8318TIP3    H224896   3.887   6.666   4.755
 8319TIP3   OH224897   1.191   1.587   3.764
 8319TIP3    H124898   1.126   1.618   3.826
 8319TIP3    H224899   1.159   1.617   3.679
 8320TIP3   OH224900   2.708   2.505   4.159
 8320TIP3    H124901   2.657   2.577   4.197
 8320TIP3    H224902   2.774   2.484   4.226
 8321TIP3   OH224903   2.026   2.105   4.010
 8321TIP3    H124904   2.066   2.190   4.027
 8321TIP3    H224905   2.024   2.099   3.914
 8322TIP3   OH224906   2.870   0.055   4.093
 8322TIP3    H124907   2.947   0.089   4.140
 8322TIP3    H224908   2.842  -0.021   4.144
 8323TIP3   OH224909   6.861   3.377   1.907
 8323TIP3    H124910   6.936   3.325   1.936
 8323TIP3    H224911   6.789   3.351   1.965
 8324TIP3   OH224912   7.919   1.885   6.305
 8324TIP3    H124913   7.981   1.933   6.361
 8324TIP3    H224914   7.972   1.854   6.232
 8325TIP3   OH224915   2.906   3.233   0.269
 8325TIP3    H124916   2.934   3.157   0.217
 8325TIP3    H224917   2.988   3.275   0.295
 8326TIP3   OH224918   6.017   1.053   0.509
 8326TIP3    H124919   5.927   1.076   0.485
 8326TIP3    H224920   6.023   0.959   0.491
 8327TIP3   OH224921   4.079   0.456   2.515
 8327TIP3    H124922   4.083   0.463   2.611
 8327TIP3    H224923   4.135   0.382   2.494
 8328TIP3   OH224924   1.368   6.456   5.580
 8328TIP3    H124925   1.437   6.497   5.528
 8328TIP3    H224926   1.367   6.365   5.550
 8329TIP3   OH224927   7.605   5.526   2.654
 8329TIP3    H124928   7.615   5.543   2.747
 8329TIP3    H224929   7.518   5.559   2.633
 8330TIP3   OH224930   6.788   5.843   3.209
 8330TIP3    H124931   6.775   5.755   3.244
 8330TIP3    H224932   6.788   5.832   3.114
 8331TIP3   OH224933   8.006   2.526   5.517
 8331TIP3    H124934   8.067   2.521   5.443
 8331TIP3    H224935   8.063   2.524   5.594
 8332TIP3   OH224936   5.601   6.234   3.894
 8332TIP3    H124937   5.519   6.192   3.868
 8332TIP3    H224938   5.635   6.271   3.812
 8333TIP3   OH224939   2.026   6.505   4.250
 8333TIP3    H124940   1.983   6.590   4.234
 8333TIP3    H224941   2.093   6.499   4.182
 8334TIP3   OH224942   7.218   7.762   2.635
 8334TIP3    H124943   7.263   7.684   2.604
 8334TIP3    H224944   7.245   7.771   2.726
 8335TIP3   OH224945   6.626   3.412   4.768
 8335TIP3    H124946   6.597   3.499   4.796
 8335TIP3    H224947   6.708   3.399   4.815
 8336TIP3   OH224948   8.237   7.602   6.155
 8336TIP3    H124949   8.331   7.590   6.146
 8336TIP3    H224950   8.223   7.696   6.148
 8337TIP3   OH224951   0.372   7.210   2.597
 8337TIP3    H124952   0.356   7.116   2.589
 8337TIP3    H224953   0.364   7.228   2.690
 8338TIP3   OH224954   4.976   2.681   4.273
 8338TIP3    H124955   5.018   2.752   4.225
 8338TIP3    H224956   4.985   2.704   4.365
 8339TIP3   OH224957   8.054   2.339   3.652
 8339TIP3    H124958   8.069   2.248   3.678
 8339TIP3    H224959   8.027   2.383   3.733
 8340TIP3   OH224960   5.403   6.186   1.334
 8340TIP3    H124961   5.355   6.122   1.282
 8340TIP3    H224962   5.381   6.271   1.295
 8341TIP3   OH224963   6.647   0.196   2.163
 8341TIP3    H124964   6.677   0.252   2.234
 8341TIP3    H224965   6.692   0.229   2.085
 8342TIP3   OH224966   6.392   1.116   5.096
 8342TIP3    H124967   6.436   1.131   5.012
 8342TIP3    H224968   6.413   1.025   5.117
 8343TIP3   OH224969   2.522   0.677   4.986
 8343TIP3    H124970   2.513   0.756   4.932
 8343TIP3    H224971   2.616   0.672   5.006
 8344TIP3   OH224972   1.285   4.879   6.126
 8344TIP3    H124973   1.378   4.894   6.145
 8344TIP3    H224974   1.246   4.966   6.132
 8345TIP3   OH224975   4.238   2.087   2.642
 8345TIP3    H124976   4.302   2.139   2.691
 8345TIP3    H224977   4.173   2.150   2.612
 8346TIP3   OH224978   8.032   0.705   3.167
 8346TIP3    H124979   8.028   0.620   3.123
 8346TIP3    H224980   7.941   0.733   3.177
 8347TIP3   OH224981   0.784   3.800   2.079
 8347TIP3    H124982   0.750   3.829   1.995
 8347TIP3    H224983   0.851   3.865   2.101
 8348TIP3   OH224984   6.413   5.835   3.036
 8348TIP3    H124985   6.432   5.853   2.944
 8348TIP3    H224986   6.408   5.739   3.041
 8349TIP3   OH224987   7.034   6.708   6.835
 8349TIP3    H124988   7.084   6.645   6.783
 8349TIP3    H224989   6.966   6.739   6.775
 8350TIP3   OH224990   1.261   6.225   2.724
 8350TIP3    H124991   1.340   6.242   2.776
 8350TIP3    H224992   1.292   6.171   2.651
 8351TIP3   OH224993   6.296   6.393   2.628
 8351TIP3    H124994   6.205   6.370   2.608
 8351TIP3    H224995   6.348   6.340   2.568
 8352TIP3   OH224996   6.565   0.424   6.409
 8352TIP3    H124997   6.640   0.369   6.386
 8352TIP3    H224998   6.585   0.455   6.498
 8353TIP3   OH224999   4.487   3.489   5.159
 8353TIP3    H125000   4.451   3.450   5.080
 8353TIP3    H225001   4.414   3.487   5.222
 8354TIP3   OH225002   7.219   0.432   2.032
 8354TIP3    H125003   7.293   0.466   1.982
 8354TIP3    H225004   7.142   0.454   1.980
 8355TIP3   OH225005   4.375   4.742   5.512
 8355TIP3    H125006   4.421   4.672   5.464
 8355TIP3    H225007   4.389   4.820   5.459
 8356TIP3   OH225008   3.602   6.830   1.870
 8356TIP3    H125009   3.539   6.865   1.933
 8356TIP3    H225010   3.549   6.784   1.805
 8357TIP3   OH225011   5.573   1.935   3.523
 8357TIP3    H125012   5.635   1.885   3.576
 8357TIP3    H225013   5.535   1.871   3.463
 8358TIP3   OH225014   2.906   1.202   0.556
 8358TIP3    H125015   2.873   1.289   0.533
 8358TIP3    H225016   2.908   1.201   0.652
 8359TIP3   OH225017   0.201   5.995   5.346
 8359TIP3    H125018   0.182   5.905   5.371
 8359TIP3    H225019   0.225   6.038   5.428
 8360TIP3   OH225020   1.800   7.072   3.486
 8360TIP3    H125021   1.747   7.106   3.414
 8360TIP3    H225022   1.847   6.998   3.448
 8361TIP3   OH225023   6.243   3.850   5.889
 8361TIP3    H125024   6.178   3.792   5.848
 8361TIP3    H225025   6.248   3.820   5.980
 8362TIP3   OH225026   1.288   1.661   0.379
 8362TIP3    H125027   1.198   1.660   0.347
 8362TIP3    H225028   1.290   1.733   0.442
 8363TIP3   OH225029   4.307   4.918   2.509
 8363TIP3    H125030   4.361   4.991   2.540
 8363TIP3    H225031   4.229   4.961   2.472
 8364TIP3   OH225032   5.554   1.870   0.920
 8364TIP3    H125033   5.609   1.940   0.954
 8364TIP3    H225034   5.611   1.821   0.860
 8365TIP3   OH225035   2.095   5.272   0.746
 8365TIP3    H125036   2.085   5.307   0.658
 8365TIP3    H225037   2.068   5.180   0.739
 8366TIP3   OH225038   5.329   4.161   5.178
 8366TIP3    H125039   5.326   4.072   5.142
 8366TIP3    H225040   5.241   4.195   5.164
 8367TIP3   OH225041   7.488   3.990   5.987
 8367TIP3    H125042   7.558   3.973   5.924
 8367TIP3    H225043   7.520   3.953   6.069
 8368TIP3   OH225044   7.195   7.174   1.091
 8368TIP3    H125045   7.120   7.163   1.149
 8368TIP3    H225046   7.271   7.146   1.143
 8369TIP3   OH225047   2.561   5.124   5.272
 8369TIP3    H125048   2.604   5.210   5.272
 8369TIP3    H225049   2.620   5.069   5.220
 8370TIP3   OH225050   1.514   2.326   2.057
 8370TIP3    H125051   1.494   2.417   2.082
 8370TIP3    H225052   1.566   2.334   1.977
 8371TIP3   OH225053   0.352   2.298   1.426
 8371TIP3    H125054   0.424   2.319   1.367
 8371TIP3    H225055   0.324   2.382   1.462
 8372TIP3   OH225056   4.431   1.276   0.947
 8372TIP3    H125057   4.468   1.249   1.031
 8372TIP3    H225058   4.501   1.325   0.904
 8373TIP3   OH225059   0.994   6.803   0.048
 8373TIP3    H125060   1.019   6.733   0.108
 8373TIP3    H225061   1.027   6.775  -0.038
 8374TIP3   OH225062   2.057   3.565   0.859
 8374TIP3    H125063   2.098   3.594   0.777
 8374TIP3    H225064   1.994   3.635   0.879
 8375TIP3   OH225065   7.939   2.313   4.145
 8375TIP3    H125066   8.024   2.285   4.180
 8375TIP3    H225067   7.922   2.397   4.189
 8376TIP3   OH225068   0.595   5.019   5.142
 8376TIP3    H125069   0.500   5.021   5.128
 8376TIP3    H225070   0.627   5.097   5.097
 8377TIP3   OH225071   0.225   2.676   2.751
 8377TIP3    H125072   0.161   2.618   2.792
 8377TIP3    H225073   0.208   2.762   2.791
 8378TIP3   OH225074   0.452   2.116   4.068
 8378TIP3    H125075   0.414   2.165   4.140
 8378TIP3    H225076   0.382   2.110   4.003
 8379TIP3   OH225077   6.706   1.723   6.697
 8379TIP3    H125078   6.644   1.786   6.736
 8379TIP3    H225079   6.760   1.694   6.771
 8380TIP3   OH225080   6.876   1.003   6.186
 8380TIP3    H125081   6.853   1.060   6.259
 8380TIP3    H225082   6.853   1.053   6.108
 8381TIP3   OH225083   6.536   7.474   6.372
 8381TIP3    H125084   6.624   7.508   6.352
 8381TIP3    H225085   6.501   7.535   6.437
 8382TIP3   OH225086   5.285   1.112   5.911
 8382TIP3    H125087   5.377   1.138   5.917
 8382TIP3    H225088   5.244   1.152   5.987
 8383TIP3   OH225089   2.203   5.561   1.511
 8383TIP3    H125090   2.146   5.514   1.450
 8383TIP3    H225091   2.246   5.492   1.561
 8384TIP3   OH225092   7.816   6.795   3.685
 8384TIP3    H125093   7.871   6.857   3.733
 8384TIP3    H225094   7.851   6.709   3.708
 8385TIP3   OH225095   2.547   5.633   2.131
 8385TIP3    H125096   2.544   5.663   2.222
 8385TIP3    H225097   2.493   5.696   2.083
 8386TIP3   OH225098   4.130   2.390   4.960
 8386TIP3    H125099   4.196   2.337   4.915
 8386TIP3    H225100   4.052   2.334   4.962
 8387TIP3   OH225101   6.899   7.433   1.445
 8387TIP3    H125102   6.880   7.442   1.352
 8387TIP3    H225103   6.903   7.338   1.460
 8388TIP3   OH225104   5.711   0.089   4.323
 8388TIP3    H125105   5.700   0.017   4.386
 8388TIP3    H225106   5.623   0.104   4.289
 8389TIP3   OH225107   2.212   1.649   5.117
 8389TIP3    H125108   2.297   1.630   5.157
 8389TIP3    H225109   2.233   1.696   5.037
 8390TIP3   OH225110   3.564   6.734   2.831
 8390TIP3    H125111   3.577   6.645   2.863
 8390TIP3    H225112   3.596   6.732   2.741
 8391TIP3   OH225113   0.786   0.813   2.313
 8391TIP3    H125114   0.859   0.793   2.372
 8391TIP3    H225115   0.814   0.779   2.228
 8392TIP3   OH225116   2.966   5.051   6.543
 8392TIP3    H125117   2.937   4.991   6.474
 8392TIP3    H225118   3.053   5.020   6.567
 8393TIP3   OH225119   1.143   4.408   0.755
 8393TIP3    H125120   1.157   4.503   0.750
 8393TIP3    H225121   1.113   4.392   0.844
 8394TIP3   OH225122   2.314   5.103   5.150
 8394TIP3    H125123   2.321   5.008   5.139
 8394TIP3    H225124   2.396   5.129   5.190
 8395TIP3   OH225125   4.928   0.730   0.844
 8395TIP3    H125126   5.019   0.727   0.816
 8395TIP3    H225127   4.880   0.685   0.774
 8396TIP3   OH225128   6.720   7.293   4.638
 8396TIP3    H125129   6.700   7.285   4.545
 8396TIP3    H225130   6.796   7.351   4.641
 8397TIP3   OH225131   0.141   3.583   4.031
 8397TIP3    H125132   0.180   3.506   3.990
 8397TIP3    H225133   0.054   3.553   4.059
 8398TIP3   OH225134   3.333   3.016   3.800
 8398TIP3    H125135   3.288   3.090   3.840
 8398TIP3    H225136   3.263   2.957   3.774
 8399TIP3   OH225137   5.714   2.284   4.110
 8399TIP3    H125138   5.647   2.295   4.043
 8399TIP3    H225139   5.710   2.192   4.134
 8400TIP3   OH225140   6.537   4.141   5.101
 8400TIP3    H125141   6.548   4.222   5.052
 8400TIP3    H225142   6.473   4.162   5.170
 8401TIP3   OH225143   7.231   6.297   1.399
 8401TIP3    H125144   7.318   6.256   1.393
 8401TIP3    H225145   7.249   6.391   1.396
 8402TIP3   OH225146   1.131   4.969   1.033
 8402TIP3    H125147   1.077   5.004   0.961
 8402TIP3    H225148   1.216   4.952   0.993
 8403TIP3   OH225149   1.583   7.144   1.939
 8403TIP3    H125150   1.646   7.216   1.944
 8403TIP3    H225151   1.535   7.161   1.858
 8404TIP3   OH225152   1.816   3.424   3.939
 8404TIP3    H125153   1.818   3.464   4.026
 8404TIP3    H225154   1.879   3.474   3.888
 8405TIP3   OH225155   4.834   4.274   5.483
 8405TIP3    H125156   4.743   4.302   5.495
 8405TIP3    H225157   4.829   4.179   5.479
 8406TIP3   OH225158   7.283   6.297   6.220
 8406TIP3    H125159   7.336   6.256   6.288
 8406TIP3    H225160   7.197   6.309   6.261
 8407TIP3   OH225161   8.216   6.717   4.929
 8407TIP3    H125162   8.123   6.695   4.929
 8407TIP3    H225163   8.247   6.690   5.015
 8408TIP3   OH225164   7.672   1.252   1.322
 8408TIP3    H125165   7.653   1.257   1.228
 8408TIP3    H225166   7.622   1.177   1.353
 8409TIP3   OH225167   1.050   4.154   3.977
 8409TIP3    H125168   1.049   4.082   3.914
 8409TIP3    H225169   1.086   4.228   3.928
 8410TIP3   OH225170   1.388   2.954   2.901
 8410TIP3    H125171   1.313   2.915   2.945
 8410TIP3    H225172   1.442   2.879   2.875
 8411TIP3   OH225173   5.583   0.590   2.967
 8411TIP3    H125174   5.607   0.658   2.904
 8411TIP3    H225175   5.663   0.538   2.978
 8412TIP3   OH225176   5.687   0.218   5.795
 8412TIP3    H125177   5.778   0.195   5.774
 8412TIP3    H225178   5.662   0.155   5.862
 8413TIP3   OH225179   5.184   5.995   0.885
 8413TIP3    H125180   5.261   6.026   0.836
 8413TIP3    H225181   5.203   6.017   0.976
 8414TIP3   OH225182   1.112   2.798   5.157
 8414TIP3    H125183   1.046   2.728   5.156
 8414TIP3    H225184   1.186   2.759   5.204
 8415TIP3   OH225185   1.901   4.344   5.832
 8415TIP3    H125186   1.869   4.254   5.825
 8415TIP3    H225187   1.975   4.337   5.892
 8416TIP3   OH225188   1.963   1.362   6.226
 8416TIP3    H125189   2.013   1.280   6.230
 8416TIP3    H225190   1.928   1.374   6.314
 8417TIP3   OH225191   2.747   0.320   0.604
 8417TIP3    H125192   2.651   0.313   0.601
 8417TIP3    H225193   2.763   0.412   0.627
 8418TIP3   OH225194   5.028   2.096   2.302
 8418TIP3    H125195   4.992   2.116   2.388
 8418TIP3    H225196   5.058   2.181   2.269
 8419TIP3   OH225197   7.886   1.877   1.731
 8419TIP3    H125198   7.792   1.894   1.739
 8419TIP3    H225199   7.927   1.935   1.795
 8420TIP3   OH225200   1.078   4.981   4.063
 8420TIP3    H125201   1.066   4.933   3.981
 8420TIP3    H225202   1.097   5.071   4.035
 8421TIP3   OH225203   6.290   7.196   1.068
 8421TIP3    H125204   6.311   7.288   1.058
 8421TIP3    H225205   6.279   7.183   1.162
 8422TIP3   OH225206   6.335   3.729   0.448
 8422TIP3    H125207   6.398   3.669   0.407
 8422TIP3    H225208   6.380   3.761   0.526
 8423TIP3   OH225209   3.298   0.369   3.485
 8423TIP3    H125210   3.209   0.343   3.462
 8423TIP3    H225211   3.338   0.398   3.403
 8424TIP3   OH225212   0.219   5.604   3.710
 8424TIP3    H125213   0.183   5.644   3.790
 8424TIP3    H225214   0.283   5.668   3.679
 8425TIP3   OH225215   5.355   6.126   3.222
 8425TIP3    H125216   5.370   6.170   3.306
 8425TIP3    H225217   5.418   6.055   3.220
 8426TIP3   OH225218   8.072   0.563   1.545
 8426TIP3    H125219   7.991   0.613   1.537
 8426TIP3    H225220   8.096   0.542   1.455
 8427TIP3   OH225221   1.753   6.154   2.019
 8427TIP3    H125222   1.836   6.188   2.051
 8427TIP3    H225223   1.693   6.166   2.093
 8428TIP3   OH225224   6.998   1.303   0.891
 8428TIP3    H125225   7.027   1.234   0.950
 8428TIP3    H225226   6.987   1.260   0.807
 8429TIP3   OH225227   6.786   0.153   3.985
 8429TIP3    H125228   6.832   0.115   3.910
 8429TIP3    H225229   6.832   0.120   4.061
 8430TIP3   OH225230   7.654   7.045   2.514
 8430TIP3    H125231   7.569   7.061   2.472
 8430TIP3    H225232   7.632   7.014   2.601
 8431TIP3   OH225233   8.075   3.827   2.705
 8431TIP3    H125234   7.994   3.875   2.690
 8431TIP3    H225235   8.097   3.847   2.796
 8432TIP3   OH225236   3.730   2.004   5.591
 8432TIP3    H125237   3.769   1.916   5.588
 8432TIP3    H225238   3.717   2.021   5.685
 8433TIP3   OH225239   0.973   1.274   0.536
 8433TIP3    H125240   0.922   1.304   0.461
 8433TIP3    H225241   0.932   1.192   0.562
 8434TIP3   OH225242   5.784   4.163   2.891
 8434TIP3    H125243   5.862   4.117   2.922
 8434TIP3    H225244   5.790   4.250   2.931
 8435TIP3   OH225245   1.061   3.572   6.295
 8435TIP3    H125246   1.143   3.588   6.247
 8435TIP3    H225247   1.040   3.656   6.335
 8436TIP3   OH225248   3.110   4.444   6.116
 8436TIP3    H125249   3.157   4.404   6.044
 8436TIP3    H225250   3.059   4.514   6.075
 8437TIP3   OH225251   6.057   4.657   0.625
 8437TIP3    H125252   6.105   4.702   0.555
 8437TIP3    H225253   6.108   4.674   0.704
 8438TIP3   OH225254   2.594   6.281   4.624
 8438TIP3    H125255   2.527   6.215   4.645
 8438TIP3    H225256   2.579   6.351   4.688
 8439TIP3   OH225257   7.063   7.698   6.624
 8439TIP3    H125258   7.087   7.789   6.607
 8439TIP3    H225259   7.076   7.687   6.718
 8440TIP3   OH225260   4.931   5.067   0.689
 8440TIP3    H125261   4.944   5.147   0.741
 8440TIP3    H225262   5.002   5.069   0.625
 8441TIP3   OH225263   3.632   3.766   4.080
 8441TIP3    H125264   3.642   3.677   4.047
 8441TIP3    H225265   3.602   3.816   4.005
 8442TIP3   OH225266   6.371   7.211   4.657
 8442TIP3    H125267   6.409   7.140   4.708
 8442TIP3    H225268   6.406   7.199   4.569
 8443TIP3   OH225269   6.203   4.019   6.213
 8443TIP3    H125270   6.147   4.097   6.215
 8443TIP3    H225271   6.226   4.009   6.120
 8444TIP3   OH225272   8.080   4.008   1.805
 8444TIP3    H125273   8.176   3.997   1.808
 8444TIP3    H225274   8.050   3.937   1.750
 8445TIP3   OH225275   8.199   2.504   5.310
 8445TIP3    H125276   8.278   2.525   5.261
 8445TIP3    H225277   8.205   2.409   5.325
 8446TIP3   OH225278   3.966   1.089   3.336
 8446TIP3    H125279   4.047   1.080   3.387
 8446TIP3    H225280   3.964   1.181   3.310
 8447TIP3   OH225281   7.366   5.936   0.216
 8447TIP3    H125282   7.339   5.922   0.126
 8447TIP3    H225283   7.406   6.023   0.216
 8448TIP3   OH225284   2.176   0.458   3.931
 8448TIP3    H125285   2.262   0.419   3.940
 8448TIP3    H225286   2.121   0.413   3.995
 8449TIP3   OH225287   0.119   5.036   2.798
 8449TIP3    H125288   0.077   5.011   2.880
 8449TIP3    H225289   0.210   5.008   2.808
 8450TIP3   OH225290   5.511   1.186   0.303
 8450TIP3    H125291   5.531   1.244   0.230
 8450TIP3    H225292   5.469   1.110   0.262
 8451TIP3   OH225293   7.091   6.950   1.901
 8451TIP3    H125294   7.040   6.995   1.968
 8451TIP3    H225295   7.050   6.863   1.894
 8452TIP3   OH225296   7.457   4.717   3.825
 8452TIP3    H125297   7.472   4.728   3.731
 8452TIP3    H225298   7.513   4.783   3.866
 8453TIP3   OH225299   6.103   4.237   0.969
 8453TIP3    H125300   6.134   4.169   1.029
 8453TIP3    H225301   6.139   4.211   0.884
 8454TIP3   OH225302   3.349   5.966   1.556
 8454TIP3    H125303   3.308   5.897   1.503
 8454TIP3    H225304   3.344   6.044   1.500
 8455TIP3   OH225305   5.020   4.438   5.397
 8455TIP3    H125306   4.953   4.377   5.425
 8455TIP3    H225307   5.052   4.401   5.314
 8456TIP3   OH225308   6.187   0.106   6.759
 8456TIP3    H125309   6.266   0.091   6.708
 8456TIP3    H225310   6.122   0.049   6.719
 8457TIP3   OH225311   7.415   3.297   3.702
 8457TIP3    H125312   7.397   3.274   3.793
 8457TIP3    H225313   7.333   3.280   3.656
 8458TIP3   OH225314   0.047   5.014   4.811
 8458TIP3    H125315   0.046   5.076   4.738
 8458TIP3    H225316   0.129   4.966   4.801
 8459TIP3   OH225317   0.395   4.853   2.496
 8459TIP3    H125318   0.372   4.945   2.488
 8459TIP3    H225319   0.444   4.833   2.416
 8460TIP3   OH225320   3.622   7.033   0.065
 8460TIP3    H125321   3.556   7.025  -0.002
 8460TIP3    H225322   3.600   7.114   0.111
 8461TIP3   OH225323   0.199   7.317   1.591
 8461TIP3    H125324   0.109   7.309   1.623
 8461TIP3    H225325   0.253   7.289   1.665
 8462TIP3   OH225326   1.930   6.334   6.645
 8462TIP3    H125327   2.018   6.372   6.642
 8462TIP3    H225328   1.901   6.349   6.735
 8463TIP3   OH225329   2.656   3.271   0.405
 8463TIP3    H125330   2.743   3.238   0.380
 8463TIP3    H225331   2.619   3.200   0.459
 8464TIP3   OH225332   4.797   6.503   3.375
 8464TIP3    H125333   4.846   6.582   3.354
 8464TIP3    H225334   4.706   6.532   3.380
 8465TIP3   OH225335   3.988   7.025   4.621
 8465TIP3    H125336   3.914   7.002   4.566
 8465TIP3    H225337   4.062   6.976   4.584
 8466TIP3   OH225338   1.827   1.016   2.859
 8466TIP3    H125339   1.734   1.020   2.882
 8466TIP3    H225340   1.869   1.080   2.918
 8467TIP3   OH225341   2.903   6.659   2.849
 8467TIP3    H125342   2.833   6.666   2.785
 8467TIP3    H225343   2.887   6.731   2.910
 8468TIP3   OH225344   7.895   7.367   1.380
 8468TIP3    H125345   7.987   7.345   1.393
 8468TIP3    H225346   7.882   7.361   1.285
 8469TIP3   OH225347   4.226   5.504   3.156
 8469TIP3    H125348   4.278   5.472   3.082
 8469TIP3    H225349   4.153   5.551   3.115
 8470TIP3   OH225350   5.195   2.288   0.752
 8470TIP3    H125351   5.169   2.279   0.661
 8470TIP3    H225352   5.289   2.306   0.749
 8471TIP3   OH225353   4.302   3.048   5.975
 8471TIP3    H125354   4.346   2.985   6.031
 8471TIP3    H225355   4.220   3.005   5.951
 8472TIP3   OH225356   7.063   2.409   5.349
 8472TIP3    H125357   7.083   2.318   5.325
 8472TIP3    H225358   7.130   2.433   5.413
 8473TIP3   OH225359   7.547   6.088   5.731
 8473TIP3    H125360   7.532   6.052   5.644
 8473TIP3    H225361   7.484   6.042   5.787
 8474TIP3   OH225362   5.809   1.912   3.181
 8474TIP3    H125363   5.764   1.846   3.128
 8474TIP3    H225364   5.898   1.915   3.145
 8475TIP3   OH225365   6.086   5.217   6.063
 8475TIP3    H125366   6.126   5.132   6.082
 8475TIP3    H225367   6.145   5.258   6.000
 8476TIP3   OH225368   2.237   4.750   1.181
 8476TIP3    H125369   2.206   4.840   1.194
 8476TIP3    H225370   2.309   4.739   1.242
 8477TIP3   OH225371   3.316   1.214   4.402
 8477TIP3    H125372   3.287   1.156   4.331
 8477TIP3    H225373   3.389   1.263   4.365
 8478TIP3   OH225374   5.032   7.424   2.116
 8478TIP3    H125375   4.953   7.478   2.114
 8478TIP3    H225376   5.076   7.444   2.034
 8479TIP3   OH225377   1.179   0.464   5.147
 8479TIP3    H125378   1.229   0.543   5.126
 8479TIP3    H225379   1.202   0.443   5.237
 8480TIP3   OH225380   7.039   2.686   5.816
 8480TIP3    H125381   7.008   2.710   5.903
 8480TIP3    H225382   6.961   2.654   5.771
 8481TIP3   OH225383   8.346   6.985   3.346
 8481TIP3    H125384   8.269   7.042   3.345
 8481TIP3    H225385   8.388   7.003   3.430
 8482TIP3   OH225386   8.301   6.708   3.876
 8482TIP3    H125387   8.279   6.615   3.867
 8482TIP3    H225388   8.392   6.714   3.848
 8483TIP3   OH225389   2.928   2.563   5.245
 8483TIP3    H125390   3.016   2.543   5.212
 8483TIP3    H225391   2.896   2.480   5.279
 8484TIP3   OH225392   8.213   3.350   3.381
 8484TIP3    H125393   8.205   3.399   3.299
 8484TIP3    H225394   8.131   3.366   3.427
 8485TIP3   OH225395   1.005   7.167   4.208
 8485TIP3    H125396   1.091   7.209   4.210
 8485TIP3    H225397   0.995   7.139   4.117
 8486TIP3   OH225398   1.646   3.448   1.020
 8486TIP3    H125399   1.720   3.404   0.977
 8486TIP3    H225400   1.578   3.451   0.952
 8487TIP3   OH225401   4.960   3.852   4.147
 8487TIP3    H125402   5.054   3.840   4.157
 8487TIP3    H225403   4.949   3.946   4.133
 8488TIP3   OH225404   0.629   5.724   6.664
 8488TIP3    H125405   0.688   5.697   6.734
 8488TIP3    H225406   0.590   5.805   6.695
 8489TIP3   OH225407   2.415   5.122   6.597
 8489TIP3    H125408   2.504   5.088   6.587
 8489TIP3    H225409   2.403   5.130   6.692
 8490TIP3   OH225410   1.719   1.945   3.376
 8490TIP3    H125411   1.804   1.910   3.406
 8490TIP3    H225412   1.686   1.994   3.450
 8491TIP3   OH225413   4.329   7.510   1.005
 8491TIP3    H125414   4.387   7.465   0.944
 8491TIP3    H225415   4.367   7.493   1.091
 8492TIP3   OH225416   5.105   4.203   5.607
 8492TIP3    H125417   5.085   4.228   5.517
 8492TIP3    H225418   5.026   4.223   5.656
 8493TIP3   OH225419   2.001   5.758   0.258
 8493TIP3    H125420   1.920   5.808   0.264
 8493TIP3    H225421   2.069   5.823   0.239
 8494TIP3   OH225422   6.212   5.686   0.767
 8494TIP3    H125423   6.243   5.764   0.814
 8494TIP3    H225424   6.125   5.709   0.736
 8495TIP3   OH225425   0.405   5.571   1.073
 8495TIP3    H125426   0.333   5.595   1.131
 8495TIP3    H225427   0.382   5.612   0.989
 8496TIP3   OH225428   1.310   3.462   2.354
 8496TIP3    H125429   1.240   3.404   2.385
 8496TIP3    H225430   1.320   3.440   2.261
 8497TIP3   OH225431   5.569   5.565   0.724
 8497TIP3    H125432   5.626   5.522   0.788
 8497TIP3    H225433   5.481   5.543   0.753
 8498TIP3   OH225434   0.928   7.874   5.885
 8498TIP3    H125435   1.006   7.819   5.880
 8498TIP3    H225436   0.876   7.836   5.956
 8499TIP3   OH225437   7.210   5.202   4.031
 8499TIP3    H125438   7.126   5.240   4.057
 8499TIP3    H225439   7.248   5.266   3.971
 8500TIP3   OH225440   0.817   5.622   5.218
 8500TIP3    H125441   0.774   5.632   5.133
 8500TIP3    H225442   0.862   5.706   5.232
 8501TIP3   OH225443   3.889   6.220   3.581
 8501TIP3    H125444   3.910   6.130   3.559
 8501TIP3    H225445   3.938   6.238   3.661
 8502TIP3   OH225446   1.956   2.952   6.474
 8502TIP3    H125447   1.902   2.880   6.506
 8502TIP3    H225448   1.893   3.017   6.444
 8503TIP3   OH225449   6.388   0.086   0.453
 8503TIP3    H125450   6.373   0.180   0.456
 8503TIP3    H225451   6.483   0.076   0.445
 8504TIP3   OH225452   2.590   6.437   0.118
 8504TIP3    H125453   2.585   6.508   0.182
 8504TIP3    H225454   2.634   6.476   0.042
 8505TIP3   OH225455   3.400   5.609   2.507
 8505TIP3    H125456   3.382   5.695   2.470
 8505TIP3    H225457   3.495   5.607   2.519
 8506TIP3   OH225458   1.868   0.514   0.528
 8506TIP3    H125459   1.852   0.433   0.479
 8506TIP3    H225460   1.786   0.563   0.521
 8507TIP3   OH225461   6.154   1.789   5.045
 8507TIP3    H125462   6.205   1.710   5.027
 8507TIP3    H225463   6.166   1.844   4.967
 8508TIP3   OH225464   0.114   0.189   6.115
 8508TIP3    H125465   0.117   0.141   6.032
 8508TIP3    H225466   0.144   0.277   6.092
 8509TIP3   OH225467   1.288   2.176   2.346
 8509TIP3    H125468   1.257   2.258   2.386
 8509TIP3    H225469   1.208   2.125   2.333
 8510TIP3   OH225470   5.026   7.741   3.295
 8510TIP3    H125471   5.064   7.674   3.352
 8510TIP3    H225472   4.999   7.694   3.216
 8511TIP3   OH225473   3.421   4.026   0.305
 8511TIP3    H125474   3.443   4.072   0.385
 8511TIP3    H225475   3.506   4.002   0.267
 8512TIP3   OH225476   0.053   7.672   0.833
 8512TIP3    H125477   0.057   7.585   0.792
 8512TIP3    H225478   0.141   7.708   0.821
 8513TIP3   OH225479   0.873   1.292   1.244
 8513TIP3    H125480   0.835   1.378   1.226
 8513TIP3    H225481   0.943   1.283   1.180
 8514TIP3   OH225482   7.025   4.618   6.799
 8514TIP3    H125483   6.985   4.649   6.717
 8514TIP3    H225484   6.972   4.542   6.824
 8515TIP3   OH225485   6.214   4.793   5.797
 8515TIP3    H125486   6.198   4.886   5.805
 8515TIP3    H225487   6.308   4.783   5.809
 8516TIP3   OH225488   3.958   4.543   4.872
 8516TIP3    H125489   3.951   4.620   4.816
 8516TIP3    H225490   4.023   4.488   4.828
 8517TIP3   OH225491   6.800   6.977   6.711
 8517TIP3    H125492   6.862   7.003   6.643
 8517TIP3    H225493   6.851   6.977   6.791
 8518TIP3   OH225494   6.210   0.440   0.146
 8518TIP3    H125495   6.272   0.434   0.219
 8518TIP3    H225496   6.263   0.471   0.073
 8519TIP3   OH225497   1.911   5.571   0.763
 8519TIP3    H125498   1.997   5.612   0.766
 8519TIP3    H225499   1.928   5.478   0.779
 8520TIP3   OH225500   6.674   7.820   1.624
 8520TIP3    H125501   6.687   7.914   1.629
 8520TIP3    H225502   6.761   7.784   1.604
 8521TIP3   OH225503   7.824   2.476   1.433
 8521TIP3    H125504   7.755   2.542   1.426
 8521TIP3    H225505   7.823   2.450   1.525
 8522TIP3   OH225506   7.356   2.957   5.854
 8522TIP3    H125507   7.337   3.049   5.870
 8522TIP3    H225508   7.370   2.920   5.941
 8523TIP3   OH225509   5.456   0.533   0.216
 8523TIP3    H125510   5.473   0.466   0.282
 8523TIP3    H225511   5.419   0.485   0.142
 8524TIP3   OH225512   0.844   3.055   3.433
 8524TIP3    H125513   0.806   3.142   3.423
 8524TIP3    H225514   0.824   3.010   3.350
 8525TIP3   OH225515   1.198   0.691   4.036
 8525TIP3    H125516   1.210   0.786   4.047
 8525TIP3    H225517   1.138   0.684   3.961
 8526TIP3   OH225518   7.721   7.401   1.642
 8526TIP3    H125519   7.804   7.409   1.689
 8526TIP3    H225520   7.746   7.392   1.551
 8527TIP3   OH225521   0.827   4.886   4.166
 8527TIP3    H125522   0.833   4.864   4.259
 8527TIP3    H225523   0.900   4.946   4.151
 8528TIP3   OH225524   8.119   6.428   2.735
 8528TIP3    H125525   8.211   6.427   2.761
 8528TIP3    H225526   8.121   6.428   2.639
 8529TIP3   OH225527   1.216   3.477   5.551
 8529TIP3    H125528   1.187   3.566   5.532
 8529TIP3    H225529   1.174   3.456   5.634
 8530TIP3   OH225530   4.194   3.839   5.097
 8530TIP3    H125531   4.129   3.790   5.048
 8530TIP3    H225532   4.227   3.904   5.035
 8531TIP3   OH225533   7.089   5.298   5.414
 8531TIP3    H125534   7.048   5.268   5.333
 8531TIP3    H225535   7.073   5.393   5.415
 8532TIP3   OH225536   5.632   2.235   0.559
 8532TIP3    H125537   5.623   2.330   0.552
 8532TIP3    H225538   5.711   2.215   0.510
 8533TIP3   OH225539   6.341   2.690   3.371
 8533TIP3    H125540   6.383   2.755   3.315
 8533TIP3    H225541   6.302   2.741   3.442
 8534TIP3   OH225542   3.272   4.623   3.239
 8534TIP3    H125543   3.348   4.625   3.181
 8534TIP3    H225544   3.256   4.529   3.253
 8535TIP3   OH225545   1.987   0.682   0.046
 8535TIP3    H125546   2.058   0.711   0.103
 8535TIP3    H225547   1.907   0.715   0.087
 8536TIP3   OH225548   2.139   7.341   5.617
 8536TIP3    H125549   2.114   7.337   5.524
 8536TIP3    H225550   2.061   7.374   5.662
 8537TIP3   OH225551   7.243   3.900   0.378
 8537TIP3    H125552   7.303   3.831   0.407
 8537TIP3    H225553   7.270   3.978   0.427
 8538TIP3   OH225554   6.527   3.077   2.428
 8538TIP3    H125555   6.540   2.982   2.435
 8538TIP3    H225556   6.586   3.114   2.494
 8539TIP3   OH225557   3.990   4.113   3.376
 8539TIP3    H125558   3.929   4.167   3.426
 8539TIP3    H225559   4.076   4.134   3.413
 8540TIP3   OH225560   2.850   6.274   4.492
 8540TIP3    H125561   2.908   6.312   4.559
 8540TIP3    H225562   2.762   6.282   4.529
 8541TIP3   OH225563   5.296   1.054   3.160
 8541TIP3    H125564   5.278   1.104   3.239
 8541TIP3    H225565   5.214   1.055   3.111
 8542TIP3   OH225566   5.968   0.384   1.649
 8542TIP3    H125567   5.954   0.406   1.557
 8542TIP3    H225568   6.024   0.306   1.647
 8543TIP3   OH225569   0.898   0.877   1.788
 8543TIP3    H125570   0.832   0.914   1.729
 8543TIP3    H225571   0.900   0.784   1.765
 8544TIP3   OH225572   3.506   3.171   6.144
 8544TIP3    H125573   3.504   3.141   6.235
 8544TIP3    H225574   3.599   3.183   6.124
 8545TIP3   OH225575   3.995   2.321   1.963
 8545TIP3    H125576   4.011   2.390   1.899
 8545TIP3    H225577   3.904   2.332   1.989
 8546TIP3   OH225578   3.454   5.495   4.045
 8546TIP3    H125579   3.423   5.517   4.133
 8546TIP3    H225580   3.413   5.411   4.025
 8547TIP3   OH225581   6.230   7.155   2.943
 8547TIP3    H125582   6.283   7.185   2.869
 8547TIP3    H225583   6.261   7.066   2.960
 8548TIP3   OH225584   2.721   2.135   0.887
 8548TIP3    H125585   2.731   2.048   0.846
 8548TIP3    H225586   2.704   2.116   0.979
 8549TIP3   OH225587   0.665   4.921   0.566
 8549TIP3    H125588   0.694   4.996   0.515
 8549TIP3    H225589   0.570   4.921   0.556
 8550TIP3   OH225590   3.515   4.862   1.670
 8550TIP3    H125591   3.554   4.932   1.722
 8550TIP3    H225592   3.517   4.894   1.580
 8551TIP3   OH225593   7.449   6.103   6.698
 8551TIP3    H125594   7.425   6.160   6.771
 8551TIP3    H225595   7.370   6.053   6.679
 8552TIP3   OH225596   2.378   5.205   2.720
 8552TIP3    H125597   2.466   5.240   2.709
 8552TIP3    H225598   2.352   5.232   2.808
 8553TIP3   OH225599   7.638   1.055   2.829
 8553TIP3    H125600   7.599   1.134   2.866
 8553TIP3    H225601   7.641   1.071   2.734
 8554TIP3   OH225602   2.154   1.623   1.003
 8554TIP3    H125603   2.064   1.606   1.028
 8554TIP3    H225604   2.158   1.602   0.910
 8555TIP3   OH225605   3.896   7.880   2.010
 8555TIP3    H125606   3.854   7.909   2.090
 8555TIP3    H225607   3.982   7.922   2.011
 8556TIP3   OH225608   1.182   3.401   1.667
 8556TIP3    H125609   1.244   3.328   1.670
 8556TIP3    H225610   1.111   3.376   1.727
 8557TIP3   OH225611   6.978   2.973   3.614
 8557TIP3    H125612   7.027   2.942   3.538
 8557TIP3    H225613   6.974   2.897   3.672
 8558TIP3   OH225614   5.391   0.416   5.167
 8558TIP3    H125615   5.479   0.378   5.169
 8558TIP3    H225616   5.406   0.510   5.151
 8559TIP3   OH225617   3.695   4.418   4.689
 8559TIP3    H125618   3.749   4.484   4.731
 8559TIP3    H225619   3.611   4.423   4.734
 8560TIP3   OH225620   0.993   2.460   1.277
 8560TIP3    H125621   1.050   2.459   1.354
 8560TIP3    H225622   1.015   2.540   1.231
 8561TIP3   OH225623   4.225   0.473   6.256
 8561TIP3    H125624   4.275   0.392   6.268
 8561TIP3    H225625   4.205   0.502   6.344
 8562TIP3   OH225626   1.951   3.070   3.226
 8562TIP3    H125627   2.028   3.029   3.267
 8562TIP3    H225628   1.952   3.038   3.136
 8563TIP3   OH225629   5.016   6.691   2.891
 8563TIP3    H125630   4.975   6.778   2.894
 8563TIP3    H225631   5.064   6.685   2.973
 8564TIP3   OH225632   8.061   5.204   5.698
 8564TIP3    H125633   7.986   5.189   5.641
 8564TIP3    H225634   8.033   5.172   5.784
 8565TIP3   OH225635   8.199   1.643   5.605
 8565TIP3    H125636   8.261   1.584   5.562
 8565TIP3    H225637   8.150   1.683   5.533
 8566TIP3   OH225638   0.001   7.274   1.962
 8566TIP3    H125639   0.056   7.311   2.030
 8566TIP3    H225640   0.018   7.180   1.964
 8567TIP3   OH225641   1.885   0.829   2.664
 8567TIP3    H125642   1.851   0.880   2.737
 8567TIP3    H225643   1.944   0.766   2.704
 8568TIP3   OH225644   0.157   4.630   1.010
 8568TIP3    H125645   0.221   4.661   1.074
 8568TIP3    H225646   0.103   4.568   1.058
 8569TIP3   OH225647   1.447   4.365   4.055
 8569TIP3    H125648   1.399   4.437   4.097
 8569TIP3    H225649   1.414   4.286   4.098
 8570TIP3   OH225650   5.272   5.579   3.118
 8570TIP3    H125651   5.192   5.583   3.170
 8570TIP3    H225652   5.241   5.565   3.028
 8571TIP3   OH225653   8.173   7.486   4.419
 8571TIP3    H125654   8.229   7.479   4.496
 8571TIP3    H225655   8.157   7.580   4.409
 8572TIP3   OH225656   0.542   6.818   2.910
 8572TIP3    H125657   0.478   6.780   2.970
 8572TIP3    H225658   0.493   6.885   2.862
 8573TIP3   OH225659   1.157   3.535   0.525
 8573TIP3    H125660   1.129   3.591   0.453
 8573TIP3    H225661   1.077   3.493   0.555
 8574TIP3   OH225662   6.748   2.574   5.019
 8574TIP3    H125663   6.682   2.617   4.965
 8574TIP3    H225664   6.812   2.643   5.037
 8575TIP3   OH225665   2.952   5.135   5.241
 8575TIP3    H125666   3.039   5.147   5.202
 8575TIP3    H225667   2.969   5.082   5.319
 8576TIP3   OH225668   4.002   4.677   1.596
 8576TIP3    H125669   3.921   4.728   1.587
 8576TIP3    H225670   4.045   4.712   1.673
 8577TIP3   OH225671   0.860   1.910   3.746
 8577TIP3    H125672   0.874   1.881   3.656
 8577TIP3    H225673   0.859   2.005   3.741
 8578TIP3   OH225674   3.658   5.039   2.134
 8578TIP3    H125675   3.645   5.126   2.171
 8578TIP3    H225676   3.676   5.054   2.041
 8579TIP3   OH225677   7.504   4.563   5.681
 8579TIP3    H125678   7.527   4.538   5.770
 8579TIP3    H225679   7.541   4.493   5.626
 8580TIP3   OH225680   2.964   3.437   4.036
 8580TIP3    H125681   2.905   3.456   4.109
 8580TIP3    H225682   3.017   3.364   4.067
 8581TIP3   OH225683   5.638   5.566   1.355
 8581TIP3    H125684   5.583   5.620   1.411
 8581TIP3    H225685   5.716   5.547   1.408
 8582TIP3   OH225686   6.345   5.023   1.692
 8582TIP3    H125687   6.366   5.110   1.657
 8582TIP3    H225688   6.375   5.026   1.782
 8583TIP3   OH225689   5.171   3.023   2.044
 8583TIP3    H125690   5.191   3.108   2.004
 8583TIP3    H225691   5.225   2.960   1.997
 8584TIP3   OH225692   2.890   7.154   0.198
 8584TIP3    H125693   2.852   7.163   0.286
 8584TIP3    H225694   2.875   7.239   0.157
 8585TIP3   OH225695   0.816   0.123   3.636
 8585TIP3    H125696   0.734   0.075   3.625
 8585TIP3    H225697   0.884   0.056   3.629
 8586TIP3   OH225698   7.832   7.757   4.864
 8586TIP3    H125699   7.874   7.706   4.933
 8586TIP3    H225700   7.763   7.806   4.909
 8587TIP3   OH225701   7.308   7.630   0.014
 8587TIP3    H125702   7.384   7.687   0.026
 8587TIP3    H225703   7.299   7.622  -0.080
 8588TIP3   OH225704   5.169   3.397   0.054
 8588TIP3    H125705   5.142   3.429  -0.033
 8588TIP3    H225706   5.096   3.343   0.083
 8589TIP3   OH225707   7.359   2.188   1.618
 8589TIP3    H125708   7.301   2.118   1.588
 8589TIP3    H225709   7.444   2.165   1.582
 8590TIP3   OH225710   0.516   6.150   0.115
 8590TIP3    H125711   0.490   6.214   0.181
 8590TIP3    H225712   0.611   6.162   0.105
 8591TIP3   OH225713   8.027   0.845   2.727
 8591TIP3    H125714   8.004   0.897   2.650
 8591TIP3    H225715   7.988   0.892   2.801
 8592TIP3   OH225716   4.860   2.908   5.959
 8592TIP3    H125717   4.924   2.958   5.908
 8592TIP3    H225718   4.780   2.911   5.906
 8593TIP3   OH225719   1.420   0.366   3.988
 8593TIP3    H125720   1.394   0.383   4.078
 8593TIP3    H225721   1.440   0.452   3.951
 8594TIP3   OH225722   5.486   0.522   4.664
 8594TIP3    H125723   5.536   0.487   4.738
 8594TIP3    H225724   5.545   0.513   4.589
 8595TIP3   OH225725   4.646   1.007   0.385
 8595TIP3    H125726   4.726   0.985   0.431
 8595TIP3    H225727   4.646   0.950   0.308
 8596TIP3   OH225728   7.931   2.444   3.876
 8596TIP3    H125729   7.961   2.535   3.870
 8596TIP3    H225730   7.849   2.450   3.925
 8597TIP3   OH225731   0.454   4.727   3.479
 8597TIP3    H125732   0.440   4.681   3.562
 8597TIP3    H225733   0.491   4.811   3.505
 8598TIP3   OH225734   3.650   2.044   3.648
 8598TIP3    H125735   3.629   2.002   3.731
 8598TIP3    H225736   3.728   2.097   3.667
 8599TIP3   OH225737   5.144   3.176   2.786
 8599TIP3    H125738   5.131   3.215   2.699
 8599TIP3    H225739   5.056   3.174   2.825
 8600TIP3   OH225740   1.741   1.268   1.037
 8600TIP3    H125741   1.797   1.288   0.962
 8600TIP3    H225742   1.654   1.253   0.999
 8601TIP3   OH225743   1.169   3.462   2.972
 8601TIP3    H125744   1.135   3.519   3.042
 8601TIP3    H225745   1.223   3.520   2.919
 8602TIP3   OH225746   7.599   0.308   2.510
 8602TIP3    H125747   7.672   0.247   2.514
 8602TIP3    H225748   7.566   0.312   2.600
 8603TIP3   OH225749   2.152   2.538   0.686
 8603TIP3    H125750   2.080   2.475   0.699
 8603TIP3    H225751   2.228   2.483   0.669
 8604TIP3   OH225752   5.912   6.301   4.580
 8604TIP3    H125753   5.886   6.276   4.491
 8604TIP3    H225754   5.996   6.345   4.569
 8605TIP3   OH225755   6.253   5.061   5.792
 8605TIP3    H125756   6.217   5.142   5.755
 8605TIP3    H225757   6.347   5.075   5.796
 8606TIP3   OH225758   4.943   1.752   1.175
 8606TIP3    H125759   4.997   1.694   1.121
 8606TIP3    H225760   4.993   1.833   1.183
 8607TIP3   OH225761   1.637   2.561   3.902
 8607TIP3    H125762   1.564   2.529   3.955
 8607TIP3    H225763   1.675   2.633   3.952
 8608TIP3   OH225764   8.250   4.964   6.068
 8608TIP3    H125765   8.190   5.031   6.035
 8608TIP3    H225766   8.224   4.951   6.159
 8609TIP3   OH225767   4.551   5.078   0.119
 8609TIP3    H125768   4.472   5.117   0.082
 8609TIP3    H225769   4.622   5.110   0.062
 8610TIP3   OH225770   4.270   5.049   2.165
 8610TIP3    H125771   4.355   5.070   2.204
 8610TIP3    H225772   4.215   5.025   2.240
 8611TIP3   OH225773   6.181   3.230   0.251
 8611TIP3    H125774   6.102   3.194   0.211
 8611TIP3    H225775   6.175   3.324   0.235
 8612TIP3   OH225776   1.024   5.288   6.478
 8612TIP3    H125777   1.031   5.359   6.413
 8612TIP3    H225778   1.098   5.231   6.459
 8613TIP3   OH225779   3.470   7.863   2.328
 8613TIP3    H125780   3.408   7.795   2.355
 8613TIP3    H225781   3.516   7.824   2.253
 8614TIP3   OH225782   3.694   6.442   5.166
 8614TIP3    H125783   3.760   6.493   5.120
 8614TIP3    H225784   3.611   6.467   5.124
 8615TIP3   OH225785   1.608   7.283   5.862
 8615TIP3    H125786   1.538   7.236   5.907
 8615TIP3    H225787   1.607   7.248   5.773
 8616TIP3   OH225788   4.601   4.674   2.578
 8616TIP3    H125789   4.636   4.586   2.561
 8616TIP3    H225790   4.507   4.660   2.592
 8617TIP3   OH225791   7.532   6.146   0.207
 8617TIP3    H125792   7.543   6.172   0.298
 8617TIP3    H225793   7.487   6.220   0.166
 8618TIP3   OH225794   1.800   1.460   1.857
 8618TIP3    H125795   1.877   1.516   1.860
 8618TIP3    H225796   1.831   1.379   1.816
 8619TIP3   OH225797   2.344   0.018   4.051
 8619TIP3    H125798   2.357   0.066   4.133
 8619TIP3    H225799   2.263  -0.031   4.064
 8620TIP3   OH225800   3.182   3.164   4.671
 8620TIP3    H125801   3.192   3.250   4.630
 8620TIP3    H225802   3.205   3.102   4.602
 8621TIP3   OH225803   1.695   6.145   0.888
 8621TIP3    H125804   1.636   6.111   0.955
 8621TIP3    H225805   1.731   6.067   0.846
 8622TIP3   OH225806   5.375   6.989   5.385
 8622TIP3    H125807   5.397   7.046   5.312
 8622TIP3    H225808   5.378   6.901   5.348
 8623TIP3   OH225809   0.172   3.970   5.803
 8623TIP3    H125810   0.205   4.047   5.757
 8623TIP3    H225811   0.106   3.933   5.744
 8624TIP3   OH225812   2.603   4.446   5.671
 8624TIP3    H125813   2.669   4.386   5.705
 8624TIP3    H225814   2.653   4.515   5.628
 8625TIP3   OH225815   1.106   7.905   4.060
 8625TIP3    H125816   1.134   7.819   4.093
 8625TIP3    H225817   1.091   7.891   3.966
 8626TIP3   OH225818   0.102   1.207   5.274
 8626TIP3    H125819   0.187   1.199   5.317
 8626TIP3    H225820   0.107   1.148   5.199
 8627TIP3   OH225821   6.406   3.425   3.823
 8627TIP3    H125822   6.313   3.425   3.798
 8627TIP3    H225823   6.425   3.517   3.842
 8628TIP3   OH225824   3.723   6.826   0.213
 8628TIP3    H125825   3.715   6.863   0.301
 8628TIP3    H225826   3.704   6.899   0.154
 8629TIP3   OH225827   2.216   5.010   4.237
 8629TIP3    H125828   2.244   4.921   4.216
 8629TIP3    H225829   2.133   5.021   4.192
 8630TIP3   OH225830   3.258   5.268   1.080
 8630TIP3    H125831   3.350   5.256   1.105
 8630TIP3    H225832   3.211   5.275   1.164
 8631TIP3   OH225833   3.397   0.249   6.722
 8631TIP3    H125834   3.335   0.267   6.793
 8631TIP3    H225835   3.472   0.305   6.741
 8632TIP3   OH225836   5.293   5.858   5.140
 8632TIP3    H125837   5.247   5.815   5.212
 8632TIP3    H225838   5.362   5.796   5.115
 8633TIP3   OH225839   4.816   4.358   3.275
 8633TIP3    H125840   4.766   4.277   3.287
 8633TIP3    H225841   4.858   4.373   3.360
 8634TIP3   OH225842   2.953   2.322   6.183
 8634TIP3    H125843   3.027   2.277   6.223
 8634TIP3    H225844   2.992   2.374   6.113
 8635TIP3   OH225845   0.995   6.885   4.205
 8635TIP3    H125846   0.967   6.906   4.294
 8635TIP3    H225847   1.061   6.950   4.184
 8636TIP3   OH225848   8.084   3.638   4.099
 8636TIP3    H125849   8.168   3.601   4.126
 8636TIP3    H225850   8.089   3.643   4.004
 8637TIP3   OH225851   8.286   6.993   1.390
 8637TIP3    H125852   8.344   7.069   1.401
 8637TIP3    H225853   8.198   7.030   1.394
 8638TIP3   OH225854   6.514   0.866   4.622
 8638TIP3    H125855   6.558   0.781   4.624
 8638TIP3    H225856   6.582   0.929   4.644
 8639TIP3   OH225857   5.303   6.518   5.299
 8639TIP3    H125858   5.393   6.542   5.278
 8639TIP3    H225859   5.300   6.423   5.287
 8640TIP3   OH225860   6.786   6.370   3.114
 8640TIP3    H125861   6.816   6.430   3.182
 8640TIP3    H225862   6.692   6.384   3.109
 8641TIP3   OH225863   0.928   2.188   1.320
 8641TIP3    H125864   0.955   2.278   1.301
 8641TIP3    H225865   0.938   2.179   1.415
 8642TIP3   OH225866   2.478   0.323   0.507
 8642TIP3    H125867   2.471   0.375   0.587
 8642TIP3    H225868   2.445   0.237   0.532
 8643TIP3   OH225869   0.166   1.297   2.230
 8643TIP3    H125870   0.095   1.234   2.222
 8643TIP3    H225871   0.125   1.376   2.267
 8644TIP3   OH225872   2.659   3.321   1.128
 8644TIP3    H125873   2.735   3.380   1.132
 8644TIP3    H225874   2.615   3.344   1.046
 8645TIP3   OH225875   2.079   2.112   3.444
 8645TIP3    H125876   2.153   2.148   3.395
 8645TIP3    H225877   2.030   2.063   3.379
 8646TIP3   OH225878   6.989   0.502   2.274
 8646TIP3    H125879   6.934   0.484   2.198
 8646TIP3    H225880   7.046   0.426   2.282
 8647TIP3   OH225881   6.020   3.956   2.196
 8647TIP3    H125882   6.024   4.019   2.268
 8647TIP3    H225883   5.926   3.940   2.183
 8648TIP3   OH225884   4.715   5.771   5.333
 8648TIP3    H125885   4.725   5.708   5.404
 8648TIP3    H225886   4.752   5.727   5.257
 8649TIP3   OH225887   4.202   0.009   5.308
 8649TIP3    H125888   4.108   0.008   5.289
 8649TIP3    H225889   4.225   0.102   5.305
 8650TIP3   OH225890   8.044   1.025   4.252
 8650TIP3    H125891   7.964   1.016   4.305
 8650TIP3    H225892   8.013   1.050   4.165
 8651TIP3   OH225893   0.060   0.973   1.393
 8651TIP3    H125894  -0.021   0.927   1.417
 8651TIP3    H225895   0.087   1.017   1.473
 8652TIP3   OH225896   6.202   6.077   2.230
 8652TIP3    H125897   6.250   6.047   2.153
 8652TIP3    H225898   6.150   6.151   2.198
 8653TIP3   OH225899   1.652   3.586   5.781
 8653TIP3    H125900   1.704   3.654   5.824
 8653TIP3    H225901   1.568   3.628   5.763
 8654TIP3   OH225902   6.222   4.128   2.574
 8654TIP3    H125903   6.310   4.156   2.596
 8654TIP3    H225904   6.229   4.033   2.565
 8655TIP3   OH225905   0.174   6.217   6.481
 8655TIP3    H125906   0.174   6.225   6.576
 8655TIP3    H225907   0.118   6.141   6.463
 8656TIP3   OH225908   4.889   3.025   0.375
 8656TIP3    H125909   4.901   2.981   0.291
 8656TIP3    H225910   4.846   2.961   0.431
 8657TIP3   OH225911   4.527   4.085   1.189
 8657TIP3    H125912   4.588   4.032   1.239
 8657TIP3    H225913   4.442   4.042   1.200
 8658TIP3   OH225914   6.415   4.245   5.730
 8658TIP3    H125915   6.475   4.319   5.730
 8658TIP3    H225916   6.454   4.183   5.668
 8659TIP3   OH225917   4.704   1.156   5.040
 8659TIP3    H125918   4.797   1.131   5.039
 8659TIP3    H225919   4.660   1.083   5.083
 8660TIP3   OH225920   0.120   2.593   6.547
 8660TIP3    H125921   0.080   2.679   6.556
 8660TIP3    H225922   0.208   2.610   6.514
 8661TIP3   OH225923   0.623   3.141   2.365
 8661TIP3    H125924   0.704   3.159   2.317
 8661TIP3    H225925   0.559   3.120   2.298
 8662TIP3   OH225926   5.083   2.075   6.815
 8662TIP3    H125927   5.087   1.984   6.783
 8662TIP3    H225928   5.019   2.072   6.886
 8663TIP3   OH225929   4.011   6.653   3.544
 8663TIP3    H125930   3.928   6.606   3.538
 8663TIP3    H225931   3.995   6.721   3.610
 8664TIP3   OH225932   3.412   1.939   6.113
 8664TIP3    H125933   3.452   1.900   6.035
 8664TIP3    H225934   3.329   1.893   6.123
 8665TIP3   OH225935   4.980   4.214   2.562
 8665TIP3    H125936   4.940   4.169   2.636
 8665TIP3    H225937   4.907   4.233   2.503
 8666TIP3   OH225938   7.619   6.503   4.107
 8666TIP3    H125939   7.670   6.458   4.039
 8666TIP3    H225940   7.538   6.529   4.063
 8667TIP3   OH225941   1.359   2.540   0.382
 8667TIP3    H125942   1.439   2.549   0.329
 8667TIP3    H225943   1.288   2.549   0.319
 8668TIP3   OH225944   0.043   1.783   3.680
 8668TIP3    H125945   0.003   1.747   3.760
 8668TIP3    H225946  -0.022   1.769   3.612
 8669TIP3   OH225947   6.105   4.078   0.275
 8669TIP3    H125948   6.180   4.019   0.265
 8669TIP3    H225949   6.089   4.081   0.369
 8670TIP3   OH225950   3.021   5.688   0.186
 8670TIP3    H125951   2.936   5.673   0.229
 8670TIP3    H225952   3.007   5.765   0.132
 8671TIP3   OH225953   6.751   1.308   4.957
 8671TIP3    H125954   6.692   1.240   4.927
 8671TIP3    H225955   6.704   1.390   4.942
 8672TIP3   OH225956   3.928   6.354   0.095
 8672TIP3    H125957   3.859   6.316   0.151
 8672TIP3    H225958   3.924   6.448   0.114
 8673TIP3   OH225959   8.318   4.899   4.209
 8673TIP3    H125960   8.260   4.895   4.285
 8673TIP3    H225961   8.280   4.967   4.154
 8674TIP3   OH225962   4.164   0.955   0.884
 8674TIP3    H125963   4.189   0.879   0.937
 8674TIP3    H225964   4.247   0.998   0.863
 8675TIP3   OH225965   6.922   6.603   5.210
 8675TIP3    H125966   6.841   6.622   5.258
 8675TIP3    H225967   6.933   6.509   5.217
 8676TIP3   OH225968   1.465   4.581   6.636
 8676TIP3    H125969   1.519   4.509   6.671
 8676TIP3    H225970   1.519   4.659   6.649
 8677TIP3   OH225971   0.894   2.735   4.542
 8677TIP3    H125972   0.862   2.647   4.562
 8677TIP3    H225973   0.972   2.744   4.595
 8678TIP3   OH225974   0.984   7.747   3.230
 8678TIP3    H125975   0.913   7.696   3.191
 8678TIP3    H225976   0.957   7.838   3.219
 8679TIP3   OH225977   4.065   3.312   6.711
 8679TIP3    H125978   4.007   3.352   6.646
 8679TIP3    H225979   4.026   3.334   6.796
 8680TIP3   OH225980   8.216   1.515   0.553
 8680TIP3    H125981   8.214   1.607   0.525
 8680TIP3    H225982   8.124   1.494   0.571
 8681TIP3   OH225983   8.121   2.021   5.152
 8681TIP3    H125984   8.106   1.933   5.116
 8681TIP3    H225985   8.033   2.056   5.167
 8682TIP3   OH225986   7.408   5.616   1.359
 8682TIP3    H125987   7.373   5.627   1.271
 8682TIP3    H225988   7.478   5.552   1.350
 8683TIP3   OH225989   8.369   0.727   0.688
 8683TIP3    H125990   8.375   0.821   0.670
 8683TIP3    H225991   8.384   0.686   0.604
 8684TIP3   OH225992   6.605   0.770   2.651
 8684TIP3    H125993   6.530   0.712   2.663
 8684TIP3    H225994   6.675   0.730   2.701
 8685TIP3   OH225995   7.730   3.642   3.473
 8685TIP3    H125996   7.713   3.575   3.540
 8685TIP3    H225997   7.660   3.706   3.485
 8686TIP3   OH225998   0.179   3.390   0.953
 8686TIP3    H125999   0.228   3.462   0.993
 8686TIP3    H226000   0.235   3.360   0.881
 8687TIP3   OH226001   1.644   4.507   2.549
 8687TIP3    H126002   1.559   4.528   2.589
 8687TIP3    H226003   1.665   4.585   2.497
 8688TIP3   OH226004   6.995   0.113   6.553
 8688TIP3    H126005   6.997   0.128   6.648
 8688TIP3    H226006   7.035   0.191   6.515
 8689TIP3   OH226007   5.456   5.270   4.682
 8689TIP3    H126008   5.481   5.332   4.750
 8689TIP3    H226009   5.523   5.202   4.685
 8690TIP3   OH226010   5.845   7.149   2.549
 8690TIP3    H126011   5.782   7.219   2.534
 8690TIP3    H226012   5.844   7.135   2.644
 8691TIP3   OH226013   4.197   5.208   1.962
 8691TIP3    H126014   4.249   5.289   1.960
 8691TIP3    H226015   4.218   5.169   2.047
 8692TIP3   OH226016   2.172   3.537   4.685
 8692TIP3    H126017   2.262   3.566   4.669
 8692TIP3    H226018   2.172   3.444   4.660
 8693TIP3   OH226019   6.347   4.491   0.822
 8693TIP3    H126020   6.301   4.486   0.739
 8693TIP3    H226021   6.376   4.582   0.828
 8694TIP3   OH226022   4.685   2.343   1.096
 8694TIP3    H126023   4.686   2.437   1.113
 8694TIP3    H226024   4.765   2.326   1.046
 8695TIP3   OH226025   7.107   0.679   3.500
 8695TIP3    H126026   7.040   0.674   3.568
 8695TIP3    H226027   7.172   0.613   3.525
 8696TIP3   OH226028   7.911   5.309   1.294
 8696TIP3    H126029   7.961   5.291   1.215
 8696TIP3    H226030   7.900   5.404   1.295
 8697TIP3   OH226031   3.178   0.712   1.659
 8697TIP3    H126032   3.213   0.684   1.575
 8697TIP3    H226033   3.088   0.682   1.659
 8698TIP3   OH226034   2.527   3.181   5.170
 8698TIP3    H126035   2.453   3.224   5.214
 8698TIP3    H226036   2.533   3.096   5.212
 8699TIP3   OH226037   3.322   0.470   2.509
 8699TIP3    H126038   3.249   0.463   2.447
 8699TIP3    H226039   3.303   0.404   2.576
 8700TIP3   OH226040   3.288   1.971   0.502
 8700TIP3    H126041   3.354   1.904   0.520
 8700TIP3    H226042   3.205   1.929   0.523
 8701TIP3   OH226043   7.391   4.487   0.963
 8701TIP3    H126044   7.367   4.468   0.872
 8701TIP3    H226045   7.422   4.403   0.997
 8702TIP3   OH226046   5.614   1.983   3.853
 8702TIP3    H126047   5.576   2.069   3.867
 8702TIP3    H226048   5.585   1.931   3.929
 8703TIP3   OH226049   6.861   1.292   5.359
 8703TIP3    H126050   6.913   1.267   5.435
 8703TIP3    H226051   6.775   1.314   5.395
 8704TIP3   OH226052   0.790   6.572   5.883
 8704TIP3    H126053   0.699   6.603   5.884
 8704TIP3    H226054   0.786   6.488   5.838
 8705TIP3   OH226055   0.246   5.655   0.858
 8705TIP3    H126056   0.162   5.698   0.874
 8705TIP3    H226057   0.258   5.661   0.763
 8706TIP3   OH226058   7.442   2.213   2.921
 8706TIP3    H126059   7.498   2.144   2.956
 8706TIP3    H226060   7.500   2.289   2.915
 8707TIP3   OH226061   7.776   6.157   4.226
 8707TIP3    H126062   7.747   6.230   4.282
 8707TIP3    H226063   7.869   6.148   4.245
 8708TIP3   OH226064   7.800   4.045   3.030
 8708TIP3    H126065   7.773   4.002   3.111
 8708TIP3    H226066   7.720   4.046   2.977
 8709TIP3   OH226067   6.379   6.144   0.201
 8709TIP3    H126068   6.309   6.200   0.168
 8709TIP3    H226069   6.410   6.188   0.280
 8710TIP3   OH226070   0.977   1.835   1.102
 8710TIP3    H126071   1.050   1.896   1.090
 8710TIP3    H226072   0.957   1.839   1.195
 8711TIP3   OH226073   1.483   3.586   5.028
 8711TIP3    H126074   1.520   3.613   5.112
 8711TIP3    H226075   1.557   3.584   4.968
 8712TIP3   OH226076   0.461   1.142   3.867
 8712TIP3    H126077   0.417   1.095   3.938
 8712TIP3    H226078   0.504   1.073   3.816
 8713TIP3   OH226079   7.684   3.651   4.948
 8713TIP3    H126080   7.745   3.588   4.911
 8713TIP3    H226081   7.675   3.624   5.040
 8714TIP3   OH226082   5.551   2.960   1.128
 8714TIP3    H126083   5.619   2.907   1.085
 8714TIP3    H226084   5.573   3.050   1.103
 8715TIP3   OH226085   5.261   2.308   4.259
 8715TIP3    H126086   5.234   2.311   4.168
 8715TIP3    H226087   5.227   2.388   4.298
 8716TIP3   OH226088   3.338   3.474   2.206
 8716TIP3    H126089   3.262   3.455   2.152
 8716TIP3    H226090   3.410   3.484   2.144
 8717TIP3   OH226091   6.890   4.664   6.557
 8717TIP3    H126092   6.830   4.600   6.517
 8717TIP3    H226093   6.896   4.734   6.493
 8718TIP3   OH226094   7.271   2.912   0.576
 8718TIP3    H126095   7.179   2.903   0.602
 8718TIP3    H226096   7.293   2.826   0.538
 8719TIP3   OH226097   3.188   7.623   0.208
 8719TIP3    H126098   3.140   7.541   0.204
 8719TIP3    H226099   3.216   7.631   0.299
 8720TIP3   OH226100   7.913   5.952   0.363
 8720TIP3    H126101   7.910   5.907   0.447
 8720TIP3    H226102   7.982   5.907   0.314
 8721TIP3   OH226103   8.102   3.513   6.184
 8721TIP3    H126104   8.010   3.527   6.206
 8721TIP3    H226105   8.111   3.418   6.176
 8722TIP3   OH226106   2.423   4.618   2.184
 8722TIP3    H126107   2.433   4.630   2.090
 8722TIP3    H226108   2.423   4.523   2.197
 8723TIP3   OH226109   2.212   7.784   0.071
 8723TIP3    H126110   2.177   7.700   0.099
 8723TIP3    H226111   2.273   7.762   0.000
 8724TIP3   OH226112   8.122   0.355   0.492
 8724TIP3    H126113   8.185   0.425   0.476
 8724TIP3    H226114   8.061   0.360   0.418
 8725TIP3   OH226115   1.244   1.653   4.606
 8725TIP3    H126116   1.258   1.560   4.621
 8725TIP3    H226117   1.330   1.693   4.623
 8726TIP3   OH226118   3.184   1.412   3.153
 8726TIP3    H126119   3.228   1.370   3.227
 8726TIP3    H226120   3.242   1.395   3.078
 8727TIP3   OH226121   3.454   5.804   4.347
 8727TIP3    H126122   3.501   5.762   4.419
 8727TIP3    H226123   3.523   5.829   4.285
 8728TIP3   OH226124   5.155   4.632   6.757
 8728TIP3    H126125   5.111   4.680   6.687
 8728TIP3    H226126   5.138   4.540   6.738
 8729TIP3   OH226127   8.031   4.182   5.058
 8729TIP3    H126128   8.083   4.258   5.082
 8729TIP3    H226129   7.983   4.208   4.979
 8730TIP3   OH226130   1.027   3.455   5.794
 8730TIP3    H126131   1.069   3.540   5.806
 8730TIP3    H226132   0.934   3.472   5.809
 8731TIP3   OH226133   6.364   2.383   6.302
 8731TIP3    H126134   6.363   2.314   6.237
 8731TIP3    H226135   6.272   2.409   6.311
 8732TIP3   OH226136   8.110   3.023   4.147
 8732TIP3    H126137   8.028   3.030   4.097
 8732TIP3    H226138   8.161   2.957   4.100
 8733TIP3   OH226139   3.211   5.100   0.880
 8733TIP3    H126140   3.219   5.169   0.946
 8733TIP3    H226141   3.124   5.113   0.842
 8734TIP3   OH226142   1.891   6.621   6.839
 8734TIP3    H126143   1.922   6.636   6.750
 8734TIP3    H226144   1.943   6.680   6.894
 8735TIP3   OH226145   1.677   1.313   1.516
 8735TIP3    H126146   1.655   1.345   1.604
 8735TIP3    H226147   1.597   1.327   1.465
 8736TIP3   OH226148   3.783   2.336   3.472
 8736TIP3    H126149   3.743   2.290   3.397
 8736TIP3    H226150   3.728   2.413   3.485
 8737TIP3   OH226151   5.390   0.046   6.522
 8737TIP3    H126152   5.484   0.027   6.532
 8737TIP3    H226153   5.371   0.110   6.591
 8738TIP3   OH226154   6.694   4.823   6.735
 8738TIP3    H126155   6.749   4.897   6.710
 8738TIP3    H226156   6.710   4.757   6.668
 8739TIP3   OH226157   5.342   3.557   6.599
 8739TIP3    H126158   5.414   3.541   6.660
 8739TIP3    H226159   5.286   3.480   6.608
 8740TIP3   OH226160   7.106   7.316   1.650
 8740TIP3    H126161   7.154   7.384   1.602
 8740TIP3    H226162   7.063   7.265   1.581
 8741TIP3   OH226163   3.341   1.579   1.560
 8741TIP3    H126164   3.318   1.530   1.481
 8741TIP3    H226165   3.434   1.560   1.573
 8742TIP3   OH226166   3.342   3.755   6.477
 8742TIP3    H126167   3.405   3.778   6.545
 8742TIP3    H226168   3.284   3.691   6.518
 8743TIP3   OH226169   4.424   2.926   4.199
 8743TIP3    H126170   4.399   2.931   4.107
 8743TIP3    H226171   4.359   2.867   4.238
 8744TIP3   OH226172   2.312  -0.015   0.264
 8744TIP3    H126173   2.262   0.026   0.334
 8744TIP3    H226174   2.372  -0.074   0.309
 8745TIP3   OH226175   5.294   5.387   0.228
 8745TIP3    H126176   5.346   5.413   0.304
 8745TIP3    H226177   5.204   5.381   0.261
 8746TIP3   OH226178   6.656   2.915   2.961
 8746TIP3    H126179   6.611   2.831   2.949
 8746TIP3    H226180   6.711   2.923   2.883
 8747TIP3   OH226181   4.218   5.739   2.923
 8747TIP3    H126182   4.169   5.782   2.993
 8747TIP3    H226183   4.292   5.798   2.905
 8748TIP3   OH226184   1.385   0.406   2.362
 8748TIP3    H126185   1.346   0.468   2.300
 8748TIP3    H226186   1.468   0.382   2.323
 8749TIP3   OH226187   4.113   2.084   1.294
 8749TIP3    H126188   4.121   2.032   1.215
 8749TIP3    H226189   4.172   2.042   1.357
 8750TIP3   OH226190   3.081   4.420   0.442
 8750TIP3    H126191   3.086   4.461   0.355
 8750TIP3    H226192   3.034   4.484   0.495
 8751TIP3   OH226193   5.984   0.766   2.004
 8751TIP3    H126194   6.013   0.850   1.969
 8751TIP3    H226195   5.897   0.753   1.967
 8752TIP3   OH226196   4.322   6.937   2.319
 8752TIP3    H126197   4.321   6.919   2.413
 8752TIP3    H226198   4.405   6.900   2.289
 8753TIP3   OH226199   0.747   1.458   6.401
 8753TIP3    H126200   0.696   1.471   6.321
 8753TIP3    H226201   0.794   1.540   6.414
 8754TIP3   OH226202   4.676   3.756   5.353
 8754TIP3    H126203   4.608   3.789   5.294
 8754TIP3    H226204   4.697   3.669   5.320
 8755TIP3   OH226205   3.161   4.986   6.262
 8755TIP3    H126206   3.201   5.070   6.285
 8755TIP3    H226207   3.201   4.963   6.178
 8756TIP3   OH226208   1.705   3.254   0.609
 8756TIP3    H126209   1.731   3.229   0.520
 8756TIP3    H226210   1.684   3.347   0.602
 8757TIP3   OH226211   2.856   6.550   0.872
 8757TIP3    H126212   2.764   6.577   0.870
 8757TIP3    H226213   2.904   6.629   0.897
 8758TIP3   OH226214   8.226   2.008   2.620
 8758TIP3    H126215   8.229   1.989   2.526
 8758TIP3    H226216   8.158   2.075   2.629
 8759TIP3   OH226217   7.981   3.346   4.174
 8759TIP3    H126218   8.072   3.320   4.185
 8759TIP3    H226219   7.982   3.441   4.179
 8760TIP3   OH226220   7.329   5.617   2.564
 8760TIP3    H126221   7.265   5.681   2.532
 8760TIP3    H226222   7.305   5.535   2.520
 8761TIP3   OH226223   3.501   4.843   5.954
 8761TIP3    H126224   3.573   4.894   5.915
 8761TIP3    H226225   3.454   4.905   6.009
 8762TIP3   OH226226   4.720   5.730   3.067
 8762TIP3    H126227   4.709   5.721   3.161
 8762TIP3    H226228   4.753   5.819   3.055
 8763TIP3   OH226229   7.027   2.765   6.435
 8763TIP3    H126230   6.986   2.836   6.385
 8763TIP3    H226231   6.956   2.702   6.451
 8764TIP3   OH226232   3.210   6.906   6.094
 8764TIP3    H126233   3.227   6.842   6.163
 8764TIP3    H226234   3.297   6.936   6.067
 8765TIP3   OH226235   0.828   0.759   4.995
 8765TIP3    H126236   0.827   0.686   5.057
 8765TIP3    H226237   0.900   0.739   4.935
 8766TIP3   OH226238   3.747   2.007   2.486
 8766TIP3    H126239   3.685   1.934   2.488
 8766TIP3    H226240   3.832   1.966   2.468
 8767TIP3   OH226241   7.042   0.983   2.401
 8767TIP3    H126242   7.014   0.958   2.313
 8767TIP3    H226243   7.132   1.014   2.390
 8768TIP3   OH226244   6.458   6.379   4.109
 8768TIP3    H126245   6.384   6.403   4.165
 8768TIP3    H226246   6.419   6.365   4.023
 8769TIP3   OH226247   7.064   4.660   0.901
 8769TIP3    H126248   7.149   4.673   0.858
 8769TIP3    H226249   7.021   4.745   0.896
 8770TIP3   OH226250   3.483   0.600   4.251
 8770TIP3    H126251   3.426   0.613   4.176
 8770TIP3    H226252   3.522   0.686   4.267
 8771TIP3   OH226253   2.103   0.554   1.868
 8771TIP3    H126254   2.088   0.493   1.795
 8771TIP3    H226255   2.026   0.544   1.923
 8772TIP3   OH226256   4.397   5.555   6.784
 8772TIP3    H126257   4.332   5.557   6.854
 8772TIP3    H226258   4.381   5.473   6.738
 8773TIP3   OH226259   0.949   5.828   0.644
 8773TIP3    H126260   0.976   5.738   0.666
 8773TIP3    H226261   1.015   5.883   0.686
 8774TIP3   OH226262   4.337   6.056   1.371
 8774TIP3    H126263   4.417   6.028   1.325
 8774TIP3    H226264   4.359   6.047   1.464
 8775TIP3   OH226265   6.194   1.669   0.198
 8775TIP3    H126266   6.234   1.740   0.248
 8775TIP3    H226267   6.262   1.640   0.138
 8776TIP3   OH226268   5.491   2.222   3.968
 8776TIP3    H126269   5.489   2.182   4.054
 8776TIP3    H226270   5.442   2.304   3.978
 8777TIP3   OH226271   3.089   1.442   0.301
 8777TIP3    H126272   2.994   1.446   0.307
 8777TIP3    H226273   3.116   1.534   0.292
 8778TIP3   OH226274   0.875   5.748   2.882
 8778TIP3    H126275   0.814   5.812   2.844
 8778TIP3    H226276   0.959   5.766   2.839
 8779TIP3   OH226277   2.850   2.559   1.907
 8779TIP3    H126278   2.855   2.472   1.946
 8779TIP3    H226279   2.756   2.578   1.901
 8780TIP3   OH226280   1.389   4.800   1.689
 8780TIP3    H126281   1.366   4.821   1.780
 8780TIP3    H226282   1.480   4.769   1.694
 8781TIP3   OH226283   6.701   6.554   1.830
 8781TIP3    H126284   6.714   6.492   1.758
 8781TIP3    H226285   6.652   6.626   1.790
 8782TIP3   OH226286   8.172   7.316   0.888
 8782TIP3    H126287   8.224   7.245   0.852
 8782TIP3    H226288   8.129   7.355   0.812
 8783TIP3   OH226289   3.252   1.397   5.876
 8783TIP3    H126290   3.247   1.482   5.920
 8783TIP3    H226291   3.199   1.408   5.797
 8784TIP3   OH226292   6.002   3.034   6.403
 8784TIP3    H126293   6.008   3.096   6.476
 8784TIP3    H226294   6.028   3.085   6.327
 8785TIP3   OH226295   3.418   4.742   1.896
 8785TIP3    H126296   3.472   4.782   1.828
 8785TIP3    H226297   3.406   4.811   1.961
 8786TIP3   OH226298   2.752   3.005   3.612
 8786TIP3    H126299   2.735   3.077   3.551
 8786TIP3    H226300   2.830   3.033   3.660
 8787TIP3   OH226301   7.093   1.043   4.516
 8787TIP3    H126302   7.071   1.132   4.546
 8787TIP3    H226303   7.138   1.003   4.590
 8788TIP3   OH226304   3.966   7.028   5.061
 8788TIP3    H126305   4.008   7.035   5.147
 8788TIP3    H226306   4.001   6.947   5.024
 8789TIP3   OH226307   2.218   6.500   0.152
 8789TIP3    H126308   2.261   6.533   0.073
 8789TIP3    H226309   2.129   6.533   0.148
 8790TIP3   OH226310   3.062   7.495   5.741
 8790TIP3    H126311   3.155   7.474   5.751
 8790TIP3    H226312   3.059   7.556   5.668
 8791TIP3   OH226313   4.388   6.798   0.036
 8791TIP3    H126314   4.467   6.774  -0.012
 8791TIP3    H226315   4.383   6.893   0.028
 8792TIP3   OH226316   2.582   5.400   5.166
 8792TIP3    H126317   2.604   5.483   5.124
 8792TIP3    H226318   2.573   5.338   5.094
 8793TIP3   OH226319   0.029   1.236   6.734
 8793TIP3    H126320   0.071   1.322   6.737
 8793TIP3    H226321  -0.064   1.255   6.720
 8794TIP3   OH226322   7.291   1.846   0.251
 8794TIP3    H126323   7.259   1.862   0.340
 8794TIP3    H226324   7.291   1.932   0.210
 8795TIP3   OH226325   2.151   6.377   2.963
 8795TIP3    H126326   2.089   6.311   2.996
 8795TIP3    H226327   2.205   6.398   3.039
 8796TIP3   OH226328   1.272   6.948   3.678
 8796TIP3    H126329   1.200   6.901   3.635
 8796TIP3    H226330   1.327   6.878   3.715
 8797TIP3   OH226331   0.256   1.924   1.612
 8797TIP3    H126332   0.309   2.003   1.617
 8797TIP3    H226333   0.239   1.913   1.518
 8798TIP3   OH226334   1.191   5.443   1.189
 8798TIP3    H126335   1.252   5.383   1.232
 8798TIP3    H226336   1.105   5.412   1.214
 8799TIP3   OH226337   2.880   3.855   4.759
 8799TIP3    H126338   2.894   3.796   4.684
 8799TIP3    H226339   2.925   3.936   4.734
 8800TIP3   OH226340   3.032   7.682   1.852
 8800TIP3    H126341   3.016   7.773   1.826
 8800TIP3    H226342   2.954   7.635   1.822
 8801TIP3   OH226343   5.387   7.171   2.915
 8801TIP3    H126344   5.430   7.097   2.956
 8801TIP3    H226345   5.352   7.136   2.832
 8802TIP3   OH226346   6.927   1.297   3.554
 8802TIP3    H126347   6.934   1.202   3.561
 8802TIP3    H226348   6.969   1.318   3.470
 8803TIP3   OH226349   7.223   7.710   5.817
 8803TIP3    H126350   7.281   7.747   5.883
 8803TIP3    H226351   7.135   7.733   5.848
 8804TIP3   OH226352   2.302   1.204   2.609
 8804TIP3    H126353   2.228   1.153   2.576
 8804TIP3    H226354   2.346   1.235   2.530
 8805TIP3   OH226355   8.295   2.501   3.319
 8805TIP3    H126356   8.222   2.484   3.259
 8805TIP3    H226357   8.373   2.488   3.266
 8806TIP3   OH226358   6.805   6.332   5.774
 8806TIP3    H126359   6.808   6.386   5.852
 8806TIP3    H226360   6.762   6.251   5.802
 8807TIP3   OH226361   0.115   3.931   2.118
 8807TIP3    H126362   0.110   4.026   2.106
 8807TIP3    H226363   0.038   3.909   2.170
 8808TIP3   OH226364   0.872   0.237   1.700
 8808TIP3    H126365   0.796   0.289   1.725
 8808TIP3    H226366   0.881   0.172   1.769
 8809TIP3   OH226367   3.999   2.670   2.939
 8809TIP3    H126368   4.070   2.683   2.877
 8809TIP3    H226369   3.966   2.758   2.957
 8810TIP3   OH226370   6.803   3.792   4.342
 8810TIP3    H126371   6.870   3.861   4.346
 8810TIP3    H226372   6.722   3.836   4.369
 8811TIP3   OH226373   4.238   4.159   5.120
 8811TIP3    H126374   4.333   4.172   5.127
 8811TIP3    H226375   4.207   4.168   5.210
 8812TIP3   OH226376   0.333   3.672   2.939
 8812TIP3    H126377   0.272   3.674   2.865
 8812TIP3    H226378   0.334   3.580   2.966
 8813TIP3   OH226379   6.453   4.708   2.690
 8813TIP3    H126380   6.507   4.695   2.768
 8813TIP3    H226381   6.375   4.655   2.706
 8814TIP3   OH226382   0.345   3.340   0.728
 8814TIP3    H126383   0.382   3.428   0.730
 8814TIP3    H226384   0.418   3.283   0.703
 8815TIP3   OH226385   0.406   7.328   5.684
 8815TIP3    H126386   0.460   7.406   5.679
 8815TIP3    H226387   0.464   7.257   5.656
 8816TIP3   OH226388   3.932   1.846   6.484
 8816TIP3    H126389   4.001   1.831   6.549
 8816TIP3    H226390   3.856   1.801   6.520
 8817TIP3   OH226391   1.504   4.474   1.432
 8817TIP3    H126392   1.517   4.457   1.526
 8817TIP3    H226393   1.508   4.388   1.392
 8818TIP3   OH226394   1.975   6.875   5.127
 8818TIP3    H126395   2.061   6.916   5.114
 8818TIP3    H226396   1.937   6.921   5.201
 8819TIP3   OH226397   6.672   0.114   0.389
 8819TIP3    H126398   6.676   0.197   0.437
 8819TIP3    H226399   6.678   0.139   0.297
 8820TIP3   OH226400   2.385   4.326   5.274
 8820TIP3    H126401   2.366   4.389   5.204
 8820TIP3    H226402   2.318   4.258   5.264
 8821TIP3   OH226403   4.157   6.718   5.797
 8821TIP3    H126404   4.214   6.752   5.728
 8821TIP3    H226405   4.080   6.774   5.795
 8822TIP3   OH226406   5.073   6.156   3.080
 8822TIP3    H126407   5.156   6.135   3.122
 8822TIP3    H226408   5.026   6.208   3.145
 8823TIP3   OH226409   7.841   0.697   1.636
 8823TIP3    H126410   7.786   0.628   1.599
 8823TIP3    H226411   7.837   0.683   1.730
 8824TIP3   OH226412   2.492   7.260   0.635
 8824TIP3    H126413   2.495   7.204   0.713
 8824TIP3    H226414   2.573   7.311   0.639
 8825TIP3   OH226415   1.156   6.621   0.239
 8825TIP3    H126416   1.090   6.554   0.254
 8825TIP3    H226417   1.213   6.617   0.315
 8826TIP3   OH226418   0.849   2.332   4.021
 8826TIP3    H126419   0.825   2.409   3.970
 8826TIP3    H226420   0.926   2.296   3.976
 8827TIP3   OH226421   6.474   6.132   5.204
 8827TIP3    H126422   6.437   6.179   5.130
 8827TIP3    H226423   6.413   6.060   5.220
 8828TIP3   OH226424   6.184   7.421   0.789
 8828TIP3    H126425   6.094   7.445   0.812
 8828TIP3    H226426   6.202   7.471   0.709
 8829TIP3   OH226427   5.810   3.385   3.373
 8829TIP3    H126428   5.792   3.294   3.347
 8829TIP3    H226429   5.763   3.437   3.308
 8830TIP3   OH226430   6.869   0.483   3.377
 8830TIP3    H126431   6.864   0.501   3.283
 8830TIP3    H226432   6.887   0.390   3.383
 8831TIP3   OH226433   1.578   4.550   1.180
 8831TIP3    H126434   1.561   4.633   1.225
 8831TIP3    H226435   1.633   4.501   1.241
 8832TIP3   OH226436   4.870   4.213   5.010
 8832TIP3    H126437   4.868   4.207   4.915
 8832TIP3    H226438   4.796   4.270   5.032
 8833TIP3   OH226439   1.233   6.477   4.023
 8833TIP3    H126440   1.173   6.549   4.044
 8833TIP3    H226441   1.241   6.428   4.105
 8834TIP3   OH226442   3.042   2.919   5.963
 8834TIP3    H126443   3.118   2.932   6.020
 8834TIP3    H226444   2.995   2.845   6.002
 8835TIP3   OH226445   4.145   5.774   1.638
 8835TIP3    H126446   4.239   5.774   1.625
 8835TIP3    H226447   4.110   5.823   1.564
 8836TIP3   OH226448   0.575   7.243   6.089
 8836TIP3    H126449   0.575   7.243   6.185
 8836TIP3    H226450   0.606   7.156   6.065
 8837TIP3   OH226451   4.795   6.849   3.965
 8837TIP3    H126452   4.754   6.934   3.951
 8837TIP3    H226453   4.753   6.814   4.044
 8838TIP3   OH226454   5.935   1.187   3.822
 8838TIP3    H126455   5.907   1.275   3.848
 8838TIP3    H226456   5.923   1.185   3.727
 8839TIP3   OH226457   6.121   2.216   5.480
 8839TIP3    H126458   6.072   2.279   5.533
 8839TIP3    H226459   6.177   2.271   5.424
 8840TIP3   OH226460   7.855   3.359   1.417
 8840TIP3    H126461   7.840   3.266   1.434
 8840TIP3    H226462   7.767   3.396   1.404
 8841TIP3   OH226463   0.517   3.934   4.822
 8841TIP3    H126464   0.469   4.016   4.809
 8841TIP3    H226465   0.451   3.872   4.853
 8842TIP3   OH226466   3.406   6.068   6.217
 8842TIP3    H126467   3.409   6.107   6.304
 8842TIP3    H226468   3.479   6.006   6.217
 8843TIP3   OH226469   0.342   2.833   0.025
 8843TIP3    H126470   0.417   2.873  -0.019
 8843TIP3    H226471   0.381   2.768   0.084
 8844TIP3   OH226472   7.379   6.971   6.201
 8844TIP3    H126473   7.301   6.971   6.255
 8844TIP3    H226474   7.436   6.905   6.241
 8845TIP3   OH226475   1.470   2.963   0.525
 8845TIP3    H126476   1.504   3.000   0.606
 8845TIP3    H226477   1.422   2.884   0.552
 8846TIP3   OH226478   3.171   0.157   6.393
 8846TIP3    H126479   3.131   0.144   6.479
 8846TIP3    H226480   3.103   0.130   6.331
 8847TIP3   OH226481   6.027   0.130   2.614
 8847TIP3    H126482   5.975   0.136   2.534
 8847TIP3    H226483   6.117   0.144   2.585
 8848TIP3   OH226484   5.231   6.114   1.785
 8848TIP3    H126485   5.325   6.120   1.765
 8848TIP3    H226486   5.189   6.166   1.716
 8849TIP3   OH226487   3.733   1.495   4.849
 8849TIP3    H126488   3.826   1.508   4.827
 8849TIP3    H226489   3.734   1.465   4.939
 8850TIP3   OH226490   7.783   3.122   0.226
 8850TIP3    H126491   7.716   3.081   0.172
 8850TIP3    H226492   7.849   3.054   0.238
 8851TIP3   OH226493   3.986   0.328   4.437
 8851TIP3    H126494   3.982   0.242   4.396
 8851TIP3    H226495   3.984   0.390   4.364
 8852TIP3   OH226496   1.851   0.180   1.192
 8852TIP3    H126497   1.756   0.176   1.188
 8852TIP3    H226498   1.880   0.131   1.114
 8853TIP3   OH226499   8.138   1.737   5.844
 8853TIP3    H126500   8.148   1.702   5.756
 8853TIP3    H226501   8.114   1.662   5.898
 8854TIP3   OH226502   1.142   0.346   6.184
 8854TIP3    H126503   1.223   0.349   6.235
 8854TIP3    H226504   1.081   0.296   6.238
 8855TIP3   OH226505   6.780   4.742   3.549
 8855TIP3    H126506   6.861   4.702   3.581
 8855TIP3    H226507   6.710   4.694   3.594
 8856TIP3   OH226508   6.438   1.473   6.084
 8856TIP3    H126509   6.413   1.450   6.174
 8856TIP3    H226510   6.510   1.413   6.063
 8857TIP3   OH226511   0.168   3.376   2.546
 8857TIP3    H126512   0.213   3.458   2.524
 8857TIP3    H226513   0.232   3.308   2.527
 8858TIP3   OH226514   1.023   2.850   3.503
 8858TIP3    H126515   0.959   2.918   3.480
 8858TIP3    H226516   1.101   2.873   3.453
 8859TIP3   OH226517   3.742   6.822   6.437
 8859TIP3    H126518   3.796   6.898   6.461
 8859TIP3    H226519   3.796   6.746   6.459
 8860TIP3   OH226520   4.885   1.655   0.466
 8860TIP3    H126521   4.972   1.669   0.429
 8860TIP3    H226522   4.829   1.641   0.389
 8861TIP3   OH226523   3.911   2.019   5.207
 8861TIP3    H126524   3.959   1.951   5.159
 8861TIP3    H226525   3.821   1.986   5.212
 8862TIP3   OH226526   7.608   5.448   5.508
 8862TIP3    H126527   7.521   5.474   5.476
 8862TIP3    H226528   7.598   5.442   5.603
 8863TIP3   OH226529   2.226   5.849   4.766
 8863TIP3    H126530   2.275   5.788   4.712
 8863TIP3    H226531   2.184   5.908   4.704
 8864TIP3   OH226532   5.105   2.879   5.697
 8864TIP3    H126533   5.074   2.895   5.608
 8864TIP3    H226534   5.105   2.966   5.738
 8865TIP3   OH226535   7.411   0.201   0.720
 8865TIP3    H126536   7.326   0.171   0.752
 8865TIP3    H226537   7.411   0.180   0.627
 8866TIP3   OH226538  -0.021   2.985   5.492
 8866TIP3    H126539   0.049   2.979   5.556
 8866TIP3    H226540   0.016   2.947   5.412
 8867TIP3   OH226541   4.267   3.262   6.471
 8867TIP3    H126542   4.206   3.218   6.412
 8867TIP3    H226543   4.319   3.318   6.414
 8868TIP3   OH226544   0.402   2.170   5.699
 8868TIP3    H126545   0.475   2.177   5.761
 8868TIP3    H226546   0.339   2.114   5.744
 8869TIP3   OH226547   7.787   3.850   1.823
 8869TIP3    H126548   7.785   3.894   1.738
 8869TIP3    H226549   7.810   3.918   1.885
 8870TIP3   OH226550   3.268   0.700   2.672
 8870TIP3    H126551   3.315   0.649   2.606
 8870TIP3    H226552   3.297   0.790   2.658
 8871TIP3   OH226553   8.315   4.025   2.805
 8871TIP3    H126554   8.336   3.987   2.720
 8871TIP3    H226555   8.345   3.961   2.869
 8872TIP3   OH226556   2.790   5.993   4.310
 8872TIP3    H126557   2.803   5.912   4.261
 8872TIP3    H226558   2.878   6.021   4.334
 8873TIP3   OH226559   2.969   1.276   1.535
 8873TIP3    H126560   2.938   1.366   1.543
 8873TIP3    H226561   3.032   1.278   1.464
 8874TIP3   OH226562   2.536   1.825   5.502
 8874TIP3    H126563   2.616   1.780   5.476
 8874TIP3    H226564   2.481   1.824   5.424
 8875TIP3   OH226565   0.387   5.995   2.746
 8875TIP3    H126566   0.346   5.975   2.662
 8875TIP3    H226567   0.362   6.086   2.764
 8876TIP3   OH226568   5.842   1.077   2.210
 8876TIP3    H126569   5.913   1.039   2.158
 8876TIP3    H226570   5.773   1.095   2.146
 8877TIP3   OH226571   6.748   4.836   3.306
 8877TIP3    H126572   6.663   4.873   3.329
 8877TIP3    H226573   6.772   4.782   3.382
 8878TIP3   OH226574   7.358   6.796   1.361
 8878TIP3    H126575   7.450   6.822   1.362
 8878TIP3    H226576   7.346   6.744   1.440
 8879TIP3   OH226577   5.308   0.996   2.518
 8879TIP3    H126578   5.389   1.040   2.544
 8879TIP3    H226579   5.303   1.009   2.423
 8880TIP3   OH226580   2.528   1.436   5.127
 8880TIP3    H126581   2.561   1.487   5.201
 8880TIP3    H226582   2.603   1.424   5.070
 8881TIP3   OH226583   0.959   7.378   1.345
 8881TIP3    H126584   0.884   7.321   1.329
 8881TIP3    H226585   1.020   7.357   1.274
 8882TIP3   OH226586   7.098   1.861   5.075
 8882TIP3    H126587   7.098   1.795   5.006
 8882TIP3    H226588   7.133   1.939   5.033
 8883TIP3   OH226589   3.474   7.382   0.548
 8883TIP3    H126590   3.568   7.366   0.560
 8883TIP3    H226591   3.446   7.421   0.631
 8884TIP3   OH226592   4.176   4.928   5.387
 8884TIP3    H126593   4.169   4.949   5.480
 8884TIP3    H226594   4.268   4.941   5.366
 8885TIP3   OH226595   6.385   3.901   3.098
 8885TIP3    H126596   6.355   3.887   3.008
 8885TIP3    H226597   6.472   3.863   3.101
 8886TIP3   OH226598   0.858   2.432   3.653
 8886TIP3    H126599   0.860   2.509   3.598
 8886TIP3    H226600   0.797   2.454   3.724
 8887TIP3   OH226601   2.002   4.547   6.309
 8887TIP3    H126602   2.043   4.628   6.338
 8887TIP3    H226603   2.040   4.479   6.365
 8888TIP3   OH226604   1.514   5.475   0.951
 8888TIP3    H126605   1.563   5.442   1.026
 8888TIP3    H226606   1.579   5.484   0.881
 8889TIP3   OH226607   0.864   1.447   1.507
 8889TIP3    H126608   0.925   1.386   1.466
 8889TIP3    H226609   0.828   1.398   1.582
 8890TIP3   OH226610   5.483   2.328   1.834
 8890TIP3    H126611   5.565   2.281   1.851
 8890TIP3    H226612   5.431   2.268   1.780
 8891TIP3   OH226613   2.720   0.581   0.758
 8891TIP3    H126614   2.769   0.654   0.796
 8891TIP3    H226615   2.753   0.504   0.802
 8892TIP3   OH226616   6.987   4.956   0.011
 8892TIP3    H126617   7.062   4.925  -0.040
 8892TIP3    H226618   7.025   4.988   0.093
 8893TIP3   OH226619   4.981   1.865   2.655
 8893TIP3    H126620   4.895   1.837   2.686
 8893TIP3    H226621   5.035   1.869   2.734
 8894TIP3   OH226622   0.288   7.147   1.808
 8894TIP3    H126623   0.302   7.202   1.885
 8894TIP3    H226624   0.251   7.066   1.843
 8895TIP3   OH226625   3.804   7.108   3.123
 8895TIP3    H126626   3.728   7.073   3.077
 8895TIP3    H226627   3.868   7.036   3.120
 8896TIP3   OH226628   4.674   6.113   3.261
 8896TIP3    H126629   4.725   6.073   3.332
 8896TIP3    H226630   4.587   6.127   3.299
 8897TIP3   OH226631   3.490   7.602   3.113
 8897TIP3    H126632   3.458   7.558   3.035
 8897TIP3    H226633   3.451   7.690   3.109
 8898TIP3   OH226634   7.771   5.860   4.390
 8898TIP3    H126635   7.817   5.910   4.457
 8898TIP3    H226636   7.699   5.916   4.363
 8899TIP3   OH226637   8.274   1.789   2.381
 8899TIP3    H126638   8.229   1.707   2.360
 8899TIP3    H226639   8.312   1.817   2.297
 8900TIP3   OH226640   7.428   4.083   4.324
 8900TIP3    H126641   7.485   4.155   4.351
 8900TIP3    H226642   7.374   4.064   4.400
 8901TIP3   OH226643   4.208   3.448   2.728
 8901TIP3    H126644   4.256   3.490   2.799
 8901TIP3    H226645   4.208   3.512   2.658
 8902TIP3   OH226646   7.289   5.065   1.545
 8902TIP3    H126647   7.365   5.007   1.551
 8902TIP3    H226648   7.306   5.120   1.469
 8903TIP3   OH226649   5.179   7.050   6.150
 8903TIP3    H126650   5.183   7.096   6.234
 8903TIP3    H226651   5.090   7.065   6.118
 8904TIP3   OH226652   3.615   2.928   2.067
 8904TIP3    H126653   3.602   3.022   2.071
 8904TIP3    H226654   3.547   2.897   2.007
 8905TIP3   OH226655   5.251   3.993   4.726
 8905TIP3    H126656   5.266   3.999   4.632
 8905TIP3    H226657   5.254   3.899   4.745
 8906TIP3   OH226658   8.307   3.502   4.133
 8906TIP3    H126659   8.354   3.448   4.196
 8906TIP3    H226660   8.272   3.440   4.069
 8907TIP3   OH226661   2.051   2.953   3.751
 8907TIP3    H126662   1.970   3.001   3.770
 8907TIP3    H226663   2.038   2.920   3.662
 8908TIP3   OH226664   6.829   0.576   2.545
 8908TIP3    H126665   6.906   0.533   2.509
 8908TIP3    H226666   6.781   0.607   2.468
 8909TIP3   OH226667   3.838   4.504   3.666
 8909TIP3    H126668   3.873   4.502   3.577
 8909TIP3    H226669   3.868   4.422   3.705
 8910TIP3   OH226670   7.533   7.785   5.681
 8910TIP3    H126671   7.489   7.701   5.697
 8910TIP3    H226672   7.488   7.847   5.739
 8911TIP3   OH226673   1.792   1.063   3.262
 8911TIP3    H126674   1.818   0.978   3.226
 8911TIP3    H226675   1.873   1.100   3.297
 8912TIP3   OH226676   1.564   3.061   0.790
 8912TIP3    H126677   1.636   3.104   0.744
 8912TIP3    H226678   1.602   2.980   0.824
 8913TIP3   OH226679   5.525   4.174   0.677
 8913TIP3    H126680   5.554   4.223   0.600
 8913TIP3    H226681   5.483   4.096   0.641
 8914TIP3   OH226682   0.962   2.170   5.180
 8914TIP3    H126683   0.938   2.118   5.257
 8914TIP3    H226684   0.919   2.127   5.107
 8915TIP3   OH226685   2.363   0.253   5.936
 8915TIP3    H126686   2.342   0.344   5.915
 8915TIP3    H226687   2.458   0.250   5.934
 8916TIP3   OH226688   3.503   1.886   3.105
 8916TIP3    H126689   3.526   1.942   3.180
 8916TIP3    H226690   3.442   1.822   3.141
 8917TIP3   OH226691   3.377   2.553   1.717
 8917TIP3    H126692   3.285   2.554   1.743
 8917TIP3    H226693   3.377   2.518   1.628
 8918TIP3   OH226694   6.031   3.735   0.409
 8918TIP3    H126695   5.997   3.825   0.412
 8918TIP3    H226696   6.121   3.743   0.439
 8919TIP3   OH226697   5.191   0.895   5.371
 8919TIP3    H126698   5.277   0.902   5.330
 8919TIP3    H226699   5.205   0.834   5.444
 8920TIP3   OH226700   7.711   2.477   4.734
 8920TIP3    H126701   7.806   2.485   4.726
 8920TIP3    H226702   7.698   2.418   4.809
 8921TIP3   OH226703   3.288   3.518   1.546
 8921TIP3    H126704   3.243   3.568   1.478
 8921TIP3    H226705   3.217   3.476   1.595
 8922TIP3   OH226706   5.174   0.507   4.431
 8922TIP3    H126707   5.136   0.426   4.396
 8922TIP3    H226708   5.128   0.577   4.385
 8923TIP3   OH226709   7.111   6.850   4.938
 8923TIP3    H126710   7.020   6.827   4.920
 8923TIP3    H226711   7.137   6.904   4.863
 8924TIP3   OH226712   5.519   3.310   3.148
 8924TIP3    H126713   5.504   3.232   3.094
 8924TIP3    H226714   5.566   3.371   3.091
 8925TIP3   OH226715   7.201   7.530   1.534
 8925TIP3    H126716   7.255   7.529   1.455
 8925TIP3    H226717   7.138   7.601   1.520
 8926TIP3   OH226718   6.741   3.768   2.235
 8926TIP3    H126719   6.740   3.770   2.331
 8926TIP3    H226720   6.826   3.729   2.213
 8927TIP3   OH226721   7.834   4.743   4.165
 8927TIP3    H126722   7.928   4.730   4.160
 8927TIP3    H226723   7.796   4.662   4.131
 8928TIP3   OH226724   5.683   3.617   6.448
 8928TIP3    H126725   5.640   3.619   6.534
 8928TIP3    H226726   5.630   3.557   6.396
 8929TIP3   OH226727   2.553   5.229   6.207
 8929TIP3    H126728   2.622   5.276   6.160
 8929TIP3    H226729   2.509   5.296   6.259
 8930TIP3   OH226730   4.431   5.614   3.915
 8930TIP3    H126731   4.484   5.591   3.839
 8930TIP3    H226732   4.492   5.608   3.989
 8931TIP3   OH226733   4.398   2.794   3.435
 8931TIP3    H126734   4.351   2.711   3.437
 8931TIP3    H226735   4.387   2.826   3.346
 8932TIP3   OH226736   5.566   4.865   5.605
 8932TIP3    H126737   5.618   4.945   5.617
 8932TIP3    H226738   5.575   4.818   5.688
 8933TIP3   OH226739   4.232   4.672   4.693
 8933TIP3    H126740   4.324   4.647   4.687
 8933TIP3    H226741   4.190   4.628   4.619
 8934TIP3   OH226742   2.256   3.226   1.514
 8934TIP3    H126743   2.234   3.277   1.437
 8934TIP3    H226744   2.272   3.292   1.582
 8935TIP3   OH226745   0.989   3.128   1.089
 8935TIP3    H126746   1.079   3.144   1.116
 8935TIP3    H226747   0.973   3.036   1.109
 8936TIP3   OH226748   1.130   4.819   2.239
 8936TIP3    H126749   1.037   4.838   2.230
 8936TIP3    H226750   1.136   4.764   2.317
 8937TIP3   OH226751   5.563   2.536   3.403
 8937TIP3    H126752   5.499   2.472   3.372
 8937TIP3    H226753   5.517   2.587   3.469
 8938TIP3   OH226754   6.792   6.201   4.854
 8938TIP3    H126755   6.854   6.131   4.873
 8938TIP3    H226756   6.752   6.221   4.939
 8939TIP3   OH226757   0.831   2.229   2.013
 8939TIP3    H126758   0.792   2.148   1.982
 8939TIP3    H226759   0.757   2.283   2.040
 8940TIP3   OH226760   5.142   6.961   3.060
 8940TIP3    H126761   5.053   6.957   3.024
 8940TIP3    H226762   5.140   7.037   3.118
 8941TIP3   OH226763   5.584   2.710   2.989
 8941TIP3    H126764   5.659   2.700   2.930
 8941TIP3    H226765   5.619   2.686   3.075
 8942TIP3   OH226766   3.819   4.875   1.573
 8942TIP3    H126767   3.794   4.966   1.557
 8942TIP3    H226768   3.752   4.823   1.529
 8943TIP3   OH226769   5.250   6.731   3.049
 8943TIP3    H126770   5.277   6.711   3.139
 8943TIP3    H226771   5.217   6.821   3.054
 8944TIP3   OH226772   1.634   2.305   0.760
 8944TIP3    H126773   1.646   2.220   0.716
 8944TIP3    H226774   1.563   2.347   0.711
 8945TIP3   OH226775   5.192   1.626   0.766
 8945TIP3    H126776   5.117   1.568   0.761
 8945TIP3    H226777   5.166   1.703   0.715
 8946TIP3   OH226778   4.941   0.114   1.397
 8946TIP3    H126779   4.854   0.112   1.357
 8946TIP3    H226780   4.924   0.114   1.491
 8947TIP3   OH226781   0.940   3.357   0.942
 8947TIP3    H126782   0.938   3.271   0.983
 8947TIP3    H226783   1.033   3.375   0.927
 8948TIP3   OH226784   6.165   6.255   4.998
 8948TIP3    H126785   6.155   6.241   5.092
 8948TIP3    H226786   6.141   6.171   4.959
 8949TIP3   OH226787   2.978   1.609   0.623
 8949TIP3    H126788   2.905   1.561   0.584
 8949TIP3    H226789   2.948   1.631   0.711
 8950TIP3   OH226790   1.115   3.239   6.240
 8950TIP3    H126791   1.127   3.244   6.335
 8950TIP3    H226792   1.063   3.316   6.218
 8951TIP3   OH226793   6.706   0.296   2.420
 8951TIP3    H126794   6.801   0.283   2.422
 8951TIP3    H226795   6.695   0.389   2.441
 8952TIP3   OH226796   1.721   2.045   0.646
 8952TIP3    H126797   1.667   1.969   0.670
 8952TIP3    H226798   1.804   2.030   0.690
 8953TIP3   OH226799   0.712   7.806   2.160
 8953TIP3    H126800   0.671   7.776   2.241
 8953TIP3    H226801   0.691   7.899   2.155
 8954TIP3   OH226802   4.027   5.597   5.193
 8954TIP3    H126803   4.055   5.540   5.121
 8954TIP3    H226804   3.946   5.557   5.224
 8955TIP3   OH226805   1.504   0.616   3.933
 8955TIP3    H126806   1.485   0.659   3.850
 8955TIP3    H226807   1.486   0.682   3.999
 8956TIP3   OH226808   2.354   7.446   2.022
 8956TIP3    H126809   2.388   7.367   2.064
 8956TIP3    H226810   2.276   7.469   2.073
 8957TIP3   OH226811   3.080   6.507   5.636
 8957TIP3    H126812   3.029   6.496   5.556
 8957TIP3    H226813   3.171   6.497   5.608
 8958TIP3   OH226814   1.811   3.517   3.189
 8958TIP3    H126815   1.873   3.554   3.127
 8958TIP3    H226816   1.857   3.441   3.226
 8959TIP3   OH226817   8.354   4.454   4.881
 8959TIP3    H126818   8.287   4.415   4.825
 8959TIP3    H226819   8.408   4.506   4.822
 8960TIP3   OH226820   2.712   5.702   3.801
 8960TIP3    H126821   2.772   5.693   3.875
 8960TIP3    H226822   2.770   5.714   3.725
 8961TIP3   OH226823   7.565   2.759   0.925
 8961TIP3    H126824   7.619   2.779   0.849
 8961TIP3    H226825   7.599   2.815   0.995
 8962TIP3   OH226826   6.073   0.475   2.695
 8962TIP3    H126827   6.021   0.556   2.702
 8962TIP3    H226828   6.085   0.463   2.600
 8963TIP3   OH226829   7.022   7.257   0.096
 8963TIP3    H126830   7.045   7.290   0.009
 8963TIP3    H226831   7.057   7.167   0.097
 8964TIP3   OH226832   5.794   1.264   0.108
 8964TIP3    H126833   5.774   1.243   0.199
 8964TIP3    H226834   5.872   1.320   0.113
 8965TIP3   OH226835   7.137   3.150   0.736
 8965TIP3    H126836   7.116   3.241   0.760
 8965TIP3    H226837   7.083   3.097   0.796
 8966TIP3   OH226838   2.687   4.231   5.450
 8966TIP3    H126839   2.615   4.190   5.499
 8966TIP3    H226840   2.652   4.315   5.422
 8967TIP3   OH226841   1.560   3.112   6.844
 8967TIP3    H126842   1.476   3.075   6.818
 8967TIP3    H226843   1.539   3.199   6.876
 8968TIP3   OH226844   6.155   6.096   3.517
 8968TIP3    H126845   6.157   6.139   3.431
 8968TIP3    H226846   6.194   6.160   3.577
 8969TIP3   OH226847   5.819   6.594   0.761
 8969TIP3    H126848   5.818   6.688   0.749
 8969TIP3    H226849   5.842   6.582   0.854
 8970TIP3   OH226850   8.105   5.838   1.251
 8970TIP3    H126851   8.144   5.816   1.166
 8970TIP3    H226852   8.173   5.887   1.297
 8971TIP3   OH226853   4.793   5.740   3.984
 8971TIP3    H126854   4.770   5.827   3.954
 8971TIP3    H226855   4.883   5.727   3.954
 8972TIP3   OH226856   5.151   1.551   4.810
 8972TIP3    H126857   5.158   1.559   4.715
 8972TIP3    H226858   5.241   1.533   4.839
 8973TIP3   OH226859   3.349   1.846   0.159
 8973TIP3    H126860   3.421   1.902   0.188
 8973TIP3    H226861   3.390   1.784   0.098
 8974TIP3   OH226862   7.467   7.857   0.169
 8974TIP3    H126863   7.415   7.936   0.158
 8974TIP3    H226864   7.549   7.876   0.124
 8975TIP3   OH226865   3.429   4.251   4.629
 8975TIP3    H126866   3.464   4.275   4.543
 8975TIP3    H226867   3.419   4.335   4.675
 8976TIP3   OH226868   0.049   2.229   2.097
 8976TIP3    H126869  -0.038   2.213   2.135
 8976TIP3    H226870   0.055   2.324   2.093
 8977TIP3   OH226871   1.679   7.899   4.762
 8977TIP3    H126872   1.584   7.889   4.774
 8977TIP3    H226873   1.716   7.816   4.793
 8978TIP3   OH226874   4.768   2.639   1.020
 8978TIP3    H126875   4.769   2.602   0.932
 8978TIP3    H226876   4.818   2.720   1.013
 8979TIP3   OH226877   5.096   5.038   2.932
 8979TIP3    H126878   5.074   5.123   2.970
 8979TIP3    H226879   5.020   4.983   2.949
 8980TIP3   OH226880   4.708   1.572   6.178
 8980TIP3    H126881   4.639   1.522   6.222
 8980TIP3    H226882   4.685   1.663   6.192
 8981TIP3   OH226883   1.448   1.586   3.125
 8981TIP3    H126884   1.423   1.592   3.217
 8981TIP3    H226885   1.457   1.492   3.109
 8982TIP3   OH226886   4.694   7.908   2.977
 8982TIP3    H126887   4.649   7.930   2.895
 8982TIP3    H226888   4.776   7.865   2.949
 8983TIP3   OH226889   1.765   1.625   6.208
 8983TIP3    H126890   1.831   1.692   6.195
 8983TIP3    H226891   1.768   1.572   6.129
 8984TIP3   OH226892   6.642   2.061   4.612
 8984TIP3    H126893   6.735   2.068   4.591
 8984TIP3    H226894   6.640   2.012   4.694
 8985TIP3   OH226895   4.911   7.076   6.131
 8985TIP3    H126896   4.859   7.093   6.051
 8985TIP3    H226897   4.916   6.981   6.136
 8986TIP3   OH226898   0.990   7.482   1.982
 8986TIP3    H126899   1.073   7.449   2.016
 8986TIP3    H226900   0.942   7.512   2.060
 8987TIP3   OH226901   6.690   1.896   2.080
 8987TIP3    H126902   6.637   1.817   2.076
 8987TIP3    H226903   6.631   1.965   2.049
 8988TIP3   OH226904   0.243   2.144   2.763
 8988TIP3    H126905   0.306   2.105   2.823
 8988TIP3    H226906   0.273   2.233   2.750
 8989TIP3   OH226907   2.152   1.870   4.049
 8989TIP3    H126908   2.145   1.839   3.959
 8989TIP3    H226909   2.133   1.963   4.044
 8990TIP3   OH226910   5.332   3.035   5.426
 8990TIP3    H126911   5.378   3.025   5.509
 8990TIP3    H226912   5.373   2.972   5.367
 8991TIP3   OH226913   0.065   0.428   2.751
 8991TIP3    H126914   0.090   0.520   2.756
 8991TIP3    H226915   0.137   0.380   2.791
 8992TIP3   OH226916   2.994   6.948   4.071
 8992TIP3    H126917   2.968   7.040   4.060
 8992TIP3    H226918   2.944   6.917   4.146
 8993TIP3   OH226919   0.944   7.403   1.612
 8993TIP3    H126920   0.947   7.389   1.518
 8993TIP3    H226921   0.950   7.315   1.650
 8994TIP3   OH226922   5.350   4.806   4.393
 8994TIP3    H126923   5.362   4.833   4.485
 8994TIP3    H226924   5.288   4.733   4.398
 8995TIP3   OH226925   8.108   5.229   1.484
 8995TIP3    H126926   8.164   5.263   1.415
 8995TIP3    H226927   8.020   5.258   1.460
 8996TIP3   OH226928   2.817   1.457   1.889
 8996TIP3    H126929   2.777   1.372   1.868
 8996TIP3    H226930   2.788   1.516   1.820
 8997TIP3   OH226931   2.796   5.696   6.081
 8997TIP3    H126932   2.705   5.724   6.085
 8997TIP3    H226933   2.847   5.776   6.093
 8998TIP3   OH226934   1.100   7.366   4.642
 8998TIP3    H126935   1.013   7.387   4.675
 8998TIP3    H226936   1.092   7.277   4.607
 8999TIP3   OH226937   3.937   5.209   0.688
 8999TIP3    H126938   3.930   5.288   0.636
 8999TIP3    H226939   4.010   5.160   0.649
 9000TIP3   OH226940   2.000   2.120   6.259
 9000TIP3    H126941   2.044   2.204   6.244
 9000TIP3    H226942   1.931   2.117   6.193
 9001TIP3   OH226943   7.303   6.861   3.363
 9001TIP3    H126944   7.251   6.804   3.418
 9001TIP3    H226945   7.299   6.947   3.405
 9002TIP3   OH226946   1.635   4.225   6.134
 9002TIP3    H126947   1.641   4.224   6.038
 9002TIP3    H226948   1.660   4.314   6.158
 9003TIP3   OH226949   0.963   4.195   4.257
 9003TIP3    H126950   0.977   4.175   4.164
 9003TIP3    H226951   0.971   4.290   4.263
 9004TIP3   OH226952   3.936   5.529   0.051
 9004TIP3    H126953   3.941   5.589   0.126
 9004TIP3    H226954   3.915   5.585  -0.023
 9005TIP3   OH226955   5.478   0.453   2.751
 9005TIP3    H126956   5.450   0.393   2.820
 9005TIP3    H226957   5.538   0.513   2.795
 9006TIP3   OH226958   5.677   7.598   1.329
 9006TIP3    H126959   5.682   7.600   1.425
 9006TIP3    H226960   5.763   7.630   1.300
 9007TIP3   OH226961   4.607   3.286   0.276
 9007TIP3    H126962   4.551   3.347   0.229
 9007TIP3    H226963   4.696   3.317   0.259
 9008TIP3   OH226964   4.305   4.106   4.047
 9008TIP3    H126965   4.399   4.086   4.047
 9008TIP3    H226966   4.275   4.079   4.134
 9009TIP3   OH226967   3.857   7.169   0.279
 9009TIP3    H126968   3.790   7.227   0.315
 9009TIP3    H226969   3.887   7.118   0.355
 9010TIP3   OH226970   1.355   4.247   5.092
 9010TIP3    H126971   1.289   4.275   5.156
 9010TIP3    H226972   1.324   4.162   5.062
 9011TIP3   OH226973   6.996   6.508   5.541
 9011TIP3    H126974   6.973   6.421   5.509
 9011TIP3    H226975   6.912   6.550   5.560
 9012TIP3   OH226976   5.520   4.852   0.221
 9012TIP3    H126977   5.594   4.906   0.248
 9012TIP3    H226978   5.544   4.821   0.133
 9013TIP3   OH226979   0.985   5.334   0.978
 9013TIP3    H126980   0.931   5.260   0.952
 9013TIP3    H226981   0.931   5.411   0.959
 9014TIP3   OH226982   6.651   5.488   6.068
 9014TIP3    H126983   6.588   5.546   6.110
 9014TIP3    H226984   6.626   5.401   6.098
 9015TIP3   OH226985   4.728   3.513   3.680
 9015TIP3    H126986   4.714   3.432   3.730
 9015TIP3    H226987   4.822   3.530   3.687
 9016TIP3   OH226988   7.395   1.961   6.309
 9016TIP3    H126989   7.373   1.879   6.354
 9016TIP3    H226990   7.480   1.987   6.346
 9017TIP3   OH226991   5.478   0.603   0.586
 9017TIP3    H126992   5.497   0.512   0.564
 9017TIP3    H226993   5.544   0.627   0.651
 9018TIP3   OH226994   7.018   6.672   6.280
 9018TIP3    H126995   6.925   6.692   6.269
 9018TIP3    H226996   7.063   6.733   6.221
 9019TIP3   OH226997   0.652   7.116   6.340
 9019TIP3    H126998   0.666   7.024   6.319
 9019TIP3    H226999   0.711   7.134   6.413
 9020TIP3   OH227000   6.402   2.900   4.735
 9020TIP3    H127001   6.401   2.995   4.751
 9020TIP3    H227002   6.489   2.882   4.699
 9021TIP3   OH227003   3.725   5.356   1.871
 9021TIP3    H127004   3.642   5.357   1.919
 9021TIP3    H227005   3.760   5.445   1.882
 9022TIP3   OH227006   2.645   2.805   0.056
 9022TIP3    H127007   2.722   2.749   0.044
 9022TIP3    H227008   2.670   2.889   0.017
 9023TIP3   OH227009   2.023   2.025   5.581
 9023TIP3    H127010   1.999   1.936   5.556
 9023TIP3    H227011   1.960   2.050   5.648
 9024TIP3   OH227012   4.041   1.339   1.887
 9024TIP3    H127013   4.129   1.325   1.851
 9024TIP3    H227014   4.020   1.430   1.866
 9025TIP3   OH227015   4.646   6.733   1.525
 9025TIP3    H127016   4.657   6.781   1.607
 9025TIP3    H227017   4.633   6.801   1.459
 9026TIP3   OH227018   7.059   6.662   2.951
 9026TIP3    H127019   6.971   6.676   2.917
 9026TIP3    H227020   7.068   6.726   3.022
 9027TIP3   OH227021   2.989   1.746   2.838
 9027TIP3    H127022   2.923   1.716   2.775
 9027TIP3    H227023   3.024   1.827   2.800
 9028TIP3   OH227024   1.666   2.430   6.284
 9028TIP3    H127025   1.600   2.401   6.347
 9028TIP3    H227026   1.616   2.472   6.214
 9029TIP3   OH227027   6.475   1.864   5.467
 9029TIP3    H127028   6.562   1.852   5.429
 9029TIP3    H227029   6.453   1.956   5.450
 9030TIP3   OH227030   5.692   7.405   4.970
 9030TIP3    H127031   5.609   7.452   4.964
 9030TIP3    H227032   5.669   7.321   5.008
 9031TIP3   OH227033   3.924   3.371   4.035
 9031TIP3    H127034   3.885   3.426   4.104
 9031TIP3    H227035   3.956   3.434   3.970
 9032TIP3   OH227036   7.146   4.118   0.589
 9032TIP3    H127037   7.154   4.048   0.652
 9032TIP3    H227038   7.221   4.175   0.606
 9033TIP3   OH227039   7.240   6.631   0.136
 9033TIP3    H127040   7.183   6.692   0.089
 9033TIP3    H227041   7.185   6.597   0.207
 9034TIP3   OH227042   7.866   3.750   0.012
 9034TIP3    H127043   7.931   3.793   0.068
 9034TIP3    H227044   7.784   3.794   0.034
 9035TIP3   OH227045   5.028   4.456   2.695
 9035TIP3    H127046   4.999   4.510   2.621
 9035TIP3    H227047   4.991   4.369   2.676
 9036TIP3   OH227048   5.693   4.991   4.025
 9036TIP3    H127049   5.753   5.064   4.039
 9036TIP3    H227050   5.630   4.998   4.097
 9037TIP3   OH227051   8.333   4.158   2.153
 9037TIP3    H127052   8.329   4.222   2.081
 9037TIP3    H227053   8.279   4.197   2.222
 9038TIP3   OH227054   2.077   3.478   2.384
 9038TIP3    H127055   2.094   3.467   2.290
 9038TIP3    H227056   2.160   3.455   2.426
 9039TIP3   OH227057   4.208   6.006   4.377
 9039TIP3    H127058   4.162   5.942   4.431
 9039TIP3    H227059   4.230   6.077   4.438
 9040TIP3   OH227060   5.551   0.882   6.700
 9040TIP3    H127061   5.604   0.896   6.778
 9040TIP3    H227062   5.583   0.945   6.636
 9041TIP3   OH227063   3.989   2.118   1.733
 9041TIP3    H127064   4.063   2.145   1.679
 9041TIP3    H227065   4.002   2.163   1.816
 9042TIP3   OH227066   3.290   2.663   2.740
 9042TIP3    H127067   3.279   2.737   2.680
 9042TIP3    H227068   3.202   2.627   2.751
 9043TIP3   OH227069   7.774   6.669   0.456
 9043TIP3    H127070   7.791   6.586   0.501
 9043TIP3    H227071   7.707   6.712   0.509
 9044TIP3   OH227072   0.735   5.543   4.702
 9044TIP3    H127073   0.793   5.576   4.633
 9044TIP3    H227074   0.647   5.553   4.665
 9045TIP3   OH227075   5.786   7.920   4.369
 9045TIP3    H127076   5.788   7.834   4.411
 9045TIP3    H227077   5.693   7.942   4.364
 9046TIP3   OH227078   4.488   4.848   1.563
 9046TIP3    H127079   4.397   4.817   1.556
 9046TIP3    H227080   4.530   4.818   1.483
 9047TIP3   OH227081   2.876   2.810   5.384
 9047TIP3    H127082   2.899   2.742   5.320
 9047TIP3    H227083   2.908   2.775   5.467
 9048TIP3   OH227084   8.302   1.029   4.249
 9048TIP3    H127085   8.303   0.935   4.267
 9048TIP3    H227086   8.209   1.052   4.248
 9049TIP3   OH227087   5.196   0.211   0.904
 9049TIP3    H127088   5.285   0.244   0.914
 9049TIP3    H227089   5.170   0.182   0.992
 9050TIP3   OH227090   5.201   7.367   1.237
 9050TIP3    H127091   5.183   7.409   1.153
 9050TIP3    H227092   5.162   7.280   1.229
 9051TIP3   OH227093   2.609   2.428   5.754
 9051TIP3    H127094   2.656   2.490   5.698
 9051TIP3    H227095   2.673   2.358   5.771
 9052TIP3   OH227096   3.030   5.767   0.865
 9052TIP3    H127097   3.095   5.838   0.868
 9052TIP3    H227098   3.005   5.754   0.956
 9053TIP3   OH227099   1.043   7.628   5.918
 9053TIP3    H127100   1.097   7.617   5.996
 9053TIP3    H227101   1.093   7.586   5.848
 9054TIP3   OH227102   1.961   4.311   6.766
 9054TIP3    H127103   2.031   4.308   6.831
 9054TIP3    H227104   1.900   4.242   6.794
 9055TIP3   OH227105   7.168   3.749   6.801
 9055TIP3    H127106   7.182   3.843   6.813
 9055TIP3    H227107   7.153   3.739   6.707
 9056TIP3   OH227108   0.096   4.765   3.888
 9056TIP3    H127109   0.132   4.680   3.914
 9056TIP3    H227110   0.168   4.827   3.900
 9057TIP3   OH227111   6.747   3.085   0.858
 9057TIP3    H127112   6.718   3.024   0.790
 9057TIP3    H227113   6.838   3.059   0.876
 9058TIP3   OH227114   4.367   7.398   1.723
 9058TIP3    H127115   4.278   7.387   1.689
 9058TIP3    H227116   4.355   7.453   1.802
 9059TIP3   OH227117   1.541   5.662   3.834
 9059TIP3    H127118   1.507   5.743   3.871
 9059TIP3    H227119   1.634   5.662   3.856
 9060TIP3   OH227120   2.192   3.438   0.408
 9060TIP3    H127121   2.286   3.425   0.413
 9060TIP3    H227122   2.169   3.417   0.317
 9061TIP3   OH227123   7.998   3.735   4.959
 9061TIP3    H127124   7.928   3.670   4.950
 9061TIP3    H227125   8.053   3.700   5.030
 9062TIP3   OH227126   6.651   3.539   1.261
 9062TIP3    H127127   6.719   3.486   1.301
 9062TIP3    H227128   6.655   3.517   1.168
 9063TIP3   OH227129   4.888   4.270   4.380
 9063TIP3    H127130   4.974   4.248   4.344
 9063TIP3    H227131   4.829   4.205   4.341
 9064TIP3   OH227132   5.446   4.221   4.492
 9064TIP3    H127133   5.442   4.216   4.588
 9064TIP3    H227134   5.410   4.308   4.471
 9065TIP3   OH227135   7.621   5.019   0.019
 9065TIP3    H127136   7.707   4.983   0.040
 9065TIP3    H227137   7.611   5.005  -0.075
 9066TIP3   OH227138   7.561   1.811   0.292
 9066TIP3    H127139   7.584   1.801   0.199
 9066TIP3    H227140   7.468   1.834   0.290
 9067TIP3   OH227141   2.323   0.411   1.431
 9067TIP3    H127142   2.240   0.438   1.391
 9067TIP3    H227143   2.304   0.326   1.470
 9068TIP3   OH227144   4.063   4.090   4.894
 9068TIP3    H127145   4.121   4.018   4.869
 9068TIP3    H227146   4.101   4.124   4.976
 9069TIP3   OH227147   1.730   5.689   0.936
 9069TIP3    H127148   1.781   5.618   0.897
 9069TIP3    H227149   1.705   5.656   1.022
 9070TIP3   OH227150   6.579   6.767   1.676
 9070TIP3    H127151   6.491   6.778   1.711
 9070TIP3    H227152   6.612   6.857   1.663
 9071TIP3   OH227153   3.428   0.915   2.621
 9071TIP3    H127154   3.475   0.891   2.541
 9071TIP3    H227155   3.470   0.996   2.651
 9072TIP3   OH227156   3.568   1.490   2.747
 9072TIP3    H127157   3.557   1.571   2.797
 9072TIP3    H227158   3.583   1.519   2.657
 9073TIP3   OH227159   0.164   4.346   4.298
 9073TIP3    H127160   0.087   4.380   4.344
 9073TIP3    H227161   0.238   4.368   4.355
 9074TIP3   OH227162   4.553   3.156   6.586
 9074TIP3    H127163   4.518   3.126   6.670
 9074TIP3    H227164   4.628   3.099   6.569
 9075TIP3   OH227165   0.771   4.158   2.266
 9075TIP3    H127166   0.824   4.221   2.218
 9075TIP3    H227167   0.694   4.209   2.295
 9076TIP3   OH227168   6.084   2.655   2.694
 9076TIP3    H127169   6.141   2.614   2.759
 9076TIP3    H227170   6.091   2.749   2.711
 9077TIP3   OH227171   8.185   2.216   5.933
 9077TIP3    H127172   8.156   2.137   5.888
 9077TIP3    H227173   8.266   2.241   5.889
 9078TIP3   OH227174   1.130   1.820   3.589
 9078TIP3    H127175   1.149   1.869   3.669
 9078TIP3    H227176   1.120   1.888   3.521
 9079TIP3   OH227177   8.071   1.990   6.500
 9079TIP3    H127178   8.156   2.014   6.538
 9079TIP3    H227179   8.008   2.009   6.569
 9080TIP3   OH227180   7.919   7.845   6.001
 9080TIP3    H127181   7.852   7.914   6.003
 9080TIP3    H227182   7.875   7.771   5.959
 9081TIP3   OH227183   4.597   1.518   4.193
 9081TIP3    H127184   4.660   1.588   4.177
 9081TIP3    H227185   4.561   1.498   4.106
 9082TIP3   OH227186   2.063   7.695   1.701
 9082TIP3    H127187   2.058   7.700   1.605
 9082TIP3    H227188   2.097   7.780   1.728
 9083TIP3   OH227189   7.793   3.512   2.269
 9083TIP3    H127190   7.823   3.468   2.189
 9083TIP3    H227191   7.814   3.604   2.256
 9084TIP3   OH227192   5.987   5.057   6.648
 9084TIP3    H127193   5.918   5.045   6.714
 9084TIP3    H227194   6.034   4.974   6.646
 9085TIP3   OH227195   1.346   7.775   5.895
 9085TIP3    H127196   1.282   7.714   5.932
 9085TIP3    H227197   1.422   7.767   5.953
 9086TIP3   OH227198   3.646   2.142   6.552
 9086TIP3    H127199   3.645   2.097   6.637
 9086TIP3    H227200   3.669   2.232   6.573
 9087TIP3   OH227201   3.982   5.864   0.501
 9087TIP3    H127202   3.963   5.911   0.582
 9087TIP3    H227203   4.065   5.901   0.470
 9088TIP3   OH227204   6.954   3.444   6.740
 9088TIP3    H127205   7.027   3.423   6.798
 9088TIP3    H227206   6.992   3.441   6.652
 9089TIP3   OH227207   3.970   6.804   5.374
 9089TIP3    H127208   3.993   6.815   5.282
 9089TIP3    H227209   3.874   6.806   5.376
 9090TIP3   OH227210   4.108   6.585   6.330
 9090TIP3    H127211   4.090   6.612   6.240
 9090TIP3    H227212   4.036   6.622   6.381
 9091TIP3   OH227213   1.114   4.404   3.927
 9091TIP3    H127214   1.063   4.473   3.885
 9091TIP3    H227215   1.204   4.436   3.925
 9092TIP3   OH227216   6.807   4.920   0.261
 9092TIP3    H127217   6.721   4.905   0.222
 9092TIP3    H227218   6.850   4.982   0.202
 9093TIP3   OH227219   3.209   0.786   6.190
 9093TIP3    H127220   3.252   0.715   6.142
 9093TIP3    H227221   3.125   0.798   6.145
 9094TIP3   OH227222   7.781   5.299   4.698
 9094TIP3    H127223   7.793   5.393   4.687
 9094TIP3    H227224   7.842   5.275   4.768
 9095TIP3   OH227225   1.569   7.876   3.069
 9095TIP3    H127226   1.496   7.871   3.131
 9095TIP3    H227227   1.616   7.793   3.081
 9096TIP3   OH227228   1.164   1.108   6.672
 9096TIP3    H127229   1.100   1.159   6.622
 9096TIP3    H227230   1.230   1.171   6.698
 9097TIP3   OH227231   0.276   0.375   4.379
 9097TIP3    H127232   0.247   0.303   4.324
 9097TIP3    H227233   0.265   0.342   4.469
 9098TIP3   OH227234   4.867   0.609   5.099
 9098TIP3    H127235   4.781   0.592   5.135
 9098TIP3    H227236   4.928   0.579   5.166
 9099TIP3   OH227237   5.158   5.573   4.210
 9099TIP3    H127238   5.167   5.478   4.220
 9099TIP3    H227239   5.206   5.593   4.129
 9100TIP3   OH227240   7.482   7.563   2.709
 9100TIP3    H127241   7.490   7.538   2.801
 9100TIP3    H227242   7.532   7.644   2.702
 9101TIP3   OH227243   1.192   6.396   6.134
 9101TIP3    H127244   1.134   6.320   6.123
 9101TIP3    H227245   1.174   6.451   6.057
 9102TIP3   OH227246   4.568   7.523   6.599
 9102TIP3    H127247   4.478   7.491   6.603
 9102TIP3    H227248   4.567   7.592   6.534
 9103TIP3   OH227249   5.829   5.307   6.043
 9103TIP3    H127250   5.826   5.398   6.071
 9103TIP3    H227251   5.919   5.280   6.059
 9104TIP3   OH227252   6.486   6.451   1.314
 9104TIP3    H127253   6.520   6.420   1.231
 9104TIP3    H227254   6.524   6.538   1.325
 9105TIP3   OH227255   1.778   7.035   4.526
 9105TIP3    H127256   1.734   7.002   4.604
 9105TIP3    H227257   1.711   7.088   4.482
 9106TIP3   OH227258   2.218   3.103   3.954
 9106TIP3    H127259   2.295   3.124   3.902
 9106TIP3    H227260   2.157   3.064   3.892
 9107TIP3   OH227261   0.512   4.263   2.066
 9107TIP3    H127262   0.438   4.272   2.006
 9107TIP3    H227263   0.515   4.170   2.087
 9108TIP3   OH227264   2.441   1.896   1.437
 9108TIP3    H127265   2.370   1.839   1.465
 9108TIP3    H227266   2.446   1.885   1.342
 9109TIP3   OH227267   1.060   1.990   4.818
 9109TIP3    H127268   1.148   2.018   4.842
 9109TIP3    H227269   1.002   2.050   4.865
 9110TIP3   OH227270   0.090   7.005   3.575
 9110TIP3    H127271   0.096   7.070   3.645
 9110TIP3    H227272   0.133   6.927   3.611
 9111TIP3   OH227273   1.556   1.572   1.820
 9111TIP3    H127274   1.624   1.504   1.821
 9111TIP3    H227275   1.500   1.548   1.746
 9112TIP3   OH227276   0.463   5.146   5.367
 9112TIP3    H127277   0.547   5.157   5.413
 9112TIP3    H227278   0.447   5.052   5.369
 9113TIP3   OH227279   6.629   4.485   5.836
 9113TIP3    H127280   6.659   4.509   5.924
 9113TIP3    H227281   6.709   4.481   5.783
 9114TIP3   OH227282   3.112   3.313   6.467
 9114TIP3    H127283   3.088   3.334   6.557
 9114TIP3    H227284   3.090   3.221   6.457
 9115TIP3   OH227285   2.664   6.838   6.522
 9115TIP3    H127286   2.639   6.897   6.593
 9115TIP3    H227287   2.595   6.849   6.456
 9116TIP3   OH227288   2.784   0.066   3.797
 9116TIP3    H127289   2.815   0.016   3.872
 9116TIP3    H227290   2.696   0.033   3.779
 9117TIP3   OH227291   1.911   0.093   2.848
 9117TIP3    H127292   1.826   0.049   2.848
 9117TIP3    H227293   1.893   0.178   2.889
 9118TIP3   OH227294   7.736   6.090   2.499
 9118TIP3    H127295   7.696   6.055   2.579
 9118TIP3    H227296   7.725   6.185   2.507
 9119TIP3   OH227297   6.801   5.075   6.632
 9119TIP3    H127298   6.869   5.141   6.647
 9119TIP3    H227299   6.725   5.125   6.604
 9120TIP3   OH227300   4.816   5.526   6.460
 9120TIP3    H127301   4.791   5.557   6.547
 9120TIP3    H227302   4.806   5.431   6.465
 9121TIP3   OH227303   0.859   2.623   3.460
 9121TIP3    H127304   0.871   2.590   3.371
 9121TIP3    H227305   0.867   2.718   3.451
 9122TIP3   OH227306   6.154   5.606   5.175
 9122TIP3    H127307   6.072   5.646   5.204
 9122TIP3    H227308   6.190   5.668   5.111
 9123TIP3   OH227309   5.861   1.942   1.241
 9123TIP3    H127310   5.874   1.980   1.328
 9123TIP3    H227311   5.950   1.926   1.209
 9124TIP3   OH227312   1.093   5.160   6.727
 9124TIP3    H127313   1.070   5.069   6.707
 9124TIP3    H227314   1.069   5.209   6.649
 9125TIP3   OH227315   6.029   4.739   3.536
 9125TIP3    H127316   5.945   4.784   3.524
 9125TIP3    H227317   6.010   4.667   3.597
 9126TIP3   OH227318   8.210   5.306   6.417
 9126TIP3    H127319   8.274   5.368   6.454
 9126TIP3    H227320   8.229   5.223   6.461
 9127TIP3   OH227321   5.753   2.850   3.198
 9127TIP3    H127322   5.751   2.755   3.196
 9127TIP3    H227323   5.845   2.873   3.187
 9128TIP3   OH227324   2.715   0.783   1.441
 9128TIP3    H127325   2.747   0.792   1.531
 9128TIP3    H227326   2.714   0.872   1.407
 9129TIP3   OH227327   5.269   3.726   4.759
 9129TIP3    H127328   5.231   3.714   4.847
 9129TIP3    H227329   5.321   3.647   4.744
 9130TIP3   OH227330   3.875   2.421   5.382
 9130TIP3    H127331   3.800   2.370   5.410
 9130TIP3    H227332   3.876   2.411   5.286
 9131TIP3   OH227333   7.405   4.162   0.720
 9131TIP3    H127334   7.352   4.233   0.756
 9131TIP3    H227335   7.416   4.101   0.792
 9132TIP3   OH227336   0.718   3.704   1.582
 9132TIP3    H127337   0.628   3.733   1.566
 9132TIP3    H227338   0.714   3.609   1.579
 9133TIP3   OH227339   7.800   1.340   6.537
 9133TIP3    H127340   7.855   1.331   6.614
 9133TIP3    H227341   7.808   1.432   6.511
 9134TIP3   OH227342   6.338   6.151   5.939
 9134TIP3    H127343   6.287   6.182   6.013
 9134TIP3    H227344   6.409   6.099   5.978
 9135TIP3   OH227345   3.416   5.466   2.230
 9135TIP3    H127346   3.364   5.545   2.246
 9135TIP3    H227347   3.410   5.417   2.311
 9136TIP3   OH227348   5.588   1.088   3.119
 9136TIP3    H127349   5.496   1.063   3.130
 9136TIP3    H227350   5.612   1.055   3.032
 9137TIP3   OH227351  -0.018   7.454   6.386
 9137TIP3    H127352   0.067   7.441   6.342
 9137TIP3    H227353  -0.077   7.481   6.315
 9138TIP3   OH227354   0.899   5.832   3.147
 9138TIP3    H127355   0.963   5.903   3.146
 9138TIP3    H227356   0.903   5.795   3.059
 9139TIP3   OH227357   2.565   2.656   4.328
 9139TIP3    H127358   2.586   2.733   4.276
 9139TIP3    H227359   2.506   2.688   4.396
 9140TIP3   OH227360   0.536   5.322   0.909
 9140TIP3    H127361   0.479   5.270   0.853
 9140TIP3    H227362   0.595   5.367   0.848
 9141TIP3   OH227363   7.089   5.887   6.263
 9141TIP3    H127364   7.072   5.834   6.185
 9141TIP3    H227365   7.106   5.975   6.229
 9142TIP3   OH227366   0.612   3.621   4.346
 9142TIP3    H127367   0.568   3.614   4.262
 9142TIP3    H227368   0.567   3.693   4.391
 9143TIP3   OH227369   4.534   5.100   1.904
 9143TIP3    H127370   4.474   5.046   1.853
 9143TIP3    H227371   4.617   5.051   1.902
 9144TIP3   OH227372   5.218   1.260   3.342
 9144TIP3    H127373   5.132   1.223   3.363
 9144TIP3    H227374   5.266   1.258   3.425
 9145TIP3   OH227375   2.270   3.679   5.341
 9145TIP3    H127376   2.189   3.674   5.392
 9145TIP3    H227377   2.300   3.588   5.334
 9146TIP3   OH227378   5.128   6.593   0.501
 9146TIP3    H127379   5.081   6.566   0.580
 9146TIP3    H227380   5.194   6.654   0.532
 9147TIP3   OH227381   1.227   5.409   0.875
 9147TIP3    H127382   1.162   5.390   0.943
 9147TIP3    H227383   1.298   5.453   0.923
 9148TIP3   OH227384   1.448   3.881   0.873
 9148TIP3    H127385   1.478   3.970   0.891
 9148TIP3    H227386   1.487   3.828   0.942
 9149TIP3   OH227387   2.065   5.916   2.852
 9149TIP3    H127388   2.095   5.988   2.797
 9149TIP3    H227389   2.116   5.923   2.932
 9150TIP3   OH227390   0.856   3.088   3.818
 9150TIP3    H127391   0.918   3.134   3.760
 9150TIP3    H227392   0.902   3.081   3.901
 9151TIP3   OH227393   2.624   2.965   1.216
 9151TIP3    H127394   2.665   2.938   1.298
 9151TIP3    H227395   2.592   3.053   1.234
 9152TIP3   OH227396   0.285   2.962   1.557
 9152TIP3    H127397   0.360   2.929   1.606
 9152TIP3    H227398   0.262   3.044   1.601
 9153TIP3   OH227399   5.970   5.890   3.561
 9153TIP3    H127400   6.042   5.829   3.575
 9153TIP3    H227401   6.013   5.975   3.550
 9154TIP3   OH227402   5.356   1.898   4.643
 9154TIP3    H127403   5.402   1.840   4.582
 9154TIP3    H227404   5.264   1.873   4.635
 9155TIP3   OH227405   4.919   1.381   4.895
 9155TIP3    H127406   4.975   1.359   4.821
 9155TIP3    H227407   4.978   1.412   4.963
 9156TIP3   OH227408   5.880   1.137   2.608
 9156TIP3    H127409   5.971   1.109   2.595
 9156TIP3    H227410   5.829   1.083   2.548
 9157TIP3   OH227411   5.601   4.129   0.943
 9157TIP3    H127412   5.528   4.178   0.982
 9157TIP3    H227413   5.587   4.138   0.849
 9158TIP3   OH227414   0.834   2.677   2.617
 9158TIP3    H127415   0.845   2.772   2.614
 9158TIP3    H227416   0.920   2.644   2.645
 9159TIP3   OH227417   5.157   6.637   4.346
 9159TIP3    H127418   5.174   6.706   4.282
 9159TIP3    H227419   5.239   6.589   4.352
 9160TIP3   OH227420   6.610   1.134   1.868
 9160TIP3    H127421   6.657   1.052   1.856
 9160TIP3    H227422   6.536   1.111   1.925
 9161TIP3   OH227423   7.845   0.443   4.902
 9161TIP3    H127424   7.777   0.418   4.965
 9161TIP3    H227425   7.801   0.504   4.843
 9162TIP3   OH227426   7.305   0.452   1.181
 9162TIP3    H127427   7.336   0.369   1.145
 9162TIP3    H227428   7.351   0.518   1.129
 9163TIP3   OH227429   5.248   4.074   3.025
 9163TIP3    H127430   5.177   4.089   3.087
 9163TIP3    H227431   5.244   4.149   2.966
 9164TIP3   OH227432   4.442   2.010   5.163
 9164TIP3    H127433   4.502   2.018   5.237
 9164TIP3    H227434   4.492   1.961   5.097
 9165TIP3   OH227435   1.513   6.043   4.627
 9165TIP3    H127436   1.460   6.058   4.705
 9165TIP3    H227437   1.530   6.130   4.592
 9166TIP3   OH227438   1.942   1.721   5.587
 9166TIP3    H127439   2.026   1.714   5.631
 9166TIP3    H227440   1.944   1.653   5.520
 9167TIP3   OH227441   7.943   5.995   6.782
 9167TIP3    H127442   8.022   6.003   6.729
 9167TIP3    H227443   7.880   6.053   6.739
 9168TIP3   OH227444   3.343   4.878   0.762
 9168TIP3    H127445   3.272   4.939   0.782
 9168TIP3    H227446   3.322   4.843   0.676
 9169TIP3   OH227447   3.137   1.331   5.654
 9169TIP3    H127448   3.096   1.380   5.582
 9169TIP3    H227449   3.167   1.250   5.613
 9170TIP3   OH227450   2.321   1.640   4.204
 9170TIP3    H127451   2.361   1.717   4.162
 9170TIP3    H227452   2.310   1.577   4.133
 9171TIP3   OH227453   1.042   5.912   5.544
 9171TIP3    H127454   1.040   5.979   5.475
 9171TIP3    H227455   0.976   5.940   5.606
 9172TIP3   OH227456   4.379   3.406   6.704
 9172TIP3    H127457   4.347   3.348   6.634
 9172TIP3    H227458   4.345   3.492   6.681
 9173TIP3   OH227459   0.811   6.210   0.039
 9173TIP3    H127460   0.892   6.253   0.068
 9173TIP3    H227461   0.816   6.213  -0.056
 9174TIP3   OH227462   7.936   5.894   3.665
 9174TIP3    H127463   7.966   5.921   3.578
 9174TIP3    H227464   8.016   5.887   3.717
 9175TIP3   OH227465   7.899   3.473   1.081
 9175TIP3    H127466   7.836   3.409   1.116
 9175TIP3    H227467   7.880   3.476   0.987
 9176TIP3   OH227468   2.455   4.625   1.359
 9176TIP3    H127469   2.475   4.549   1.413
 9176TIP3    H227470   2.528   4.686   1.376
 9177TIP3   OH227471   0.201   4.724   3.108
 9177TIP3    H127472   0.192   4.636   3.143
 9177TIP3    H227473   0.293   4.731   3.083
 9178TIP3   OH227474   3.885   0.741   0.151
 9178TIP3    H127475   3.969   0.705   0.181
 9178TIP3    H227476   3.907   0.788   0.071
 9179TIP3   OH227477   2.764   5.328   3.692
 9179TIP3    H127478   2.722   5.409   3.663
 9179TIP3    H227479   2.856   5.339   3.669
 9180TIP3   OH227480   3.543   0.260   0.950
 9180TIP3    H127481   3.489   0.235   0.875
 9180TIP3    H227482   3.480   0.282   1.018
 9181TIP3   OH227483   6.716   3.288   4.541
 9181TIP3    H127484   6.704   3.320   4.630
 9181TIP3    H227485   6.683   3.359   4.485
 9182TIP3   OH227486   0.063   4.673   6.211
 9182TIP3    H127487   0.090   4.631   6.130
 9182TIP3    H227488  -0.025   4.641   6.227
 9183TIP3   OH227489   7.201   1.366   5.349
 9183TIP3    H127490   7.158   1.347   5.433
 9183TIP3    H227491   7.134   1.411   5.298
 9184TIP3   OH227492   6.093   2.200   2.533
 9184TIP3    H127493   6.102   2.292   2.507
 9184TIP3    H227494   6.105   2.201   2.628
 9185TIP3   OH227495   5.459   5.363   3.128
 9185TIP3    H127496   5.537   5.392   3.175
 9185TIP3    H227497   5.398   5.436   3.138
 9186TIP3   OH227498   0.065   0.993   5.474
 9186TIP3    H127499   0.128   1.064   5.470
 9186TIP3    H227500   0.113   0.916   5.445
 9187TIP3   OH227501   8.202   0.590   1.783
 9187TIP3    H127502   8.180   0.589   1.690
 9187TIP3    H227503   8.194   0.682   1.809
 9188TIP3   OH227504   7.102   2.027   2.532
 9188TIP3    H127505   7.129   1.953   2.476
 9188TIP3    H227506   7.010   2.042   2.509
 9189TIP3   OH227507   3.741   6.419   2.547
 9189TIP3    H127508   3.652   6.384   2.558
 9189TIP3    H227509   3.789   6.386   2.623
 9190TIP3   OH227510   1.196   2.637   1.825
 9190TIP3    H127511   1.151   2.555   1.848
 9190TIP3    H227512   1.259   2.650   1.896
 9191TIP3   OH227513   1.038   4.446   0.238
 9191TIP3    H127514   1.106   4.443   0.306
 9191TIP3    H227515   1.084   4.474   0.159
 9192TIP3   OH227516   0.764   7.151   0.233
 9192TIP3    H127517   0.794   7.062   0.251
 9192TIP3    H227518   0.804   7.174   0.149
 9193TIP3   OH227519   1.390   7.407   1.449
 9193TIP3    H127520   1.388   7.441   1.360
 9193TIP3    H227521   1.439   7.472   1.499
 9194TIP3   OH227522   6.657   2.252   3.126
 9194TIP3    H127523   6.718   2.268   3.054
 9194TIP3    H227524   6.668   2.160   3.148
 9195TIP3   OH227525   1.557   3.677   6.524
 9195TIP3    H127526   1.552   3.670   6.619
 9195TIP3    H227527   1.588   3.591   6.495
 9196TIP3   OH227528   4.320   7.112   3.214
 9196TIP3    H127529   4.356   7.170   3.147
 9196TIP3    H227530   4.276   7.042   3.165
 9197TIP3   OH227531   4.413   7.682   2.148
 9197TIP3    H127532   4.441   7.723   2.067
 9197TIP3    H227533   4.376   7.598   2.121
 9198TIP3   OH227534   2.181   3.321   6.234
 9198TIP3    H127535   2.229   3.286   6.159
 9198TIP3    H227536   2.095   3.345   6.199
 9199TIP3   OH227537   0.166   7.487   3.178
 9199TIP3    H127538   0.154   7.463   3.087
 9199TIP3    H227539   0.240   7.434   3.208
 9200TIP3   OH227540   2.802   2.060   3.763
 9200TIP3    H127541   2.785   1.981   3.814
 9200TIP3    H227542   2.746   2.127   3.802
 9201TIP3   OH227543   2.124   1.174   3.297
 9201TIP3    H127544   2.112   1.116   3.372
 9201TIP3    H227545   2.130   1.261   3.336
 9202TIP3   OH227546   4.419   3.619   2.192
 9202TIP3    H127547   4.507   3.586   2.176
 9202TIP3    H227548   4.362   3.558   2.146
 9203TIP3   OH227549   0.897   7.425   5.374
 9203TIP3    H127550   0.960   7.463   5.436
 9203TIP3    H227551   0.903   7.330   5.389
 9204TIP3   OH227552   7.612   0.683   2.910
 9204TIP3    H127553   7.556   0.723   2.843
 9204TIP3    H227554   7.651   0.608   2.866
 9205TIP3   OH227555   0.185   4.774   0.022
 9205TIP3    H127556   0.205   4.838  -0.046
 9205TIP3    H227557   0.229   4.694  -0.006
 9206TIP3   OH227558   5.399   4.247   4.769
 9206TIP3    H127559   5.376   4.154   4.771
 9206TIP3    H227560   5.420   4.268   4.860
 9207TIP3   OH227561   2.724   4.543   0.731
 9207TIP3    H127562   2.631   4.541   0.708
 9207TIP3    H227563   2.726   4.522   0.824
 9208TIP3   OH227564   6.417   0.074   5.961
 9208TIP3    H127565   6.367   0.063   5.880
 9208TIP3    H227566   6.504   0.102   5.932
 9209TIP3   OH227567   0.282   4.180   5.633
 9209TIP3    H127568   0.276   4.234   5.555
 9209TIP3    H227569   0.279   4.242   5.706
 9210TIP3   OH227570   7.776   2.094   6.135
 9210TIP3    H127571   7.862   2.060   6.111
 9210TIP3    H227572   7.720   2.073   6.061
 9211TIP3   OH227573   1.725   5.726   3.018
 9211TIP3    H127574   1.639   5.729   3.060
 9211TIP3    H227575   1.705   5.717   2.925
 9212TIP3   OH227576   8.204   6.276   4.205
 9212TIP3    H127577   8.143   6.223   4.256
 9212TIP3    H227578   8.208   6.360   4.250
 9213TIP3   OH227579   3.704   4.314   5.228
 9213TIP3    H127580   3.784   4.357   5.196
 9213TIP3    H227581   3.717   4.221   5.207
 9214TIP3   OH227582   0.094   7.384   5.952
 9214TIP3    H127583   0.108   7.432   6.033
 9214TIP3    H227584   0.084   7.452   5.885
 9215TIP3   OH227585   7.168   7.210   5.360
 9215TIP3    H127586   7.254   7.223   5.399
 9215TIP3    H227587   7.185   7.165   5.277
 9216TIP3   OH227588   0.829   4.501  -0.017
 9216TIP3    H127589   0.868   4.483   0.069
 9216TIP3    H227590   0.870   4.438  -0.076
 9217TIP3   OH227591   7.151   0.402   5.094
 9217TIP3    H127592   7.201   0.360   5.164
 9217TIP3    H227593   7.197   0.484   5.077
 9218TIP3   OH227594   6.441   2.833   1.598
 9218TIP3    H127595   6.390   2.772   1.652
 9218TIP3    H227596   6.532   2.803   1.607
 9219TIP3   OH227597   7.729   3.056   3.356
 9219TIP3    H127598   7.639   3.084   3.341
 9219TIP3    H227599   7.721   2.970   3.398
 9220TIP3   OH227600   3.198   0.429   2.251
 9220TIP3    H127601   3.285   0.406   2.218
 9220TIP3    H227602   3.170   0.502   2.195
 9221TIP3   OH227603   5.747   4.424   1.161
 9221TIP3    H127604   5.676   4.488   1.159
 9221TIP3    H227605   5.783   4.426   1.072
 9222TIP3   OH227606   6.818   4.174   4.096
 9222TIP3    H127607   6.763   4.238   4.140
 9222TIP3    H227608   6.808   4.093   4.146
 9223TIP3   OH227609   2.149   3.873   0.699
 9223TIP3    H127610   2.082   3.840   0.639
 9223TIP3    H227611   2.125   3.964   0.714
 9224TIP3   OH227612   6.251   2.549   5.695
 9224TIP3    H127613   6.251   2.629   5.748
 9224TIP3    H227614   6.329   2.502   5.722
 9225TIP3   OH227615   3.194   5.974   2.941
 9225TIP3    H127616   3.276   5.993   2.987
 9225TIP3    H227617   3.150   6.059   2.936
 9226TIP3   OH227618   7.074   0.135   3.933
 9226TIP3    H127619   7.121   0.132   4.016
 9226TIP3    H227620   7.109   0.212   3.888
 9227TIP3   OH227621   3.368   3.221   3.183
 9227TIP3    H127622   3.286   3.267   3.202
 9227TIP3    H227623   3.416   3.281   3.126
 9228TIP3   OH227624   1.900   1.038   6.620
 9228TIP3    H127625   1.973   0.977   6.611
 9228TIP3    H227626   1.935   1.111   6.672
 9229TIP3   OH227627   3.428   7.674   4.827
 9229TIP3    H127628   3.459   7.599   4.776
 9229TIP3    H227629   3.426   7.746   4.764
 9230TIP3   OH227630   0.457   0.127   4.460
 9230TIP3    H127631   0.366   0.099   4.461
 9230TIP3    H227632   0.500   0.065   4.401
 9231TIP3   OH227633   8.137   3.587   3.184
 9231TIP3    H127634   8.174   3.617   3.267
 9231TIP3    H227635   8.052   3.630   3.179
 9232TIP3   OH227636   5.625   1.856   5.678
 9232TIP3    H127637   5.705   1.902   5.704
 9232TIP3    H227638   5.558   1.923   5.675
 9233TIP3   OH227639   4.369   7.294   4.074
 9233TIP3    H127640   4.350   7.216   4.127
 9233TIP3    H227641   4.313   7.362   4.110
 9234TIP3   OH227642   7.510   7.033   4.339
 9234TIP3    H127643   7.435   6.991   4.297
 9234TIP3    H227644   7.578   6.966   4.338
 9235TIP3   OH227645   1.251   5.719   1.151
 9235TIP3    H127646   1.197   5.778   1.205
 9235TIP3    H227647   1.212   5.633   1.165
 9236TIP3   OH227648   0.546   6.740   4.662
 9236TIP3    H127649   0.554   6.828   4.699
 9236TIP3    H227650   0.463   6.708   4.695
 9237TIP3   OH227651   8.368   2.248   1.516
 9237TIP3    H127652   8.411   2.318   1.564
 9237TIP3    H227653   8.310   2.292   1.454
 9238TIP3   OH227654   0.285   6.151   6.207
 9238TIP3    H127655   0.375   6.184   6.210
 9238TIP3    H227656   0.248   6.172   6.292
 9239TIP3   OH227657   0.413   5.680   2.740
 9239TIP3    H127658   0.419   5.770   2.708
 9239TIP3    H227659   0.320   5.658   2.733
 9240TIP3   OH227660   6.398   3.211   4.791
 9240TIP3    H127661   6.458   3.234   4.862
 9240TIP3    H227662   6.454   3.172   4.724
 9241TIP3   OH227663   5.172   5.691   0.831
 9241TIP3    H127664   5.186   5.785   0.818
 9241TIP3    H227665   5.149   5.658   0.744
 9242TIP3   OH227666   2.804   3.556   0.298
 9242TIP3    H127667   2.739   3.622   0.274
 9242TIP3    H227668   2.753   3.486   0.338
 9243TIP3   OH227669   1.393   6.613   3.185
 9243TIP3    H127670   1.361   6.703   3.189
 9243TIP3    H227671   1.315   6.560   3.170
 9244TIP3   OH227672   2.988   1.876   2.140
 9244TIP3    H127673   3.042   1.802   2.168
 9244TIP3    H227674   2.942   1.845   2.063
 9245TIP3   OH227675   1.060   0.251   3.556
 9245TIP3    H127676   1.116   0.279   3.628
 9245TIP3    H227677   0.981   0.217   3.598
 9246TIP3   OH227678   4.494   1.009   6.795
 9246TIP3    H127679   4.565   0.957   6.831
 9246TIP3    H227680   4.536   1.090   6.766
 9247TIP3   OH227681   6.011   4.217   0.077
 9247TIP3    H127682   6.051   4.164   0.146
 9247TIP3    H227683   5.918   4.197   0.083
 9248TIP3   OH227684   2.157   7.780   0.841
 9248TIP3    H127685   2.131   7.872   0.832
 9248TIP3    H227686   2.077   7.731   0.827
 9249TIP3   OH227687   7.128   6.667   1.245
 9249TIP3    H127688   7.205   6.713   1.279
 9249TIP3    H227689   7.090   6.728   1.182
 9250TIP3   OH227690   6.483   7.595   1.189
 9250TIP3    H127691   6.505   7.503   1.201
 9250TIP3    H227692   6.402   7.595   1.139
 9251TIP3   OH227693   2.918   2.220   1.784
 9251TIP3    H127694   2.875   2.264   1.711
 9251TIP3    H227695   2.850   2.210   1.850
 9252TIP3   OH227696   6.918   5.414   1.897
 9252TIP3    H127697   6.902   5.506   1.917
 9252TIP3    H227698   6.842   5.388   1.844
 9253TIP3   OH227699   6.775   5.812   5.372
 9253TIP3    H127700   6.817   5.764   5.301
 9253TIP3    H227701   6.842   5.817   5.441
 9254TIP3   OH227702   3.400   7.846   3.000
 9254TIP3    H127703   3.471   7.910   2.988
 9254TIP3    H227704   3.327   7.881   2.948
 9255TIP3   OH227705   1.344   2.968   1.905
 9255TIP3    H127706   1.358   2.937   1.815
 9255TIP3    H227707   1.425   2.945   1.951
 9256TIP3   OH227708   8.371   2.394   4.316
 9256TIP3    H127709   8.374   2.327   4.247
 9256TIP3    H227710   8.345   2.474   4.270
 9257TIP3   OH227711   3.636   6.535   2.315
 9257TIP3    H127712   3.695   6.499   2.381
 9257TIP3    H227713   3.550   6.500   2.339
 9258TIP3   OH227714   7.832   4.224   4.519
 9258TIP3    H127715   7.816   4.141   4.475
 9258TIP3    H227716   7.832   4.201   4.612
 9259TIP3   OH227717   5.896   0.112   5.412
 9259TIP3    H127718   5.862   0.188   5.460
 9259TIP3    H227719   5.922   0.147   5.327
 9260TIP3   OH227720   4.990   2.630   5.401
 9260TIP3    H127721   4.972   2.560   5.339
 9260TIP3    H227722   5.082   2.619   5.425
 9261TIP3   OH227723   2.486   0.594   4.045
 9261TIP3    H127724   2.467   0.501   4.032
 9261TIP3    H227725   2.413   0.625   4.099
 9262TIP3   OH227726   3.634   2.197   1.265
 9262TIP3    H127727   3.574   2.230   1.332
 9262TIP3    H227728   3.702   2.151   1.315
 9263TIP3   OH227729   6.743   0.194   5.062
 9263TIP3    H127730   6.740   0.276   5.113
 9263TIP3    H227731   6.657   0.155   5.075
 9264TIP3   OH227732   4.978   3.368   6.139
 9264TIP3    H127733   4.893   3.404   6.114
 9264TIP3    H227734   5.034   3.386   6.063
 9265TIP3   OH227735   1.964   4.761   4.910
 9265TIP3    H127736   1.910   4.788   4.837
 9265TIP3    H227737   1.999   4.676   4.884
 9266TIP3   OH227738   6.081   4.671   1.797
 9266TIP3    H127739   6.145   4.717   1.743
 9266TIP3    H227740   5.998   4.714   1.777
 9267TIP3   OH227741   6.230   4.459   5.827
 9267TIP3    H127742   6.281   4.540   5.831
 9267TIP3    H227743   6.240   4.420   5.914
 9268TIP3   OH227744   0.406   5.464   1.857
 9268TIP3    H127745   0.486   5.496   1.899
 9268TIP3    H227746   0.348   5.541   1.855
 9269TIP3   OH227747   2.674   7.825   3.061
 9269TIP3    H127748   2.693   7.868   2.977
 9269TIP3    H227749   2.681   7.896   3.125
 9270TIP3   OH227750   7.362   5.041   4.224
 9270TIP3    H127751   7.324   5.083   4.301
 9270TIP3    H227752   7.319   5.082   4.149
 9271TIP3   OH227753   5.169   7.632   2.543
 9271TIP3    H127754   5.151   7.563   2.479
 9271TIP3    H227755   5.253   7.668   2.517
 9272TIP3   OH227756   4.448   0.069   2.495
 9272TIP3    H127757   4.394   0.090   2.572
 9272TIP3    H227758   4.450  -0.027   2.493
 9273TIP3   OH227759   0.234   3.022   4.592
 9273TIP3    H127760   0.230   3.114   4.618
 9273TIP3    H227761   0.253   2.975   4.674
 9274TIP3   OH227762   2.438   7.180   6.157
 9274TIP3    H127763   2.422   7.258   6.211
 9274TIP3    H227764   2.518   7.141   6.192
 9275TIP3   OH227765   0.884   1.885   0.080
 9275TIP3    H127766   0.797   1.901   0.117
 9275TIP3    H227767   0.920   1.973   0.065
 9276TIP3   OH227768   2.202   0.803   1.828
 9276TIP3    H127769   2.296   0.791   1.833
 9276TIP3    H227770   2.165   0.718   1.850
 9277TIP3   OH227771   1.076   3.567   1.860
 9277TIP3    H127772   1.145   3.506   1.887
 9277TIP3    H227773   1.008   3.511   1.821
 9278TIP3   OH227774   3.708   0.399   0.717
 9278TIP3    H127775   3.668   0.327   0.766
 9278TIP3    H227776   3.634   0.451   0.687
 9279TIP3   OH227777   3.896   4.429   4.272
 9279TIP3    H127778   3.841   4.414   4.349
 9279TIP3    H227779   3.918   4.341   4.241
 9280TIP3   OH227780   2.855   7.762   2.413
 9280TIP3    H127781   2.923   7.755   2.481
 9280TIP3    H227782   2.777   7.724   2.453
 9281TIP3   OH227783   2.215   2.681   5.737
 9281TIP3    H127784   2.188   2.711   5.824
 9281TIP3    H227785   2.144   2.624   5.709
 9282TIP3   OH227786   1.114   5.493   2.138
 9282TIP3    H127787   1.195   5.452   2.169
 9282TIP3    H227788   1.051   5.421   2.133
 9283TIP3   OH227789   5.819   5.479   5.653
 9283TIP3    H127790   5.855   5.410   5.596
 9283TIP3    H227791   5.731   5.494   5.618
 9284TIP3   OH227792   2.530   7.836   3.752
 9284TIP3    H127793   2.548   7.930   3.762
 9284TIP3    H227794   2.574   7.812   3.671
 9285TIP3   OH227795   2.207   2.351   5.736
 9285TIP3    H127796   2.195   2.316   5.825
 9285TIP3    H227797   2.125   2.394   5.716
 9286TIP3   OH227798   6.990   0.300   2.472
 9286TIP3    H127799   7.010   0.300   2.565
 9286TIP3    H227800   7.075   0.287   2.429
 9287TIP3   OH227801   4.474   6.422   3.029
 9287TIP3    H127802   4.558   6.461   3.053
 9287TIP3    H227803   4.461   6.351   3.092
 9288TIP3   OH227804   5.921   7.380   5.443
 9288TIP3    H127805   5.840   7.348   5.401
 9288TIP3    H227806   5.916   7.475   5.434
 9289TIP3   OH227807   8.104   3.389   3.721
 9289TIP3    H127808   8.098   3.307   3.769
 9289TIP3    H227809   8.035   3.384   3.655
 9290TIP3   OH227810   6.580   1.302   2.957
 9290TIP3    H127811   6.573   1.397   2.942
 9290TIP3    H227812   6.540   1.262   2.880
 9291TIP3   OH227813   1.095   0.773   3.403
 9291TIP3    H127814   1.035   0.792   3.331
 9291TIP3    H227815   1.047   0.711   3.458
 9292TIP3   OH227816   1.591   3.672   5.272
 9292TIP3    H127817   1.629   3.664   5.360
 9292TIP3    H227818   1.501   3.702   5.287
 9293TIP3   OH227819   0.134   7.730   4.689
 9293TIP3    H127820   0.155   7.706   4.779
 9293TIP3    H227821   0.206   7.786   4.660
 9294TIP3   OH227822   5.870   5.935   1.978
 9294TIP3    H127823   5.790   5.888   2.002
 9294TIP3    H227824   5.930   5.865   1.951
 9295TIP3   OH227825   5.360   2.565   2.428
 9295TIP3    H127826   5.451   2.534   2.427
 9295TIP3    H227827   5.308   2.486   2.413
 9296TIP3   OH227828   5.642   3.721   1.817
 9296TIP3    H127829   5.659   3.691   1.907
 9296TIP3    H227830   5.721   3.696   1.768
 9297TIP3   OH227831   3.162   7.762   4.828
 9297TIP3    H127832   3.181   7.856   4.833
 9297TIP3    H227833   3.244   7.720   4.855
 9298TIP3   OH227834   1.686   0.126   2.558
 9298TIP3    H127835   1.741   0.085   2.490
 9298TIP3    H227836   1.662   0.053   2.615
 9299TIP3   OH227837   3.646   5.215   6.664
 9299TIP3    H127838   3.712   5.257   6.609
 9299TIP3    H227839   3.657   5.256   6.750
 9300TIP3   OH227840   0.957   1.134   2.623
 9300TIP3    H127841   1.025   1.070   2.646
 9300TIP3    H227842   0.875   1.091   2.647
 9301TIP3   OH227843   4.447   6.295   1.869
 9301TIP3    H127844   4.362   6.257   1.892
 9301TIP3    H227845   4.440   6.317   1.777
 9302TIP3   OH227846   7.506   4.012   2.995
 9302TIP3    H127847   7.510   4.106   3.012
 9302TIP3    H227848   7.450   3.978   3.065
 9303TIP3   OH227849   2.331   6.501   0.713
 9303TIP3    H127850   2.273   6.475   0.642
 9303TIP3    H227851   2.418   6.475   0.684
 9304TIP3   OH227852   0.233   7.364   6.276
 9304TIP3    H127853   0.248   7.297   6.209
 9304TIP3    H227854   0.320   7.386   6.309
 9305TIP3   OH227855   5.222   3.061   1.056
 9305TIP3    H127856   5.294   3.111   1.016
 9305TIP3    H227857   5.266   2.998   1.113
 9306TIP3   OH227858   6.654   6.636   6.703
 9306TIP3    H127859   6.653   6.715   6.649
 9306TIP3    H227860   6.593   6.577   6.659
 9307TIP3   OH227861   5.214   6.264   1.547
 9307TIP3    H127862   5.284   6.236   1.488
 9307TIP3    H227863   5.255   6.332   1.601
 9308TIP3   OH227864   1.685   3.517   4.882
 9308TIP3    H127865   1.731   3.455   4.826
 9308TIP3    H227866   1.745   3.532   4.955
 9309TIP3   OH227867   6.207   3.237   2.637
 9309TIP3    H127868   6.150   3.160   2.627
 9309TIP3    H227869   6.151   3.311   2.615
 9310TIP3   OH227870   3.574   4.552   4.112
 9310TIP3    H127871   3.548   4.495   4.040
 9310TIP3    H227872   3.665   4.575   4.092
 9311TIP3   OH227873   7.863   2.036   4.509
 9311TIP3    H127874   7.844   1.952   4.552
 9311TIP3    H227875   7.881   2.096   4.581
 9312TIP3   OH227876   5.862   4.124   2.621
 9312TIP3    H127877   5.807   4.161   2.690
 9312TIP3    H227878   5.938   4.089   2.668
 9313TIP3   OH227879   1.489   6.325   5.861
 9313TIP3    H127880   1.496   6.237   5.823
 9313TIP3    H227881   1.539   6.320   5.942
 9314TIP3   OH227882   7.078   3.661   0.936
 9314TIP3    H127883   7.043   3.736   0.888
 9314TIP3    H227884   7.024   3.656   1.015
 9315TIP3   OH227885   4.291   5.001   6.551
 9315TIP3    H127886   4.241   4.931   6.509
 9315TIP3    H227887   4.273   4.992   6.644
 9316TIP3   OH227888   0.398   5.928   4.094
 9316TIP3    H127889   0.309   5.954   4.072
 9316TIP3    H227890   0.417   5.853   4.037
 9317TIP3   OH227891   2.180   0.798   1.364
 9317TIP3    H127892   2.124   0.862   1.408
 9317TIP3    H227893   2.269   0.825   1.384
 9318TIP3   OH227894   7.713   3.859   6.638
 9318TIP3    H127895   7.659   3.782   6.657
 9318TIP3    H227896   7.658   3.934   6.660
 9319TIP3   OH227897   0.745   4.459   1.534
 9319TIP3    H127898   0.713   4.549   1.529
 9319TIP3    H227899   0.672   4.406   1.504
 9320TIP3   OH227900   6.377   3.505   4.671
 9320TIP3    H127901   6.424   3.587   4.655
 9320TIP3    H227902   6.444   3.444   4.702
 9321TIP3   OH227903   7.356   7.085   0.809
 9321TIP3    H127904   7.275   7.066   0.855
 9321TIP3    H227905   7.338   7.166   0.760
 9322TIP3   OH227906   4.011   4.278   0.177
 9322TIP3    H127907   4.017   4.331   0.098
 9322TIP3    H227908   3.986   4.340   0.246
 9323TIP3   OH227909   5.548   0.364   6.330
 9323TIP3    H127910   5.630   0.396   6.294
 9323TIP3    H227911   5.566   0.348   6.423
 9324TIP3   OH227912   4.848   4.357   6.351
 9324TIP3    H127913   4.902   4.305   6.292
 9324TIP3    H227914   4.791   4.293   6.394
 9325TIP3   OH227915   2.939   0.505   6.117
 9325TIP3    H127916   2.966   0.539   6.032
 9325TIP3    H227917   3.020   0.499   6.167
 9326TIP3   OH227918   0.891   6.519   0.045
 9326TIP3    H127919   0.838   6.527   0.124
 9326TIP3    H227920   0.963   6.461   0.069
 9327TIP3   OH227921   6.500   1.158   4.830
 9327TIP3    H127922   6.564   1.090   4.851
 9327TIP3    H227923   6.522   1.184   4.740
 9328TIP3   OH227924   7.990   4.316   0.963
 9328TIP3    H127925   8.024   4.339   1.049
 9328TIP3    H227926   8.063   4.329   0.903
 9329TIP3   OH227927   8.240   5.101   5.458
 9329TIP3    H127928   8.190   5.173   5.421
 9329TIP3    H227929   8.304   5.143   5.516
 9330TIP3   OH227930   7.075   7.341   3.335
 9330TIP3    H127931   7.066   7.365   3.427
 9330TIP3    H227932   6.986   7.348   3.300
 9331TIP3   OH227933   5.278   1.099   5.086
 9331TIP3    H127934   5.185   1.099   5.064
 9331TIP3    H227935   5.306   1.190   5.074
 9332TIP3   OH227936   2.143   2.197   5.963
 9332TIP3    H127937   2.174   2.119   6.008
 9332TIP3    H227938   2.055   2.174   5.931
 9333TIP3   OH227939   1.427   5.788   4.730
 9333TIP3    H127940   1.520   5.799   4.710
 9333TIP3    H227941   1.425   5.719   4.796
 9334TIP3   OH227942   7.717   4.924   2.480
 9334TIP3    H127943   7.709   4.974   2.399
 9334TIP3    H227944   7.780   4.973   2.534
 9335TIP3   OH227945   2.322   6.711   2.868
 9335TIP3    H127946   2.331   6.679   2.958
 9335TIP3    H227947   2.338   6.633   2.814
 9336TIP3   OH227948   6.251   7.432   3.785
 9336TIP3    H127949   6.191   7.478   3.844
 9336TIP3    H227950   6.262   7.345   3.826
 9337TIP3   OH227951   6.832   7.371   1.996
 9337TIP3    H127952   6.778   7.391   1.919
 9337TIP3    H227953   6.909   7.427   1.986
 9338TIP3   OH227954   7.514   7.800   3.344
 9338TIP3    H127955   7.460   7.874   3.319
 9338TIP3    H227956   7.520   7.746   3.265
 9339TIP3   OH227957   0.523   2.545   4.140
 9339TIP3    H127958   0.433   2.544   4.175
 9339TIP3    H227959   0.575   2.499   4.206
 9340TIP3   OH227960   2.662   5.769   4.167
 9340TIP3    H127961   2.586   5.788   4.112
 9340TIP3    H227962   2.733   5.753   4.105
 9341TIP3   OH227963   1.657   4.237   2.556
 9341TIP3    H127964   1.669   4.330   2.536
 9341TIP3    H227965   1.576   4.213   2.511
 9342TIP3   OH227966   4.212   7.373   5.515
 9342TIP3    H127967   4.187   7.378   5.608
 9342TIP3    H227968   4.132   7.344   5.470
 9343TIP3   OH227969   1.659   7.380   2.456
 9343TIP3    H127970   1.667   7.375   2.361
 9343TIP3    H227971   1.741   7.420   2.485
 9344TIP3   OH227972   3.208   4.648   6.650
 9344TIP3    H127973   3.270   4.601   6.704
 9344TIP3    H227974   3.219   4.740   6.675
 9345TIP3   OH227975   6.939   7.424   4.555
 9345TIP3    H127976   7.012   7.382   4.509
 9345TIP3    H227977   6.962   7.517   4.558
 9346TIP3   OH227978   2.832   1.742   1.282
 9346TIP3    H127979   2.832   1.655   1.321
 9346TIP3    H227980   2.781   1.795   1.344
 9347TIP3   OH227981   7.372   0.013   3.295
 9347TIP3    H127982   7.414  -0.037   3.224
 9347TIP3    H227983   7.443   0.033   3.356
 9348TIP3   OH227984   6.239   7.092   3.651
 9348TIP3    H127985   6.230   7.129   3.563
 9348TIP3    H227986   6.290   7.012   3.638
 9349TIP3   OH227987   1.994   2.382   0.996
 9349TIP3    H127988   1.902   2.373   1.017
 9349TIP3    H227989   2.040   2.341   1.070
 9350TIP3   OH227990   0.254   3.689   0.496
 9350TIP3    H127991   0.199   3.716   0.423
 9350TIP3    H227992   0.317   3.628   0.457
 9351TIP3   OH227993   6.003   3.134   3.982
 9351TIP3    H127994   6.035   3.110   3.895
 9351TIP3    H227995   5.995   3.051   4.028
 9352TIP3   OH227996   5.613   1.341   2.363
 9352TIP3    H127997   5.586   1.431   2.346
 9352TIP3    H227998   5.608   1.298   2.278
 9353TIP3   OH227999   5.984   6.548   4.258
 9353TIP3    H128000   5.945   6.617   4.205
 9353TIP3    H228001   5.982   6.471   4.203
 9354TIP3   OH228002   5.762   0.936   4.723
 9354TIP3    H128003   5.673   0.922   4.691
 9354TIP3    H228004   5.808   0.974   4.649
 9355TIP3   OH228005   0.481   6.661   1.085
 9355TIP3    H128006   0.486   6.679   0.991
 9355TIP3    H228007   0.488   6.747   1.126
 9356TIP3   OH228008   0.507   3.233   5.837
 9356TIP3    H128009   0.463   3.249   5.920
 9356TIP3    H228010   0.568   3.162   5.856
 9357TIP3   OH228011   1.641   4.003   4.600
 9357TIP3    H128012   1.658   3.912   4.626
 9357TIP3    H228013   1.612   4.046   4.680
 9358TIP3   OH228014   6.920   1.571   6.572
 9358TIP3    H128015   6.894   1.577   6.480
 9358TIP3    H228016   6.842   1.596   6.621
 9359TIP3   OH228017   3.947   7.322   3.832
 9359TIP3    H128018   4.003   7.352   3.903
 9359TIP3    H228019   3.865   7.298   3.875
 9360TIP3   OH228020   6.432   6.504   2.339
 9360TIP3    H128021   6.341   6.490   2.313
 9360TIP3    H228022   6.481   6.497   2.257
 9361TIP3   OH228023   1.463   7.513   3.025
 9361TIP3    H128024   1.476   7.418   3.025
 9361TIP3    H228025   1.550   7.549   3.039
 9362TIP3   OH228026   3.791   1.843   3.146
 9362TIP3    H128027   3.697   1.835   3.131
 9362TIP3    H228028   3.809   1.937   3.143
 9363TIP3   OH228029   3.570   5.163   1.065
 9363TIP3    H128030   3.608   5.189   0.981
 9363TIP3    H228031   3.610   5.222   1.129
 9364TIP3   OH228032   8.179   6.907   4.741
 9364TIP3    H128033   8.202   6.836   4.800
 9364TIP3    H228034   8.234   6.894   4.664
 9365TIP3   OH228035   2.290   0.709   0.648
 9365TIP3    H128036   2.286   0.804   0.654
 9365TIP3    H228037   2.207   0.685   0.606
 9366TIP3   OH228038  -0.008   6.468   2.816
 9366TIP3    H128039   0.042   6.459   2.898
 9366TIP3    H228040   0.017   6.554   2.782
 9367TIP3   OH228041   4.662   5.118   2.757
 9367TIP3    H128042   4.656   5.208   2.724
 9367TIP3    H228043   4.588   5.073   2.715
 9368TIP3   OH228044   0.564   7.085   3.878
 9368TIP3    H128045   0.488   7.058   3.930
 9368TIP3    H228046   0.596   7.004   3.838
 9369TIP3   OH228047   6.871   0.336   0.712
 9369TIP3    H128048   6.853   0.430   0.710
 9369TIP3    H228049   6.852   0.306   0.623
 9370TIP3   OH228050   3.164   3.308   4.211
 9370TIP3    H128051   3.200   3.221   4.225
 9370TIP3    H228052   3.076   3.304   4.248
 9371TIP3   OH228053   5.291   5.403   5.408
 9371TIP3    H128054   5.279   5.324   5.460
 9371TIP3    H228055   5.347   5.459   5.462
 9372TIP3   OH228056   2.823   1.090   5.453
 9372TIP3    H128057   2.803   1.168   5.505
 9372TIP3    H228058   2.884   1.040   5.508
 9373TIP3   OH228059   1.826   6.647   3.858
 9373TIP3    H128060   1.906   6.614   3.899
 9373TIP3    H228061   1.764   6.574   3.864
 9374TIP3   OH228062   3.646   5.186   2.659
 9374TIP3    H128063   3.647   5.281   2.653
 9374TIP3    H228064   3.633   5.168   2.752
 9375TIP3   OH228065   6.965   4.364   1.269
 9375TIP3    H128066   6.941   4.457   1.278
 9375TIP3    H228067   6.970   4.332   1.359
 9376TIP3   OH228068   8.336   0.759   5.962
 9376TIP3    H128069   8.284   0.735   5.885
 9376TIP3    H228070   8.390   0.682   5.980
 9377TIP3   OH228071   4.871   3.942   5.200
 9377TIP3    H128072   4.815   4.005   5.154
 9377TIP3    H228073   4.957   3.954   5.160
 9378TIP3   OH228074   6.696   1.491   4.154
 9378TIP3    H128075   6.726   1.479   4.244
 9378TIP3    H228076   6.679   1.402   4.123
 9379TIP3   OH228077   4.971   5.471   2.667
 9379TIP3    H128078   4.947   5.562   2.682
 9379TIP3    H228079   4.966   5.460   2.572
 9380TIP3   OH228080   4.266   5.904   2.331
 9380TIP3    H128081   4.235   5.848   2.402
 9380TIP3    H228082   4.217   5.986   2.342
 9381TIP3   OH228083   2.248   2.713   6.214
 9381TIP3    H128084   2.187   2.784   6.232
 9381TIP3    H228085   2.201   2.655   6.153
 9382TIP3   OH228086   1.059   7.314   6.043
 9382TIP3    H128087   0.969   7.344   6.032
 9382TIP3    H228088   1.113   7.391   6.026
 9383TIP3   OH228089   8.305   0.400   4.162
 9383TIP3    H128090   8.313   0.411   4.256
 9383TIP3    H228091   8.395   0.385   4.132
 9384TIP3   OH228092   1.186   6.127   5.190
 9384TIP3    H128093   1.110   6.116   5.247
 9384TIP3    H228094   1.193   6.222   5.177
 9385TIP3   OH228095   2.051   0.706   5.743
 9385TIP3    H128096   2.096   0.790   5.755
 9385TIP3    H228097   2.074   0.679   5.654
 9386TIP3   OH228098   5.036   4.479   1.907
 9386TIP3    H128099   4.948   4.507   1.932
 9386TIP3    H228100   5.045   4.508   1.816
 9387TIP3   OH228101   4.191   0.791   5.082
 9387TIP3    H128102   4.155   0.851   5.147
 9387TIP3    H228103   4.270   0.836   5.050
 9388TIP3   OH228104   2.043   5.210   3.056
 9388TIP3    H128105   2.041   5.302   3.082
 9388TIP3    H228106   2.129   5.179   3.084
 9389TIP3   OH228107   0.103   0.852   4.669
 9389TIP3    H128108   0.126   0.880   4.581
 9389TIP3    H228109   0.016   0.812   4.659
 9390TIP3   OH228110   2.779   3.661   1.631
 9390TIP3    H128111   2.788   3.608   1.551
 9390TIP3    H228112   2.869   3.689   1.651
 9391TIP3   OH228113   7.013   3.627   1.410
 9391TIP3    H128114   7.060   3.552   1.372
 9391TIP3    H228115   7.083   3.686   1.439
 9392TIP3   OH228116   3.298   2.480   2.399
 9392TIP3    H128117   3.254   2.397   2.380
 9392TIP3    H228118   3.227   2.544   2.403
 9393TIP3   OH228119   0.424   4.674   0.502
 9393TIP3    H128120   0.508   4.663   0.459
 9393TIP3    H228121   0.361   4.681   0.431
 9394TIP3   OH228122   7.478   1.153   1.779
 9394TIP3    H128123   7.569   1.172   1.757
 9394TIP3    H228124   7.443   1.236   1.811
 9395TIP3   OH228125   2.975   3.251   4.380
 9395TIP3    H128126   2.926   3.288   4.453
 9395TIP3    H228127   3.023   3.178   4.419
 9396TIP3   OH228128   2.117   4.447   4.181
 9396TIP3    H128129   2.113   4.518   4.118
 9396TIP3    H228130   2.095   4.368   4.130
 9397TIP3   OH228131   5.832   5.292   6.832
 9397TIP3    H128132   5.928   5.286   6.832
 9397TIP3    H228133   5.803   5.205   6.859
 9398TIP3   OH228134   8.286   7.272   4.237
 9398TIP3    H128135   8.301   7.287   4.330
 9398TIP3    H228136   8.218   7.335   4.214
 9399TIP3   OH228137   5.255   0.828   1.383
 9399TIP3    H128138   5.336   0.793   1.348
 9399TIP3    H228139   5.190   0.760   1.365
 9400TIP3   OH228140   4.452   1.895   1.663
 9400TIP3    H128141   4.506   1.946   1.723
 9400TIP3    H228142   4.503   1.817   1.645
 9401TIP3   OH228143   8.291   1.340   0.077
 9401TIP3    H128144   8.380   1.373   0.069
 9401TIP3    H228145   8.286   1.268   0.015
 9402TIP3   OH228146   6.520   5.281   4.723
 9402TIP3    H128147   6.425   5.291   4.722
 9402TIP3    H228148   6.534   5.186   4.724
 9403TIP3   OH228149   3.050   1.751   3.116
 9403TIP3    H128150   2.979   1.690   3.136
 9403TIP3    H228151   3.061   1.745   3.021
 9404TIP3   OH228152   3.494   7.327   6.749
 9404TIP3    H128153   3.573   7.282   6.722
 9404TIP3    H228154   3.515   7.420   6.742
 9405TIP3   OH228155   6.811   1.947   0.578
 9405TIP3    H128156   6.810   1.860   0.538
 9405TIP3    H228157   6.860   1.935   0.659
 9406TIP3   OH228158   0.391   2.692   3.803
 9406TIP3    H128159   0.351   2.628   3.745
 9406TIP3    H228160   0.483   2.696   3.775
 9407TIP3   OH228161   4.721   6.237   6.834
 9407TIP3    H128162   4.746   6.266   6.922
 9407TIP3    H228163   4.713   6.318   6.783
 9408TIP3   OH228164   0.148   1.055   3.936
 9408TIP3    H128165   0.090   1.015   3.872
 9408TIP3    H228166   0.222   0.995   3.943
 9409TIP3   OH228167   4.583   3.983   2.265
 9409TIP3    H128168   4.648   3.955   2.330
 9409TIP3    H228169   4.621   3.955   2.181
 9410TIP3   OH228170   6.702   5.934   0.423
 9410TIP3    H128171   6.741   6.019   0.405
 9410TIP3    H228172   6.734   5.910   0.510
 9411TIP3   OH228173   1.992   1.244   0.548
 9411TIP3    H128174   1.971   1.313   0.484
 9411TIP3    H228175   1.952   1.165   0.512
 9412TIP3   OH228176   5.975   2.805   1.664
 9412TIP3    H128177   5.895   2.778   1.708
 9412TIP3    H228178   6.031   2.841   1.733
 9413TIP3   OH228179   6.556   7.585   3.923
 9413TIP3    H128180   6.588   7.523   3.857
 9413TIP3    H228181   6.598   7.668   3.901
 9414TIP3   OH228182   6.939   6.257   6.109
 9414TIP3    H128183   6.981   6.238   6.193
 9414TIP3    H228184   6.970   6.188   6.051
 9415TIP3   OH228185   0.891   4.031   5.602
 9415TIP3    H128186   0.904   3.990   5.516
 9415TIP3    H228187   0.974   4.075   5.621
 9416TIP3   OH228188   6.357   5.376   0.068
 9416TIP3    H128189   6.403   5.294   0.049
 9416TIP3    H228190   6.337   5.371   0.162
 9417TIP3   OH228191   2.816   1.056   2.760
 9417TIP3    H128192   2.799   1.149   2.778
 9417TIP3    H228193   2.902   1.055   2.719
 9418TIP3   OH228194   1.752   3.620   2.361
 9418TIP3    H128195   1.675   3.571   2.391
 9418TIP3    H228196   1.717   3.701   2.325
 9419TIP3   OH228197   6.201   3.210   4.162
 9419TIP3    H128198   6.154   3.150   4.103
 9419TIP3    H228199   6.169   3.297   4.139
 9420TIP3   OH228200   7.771   2.139   5.450
 9420TIP3    H128201   7.844   2.189   5.485
 9420TIP3    H228202   7.749   2.185   5.368
 9421TIP3   OH228203   0.141   0.412   2.448
 9421TIP3    H128204   0.157   0.400   2.542
 9421TIP3    H228205   0.226   0.435   2.412
 9422TIP3   OH228206   3.094   2.344   6.551
 9422TIP3    H128207   3.164   2.315   6.610
 9422TIP3    H228208   3.060   2.263   6.514
 9423TIP3   OH228209   6.869   4.393   5.704
 9423TIP3    H128210   6.931   4.451   5.749
 9423TIP3    H228211   6.881   4.413   5.611
 9424TIP3   OH228212   7.893   5.276   3.640
 9424TIP3    H128213   7.934   5.190   3.645
 9424TIP3    H228214   7.822   5.266   3.576
 9425TIP3   OH228215   3.239   6.047   3.657
 9425TIP3    H128216   3.296   6.071   3.585
 9425TIP3    H228217   3.299   6.017   3.726
 9426TIP3   OH228218   3.893   3.577   6.649
 9426TIP3    H128219   3.828   3.647   6.657
 9426TIP3    H228220   3.864   3.509   6.710
 9427TIP3   OH228221   5.085   6.073   4.666
 9427TIP3    H128222   5.068   6.146   4.725
 9427TIP3    H228223   5.051   5.996   4.713
 9428TIP3   OH228224   8.269   7.691   3.586
 9428TIP3    H128225   8.245   7.636   3.511
 9428TIP3    H228226   8.276   7.630   3.659
 9429TIP3   OH228227   0.810   5.122   6.009
 9429TIP3    H128228   0.809   5.112   6.104
 9429TIP3    H228229   0.785   5.036   5.975
 9430TIP3   OH228230   1.826   6.451   2.265
 9430TIP3    H128231   1.877   6.387   2.215
 9430TIP3    H228232   1.790   6.510   2.199
 9431TIP3   OH228233   8.174   7.030   4.228
 9431TIP3    H128234   8.167   7.014   4.134
 9431TIP3    H228235   8.235   7.104   4.235
 9432TIP3   OH228236   7.710   3.864   4.051
 9432TIP3    H128237   7.646   3.855   4.122
 9432TIP3    H228238   7.792   3.884   4.096
 9433TIP3   OH228239   2.774   7.720   5.685
 9433TIP3    H128240   2.726   7.643   5.656
 9433TIP3    H228241   2.712   7.792   5.676
 9434TIP3   OH228242   6.043   6.296   3.771
 9434TIP3    H128243   6.093   6.286   3.852
 9434TIP3    H228244   5.983   6.222   3.771
 9435TIP3   OH228245   8.176   3.690   5.152
 9435TIP3    H128246   8.242   3.624   5.177
 9435TIP3    H228247   8.103   3.675   5.212
 9436TIP3   OH228248   5.383   3.525   2.565
 9436TIP3    H128249   5.387   3.476   2.648
 9436TIP3    H228250   5.474   3.547   2.546
 9437TIP3   OH228251   8.053   7.127   4.883
 9437TIP3    H128252   8.097   7.058   4.834
 9437TIP3    H228253   7.961   7.101   4.884
 9438TIP3   OH228254   7.903   4.546   6.135
 9438TIP3    H128255   7.960   4.501   6.197
 9438TIP3    H228256   7.880   4.479   6.071
 9439TIP3   OH228257   6.136   2.303   3.221
 9439TIP3    H128258   6.144   2.393   3.190
 9439TIP3    H228259   6.185   2.300   3.302
 9440TIP3   OH228260   0.328   4.964   5.042
 9440TIP3    H128261   0.313   4.913   4.963
 9440TIP3    H228262   0.249   5.017   5.052
 9441TIP3   OH228263   0.608   5.568   2.304
 9441TIP3    H128264   0.531   5.582   2.250
 9441TIP3    H228265   0.676   5.542   2.242
 9442TIP3   OH228266   4.281   0.970   6.005
 9442TIP3    H128267   4.191   0.939   5.995
 9442TIP3    H228268   4.272   1.064   6.023
 9443TIP3   OH228269   4.151   2.627   5.876
 9443TIP3    H128270   4.147   2.721   5.856
 9443TIP3    H228271   4.205   2.590   5.806
 9444TIP3   OH228272   3.726   5.370   0.138
 9444TIP3    H128273   3.775   5.451   0.126
 9444TIP3    H228274   3.650   5.379   0.080
 9445TIP3   OH228275   5.652   0.922   4.981
 9445TIP3    H128276   5.557   0.921   4.965
 9445TIP3    H228277   5.691   0.915   4.894
 9446TIP3   OH228278   3.248  -0.009   3.632
 9446TIP3    H128279   3.228  -0.021   3.540
 9446TIP3    H228280   3.181   0.053   3.663
 9447TIP3   OH228281   3.007   2.911   0.420
 9447TIP3    H128282   3.028   2.877   0.507
 9447TIP3    H228283   2.912   2.922   0.420
 9448TIP3   OH228284   3.936   4.514   0.357
 9448TIP3    H128285   3.848   4.551   0.359
 9448TIP3    H228286   3.983   4.559   0.427
 9449TIP3   OH228287   3.486   7.111   2.247
 9449TIP3    H128288   3.524   7.094   2.333
 9449TIP3    H228289   3.442   7.195   2.257
 9450TIP3   OH228290   0.947   5.420   4.073
 9450TIP3    H128291   0.974   5.400   4.163
 9450TIP3    H228292   0.953   5.516   4.068
 9451TIP3   OH228293   4.029   7.673   5.692
 9451TIP3    H128294   4.123   7.661   5.704
 9451TIP3    H228295   4.014   7.651   5.600
 9452TIP3   OH228296   5.813   7.680   2.442
 9452TIP3    H128297   5.767   7.707   2.362
 9452TIP3    H228298   5.809   7.758   2.498
 9453TIP3   OH228299   4.931   4.977   2.700
 9453TIP3    H128300   4.991   4.939   2.636
 9453TIP3    H228301   4.982   5.047   2.742
 9454TIP3   OH228302   4.871   0.659   6.207
 9454TIP3    H128303   4.831   0.704   6.133
 9454TIP3    H228304   4.811   0.588   6.227
 9455TIP3   OH228305   0.845   5.335   3.769
 9455TIP3    H128306   0.756   5.348   3.801
 9455TIP3    H228307   0.868   5.419   3.728
 9456TIP3   OH228308   6.418   2.663   5.024
 9456TIP3    H128309   6.480   2.691   4.957
 9456TIP3    H228310   6.332   2.689   4.988
 9457TIP3   OH228311   0.291   4.228   0.764
 9457TIP3    H128312   0.312   4.255   0.853
 9457TIP3    H228313   0.369   4.251   0.713
 9458TIP3   OH228314   6.535   7.736   0.582
 9458TIP3    H128315   6.572   7.710   0.497
 9458TIP3    H228316   6.534   7.831   0.579
 9459TIP3   OH228317   8.152   2.758   4.963
 9459TIP3    H128318   8.121   2.833   5.014
 9459TIP3    H228319   8.244   2.750   4.985
 9460TIP3   OH228320   2.047   4.215   1.276
 9460TIP3    H128321   1.967   4.265   1.296
 9460TIP3    H228322   2.069   4.172   1.359
 9461TIP3   OH228323   0.810   6.854   6.172
 9461TIP3    H128324   0.750   6.867   6.099
 9461TIP3    H228325   0.862   6.934   6.174
 9462TIP3   OH228326   6.008   5.307   4.298
 9462TIP3    H128327   6.082   5.359   4.331
 9462TIP3    H228328   5.954   5.290   4.376
 9463TIP3   OH228329   4.997   6.183   5.701
 9463TIP3    H128330   5.055   6.124   5.750
 9463TIP3    H228331   4.909   6.163   5.735
 9464TIP3   OH228332   2.466   0.930   0.869
 9464TIP3    H128333   2.471   0.879   0.949
 9464TIP3    H228334   2.474   1.021   0.898
 9465TIP3   OH228335   6.090   6.557   3.973
 9465TIP3    H128336   6.096   6.621   3.902
 9465TIP3    H228337   6.170   6.505   3.964
 9466TIP3   OH228338   0.173   4.172   3.187
 9466TIP3    H128339   0.085   4.172   3.224
 9466TIP3    H228340   0.159   4.161   3.093
 9467TIP3   OH228341   4.630   4.819   0.544
 9467TIP3    H128342   4.716   4.816   0.503
 9467TIP3    H228343   4.569   4.834   0.471
 9468TIP3   OH228344   0.870   5.594   0.951
 9468TIP3    H128345   0.917   5.604   0.867
 9468TIP3    H228346   0.893   5.672   1.000
 9469TIP3   OH228347   1.000   7.799   1.473
 9469TIP3    H128348   1.025   7.824   1.562
 9469TIP3    H228349   0.974   7.881   1.431
 9470TIP3   OH228350   3.046   4.763   1.574
 9470TIP3    H128351   3.086   4.676   1.577
 9470TIP3    H228352   2.988   4.760   1.498
 9471TIP3   OH228353   2.444   4.350   0.100
 9471TIP3    H128354   2.420   4.321   0.012
 9471TIP3    H228355   2.376   4.413   0.123
 9472TIP3   OH228356   7.325   7.536   1.280
 9472TIP3    H128357   7.280   7.606   1.232
 9472TIP3    H228358   7.399   7.580   1.322
 9473TIP3   OH228359   4.832   2.597   0.738
 9473TIP3    H128360   4.890   2.633   0.671
 9473TIP3    H228361   4.787   2.524   0.694
 9474TIP3   OH228362   7.654   2.676   3.881
 9474TIP3    H128363   7.668   2.624   3.961
 9474TIP3    H228364   7.682   2.618   3.810
 9475TIP3   OH228365   7.524   6.744   5.508
 9475TIP3    H128366   7.457   6.800   5.546
 9475TIP3    H228367   7.574   6.711   5.583
 9476TIP3   OH228368   2.802   5.109   6.769
 9476TIP3    H128369   2.881   5.095   6.716
 9476TIP3    H228370   2.810   5.047   6.841
 9477TIP3   OH228371   5.798   0.697   4.230
 9477TIP3    H128372   5.754   0.616   4.256
 9477TIP3    H228373   5.881   0.667   4.191
 9478TIP3   OH228374   2.029   2.964   0.918
 9478TIP3    H128375   1.951   2.994   0.872
 9478TIP3    H228376   2.036   3.021   0.994
 9479TIP3   OH228377   1.631   0.024   0.493
 9479TIP3    H128378   1.610  -0.021   0.411
 9479TIP3    H228379   1.724   0.007   0.506
 9480TIP3   OH228380   4.440   0.727   2.060
 9480TIP3    H128381   4.389   0.745   1.981
 9480TIP3    H228382   4.383   0.674   2.114
 9481TIP3   OH228383   1.160   4.682   1.321
 9481TIP3    H128384   1.158   4.610   1.384
 9481TIP3    H228385   1.069   4.695   1.296
 9482TIP3   OH228386   3.356   5.072   5.759
 9482TIP3    H128387   3.441   5.046   5.724
 9482TIP3    H228388   3.318   5.127   5.690
 9483TIP3   OH228389   1.860   4.539   3.450
 9483TIP3    H128390   1.906   4.529   3.534
 9483TIP3    H228391   1.901   4.475   3.392
 9484TIP3   OH228392   6.046   5.391   0.395
 9484TIP3    H128393   6.050   5.402   0.490
 9484TIP3    H228394   6.025   5.479   0.363
 9485TIP3   OH228395   1.812   5.745   3.467
 9485TIP3    H128396   1.831   5.829   3.508
 9485TIP3    H228397   1.744   5.706   3.523
 9486TIP3   OH228398   2.041   3.620   3.041
 9486TIP3    H128399   2.107   3.552   3.025
 9486TIP3    H228400   2.093   3.700   3.055
 9487TIP3   OH228401   4.528   0.922   1.702
 9487TIP3    H128402   4.448   0.913   1.754
 9487TIP3    H228403   4.598   0.893   1.761
 9488TIP3   OH228404   6.854   4.943   1.165
 9488TIP3    H128405   6.883   4.945   1.074
 9488TIP3    H228406   6.902   5.014   1.207
 9489TIP3   OH228407   2.072   6.920   3.330
 9489TIP3    H128408   1.993   6.869   3.345
 9489TIP3    H228409   2.125   6.905   3.409
 9490TIP3   OH228410   6.524   5.721   5.482
 9490TIP3    H128411   6.572   5.652   5.527
 9490TIP3    H228412   6.586   5.757   5.419
 9491TIP3   OH228413   4.013   5.102   2.653
 9491TIP3    H128414   3.948   5.036   2.678
 9491TIP3    H228415   4.016   5.162   2.728
 9492TIP3   OH228416   7.697   0.135   1.158
 9492TIP3    H128417   7.731   0.045   1.157
 9492TIP3    H228418   7.705   0.163   1.249
 9493TIP3   OH228419   5.914   7.672   4.265
 9493TIP3    H128420   5.931   7.736   4.197
 9493TIP3    H228421   5.974   7.599   4.245
 9494TIP3   OH228422   3.855   3.492   6.027
 9494TIP3    H128423   3.775   3.540   6.045
 9494TIP3    H228424   3.890   3.470   6.114
 9495TIP3   OH228425   2.330   4.069   1.273
 9495TIP3    H128426   2.337   4.091   1.180
 9495TIP3    H228427   2.243   4.030   1.282
 9496TIP3   OH228428   4.186   4.567   5.254
 9496TIP3    H128429   4.270   4.536   5.220
 9496TIP3    H228430   4.164   4.642   5.200
 9497TIP3   OH228431   6.851   7.498   5.695
 9497TIP3    H128432   6.865   7.486   5.602
 9497TIP3    H228433   6.933   7.534   5.728
 9498TIP3   OH228434   1.778   1.417   0.809
 9498TIP3    H128435   1.777   1.513   0.806
 9498TIP3    H228436   1.686   1.393   0.821
 9499TIP3   OH228437   3.448   3.744   0.989
 9499TIP3    H128438   3.469   3.826   0.946
 9499TIP3    H228439   3.454   3.763   1.083
 9500TIP3   OH228440   5.148   1.769   5.524
 9500TIP3    H128441   5.098   1.762   5.605
 9500TIP3    H228442   5.167   1.862   5.516
 9501TIP3   OH228443   3.198   3.964   2.669
 9501TIP3    H128444   3.207   3.871   2.694
 9501TIP3    H228445   3.244   3.971   2.586
 9502TIP3   OH228446   0.207   1.023   0.298
 9502TIP3    H128447   0.250   0.945   0.262
 9502TIP3    H228448   0.128   0.989   0.341
 9503TIP3   OH228449   0.714   0.782   3.019
 9503TIP3    H128450   0.782   0.841   2.986
 9503TIP3    H228451   0.714   0.797   3.114
 9504TIP3   OH228452   2.318   5.360   5.996
 9504TIP3    H128453   2.325   5.322   6.084
 9504TIP3    H228454   2.273   5.293   5.944
 9505TIP3   OH228455   8.258   1.230   5.403
 9505TIP3    H128456   8.327   1.189   5.352
 9505TIP3    H228457   8.185   1.168   5.399
 9506TIP3   OH228458   2.790   4.542   1.021
 9506TIP3    H128459   2.832   4.616   1.065
 9506TIP3    H228460   2.714   4.522   1.076
 9507TIP3   OH228461   7.964   6.883   6.071
 9507TIP3    H128462   8.040   6.879   6.130
 9507TIP3    H228463   8.002   6.876   5.983
 9508TIP3   OH228464   4.119   7.518   0.838
 9508TIP3    H128465   4.189   7.514   0.903
 9508TIP3    H228466   4.066   7.440   0.856
 9509TIP3   OH228467   7.432   3.233   5.756
 9509TIP3    H128468   7.343   3.234   5.790
 9509TIP3    H228469   7.439   3.314   5.705
 9510TIP3   OH228470   5.870   2.193   4.802
 9510TIP3    H128471   5.784   2.186   4.761
 9510TIP3    H228472   5.930   2.212   4.729
 9511TIP3   OH228473   0.042   5.076   0.702
 9511TIP3    H128474   0.043   4.999   0.758
 9511TIP3    H228475   0.005   5.046   0.619
 9512TIP3   OH228476   4.323   2.941   2.896
 9512TIP3    H128477   4.237   2.974   2.871
 9512TIP3    H228478   4.313   2.845   2.894
 9513TIP3   OH228479   7.025   3.955   6.652
 9513TIP3    H128480   7.078   3.899   6.595
 9513TIP3    H228481   6.946   3.973   6.601
 9514TIP3   OH228482   6.765   5.940   0.712
 9514TIP3    H128483   6.715   6.020   0.730
 9514TIP3    H228484   6.842   5.946   0.769
 9515TIP3   OH228485   3.745   3.218   1.494
 9515TIP3    H128486   3.755   3.312   1.477
 9515TIP3    H228487   3.826   3.179   1.462
 9516TIP3   OH228488   5.647   7.044   1.099
 9516TIP3    H128489   5.651   7.078   1.188
 9516TIP3    H228490   5.627   7.120   1.044
 9517TIP3   OH228491   6.419   4.185   2.736
 9517TIP3    H128492   6.450   4.173   2.825
 9517TIP3    H228493   6.453   4.271   2.710
 9518TIP3   OH228494   4.200   6.143   5.508
 9518TIP3    H128495   4.122   6.191   5.535
 9518TIP3    H228496   4.186   6.054   5.540
 9519TIP3   OH228497   5.964   4.826   1.434
 9519TIP3    H128498   5.935   4.735   1.444
 9519TIP3    H228499   6.032   4.837   1.500
 9520TIP3   OH228500   1.827   3.171   6.065
 9520TIP3    H128501   1.876   3.193   6.144
 9520TIP3    H228502   1.888   3.118   6.013
 9521TIP3   OH228503   7.302   5.075   6.692
 9521TIP3    H128504   7.314   5.152   6.747
 9521TIP3    H228505   7.250   5.015   6.746
 9522TIP3   OH228506   5.571   1.213   5.353
 9522TIP3    H128507   5.596   1.218   5.445
 9522TIP3    H228508   5.518   1.291   5.339
 9523TIP3   OH228509   1.190   2.057   3.446
 9523TIP3    H128510   1.243   2.118   3.497
 9523TIP3    H228511   1.227   2.061   3.358
 9524TIP3   OH228512   6.725   0.393   0.468
 9524TIP3    H128513   6.787   0.417   0.399
 9524TIP3    H228514   6.639   0.413   0.430
 9525TIP3   OH228515   1.003   5.196   5.633
 9525TIP3    H128516   1.097   5.189   5.651
 9525TIP3    H228517   0.991   5.144   5.553
 9526TIP3   OH228518   4.197   7.664   1.801
 9526TIP3    H128519   4.208   7.717   1.880
 9526TIP3    H228520   4.125   7.604   1.822
 9527TIP3   OH228521   2.263   0.519   0.394
 9527TIP3    H128522   2.337   0.557   0.442
 9527TIP3    H228523   2.213   0.473   0.461
 9528TIP3   OH228524   1.579   7.105   5.325
 9528TIP3    H128525   1.494   7.149   5.321
 9528TIP3    H228526   1.569   7.029   5.268
 9529TIP3   OH228527   0.120   6.157   2.708
 9529TIP3    H128528   0.031   6.183   2.682
 9529TIP3    H228529   0.171   6.238   2.702
 9530TIP3   OH228530   4.353   1.059   6.556
 9530TIP3    H128531   4.369   0.969   6.585
 9530TIP3    H228532   4.419   1.111   6.601
 9531TIP3   OH228533   3.954   7.089   4.143
 9531TIP3    H128534   4.025   7.026   4.134
 9531TIP3    H228535   3.998   7.173   4.157
 9532TIP3   OH228536   7.829   0.895   5.537
 9532TIP3    H128537   7.911   0.866   5.497
 9532TIP3    H228538   7.853   0.915   5.627
 9533TIP3   OH228539   4.404   3.090   5.649
 9533TIP3    H128540   4.459   3.013   5.642
 9533TIP3    H228541   4.454   3.151   5.703
 9534TIP3   OH228542   6.582   3.949   0.360
 9534TIP3    H128543   6.566   4.008   0.287
 9534TIP3    H228544   6.635   3.878   0.323
 9535TIP3   OH228545   0.728   0.373   0.472
 9535TIP3    H128546   0.701   0.282   0.487
 9535TIP3    H228547   0.711   0.418   0.555
 9536TIP3   OH228548   7.276   5.908   4.718
 9536TIP3    H128549   7.307   5.822   4.746
 9536TIP3    H228550   7.341   5.969   4.753
 9537TIP3   OH228551   3.187   7.854   6.242
 9537TIP3    H128552   3.181   7.937   6.195
 9537TIP3    H228553   3.266   7.862   6.295
 9538TIP3   OH228554   4.464   7.850   6.584
 9538TIP3    H128555   4.530   7.829   6.517
 9538TIP3    H228556   4.411   7.918   6.544
 9539TIP3   OH228557   5.245   3.644   2.321
 9539TIP3    H128558   5.300   3.613   2.393
 9539TIP3    H228559   5.177   3.577   2.311
 9540TIP3   OH228560   2.052   6.503   3.962
 9540TIP3    H128561   2.078   6.424   3.914
 9540TIP3    H228562   2.135   6.542   3.990
 9541TIP3   OH228563   1.597   1.561   3.624
 9541TIP3    H128564   1.675   1.600   3.661
 9541TIP3    H228565   1.629   1.485   3.575
 9542TIP3   OH228566   6.478   4.356   3.953
 9542TIP3    H128567   6.457   4.430   4.009
 9542TIP3    H228568   6.564   4.375   3.917
 9543TIP3   OH228569   6.434   0.518  -0.011
 9543TIP3    H128570   6.385   0.444  -0.048
 9543TIP3    H228571   6.517   0.480   0.018
 9544TIP3   OH228572   4.003   2.878   4.921
 9544TIP3    H128573   4.046   2.795   4.900
 9544TIP3    H228574   4.006   2.884   5.017
 9545TIP3   OH228575   5.640   6.295   2.850
 9545TIP3    H128576   5.702   6.251   2.908
 9545TIP3    H228577   5.668   6.269   2.762
 9546TIP3   OH228578   2.974   0.782   3.681
 9546TIP3    H128579   3.054   0.829   3.658
 9546TIP3    H228580   3.006   0.707   3.733
 9547TIP3   OH228581   7.051   7.371   4.170
 9547TIP3    H128582   7.061   7.348   4.078
 9547TIP3    H228583   7.140   7.380   4.202
 9548TIP3   OH228584   2.309   7.075   4.255
 9548TIP3    H128585   2.320   7.101   4.347
 9548TIP3    H228586   2.257   6.995   4.259
 9549TIP3   OH228587   0.586   1.153   2.599
 9549TIP3    H128588   0.552   1.121   2.682
 9549TIP3    H228589   0.555   1.244   2.593
 9550TIP3   OH228590   7.203   4.834   6.840
 9550TIP3    H128591   7.140   4.898   6.874
 9550TIP3    H228592   7.152   4.753   6.833
 9551TIP3   OH228593   0.706   0.900   2.715
 9551TIP3    H128594   0.640   0.851   2.665
 9551TIP3    H228595   0.660   0.930   2.793
 9552TIP3   OH228596   6.975   5.538   2.207
 9552TIP3    H128597   6.988   5.490   2.288
 9552TIP3    H228598   6.949   5.472   2.143
 9553TIP3   OH228599   3.184   7.332   2.917
 9553TIP3    H128600   3.165   7.335   3.010
 9553TIP3    H228601   3.265   7.382   2.907
 9554TIP3   OH228602   2.912   1.802   6.514
 9554TIP3    H128603   3.000   1.809   6.552
 9554TIP3    H228604   2.870   1.731   6.563
 9555TIP3   OH228605   7.933   0.022   6.072
 9555TIP3    H128606   7.966   0.105   6.107
 9555TIP3    H228607   7.953   0.025   5.979
 9556TIP3   OH228608   2.616   0.298   5.566
 9556TIP3    H128609   2.578   0.385   5.551
 9556TIP3    H228610   2.541   0.241   5.581
 9557TIP3   OH228611   6.672   6.728   5.837
 9557TIP3    H128612   6.661   6.727   5.932
 9557TIP3    H228613   6.693   6.819   5.815
 9558TIP3   OH228614   3.896   4.993   5.325
 9558TIP3    H128615   3.937   5.078   5.338
 9558TIP3    H228616   3.967   4.930   5.338
 9559TIP3   OH228617   4.222   5.225   0.568
 9559TIP3    H128618   4.301   5.276   0.552
 9559TIP3    H228619   4.208   5.177   0.486
 9560TIP3   OH228620   7.315   5.050   4.628
 9560TIP3    H128621   7.380   4.999   4.675
 9560TIP3    H228622   7.253   4.986   4.594
 9561TIP3   OH228623   2.289   6.323   5.353
 9561TIP3    H128624   2.318   6.291   5.267
 9561TIP3    H228625   2.303   6.249   5.412
 9562TIP3   OH228626   2.441   2.321   2.687
 9562TIP3    H128627   2.407   2.370   2.612
 9562TIP3    H228628   2.501   2.257   2.649
 9563TIP3   OH228629   0.867   1.326   3.509
 9563TIP3    H128630   0.840   1.413   3.480
 9563TIP3    H228631   0.953   1.339   3.548
 9564TIP3   OH228632   0.450   3.791   6.129
 9564TIP3    H128633   0.519   3.767   6.191
 9564TIP3    H228634   0.493   3.791   6.044
 9565TIP3   OH228635   0.827   0.760   2.065
 9565TIP3    H128636   0.826   0.813   1.985
 9565TIP3    H228637   0.920   0.749   2.085
 9566TIP3   OH228638   1.108   3.803   0.065
 9566TIP3    H128639   1.033   3.778   0.119
 9566TIP3    H228640   1.172   3.838   0.127
 9567TIP3   OH228641   1.202   5.356   2.759
 9567TIP3    H128642   1.187   5.387   2.848
 9567TIP3    H228643   1.132   5.396   2.707
 9568TIP3   OH228644   4.515   5.574   0.796
 9568TIP3    H128645   4.527   5.515   0.871
 9568TIP3    H228646   4.589   5.634   0.800
 9569TIP3   OH228647   1.306   1.524   0.650
 9569TIP3    H128648   1.240   1.567   0.596
 9569TIP3    H228649   1.389   1.542   0.607
 9570TIP3   OH228650   6.885   5.037   4.925
 9570TIP3    H128651   6.911   5.115   4.876
 9570TIP3    H228652   6.790   5.040   4.928
 9571TIP3   OH228653   4.837   6.680   4.749
 9571TIP3    H128654   4.802   6.749   4.805
 9571TIP3    H228655   4.914   6.719   4.708
 9572TIP3   OH228656   4.888   5.322   5.300
 9572TIP3    H128657   4.888   5.245   5.244
 9572TIP3    H228658   4.895   5.287   5.389
 9573TIP3   OH228659   6.589   1.317   0.397
 9573TIP3    H128660   6.502   1.356   0.384
 9573TIP3    H228661   6.615   1.287   0.309
 9574TIP3   OH228662   0.833   2.678   4.944
 9574TIP3    H128663   0.920   2.671   4.904
 9574TIP3    H228664   0.790   2.747   4.894
 9575TIP3   OH228665   3.953   5.370   4.743
 9575TIP3    H128666   3.972   5.437   4.678
 9575TIP3    H228667   3.974   5.287   4.700
 9576TIP3   OH228668   6.411   3.814   1.826
 9576TIP3    H128669   6.385   3.889   1.880
 9576TIP3    H228670   6.498   3.838   1.792
 9577TIP3   OH228671   3.489   4.058   5.760
 9577TIP3    H128672   3.549   4.102   5.700
 9577TIP3    H228673   3.536   3.978   5.785
 9578TIP3   OH228674   0.573   7.300   6.793
 9578TIP3    H128675   0.582   7.367   6.861
 9578TIP3    H228676   0.486   7.315   6.757
 9579TIP3   OH228677   2.519   3.194   0.718
 9579TIP3    H128678   2.499   3.104   0.745
 9579TIP3    H228679   2.608   3.209   0.749
 9580TIP3   OH228680   1.379   3.702   5.751
 9580TIP3    H128681   1.336   3.691   5.836
 9580TIP3    H228682   1.315   3.751   5.698
 9581TIP3   OH228683   1.825   0.536   5.166
 9581TIP3    H128684   1.838   0.441   5.158
 9581TIP3    H228685   1.801   0.548   5.258
 9582TIP3   OH228686   0.075   0.717   2.808
 9582TIP3    H128687  -0.006   0.722   2.758
 9582TIP3    H228688   0.138   0.767   2.756
 9583TIP3   OH228689   3.085   3.301   5.928
 9583TIP3    H128690   3.081   3.391   5.897
 9583TIP3    H228691   3.043   3.303   6.014
 9584TIP3   OH228692   0.058   6.870   4.178
 9584TIP3    H128693  -0.018   6.928   4.183
 9584TIP3    H228694   0.108   6.902   4.103
 9585TIP3   OH228695   1.993   5.923   6.746
 9585TIP3    H128696   1.912   5.936   6.796
 9585TIP3    H228697   1.971   5.950   6.657
 9586TIP3   OH228698   6.402   5.566   1.291
 9586TIP3    H128699   6.369   5.644   1.337
 9586TIP3    H228700   6.492   5.557   1.321
 9587TIP3   OH228701   2.933   3.233   6.746
 9587TIP3    H128702   2.899   3.194   6.666
 9587TIP3    H228703   2.857   3.274   6.787
 9588TIP3   OH228704   6.760   4.314   5.089
 9588TIP3    H128705   6.805   4.377   5.146
 9588TIP3    H228706   6.714   4.256   5.150
 9589TIP3   OH228707   2.408   7.167   1.082
 9589TIP3    H128708   2.452   7.122   1.009
 9589TIP3    H228709   2.326   7.200   1.044
 9590TIP3   OH228710   1.395   1.830   1.382
 9590TIP3    H128711   1.379   1.753   1.437
 9590TIP3    H228712   1.476   1.809   1.334
 9591TIP3   OH228713   4.882   0.707   2.647
 9591TIP3    H128714   4.973   0.689   2.621
 9591TIP3    H228715   4.847   0.621   2.672
 9592TIP3   OH228716   3.214   3.780   5.912
 9592TIP3    H128717   3.244   3.751   5.825
 9592TIP3    H228718   3.271   3.735   5.974
 9593TIP3   OH228719   6.310   3.883   4.634
 9593TIP3    H128720   6.269   3.914   4.714
 9593TIP3    H228721   6.246   3.822   4.596
 9594TIP3   OH228722   6.043   2.007   4.137
 9594TIP3    H128723   5.947   2.001   4.135
 9594TIP3    H228724   6.071   1.978   4.050
 9595TIP3   OH228725   7.160   3.815   0.130
 9595TIP3    H128726   7.228   3.877   0.101
 9595TIP3    H228727   7.161   3.822   0.225
 9596TIP3   OH228728   1.377   3.008   0.028
 9596TIP3    H128729   1.449   3.071   0.020
 9596TIP3    H228730   1.317   3.031  -0.043
 9597TIP3   OH228731   3.484   0.066   1.294
 9597TIP3    H128732   3.424   0.061   1.369
 9597TIP3    H228733   3.439   0.019   1.224
 9598TIP3   OH228734   2.386   2.107   0.275
 9598TIP3    H128735   2.324   2.135   0.342
 9598TIP3    H228736   2.331   2.084   0.200
 9599TIP3   OH228737   0.131   2.096   6.170
 9599TIP3    H128738   0.138   2.141   6.086
 9599TIP3    H228739   0.196   2.140   6.226
 9600TIP3   OH228740   6.234   7.476   3.536
 9600TIP3    H128741   6.247   7.384   3.516
 9600TIP3    H228742   6.217   7.479   3.630
 9601TIP3   OH228743   3.839   1.185   2.638
 9601TIP3    H128744   3.906   1.131   2.681
 9601TIP3    H228745   3.756   1.152   2.673
 9602TIP3   OH228746   4.453   3.535   5.548
 9602TIP3    H128747   4.369   3.504   5.515
 9602TIP3    H228748   4.431   3.589   5.624
 9603TIP3   OH228749   2.117   4.083   1.040
 9603TIP3    H128750   2.103   4.151   1.106
 9603TIP3    H228751   2.121   4.002   1.091
 9604TIP3   OH228752   0.510   6.095   4.546
 9604TIP3    H128753   0.577   6.155   4.577
 9604TIP3    H228754   0.516   6.099   4.450
 9605TIP3   OH228755   7.852   5.459   2.519
 9605TIP3    H128756   7.804   5.378   2.498
 9605TIP3    H228757   7.804   5.497   2.593
 9606TIP3   OH228758   3.504   6.278   2.519
 9606TIP3    H128759   3.555   6.241   2.447
 9606TIP3    H228760   3.435   6.328   2.475
 9607TIP3   OH228761   4.887   2.948   4.978
 9607TIP3    H128762   4.843   2.863   4.969
 9607TIP3    H228763   4.981   2.926   4.979
 9608TIP3   OH228764   4.389   5.843   6.126
 9608TIP3    H128765   4.308   5.888   6.150
 9608TIP3    H228766   4.458   5.905   6.149
 9609TIP3   OH228767   6.121   0.995   2.571
 9609TIP3    H128768   6.173   0.920   2.542
 9609TIP3    H228769   6.180   1.070   2.563
 9610TIP3   OH228770   3.346   4.043   6.461
 9610TIP3    H128771   3.346   4.034   6.557
 9610TIP3    H228772   3.342   3.953   6.429
 9611TIP3   OH228773   5.741   7.385   2.845
 9611TIP3    H128774   5.692   7.371   2.764
 9611TIP3    H228775   5.678   7.428   2.904
 9612TIP3   OH228776   6.195   2.020   1.487
 9612TIP3    H128777   6.279   1.986   1.454
 9612TIP3    H228778   6.147   2.047   1.408
 9613TIP3   OH228779   4.254   3.663   6.663
 9613TIP3    H128780   4.165   3.667   6.629
 9613TIP3    H228781   4.257   3.728   6.733
 9614TIP3   OH228782   5.018   0.440   6.076
 9614TIP3    H128783   4.998   0.520   6.124
 9614TIP3    H228784   5.111   0.448   6.053
 9615TIP3   OH228785   4.919   3.592   1.627
 9615TIP3    H128786   4.850   3.539   1.666
 9615TIP3    H228787   4.915   3.572   1.533
 9616TIP3   OH228788   1.707   5.716   1.860
 9616TIP3    H128789   1.720   5.626   1.891
 9616TIP3    H228790   1.651   5.706   1.783
 9617TIP3   OH228791   2.646   4.211   6.354
 9617TIP3    H128792   2.622   4.215   6.262
 9617TIP3    H228793   2.727   4.160   6.355
 9618TIP3   OH228794   5.027   3.820   0.089
 9618TIP3    H128795   4.934   3.839   0.078
 9618TIP3    H228796   5.046   3.752   0.024
 9619TIP3   OH228797   6.337   2.812   6.144
 9619TIP3    H128798   6.394   2.735   6.151
 9619TIP3    H228799   6.326   2.842   6.234
 9620TIP3   OH228800   7.920   0.260   4.197
 9620TIP3    H128801   7.914   0.347   4.159
 9620TIP3    H228802   7.864   0.206   4.140
 9621TIP3   OH228803   2.999   7.923   0.605
 9621TIP3    H128804   2.993   7.842   0.553
 9621TIP3    H228805   3.051   7.982   0.551
 9622TIP3   OH228806   5.880   5.436   4.757
 9622TIP3    H128807   5.896   5.520   4.800
 9622TIP3    H228808   5.936   5.374   4.803
 9623TIP3   OH228809   4.271   3.427   2.370
 9623TIP3    H128810   4.289   3.521   2.366
 9623TIP3    H228811   4.175   3.421   2.361
 9624TIP3   OH228812   2.025   4.198   3.043
 9624TIP3    H128813   2.042   4.287   3.012
 9624TIP3    H228814   2.107   4.170   3.083
 9625TIP3   OH228815   5.038   5.961   3.933
 9625TIP3    H128816   5.119   5.958   3.984
 9625TIP3    H228817   5.000   6.047   3.952
 9626TIP3   OH228818   6.541   2.609   0.655
 9626TIP3    H128819   6.503   2.691   0.690
 9626TIP3    H228820   6.556   2.555   0.732
 9627TIP3   OH228821   2.606   0.216   3.025
 9627TIP3    H128822   2.553   0.214   3.105
 9627TIP3    H228823   2.563   0.153   2.967
 9628TIP3   OH228824   5.438   2.058   5.653
 9628TIP3    H128825   5.364   2.032   5.598
 9628TIP3    H228826   5.460   2.147   5.625
 9629TIP3   OH228827   6.758   6.599   5.625
 9629TIP3    H128828   6.731   6.659   5.694
 9629TIP3    H228829   6.740   6.512   5.661
 9630TIP3   OH228830   7.479   7.057   2.256
 9630TIP3    H128831   7.425   7.104   2.319
 9630TIP3    H228832   7.444   7.082   2.170
 9631TIP3   OH228833   0.495   6.330   3.693
 9631TIP3    H128834   0.559   6.262   3.673
 9631TIP3    H228835   0.468   6.364   3.607
 9632TIP3   OH228836   1.319   1.408   2.612
 9632TIP3    H128837   1.315   1.501   2.634
 9632TIP3    H228838   1.375   1.405   2.534
 9633TIP3   OH228839   0.389   0.088   5.946
 9633TIP3    H128840   0.391   0.101   5.851
 9633TIP3    H228841   0.477   0.056   5.967
 9634TIP3   OH228842   5.245   5.947   2.749
 9634TIP3    H128843   5.159   5.947   2.706
 9634TIP3    H228844   5.291   6.021   2.709
 9635TIP3   OH228845   3.721   5.697   0.401
 9635TIP3    H128846   3.670   5.762   0.353
 9635TIP3    H228847   3.659   5.657   0.462
 9636TIP3   OH228848   5.743   6.140   5.879
 9636TIP3    H128849   5.772   6.050   5.888
 9636TIP3    H228850   5.692   6.141   5.798
 9637TIP3   OH228851   4.296   1.647   0.251
 9637TIP3    H128852   4.211   1.610   0.276
 9637TIP3    H228853   4.308   1.721   0.311
 9638TIP3   OH228854   0.119   1.978   0.209
 9638TIP3    H128855   0.157   2.014   0.290
 9638TIP3    H228856   0.069   2.051   0.172
 9639TIP3   OH228857   1.500   2.061   1.757
 9639TIP3    H128858   1.482   2.153   1.775
 9639TIP3    H228859   1.459   2.014   1.830
 9640TIP3   OH228860   0.118   2.977   1.348
 9640TIP3    H128861   0.184   2.970   1.417
 9640TIP3    H228862   0.044   3.020   1.389
 9641TIP3   OH228863   7.983   7.615   3.866
 9641TIP3    H128864   7.987   7.526   3.830
 9641TIP3    H228865   7.991   7.602   3.961
 9642TIP3   OH228866   0.934   7.188   1.961
 9642TIP3    H128867   0.983   7.155   1.885
 9642TIP3    H228868   0.948   7.282   1.960
 9643TIP3   OH228869   4.085   1.380   6.616
 9643TIP3    H128870   4.089   1.383   6.712
 9643TIP3    H228871   3.998   1.412   6.595
 9644TIP3   OH228872   4.872   0.925   0.507
 9644TIP3    H128873   4.925   0.905   0.431
 9644TIP3    H228874   4.932   0.966   0.569
 9645TIP3   OH228875   4.958   6.458   2.699
 9645TIP3    H128876   4.961   6.380   2.754
 9645TIP3    H228877   4.898   6.434   2.628
 9646TIP3   OH228878   5.230   6.033   5.722
 9646TIP3    H128879   5.195   5.982   5.795
 9646TIP3    H228880   5.320   6.001   5.712
 9647TIP3   OH228881   7.179   0.747   0.997
 9647TIP3    H128882   7.232   0.820   1.028
 9647TIP3    H228883   7.235   0.701   0.934
 9648TIP3   OH228884   0.368   5.463   0.665
 9648TIP3    H128885   0.372   5.507   0.580
 9648TIP3    H228886   0.428   5.512   0.720
 9649TIP3   OH228887   2.016   6.245   1.621
 9649TIP3    H128888   2.071   6.229   1.544
 9649TIP3    H228889   1.967   6.164   1.634
 9650TIP3   OH228890   2.662   2.868   4.180
 9650TIP3    H128891   2.705   2.908   4.104
 9650TIP3    H228892   2.727   2.873   4.250
 9651TIP3   OH228893   1.184   5.666   6.371
 9651TIP3    H128894   1.235   5.607   6.316
 9651TIP3    H228895   1.106   5.686   6.320
 9652TIP3   OH228896   3.967   0.904   0.547
 9652TIP3    H128897   3.926   0.829   0.505
 9652TIP3    H228898   3.963   0.974   0.482
 9653TIP3   OH228899   4.721   2.706   5.694
 9653TIP3    H128900   4.778   2.763   5.641
 9653TIP3    H228901   4.662   2.766   5.738
 9654TIP3   OH228902   1.365   5.261   6.719
 9654TIP3    H128903   1.412   5.207   6.782
 9654TIP3    H228904   1.287   5.210   6.696
 9655TIP3   OH228905   3.279   5.524   4.252
 9655TIP3    H128906   3.313   5.449   4.302
 9655TIP3    H228907   3.188   5.532   4.281
 9656TIP3   OH228908   3.104   3.317   0.474
 9656TIP3    H128909   3.156   3.388   0.438
 9656TIP3    H228910   3.024   3.359   0.507
 9657TIP3   OH228911   6.748   6.760   3.129
 9657TIP3    H128912   6.660   6.797   3.137
 9657TIP3    H228913   6.739   6.694   3.059
 9658TIP3   OH228914   4.443   2.595   0.932
 9658TIP3    H128915   4.473   2.597   1.023
 9658TIP3    H228916   4.423   2.686   0.911
 9659TIP3   OH228917   6.925   7.705   4.979
 9659TIP3    H128918   6.938   7.714   5.074
 9659TIP3    H228919   7.012   7.720   4.942
 9660TIP3   OH228920   8.422   7.860   5.373
 9660TIP3    H128921   8.341   7.911   5.378
 9660TIP3    H228922   8.399   7.775   5.409
 9661TIP3   OH228923   1.811   6.866   1.491
 9661TIP3    H128924   1.839   6.788   1.443
 9661TIP3    H228925   1.861   6.938   1.452
 9662TIP3   OH228926   7.671   7.025   3.053
 9662TIP3    H128927   7.728   7.101   3.046
 9662TIP3    H228928   7.665   7.008   3.147
 9663TIP3   OH228929   4.341   2.731   2.371
 9663TIP3    H128930   4.416   2.790   2.364
 9663TIP3    H228931   4.266   2.785   2.345
 9664TIP3   OH228932   3.961   1.270   5.289
 9664TIP3    H128933   3.976   1.281   5.195
 9664TIP3    H228934   4.044   1.237   5.324
 9665TIP3   OH228935   1.450   1.610   4.885
 9665TIP3    H128936   1.492   1.676   4.940
 9665TIP3    H228937   1.467   1.639   4.796
 9666TIP3   OH228938   7.810   7.826   5.570
 9666TIP3    H128939   7.887   7.775   5.596
 9666TIP3    H228940   7.746   7.809   5.639
 9667TIP3   OH228941   6.288   3.868   0.213
 9667TIP3    H128942   6.348   3.824   0.151
 9667TIP3    H228943   6.293   3.815   0.292
 9668TIP3   OH228944   3.691   5.739   0.098
 9668TIP3    H128945   3.678   5.647   0.078
 9668TIP3    H228946   3.606   5.780   0.081
 9669TIP3   OH228947   4.325   1.863   0.040
 9669TIP3    H128948   4.312   1.947   0.084
 9669TIP3    H228949   4.285   1.799   0.099
 9670TIP3   OH228950   5.803   5.126   1.079
 9670TIP3    H128951   5.823   5.038   1.113
 9670TIP3    H228952   5.793   5.180   1.157
 9671TIP3   OH228953   0.897   6.190   1.449
 9671TIP3    H128954   0.880   6.274   1.492
 9671TIP3    H228955   0.975   6.156   1.493
 9672TIP3   OH228956   5.059   7.519   5.660
 9672TIP3    H128957   5.148   7.555   5.666
 9672TIP3    H228958   5.022   7.533   5.747
 9673TIP3   OH228959   7.451   0.969   0.159
 9673TIP3    H128960   7.359   0.992   0.152
 9673TIP3    H228961   7.478   1.005   0.243
 9674TIP3   OH228962   4.036   1.577   4.840
 9674TIP3    H128963   4.092   1.586   4.916
 9674TIP3    H228964   4.093   1.541   4.772
 9675TIP3   OH228965   4.516   0.070   5.106
 9675TIP3    H128966   4.493   0.022   5.027
 9675TIP3    H228967   4.460   0.147   5.105
 9676TIP3   OH228968   3.697   0.735   2.666
 9676TIP3    H128969   3.631   0.734   2.735
 9676TIP3    H228970   3.647   0.728   2.585
 9677TIP3   OH228971   1.227   4.713   1.039
 9677TIP3    H128972   1.157   4.776   1.055
 9677TIP3    H228973   1.233   4.663   1.121
 9678TIP3   OH228974   5.639   3.235   0.716
 9678TIP3    H128975   5.616   3.196   0.632
 9678TIP3    H228976   5.644   3.329   0.698
 9679TIP3   OH228977   0.653   3.259   0.406
 9679TIP3    H128978   0.678   3.269   0.314
 9679TIP3    H228979   0.578   3.200   0.404
 9680TIP3   OH228980   1.886   3.154   3.843
 9680TIP3    H128981   1.852   3.243   3.848
 9680TIP3    H228982   1.863   3.115   3.927
 9681TIP3   OH228983   8.232   1.441   2.031
 9681TIP3    H128984   8.323   1.442   2.001
 9681TIP3    H228985   8.180   1.457   1.952
 9682TIP3   OH228986   2.823   3.490   4.257
 9682TIP3    H128987   2.741   3.536   4.238
 9682TIP3    H228988   2.844   3.513   4.347
 9683TIP3   OH228989   0.068   7.402   5.343
 9683TIP3    H128990   0.015   7.322   5.344
 9683TIP3    H228991   0.125   7.394   5.419
 9684TIP3   OH228992   3.349   0.348   6.012
 9684TIP3    H128993   3.270   0.336   6.064
 9684TIP3    H228994   3.348   0.274   5.950
 9685TIP3   OH228995   1.465   4.125   6.335
 9685TIP3    H128996   1.523   4.087   6.401
 9685TIP3    H228997   1.523   4.166   6.272
 9686TIP3   OH228998   4.304   3.953   4.863
 9686TIP3    H128999   4.334   3.862   4.867
 9686TIP3    H229000   4.384   4.005   4.875
 9687TIP3   OH229001   2.183   4.872   6.713
 9687TIP3    H129002   2.216   4.897   6.799
 9687TIP3    H229003   2.260   4.838   6.667
 9688TIP3   OH229004   0.421   2.131   1.635
 9688TIP3    H129005   0.512   2.157   1.653
 9688TIP3    H229006   0.395   2.185   1.561
 9689TIP3   OH229007   0.470   6.815   3.306
 9689TIP3    H129008   0.398   6.758   3.333
 9689TIP3    H229009   0.431   6.903   3.302
 9690TIP3   OH229010   2.598   6.731   0.233
 9690TIP3    H129011   2.651   6.736   0.153
 9690TIP3    H229012   2.661   6.716   0.303
 9691TIP3   OH229013   3.950   5.415   0.419
 9691TIP3    H129014   3.894   5.350   0.377
 9691TIP3    H229015   3.943   5.492   0.364
 9692TIP3   OH229016   1.612   0.418   0.019
 9692TIP3    H129017   1.682   0.358   0.045
 9692TIP3    H229018   1.644   0.505   0.044
 9693TIP3   OH229019   3.420   4.302   2.464
 9693TIP3    H129020   3.433   4.300   2.370
 9693TIP3    H229021   3.325   4.303   2.475
 9694TIP3   OH229022   4.848   1.339   6.075
 9694TIP3    H129023   4.819   1.306   6.160
 9694TIP3    H229024   4.805   1.425   6.067
 9695TIP3   OH229025   3.406   6.740   3.598
 9695TIP3    H129026   3.439   6.655   3.628
 9695TIP3    H229027   3.434   6.801   3.666
 9696TIP3   OH229028   4.091   3.322   0.036
 9696TIP3    H129029   4.060   3.262   0.104
 9696TIP3    H229030   4.154   3.272  -0.015
 9697TIP3   OH229031   5.931   4.234   2.021
 9697TIP3    H129032   5.847   4.274   2.041
 9697TIP3    H229033   5.911   4.170   1.953
 9698TIP3   OH229034   3.132   4.918   2.559
 9698TIP3    H129035   3.225   4.940   2.568
 9698TIP3    H229036   3.112   4.865   2.636
 9699TIP3   OH229037   4.061   7.529   6.430
 9699TIP3    H129038   3.993   7.565   6.486
 9699TIP3    H229039   4.100   7.606   6.388
 9700TIP3   OH229040   3.475   2.978   4.454
 9700TIP3    H129041   3.456   2.931   4.373
 9700TIP3    H229042   3.522   2.914   4.508
 9701TIP3   OH229043   3.748   7.507   0.697
 9701TIP3    H129044   3.798   7.588   0.686
 9701TIP3    H229045   3.778   7.472   0.781
 9702TIP3   OH229046   3.577   3.985   4.352
 9702TIP3    H129047   3.623   3.987   4.436
 9702TIP3    H229048   3.568   3.892   4.332
 9703TIP3   OH229049   7.489   5.423   3.482
 9703TIP3    H129050   7.582   5.401   3.482
 9703TIP3    H229051   7.445   5.343   3.510
 9704TIP3   OH229052   5.273   4.910   0.079
 9704TIP3    H129053   5.341   4.861   0.127
 9704TIP3    H229054   5.321   4.976   0.030
 9705TIP3   OH229055   3.070   7.391   0.598
 9705TIP3    H129056   3.019   7.311   0.613
 9705TIP3    H229057   3.039   7.452   0.666
 9706TIP3   OH229058   1.668   6.792   1.133
 9706TIP3    H129059   1.738   6.787   1.198
 9706TIP3    H229060   1.588   6.804   1.185
 9707TIP3   OH229061   6.911   7.161   4.297
 9707TIP3    H129062   6.972   7.217   4.250
 9707TIP3    H229063   6.852   7.127   4.229
 9708TIP3   OH229064   6.184   2.251   5.192
 9708TIP3    H129065   6.237   2.315   5.145
 9708TIP3    H229066   6.233   2.169   5.185
 9709TIP3   OH229067   0.524   2.925   4.579
 9709TIP3    H129068   0.454   2.989   4.583
 9709TIP3    H229069   0.515   2.885   4.492
 9710TIP3   OH229070   7.211   5.888   3.624
 9710TIP3    H129071   7.184   5.914   3.712
 9710TIP3    H229072   7.141   5.920   3.567
 9711TIP3   OH229073   4.778   2.632   4.819
 9711TIP3    H129074   4.744   2.721   4.817
 9711TIP3    H229075   4.722   2.586   4.882
 9712TIP3   OH229076   8.260   1.781   6.355
 9712TIP3    H129077   8.345   1.795   6.314
 9712TIP3    H229078   8.209   1.859   6.330
 9713TIP3   OH229079   1.141   5.866   0.165
 9713TIP3    H129080   1.227   5.880   0.127
 9713TIP3    H229081   1.137   5.924   0.241
 9714TIP3   OH229082   8.370   5.841   1.565
 9714TIP3    H129083   8.350   5.904   1.496
 9714TIP3    H229084   8.295   5.844   1.624
 9715TIP3   OH229085   0.053   5.682   3.912
 9715TIP3    H129086  -0.020   5.663   3.852
 9715TIP3    H229087   0.022   5.756   3.964
 9716TIP3   OH229088   4.408   4.243   0.953
 9716TIP3    H129089   4.390   4.335   0.974
 9716TIP3    H229090   4.443   4.207   1.035
 9717TIP3   OH229091   2.260   4.397   1.881
 9717TIP3    H129092   2.190   4.461   1.867
 9717TIP3    H229093   2.250   4.371   1.973
 9718TIP3   OH229094   2.575   1.015   2.543
 9718TIP3    H129095   2.491   0.985   2.510
 9718TIP3    H229096   2.554   1.085   2.605
 9719TIP3   OH229097   7.815   1.541   2.605
 9719TIP3    H129098   7.816   1.575   2.694
 9719TIP3    H229099   7.843   1.450   2.613
 9720TIP3   OH229100   4.689   0.784   0.980
 9720TIP3    H129101   4.661   0.758   1.068
 9720TIP3    H229102   4.780   0.753   0.974
 9721TIP3   OH229103   6.664   2.533   3.979
 9721TIP3    H129104   6.629   2.581   4.054
 9721TIP3    H229105   6.753   2.566   3.969
 9722TIP3   OH229106   3.229   3.866   5.178
 9722TIP3    H129107   3.163   3.871   5.109
 9722TIP3    H229108   3.299   3.813   5.141
 9723TIP3   OH229109   4.933   0.401   3.976
 9723TIP3    H129110   4.850   0.380   4.018
 9723TIP3    H229111   4.987   0.323   3.987
 9724TIP3   OH229112   4.474   3.191   4.312
 9724TIP3    H129113   4.546   3.214   4.253
 9724TIP3    H229114   4.468   3.095   4.306
 9725TIP3   OH229115   7.182   2.159   5.291
 9725TIP3    H129116   7.209   2.096   5.359
 9725TIP3    H229117   7.181   2.107   5.210
 9726TIP3   OH229118   5.233   0.432   1.678
 9726TIP3    H129119   5.302   0.468   1.734
 9726TIP3    H229120   5.182   0.508   1.650
 9727TIP3   OH229121   4.457   0.326   0.445
 9727TIP3    H129122   4.491   0.405   0.485
 9727TIP3    H229123   4.497   0.324   0.358
 9728TIP3   OH229124   1.024   5.763   6.654
 9728TIP3    H129125   1.102   5.807   6.620
 9728TIP3    H229126   0.951   5.809   6.613
 9729TIP3   OH229127   8.145   3.732   3.412
 9729TIP3    H129128   8.125   3.740   3.505
 9729TIP3    H229129   8.081   3.789   3.369
 9730TIP3   OH229130   1.387   6.996   0.884
 9730TIP3    H129131   1.300   7.037   0.879
 9730TIP3    H229132   1.424   7.030   0.966
 9731TIP3   OH229133   0.820   6.826   2.963
 9731TIP3    H129134   0.857   6.766   2.899
 9731TIP3    H229135   0.728   6.834   2.937
 9732TIP3   OH229136   0.807   4.049   4.715
 9732TIP3    H129137   0.781   4.041   4.624
 9732TIP3    H229138   0.750   4.118   4.750
 9733TIP3   OH229139   4.794   4.538   3.907
 9733TIP3    H129140   4.765   4.620   3.948
 9733TIP3    H229141   4.887   4.551   3.889
 9734TIP3   OH229142   1.187   0.663   2.777
 9734TIP3    H129143   1.102   0.625   2.756
 9734TIP3    H229144   1.210   0.717   2.702
 9735TIP3   OH229145   2.600   5.940   2.568
 9735TIP3    H129146   2.691   5.912   2.577
 9735TIP3    H229147   2.581   5.984   2.651
 9736TIP3   OH229148   5.667   7.171   1.334
 9736TIP3    H129149   5.660   7.267   1.329
 9736TIP3    H229150   5.719   7.155   1.413
 9737TIP3   OH229151   0.736   2.427   5.009
 9737TIP3    H129152   0.820   2.383   5.011
 9737TIP3    H229153   0.757   2.518   4.987
 9738TIP3   OH229154   4.543   6.055   2.342
 9738TIP3    H129155   4.550   6.140   2.386
 9738TIP3    H229156   4.462   6.018   2.376
 9739TIP3   OH229157   4.769   5.490   2.086
 9739TIP3    H129158   4.852   5.448   2.110
 9739TIP3    H229159   4.714   5.480   2.164
 9740TIP3   OH229160   2.398   3.042   4.365
 9740TIP3    H129161   2.369   2.967   4.312
 9740TIP3    H229162   2.339   3.042   4.441
 9741TIP3   OH229163   1.042   6.551   2.373
 9741TIP3    H129164   1.077   6.614   2.309
 9741TIP3    H229165   1.118   6.501   2.401
 9742TIP3   OH229166   3.309   7.109   6.734
 9742TIP3    H129167   3.234   7.164   6.710
 9742TIP3    H229168   3.384   7.167   6.729
 9743TIP3   OH229169   0.886   5.010   1.449
 9743TIP3    H129170   0.859   5.021   1.358
 9743TIP3    H229171   0.938   5.088   1.468
 9744TIP3   OH229172   0.063   2.542   0.106
 9744TIP3    H129173   0.075   2.613   0.042
 9744TIP3    H229174  -0.032   2.541   0.123
 9745TIP3   OH229175   3.796   5.286   6.308
 9745TIP3    H129176   3.812   5.349   6.238
 9745TIP3    H229177   3.884   5.255   6.332
 9746TIP3   OH229178   4.481   2.583   2.048
 9746TIP3    H129179   4.552   2.581   1.984
 9746TIP3    H229180   4.442   2.670   2.038
 9747TIP3   OH229181   3.771   0.227   4.282
 9747TIP3    H129182   3.679   0.236   4.309
 9747TIP3    H229183   3.806   0.316   4.287
 9748TIP3   OH229184   7.962   3.910   6.083
 9748TIP3    H129185   8.024   3.846   6.117
 9748TIP3    H229186   8.001   3.995   6.102
 9749TIP3   OH229187   4.789   2.729   1.399
 9749TIP3    H129188   4.827   2.811   1.367
 9749TIP3    H229189   4.713   2.757   1.450
 9750TIP3   OH229190   5.415   0.885   5.223
 9750TIP3    H129191   5.430   0.805   5.174
 9750TIP3    H229192   5.374   0.945   5.160
 9751TIP3   OH229193   4.322   6.179   4.554
 9751TIP3    H129194   4.358   6.262   4.524
 9751TIP3    H229195   4.380   6.152   4.625
 9752TIP3   OH229196   1.565   5.865   2.189
 9752TIP3    H129197   1.475   5.832   2.186
 9752TIP3    H229198   1.618   5.786   2.199
 9753TIP3   OH229199   0.199   1.606   2.983
 9753TIP3    H129200   0.143   1.683   2.972
 9753TIP3    H229201   0.162   1.561   3.060
 9754TIP3   OH229202   1.456   4.907   3.197
 9754TIP3    H129203   1.400   4.847   3.246
 9754TIP3    H229204   1.544   4.869   3.204
 9755TIP3   OH229205   4.279   0.057   0.834
 9755TIP3    H129206   4.256   0.147   0.858
 9755TIP3    H229207   4.241   0.003   0.904
 9756TIP3   OH229208   7.105   6.928   5.504
 9756TIP3    H129209   7.062   7.004   5.464
 9756TIP3    H229210   7.114   6.865   5.432
 9757TIP3   OH229211   3.672   7.191   1.545
 9757TIP3    H129212   3.749   7.175   1.490
 9757TIP3    H229213   3.676   7.123   1.612
 9758TIP3   OH229214   0.100   2.396   3.114
 9758TIP3    H129215   0.160   2.333   3.155
 9758TIP3    H229216   0.040   2.342   3.063
 9759TIP3   OH229217   5.373   0.327   1.957
 9759TIP3    H129218   5.456   0.371   1.937
 9759TIP3    H229219   5.362   0.338   2.052
 9760TIP3   OH229220   1.226   2.433   3.841
 9760TIP3    H129221   1.150   2.375   3.846
 9760TIP3    H229222   1.198   2.511   3.889
 9761TIP3   OH229223   4.759   3.932   2.473
 9761TIP3    H129224   4.744   3.838   2.487
 9761TIP3    H229225   4.742   3.972   2.558
 9762TIP3   OH229226   3.610   0.411   6.627
 9762TIP3    H129227   3.567   0.475   6.570
 9762TIP3    H229228   3.689   0.456   6.658
 9763TIP3   OH229229   1.595   6.166   6.460
 9763TIP3    H129230   1.688   6.159   6.442
 9763TIP3    H229231   1.576   6.260   6.453
 9764TIP3   OH229232   0.389   2.453   2.207
 9764TIP3    H129233   0.322   2.484   2.147
 9764TIP3    H229234   0.342   2.436   2.289
 9765TIP3   OH229235   0.902   0.544   6.422
 9765TIP3    H129236   0.839   0.558   6.492
 9765TIP3    H229237   0.983   0.584   6.454
 9766TIP3   OH229238   0.425   3.363   4.320
 9766TIP3    H129239   0.427   3.268   4.320
 9766TIP3    H229240   0.498   3.389   4.376
 9767TIP3   OH229241   0.459   6.077   3.772
 9767TIP3    H129242   0.377   6.048   3.730
 9767TIP3    H229243   0.447   6.171   3.785
 9768TIP3   OH229244   7.117   0.555   3.039
 9768TIP3    H129245   7.031   0.521   3.063
 9768TIP3    H229246   7.099   0.641   3.001
 9769TIP3   OH229247   1.605   4.929   6.092
 9769TIP3    H129248   1.654   5.006   6.122
 9769TIP3    H229249   1.574   4.954   6.005
 9770TIP3   OH229250   5.862   5.310   5.327
 9770TIP3    H129251   5.775   5.295   5.364
 9770TIP3    H229252   5.920   5.315   5.402
 9771TIP3   OH229253   3.662   5.897   1.060
 9771TIP3    H129254   3.629   5.981   1.028
 9771TIP3    H229255   3.644   5.899   1.154
 9772TIP3   OH229256   7.531   0.311   3.354
 9772TIP3    H129257   7.559   0.231   3.310
 9772TIP3    H229258   7.574   0.308   3.439
 9773TIP3   OH229259   4.556   6.218   0.673
 9773TIP3    H129260   4.557   6.132   0.714
 9773TIP3    H229261   4.636   6.260   0.705
 9774TIP3   OH229262   6.944   4.532   5.169
 9774TIP3    H129263   6.918   4.617   5.134
 9774TIP3    H229264   7.035   4.522   5.142
 9775TIP3   OH229265   7.829   5.559   1.910
 9775TIP3    H129266   7.910   5.555   1.959
 9775TIP3    H229267   7.760   5.552   1.976
 9776TIP3   OH229268   4.686   1.089   5.860
 9776TIP3    H129269   4.606   1.119   5.816
 9776TIP3    H229270   4.656   1.061   5.946
 9777TIP3   OH229271   2.553   1.137   5.321
 9777TIP3    H129272   2.588   1.146   5.410
 9777TIP3    H229273   2.562   1.225   5.283
 9778TIP3   OH229274   5.450   1.503   2.748
 9778TIP3    H129275   5.540   1.520   2.774
 9778TIP3    H229276   5.441   1.545   2.663
 9779TIP3   OH229277   1.980   6.257   2.156
 9779TIP3    H129278   2.015   6.249   2.245
 9779TIP3    H229279   2.039   6.206   2.102
 9780TIP3   OH229280   0.350   0.644   6.145
 9780TIP3    H129281   0.294   0.566   6.150
 9780TIP3    H229282   0.302   0.712   6.191
 9781TIP3   OH229283   5.394   7.845   3.392
 9781TIP3    H129284   5.362   7.921   3.344
 9781TIP3    H229285   5.342   7.771   3.359
 9782TIP3   OH229286   7.436   1.262   5.439
 9782TIP3    H129287   7.452   1.351   5.471
 9782TIP3    H229288   7.346   1.265   5.407
 9783TIP3   OH229289   3.342   6.887   4.415
 9783TIP3    H129290   3.302   6.953   4.358
 9783TIP3    H229291   3.397   6.937   4.475
 9784TIP3   OH229292   0.262   6.277   4.615
 9784TIP3    H129293   0.342   6.245   4.571
 9784TIP3    H229294   0.215   6.197   4.639
 9785TIP3   OH229295   0.665   4.362   3.740
 9785TIP3    H129296   0.625   4.278   3.717
 9785TIP3    H229297   0.592   4.424   3.742
 9786TIP3   OH229298   4.286   3.462   1.253
 9786TIP3    H129299   4.267   3.369   1.239
 9786TIP3    H229300   4.303   3.497   1.166
 9787TIP3   OH229301   0.578   1.253   5.436
 9787TIP3    H129302   0.625   1.192   5.493
 9787TIP3    H229303   0.639   1.272   5.365
 9788TIP3   OH229304   1.903   4.453   2.688
 9788TIP3    H129305   1.809   4.442   2.674
 9788TIP3    H229306   1.939   4.366   2.671
 9789TIP3   OH229307   8.182   1.567   4.336
 9789TIP3    H129308   8.218   1.521   4.412
 9789TIP3    H229309   8.258   1.608   4.295
 9790TIP3   OH229310   6.872   0.869   6.625
 9790TIP3    H129311   6.921   0.940   6.666
 9790TIP3    H229312   6.781   0.885   6.649
 9791TIP3   OH229313   4.222   3.853   1.173
 9791TIP3    H129314   4.191   3.808   1.252
 9791TIP3    H229315   4.232   3.783   1.108
 9792TIP3   OH229316   4.895   1.851   2.293
 9792TIP3    H129317   4.937   1.937   2.296
 9792TIP3    H229318   4.822   1.862   2.232
 9793TIP3   OH229319   7.329   2.681   0.836
 9793TIP3    H129320   7.412   2.719   0.866
 9793TIP3    H229321   7.288   2.751   0.786
 9794TIP3   OH229322   7.998   5.833   2.226
 9794TIP3    H129323   7.988   5.815   2.319
 9794TIP3    H229324   8.045   5.757   2.191
 9795TIP3   OH229325   5.581   3.016   2.671
 9795TIP3    H129326   5.487   3.006   2.688
 9795TIP3    H229327   5.614   2.927   2.663
 9796TIP3   OH229328   2.464   6.829   4.790
 9796TIP3    H129329   2.435   6.917   4.817
 9796TIP3    H229330   2.474   6.835   4.695
 9797TIP3   OH229331   7.191   4.928   5.976
 9797TIP3    H129332   7.252   4.894   5.910
 9797TIP3    H229333   7.174   4.853   6.033
 9798TIP3   OH229334   4.142   4.804   1.818
 9798TIP3    H129335   4.162   4.881   1.765
 9798TIP3    H229336   4.197   4.813   1.895
 9799TIP3   OH229337   0.160   1.551   3.248
 9799TIP3    H129338   0.133   1.617   3.311
 9799TIP3    H229339   0.216   1.491   3.298
 9800TIP3   OH229340   7.748   3.941   5.917
 9800TIP3    H129341   7.772   3.866   5.863
 9800TIP3    H229342   7.825   3.957   5.971
 9801TIP3   OH229343   5.983   0.053   1.047
 9801TIP3    H129344   5.898   0.023   1.015
 9801TIP3    H229345   6.046  -0.005   1.005
 9802TIP3   OH229346   1.770   4.728   0.829
 9802TIP3    H129347   1.842   4.706   0.888
 9802TIP3    H229348   1.770   4.824   0.827
 9803TIP3   OH229349   4.983   3.592   3.183
 9803TIP3    H129350   4.994   3.557   3.095
 9803TIP3    H229351   4.889   3.599   3.195
 9804TIP3   OH229352   5.087   1.570   2.000
 9804TIP3    H129353   5.159   1.595   2.058
 9804TIP3    H229354   5.039   1.652   1.985
 9805TIP3   OH229355   6.805   2.290   6.609
 9805TIP3    H129356   6.841   2.202   6.620
 9805TIP3    H229357   6.724   2.277   6.559
 9806TIP3   OH229358   1.033   7.413   0.524
 9806TIP3    H129359   1.023   7.429   0.430
 9806TIP3    H229360   1.064   7.322   0.529
 9807TIP3   OH229361   4.554   3.026   0.381
 9807TIP3    H129362   4.585   3.114   0.361
 9807TIP3    H229363   4.628   2.984   0.425
 9808TIP3   OH229364   0.568   2.658   1.034
 9808TIP3    H129365   0.651   2.609   1.030
 9808TIP3    H229366   0.551   2.667   1.128
 9809TIP3   OH229367   0.819   4.088   3.616
 9809TIP3    H129368   0.832   4.045   3.531
 9809TIP3    H229369   0.865   4.171   3.608
 9810TIP3   OH229370   5.037   3.227   0.243
 9810TIP3    H129371   5.132   3.219   0.249
 9810TIP3    H229372   5.003   3.142   0.270
 9811TIP3   OH229373   3.466   4.132   5.067
 9811TIP3    H129374   3.418   4.214   5.076
 9811TIP3    H229375   3.405   4.074   5.020
 9812TIP3   OH229376   2.702   3.051   6.060
 9812TIP3    H129377   2.613   3.042   6.094
 9812TIP3    H229378   2.706   2.990   5.987
 9813TIP3   OH229379   5.600   4.541   6.413
 9813TIP3    H129380   5.526   4.586   6.455
 9813TIP3    H229381   5.562   4.499   6.336
 9814TIP3   OH229382   2.753   2.650   3.905
 9814TIP3    H129383   2.685   2.610   3.850
 9814TIP3    H229384   2.756   2.595   3.983
 9815TIP3   OH229385   1.821   5.394   6.016
 9815TIP3    H129386   1.891   5.332   5.997
 9815TIP3    H229387   1.852   5.477   5.978
 9816TIP3   OH229388   4.884   1.458   3.618
 9816TIP3    H129389   4.814   1.418   3.669
 9816TIP3    H229390   4.965   1.424   3.656
 9817TIP3   OH229391   2.172   6.932   2.859
 9817TIP3    H129392   2.244   6.995   2.848
 9817TIP3    H229393   2.216   6.850   2.881
 9818TIP3   OH229394   6.151   0.959   2.171
 9818TIP3    H129395   6.179   1.047   2.194
 9818TIP3    H229396   6.192   0.902   2.237
 9819TIP3   OH229397   5.813   6.476   3.998
 9819TIP3    H129398   5.906   6.480   3.976
 9819TIP3    H229399   5.795   6.559   4.042
 9820TIP3   OH229400   7.978   0.424   5.677
 9820TIP3    H129401   7.916   0.351   5.681
 9820TIP3    H229402   8.064   0.384   5.687
 9821TIP3   OH229403   2.876   4.737   3.568
 9821TIP3    H129404   2.854   4.824   3.534
 9821TIP3    H229405   2.970   4.726   3.550
 9822TIP3   OH229406   3.426   1.727   0.633
 9822TIP3    H129407   3.521   1.726   0.627
 9822TIP3    H229408   3.400   1.637   0.617
 9823TIP3   OH229409   7.187   2.595   3.561
 9823TIP3    H129410   7.173   2.611   3.654
 9823TIP3    H229411   7.153   2.674   3.518
 9824TIP3   OH229412   6.817   7.843   6.441
 9824TIP3    H129413   6.820   7.783   6.515
 9824TIP3    H229414   6.724   7.859   6.426
 9825TIP3   OH229415   4.917   1.500   6.808
 9825TIP3    H129416   4.922   1.569   6.874
 9825TIP3    H229417   4.950   1.422   6.853
 9826TIP3   OH229418   5.027   0.329   3.525
 9826TIP3    H129419   4.959   0.284   3.576
 9826TIP3    H229420   5.019   0.293   3.437
 9827TIP3   OH229421   6.904   3.411   6.315
 9827TIP3    H129422   6.941   3.433   6.401
 9827TIP3    H229423   6.814   3.446   6.318
 9828TIP3   OH229424   4.890   6.279   0.899
 9828TIP3    H129425   4.857   6.293   0.810
 9828TIP3    H229426   4.984   6.299   0.893
 9829TIP3   OH229427   4.566   2.010   6.774
 9829TIP3    H129428   4.607   1.926   6.756
 9829TIP3    H229429   4.597   2.069   6.705
 9830TIP3   OH229430   5.792   4.259   1.503
 9830TIP3    H129431   5.721   4.302   1.550
 9830TIP3    H229432   5.759   4.247   1.414
 9831TIP3   OH229433   1.818   3.824   5.852
 9831TIP3    H129434   1.871   3.904   5.861
 9831TIP3    H229435   1.741   3.852   5.804
 9832TIP3   OH229436   6.837   2.568   6.463
 9832TIP3    H129437   6.850   2.493   6.520
 9832TIP3    H229438   6.757   2.609   6.496
 9833TIP3   OH229439   3.707   1.030   0.748
 9833TIP3    H129440   3.789   0.985   0.768
 9833TIP3    H229441   3.719   1.064   0.660
 9834TIP3   OH229442   2.231   6.687   5.369
 9834TIP3    H129443   2.320   6.715   5.386
 9834TIP3    H229444   2.223   6.603   5.414
 9835TIP3   OH229445   7.674   3.316   5.398
 9835TIP3    H129446   7.680   3.363   5.481
 9835TIP3    H229447   7.596   3.261   5.407
 9836TIP3   OH229448   2.989   6.204   0.116
 9836TIP3    H129449   2.964   6.295   0.129
 9836TIP3    H229450   2.942   6.176   0.038
 9837TIP3   OH229451   7.388   5.117   0.217
 9837TIP3    H129452   7.401   5.103   0.310
 9837TIP3    H229453   7.435   5.044   0.175
 9838TIP3   OH229454   8.095   3.009   2.631
 9838TIP3    H129455   8.017   2.960   2.605
 9838TIP3    H229456   8.063   3.098   2.649
 9839TIP3   OH229457   8.287   0.749   3.240
 9839TIP3    H129458   8.194   0.746   3.221
 9839TIP3    H229459   8.325   0.797   3.167
 9840TIP3   OH229460   1.725   5.988   5.527
 9840TIP3    H129461   1.686   5.947   5.450
 9840TIP3    H229462   1.714   6.082   5.511
 9841TIP3   OH229463   4.327   0.204   1.229
 9841TIP3    H129464   4.347   0.119   1.191
 9841TIP3    H229465   4.247   0.190   1.280
 9842TIP3   OH229466   3.581   3.681   4.718
 9842TIP3    H129467   3.528   3.607   4.748
 9842TIP3    H229468   3.655   3.684   4.779
 9843TIP3   OH229469   7.472   3.889   5.604
 9843TIP3    H129470   7.394   3.847   5.566
 9843TIP3    H229471   7.516   3.818   5.651
 9844TIP3   OH229472  -0.027   6.154   4.500
 9844TIP3    H129473   0.032   6.080   4.514
 9844TIP3    H229474  -0.015   6.178   4.408
 9845TIP3   OH229475   3.852   0.138   5.558
 9845TIP3    H129476   3.907   0.060   5.564
 9845TIP3    H229477   3.819   0.138   5.468
 9846TIP3   OH229478   4.509   2.314   1.595
 9846TIP3    H129479   4.544   2.403   1.592
 9846TIP3    H229480   4.541   2.274   1.514
 9847TIP3   OH229481   3.698   4.269   1.110
 9847TIP3    H129482   3.709   4.183   1.068
 9847TIP3    H229483   3.740   4.330   1.050
 9848TIP3   OH229484   3.134   0.438   6.707
 9848TIP3    H129485   3.164   0.391   6.786
 9848TIP3    H229486   3.088   0.372   6.656
 9849TIP3   OH229487   5.208   3.732   6.243
 9849TIP3    H129488   5.152   3.714   6.319
 9849TIP3    H229489   5.220   3.647   6.201
 9850TIP3   OH229490   2.459   5.367   1.809
 9850TIP3    H129491   2.528   5.433   1.817
 9850TIP3    H229492   2.396   5.391   1.877
 9851TIP3   OH229493   6.920   2.659   4.035
 9851TIP3    H129494   6.957   2.680   4.121
 9851TIP3    H229495   6.995   2.630   3.984
 9852TIP3   OH229496   4.230   1.385   0.742
 9852TIP3    H129497   4.312   1.337   0.744
 9852TIP3    H229498   4.256   1.476   0.728
 9853TIP3   OH229499   8.107   6.802   4.359
 9853TIP3    H129500   8.054   6.817   4.437
 9853TIP3    H229501   8.111   6.888   4.316
 9854TIP3   OH229502   2.606   2.745   1.008
 9854TIP3    H129503   2.535   2.683   1.017
 9854TIP3    H229504   2.603   2.797   1.089
 9855TIP3   OH229505   4.176   5.030   1.339
 9855TIP3    H129506   4.192   4.966   1.269
 9855TIP3    H229507   4.156   5.111   1.293
 9856TIP3   OH229508   6.872   2.038   6.543
 9856TIP3    H129509   6.963   2.009   6.555
 9856TIP3    H229510   6.832   1.969   6.490
 9857TIP3   OH229511   3.103   4.487   1.608
 9857TIP3    H129512   3.141   4.506   1.522
 9857TIP3    H229513   3.010   4.474   1.591
 9858TIP3   OH229514   7.740   5.592   4.634
 9858TIP3    H129515   7.742   5.601   4.539
 9858TIP3    H229516   7.672   5.653   4.662
 9859TIP3   OH229517   8.287   1.274   1.722
 9859TIP3    H129518   8.360   1.237   1.671
 9859TIP3    H229519   8.329   1.314   1.798
 9860TIP3   OH229520   0.537   4.047   6.562
 9860TIP3    H129521   0.599   4.030   6.491
 9860TIP3    H229522   0.453   4.062   6.518
 9861TIP3   OH229523   1.713   0.864   2.111
 9861TIP3    H129524   1.639   0.891   2.057
 9861TIP3    H229525   1.679   0.792   2.164
 9862TIP3   OH229526   3.489   4.317   1.302
 9862TIP3    H129527   3.408   4.285   1.262
 9862TIP3    H229528   3.558   4.289   1.243
 9863TIP3   OH229529   7.149   1.818   1.358
 9863TIP3    H129530   7.094   1.790   1.285
 9863TIP3    H229531   7.094   1.808   1.436
 9864TIP3   OH229532   4.231   1.023   0.591
 9864TIP3    H129533   4.250   0.988   0.678
 9864TIP3    H229534   4.140   1.000   0.575
 9865TIP3   OH229535   6.886   5.776   2.943
 9865TIP3    H129536   6.897   5.836   2.869
 9865TIP3    H229537   6.974   5.742   2.961
 9866TIP3   OH229538   3.608   0.749   1.028
 9866TIP3    H129539   3.667   0.681   0.993
 9866TIP3    H229540   3.578   0.796   0.950
 9867TIP3   OH229541   7.554   0.568   3.578
 9867TIP3    H129542   7.469   0.530   3.556
 9867TIP3    H229543   7.617   0.500   3.556
 9868TIP3   OH229544   7.642   2.905   0.111
 9868TIP3    H129545   7.669   2.827   0.158
 9868TIP3    H229546   7.571   2.941   0.164
 9869TIP3   OH229547   5.113   1.900   2.896
 9869TIP3    H129548   5.178   1.829   2.893
 9869TIP3    H229549   5.060   1.879   2.973
 9870TIP3   OH229550   4.567   4.469   3.168
 9870TIP3    H129551   4.566   4.484   3.074
 9870TIP3    H229552   4.636   4.527   3.201
 9871TIP3   OH229553   6.354   5.239   6.192
 9871TIP3    H129554   6.325   5.202   6.276
 9871TIP3    H229555   6.329   5.331   6.197
 9872TIP3   OH229556   2.795   6.686   3.112
 9872TIP3    H129557   2.703   6.668   3.093
 9872TIP3    H229558   2.792   6.744   3.189
 9873TIP3   OH229559   2.941   7.674   0.484
 9873TIP3    H129560   3.003   7.613   0.523
 9873TIP3    H229561   2.866   7.620   0.458
 9874TIP3   OH229562   7.583   7.285   1.269
 9874TIP3    H129563   7.557   7.312   1.181
 9874TIP3    H229564   7.503   7.295   1.321
 9875TIP3   OH229565   4.177   5.491   2.171
 9875TIP3    H129566   4.116   5.436   2.222
 9875TIP3    H229567   4.242   5.520   2.235
 9876TIP3   OH229568   4.745   6.582   3.834
 9876TIP3    H129569   4.707   6.633   3.906
 9876TIP3    H229570   4.694   6.501   3.832
 9877TIP3   OH229571   5.602   3.019   3.033
 9877TIP3    H129572   5.519   2.974   3.017
 9877TIP3    H229573   5.659   2.952   3.070
 9878TIP3   OH229574   8.150   6.480   3.858
 9878TIP3    H129575   8.097   6.422   3.913
 9878TIP3    H229576   8.102   6.563   3.859
 9879TIP3   OH229577   5.566   1.153   6.045
 9879TIP3    H129578   5.599   1.146   6.135
 9879TIP3    H229579   5.570   1.064   6.011
 9880TIP3   OH229580   4.818   1.602   2.816
 9880TIP3    H129581   4.814   1.600   2.721
 9880TIP3    H229582   4.751   1.540   2.844
 9881TIP3   OH229583   7.863   2.792   5.488
 9881TIP3    H129584   7.954   2.802   5.460
 9881TIP3    H229585   7.854   2.699   5.510
 9882TIP3   OH229586   6.104   4.599   4.488
 9882TIP3    H129587   6.043   4.586   4.415
 9882TIP3    H229588   6.179   4.543   4.467
 9883TIP3   OH229589   2.760   6.406   2.896
 9883TIP3    H129590   2.707   6.483   2.918
 9883TIP3    H229591   2.850   6.436   2.903
 9884TIP3   OH229592   5.007   2.694   0.567
 9884TIP3    H129593   5.044   2.782   0.559
 9884TIP3    H229594   5.003   2.661   0.477
 9885TIP3   OH229595   7.041   7.422   2.332
 9885TIP3    H129596   7.064   7.510   2.302
 9885TIP3    H229597   6.995   7.436   2.415
 9886TIP3   OH229598   8.209   0.266   5.417
 9886TIP3    H129599   8.141   0.333   5.415
 9886TIP3    H229600   8.211   0.231   5.328
 9887TIP3   OH229601   3.742   6.615   1.912
 9887TIP3    H129602   3.687   6.693   1.901
 9887TIP3    H229603   3.828   6.642   1.879
 9888TIP3   OH229604   7.406   5.759   4.913
 9888TIP3    H129605   7.470   5.707   4.961
 9888TIP3    H229606   7.389   5.834   4.970
 9889TIP3   OH229607   8.153   0.853   6.582
 9889TIP3    H129608   8.132   0.944   6.559
 9889TIP3    H229609   8.204   0.860   6.662
 9890TIP3   OH229610   0.251   4.996   2.025
 9890TIP3    H129611   0.202   4.941   1.965
 9890TIP3    H229612   0.198   5.000   2.104
 9891TIP3   OH229613   7.871   0.184   1.415
 9891TIP3    H129614   7.915   0.242   1.478
 9891TIP3    H229615   7.940   0.125   1.385
 9892TIP3   OH229616   5.405   1.751   4.392
 9892TIP3    H129617   5.486   1.715   4.355
 9892TIP3    H229618   5.349   1.768   4.316
 9893TIP3   OH229619   3.936   1.563   0.649
 9893TIP3    H129620   3.883   1.483   0.655
 9893TIP3    H229621   3.927   1.604   0.735
 9894TIP3   OH229622   8.322   7.159   2.311
 9894TIP3    H129623   8.378   7.223   2.354
 9894TIP3    H229624   8.253   7.141   2.375
 9895TIP3   OH229625   2.174   4.344   4.753
 9895TIP3    H129626   2.206   4.424   4.712
 9895TIP3    H229627   2.102   4.372   4.809
 9896TIP3   OH229628   0.829   5.408   3.461
 9896TIP3    H129629   0.853   5.395   3.369
 9896TIP3    H229630   0.805   5.321   3.492
 9897TIP3   OH229631   5.723   5.976   3.645
 9897TIP3    H129632   5.763   6.057   3.675
 9897TIP3    H229633   5.785   5.941   3.581
 9898TIP3   OH229634   0.768   4.351   6.463
 9898TIP3    H129635   0.733   4.284   6.523
 9898TIP3    H229636   0.799   4.421   6.521
 9899TIP3   OH229637   5.897   4.577   3.194
 9899TIP3    H129638   5.968   4.554   3.255
 9899TIP3    H229639   5.942   4.613   3.118
 9900TIP3   OH229640   3.244   6.567   2.543
 9900TIP3    H129641   3.255   6.596   2.634
 9900TIP3    H229642   3.178   6.498   2.548
 9901TIP3   OH229643   7.333   0.012   5.482
 9901TIP3    H129644   7.315   0.044   5.570
 9901TIP3    H229645   7.394  -0.061   5.496
 9902TIP3   OH229646   0.856   4.946   4.895
 9902TIP3    H129647   0.828   4.860   4.928
 9902TIP3    H229648   0.930   4.970   4.951
 9903TIP3   OH229649   0.793   2.141   5.394
 9903TIP3    H129650   0.760   2.051   5.401
 9903TIP3    H229651   0.717   2.193   5.370
 9904TIP3   OH229652   2.418   0.244   2.238
 9904TIP3    H129653   2.463   0.253   2.154
 9904TIP3    H229654   2.478   0.190   2.291
 9905TIP3   OH229655   4.812   3.777   6.276
 9905TIP3    H129656   4.787   3.749   6.188
 9905TIP3    H229657   4.753   3.850   6.295
 9906TIP3   OH229658   4.426   3.588   6.151
 9906TIP3    H129659   4.348   3.643   6.141
 9906TIP3    H229660   4.401   3.522   6.216
 9907TIP3   OH229661   1.322   2.360   3.440
 9907TIP3    H129662   1.283   2.447   3.446
 9907TIP3    H229663   1.346   2.338   3.531
 9908TIP3   OH229664   4.562   7.735   2.393
 9908TIP3    H129665   4.507   7.729   2.315
 9908TIP3    H229666   4.588   7.827   2.397
 9909TIP3   OH229667   7.030   2.500   1.195
 9909TIP3    H129668   7.095   2.433   1.217
 9909TIP3    H229669   6.999   2.531   1.281
 9910TIP3   OH229670   8.261   2.021   6.195
 9910TIP3    H129671   8.231   2.108   6.223
 9910TIP3    H229672   8.354   2.033   6.174
 9911TIP3   OH229673   4.001   0.593   5.840
 9911TIP3    H129674   3.999   0.579   5.934
 9911TIP3    H229675   4.024   0.508   5.803
 9912TIP3   OH229676   5.047   7.493   3.454
 9912TIP3    H129677   5.104   7.480   3.530
 9912TIP3    H229678   4.959   7.470   3.486
 9913TIP3   OH229679   2.023   7.846   5.876
 9913TIP3    H129680   2.068   7.763   5.863
 9913TIP3    H229681   2.050   7.900   5.802
 9914TIP3   OH229682   8.362   2.045   6.567
 9914TIP3    H129683   8.435   1.984   6.554
 9914TIP3    H229684   8.371   2.109   6.496
 9915TIP3   OH229685   1.203   7.699   4.707
 9915TIP3    H129686   1.143   7.629   4.682
 9915TIP3    H229687   1.147   7.774   4.726
 9916TIP3   OH229688   4.583   0.893   2.221
 9916TIP3    H129689   4.540   0.825   2.168
 9916TIP3    H229690   4.632   0.844   2.287
 9917TIP3   OH229691   2.214   0.260   2.854
 9917TIP3    H129692   2.141   0.318   2.833
 9917TIP3    H229693   2.290   0.300   2.810
 9918TIP3   OH229694   5.807   0.818   3.674
 9918TIP3    H129695   5.867   0.838   3.602
 9918TIP3    H229696   5.720   0.828   3.636
 9919TIP3   OH229697   2.081   3.444   5.422
 9919TIP3    H129698   2.065   3.391   5.344
 9919TIP3    H229699   2.052   3.389   5.495
 9920TIP3   OH229700   5.735   4.242   0.124
 9920TIP3    H129701   5.666   4.307   0.138
 9920TIP3    H229702   5.753   4.206   0.210
 9921TIP3   OH229703   1.435   1.932   3.004
 9921TIP3    H129704   1.466   1.901   3.089
 9921TIP3    H229705   1.440   1.855   2.947
 9922TIP3   OH229706   4.909   4.411   4.620
 9922TIP3    H129707   5.000   4.395   4.646
 9922TIP3    H229708   4.897   4.359   4.541
 9923TIP3   OH229709   6.185   1.725   2.341
 9923TIP3    H129710   6.229   1.785   2.402
 9923TIP3    H229711   6.147   1.658   2.397
 9924TIP3   OH229712   1.048   1.581   1.018
 9924TIP3    H129713   1.141   1.596   1.007
 9924TIP3    H229714   1.014   1.662   1.055
 9925TIP3   OH229715   4.887   4.126   1.508
 9925TIP3    H129716   4.826   4.194   1.537
 9925TIP3    H229717   4.855   4.046   1.551
 9926TIP3   OH229718   6.667   0.284   4.700
 9926TIP3    H129719   6.721   0.250   4.629
 9926TIP3    H229720   6.704   0.242   4.779
 9927TIP3   OH229721   4.198   5.581   5.700
 9927TIP3    H129722   4.262   5.651   5.690
 9927TIP3    H229723   4.225   5.535   5.780
 9928TIP3   OH229724   0.967   2.377   0.451
 9928TIP3    H129725   1.034   2.341   0.393
 9928TIP3    H229726   0.888   2.327   0.431
 9929TIP3   OH229727   4.875   0.829   3.764
 9929TIP3    H129728   4.812   0.762   3.735
 9929TIP3    H229729   4.888   0.884   3.687
 9930TIP3   OH229730   7.207   2.481   5.779
 9930TIP3    H129731   7.140   2.550   5.786
 9930TIP3    H229732   7.184   2.419   5.849
 9931TIP3   OH229733   1.123   6.698   1.438
 9931TIP3    H129734   1.034   6.719   1.467
 9931TIP3    H229735   1.173   6.778   1.455
 9932TIP3   OH229736   0.338   0.639   4.682
 9932TIP3    H129737   0.273   0.571   4.697
 9932TIP3    H229738   0.293   0.720   4.703
 9933TIP3   OH229739   0.918   6.805   4.486
 9933TIP3    H129740   0.869   6.875   4.530
 9933TIP3    H229741   0.851   6.743   4.457
 9934TIP3   OH229742   6.599   2.125   4.910
 9934TIP3    H129743   6.515   2.164   4.885
 9934TIP3    H229744   6.592   2.109   5.004
 9935TIP3   OH229745   1.090   3.747   2.089
 9935TIP3    H129746   1.026   3.795   2.035
 9935TIP3    H229747   1.091   3.659   2.051
 9936TIP3   OH229748   7.131   5.168   3.225
 9936TIP3    H129749   7.134   5.216   3.142
 9936TIP3    H229750   7.121   5.236   3.291
 9937TIP3   OH229751   7.422   6.178   4.776
 9937TIP3    H129752   7.480   6.102   4.785
 9937TIP3    H229753   7.431   6.204   4.684
 9938TIP3   OH229754   8.138   3.068   0.926
 9938TIP3    H129755   8.175   3.048   1.011
 9938TIP3    H229756   8.214   3.075   0.868
 9939TIP3   OH229757   7.333   7.470   4.317
 9939TIP3    H129758   7.397   7.405   4.287
 9939TIP3    H229759   7.266   7.418   4.362
 9940TIP3   OH229760   6.342   7.349   0.465
 9940TIP3    H129761   6.317   7.425   0.517
 9940TIP3    H229762   6.368   7.385   0.380
 9941TIP3   OH229763   1.243   2.463   2.297
 9941TIP3    H129764   1.286   2.468   2.211
 9941TIP3    H229765   1.152   2.440   2.276
 9942TIP3   OH229766   5.949   4.771   6.715
 9942TIP3    H129767   5.865   4.726   6.717
 9942TIP3    H229768   5.959   4.807   6.803
 9943TIP3   OH229769   4.100   6.099   1.616
 9943TIP3    H129770   4.190   6.114   1.644
 9943TIP3    H229771   4.105   6.022   1.559
 9944TIP3   OH229772   4.216   7.763   5.230
 9944TIP3    H129773   4.271   7.728   5.300
 9944TIP3    H229774   4.145   7.808   5.276
 9945TIP3   OH229775   7.088   2.273   5.928
 9945TIP3    H129776   7.053   2.268   6.017
 9945TIP3    H229777   7.049   2.200   5.882
 9946TIP3   OH229778   5.159   3.295   1.951
 9946TIP3    H129779   5.178   3.380   1.991
 9946TIP3    H229780   5.206   3.296   1.868
 9947TIP3   OH229781   3.454   5.584   3.407
 9947TIP3    H129782   3.452   5.639   3.486
 9947TIP3    H229783   3.508   5.509   3.432
 9948TIP3   OH229784   5.180   0.000   1.543
 9948TIP3    H129785   5.112  -0.055   1.504
 9948TIP3    H229786   5.136   0.044   1.616
 9949TIP3   OH229787   4.258   7.520   6.126
 9949TIP3    H129788   4.195   7.450   6.147
 9949TIP3    H229789   4.344   7.479   6.136
 9950TIP3   OH229790   1.190   3.233   2.437
 9950TIP3    H129791   1.259   3.179   2.398
 9950TIP3    H229792   1.180   3.200   2.526
 9951TIP3   OH229793   3.991   1.891   0.752
 9951TIP3    H129794   4.015   1.968   0.803
 9951TIP3    H229795   3.999   1.818   0.814
 9952TIP3   OH229796   5.629   5.683   5.399
 9952TIP3    H129797   5.572   5.635   5.459
 9952TIP3    H229798   5.685   5.736   5.457
 9953TIP3   OH229799   5.382   1.082   1.872
 9953TIP3    H129800   5.421   1.106   1.788
 9953TIP3    H229801   5.355   1.166   1.911
 9954TIP3   OH229802   7.452   5.763   4.336
 9954TIP3    H129803   7.363   5.765   4.371
 9954TIP3    H229804   7.466   5.851   4.301
 9955TIP3   OH229805   6.001   4.320   3.813
 9955TIP3    H129806   6.025   4.256   3.746
 9955TIP3    H229807   6.062   4.304   3.885
 9956TIP3   OH229808   3.159   2.605   3.338
 9956TIP3    H129809   3.179   2.526   3.389
 9956TIP3    H229810   3.240   2.625   3.292
 9957TIP3   OH229811   5.193   1.736   3.513
 9957TIP3    H129812   5.234   1.818   3.485
 9957TIP3    H229813   5.133   1.763   3.582
 9958TIP3   OH229814   1.364   6.631   6.829
 9958TIP3    H129815   1.451   6.651   6.794
 9958TIP3    H229816   1.358   6.536   6.826
 9959TIP3   OH229817   3.608   3.516   3.685
 9959TIP3    H129818   3.585   3.423   3.680
 9959TIP3    H229819   3.625   3.541   3.594
 9960TIP3   OH229820   4.609   3.025   5.034
 9960TIP3    H129821   4.703   3.013   5.019
 9960TIP3    H229822   4.569   2.944   5.002
 9961TIP3   OH229823   5.478   7.795   0.778
 9961TIP3    H129824   5.573   7.797   0.769
 9961TIP3    H229825   5.456   7.702   0.773
 9962TIP3   OH229826   3.657   6.824   6.173
 9962TIP3    H129827   3.640   6.732   6.154
 9962TIP3    H229828   3.690   6.824   6.263
 9963TIP3   OH229829   4.297   3.394   5.357
 9963TIP3    H129830   4.223   3.440   5.318
 9963TIP3    H229831   4.269   3.303   5.362
 9964TIP3   OH229832   0.863   7.892   4.236
 9964TIP3    H129833   0.935   7.920   4.179
 9964TIP3    H229834   0.785   7.896   4.180
 9965TIP3   OH229835   4.282   3.932   5.541
 9965TIP3    H129836   4.260   3.885   5.622
 9965TIP3    H229837   4.241   3.881   5.471
 9966TIP3   OH229838   5.043   1.040   0.754
 9966TIP3    H129839   5.103   0.972   0.785
 9966TIP3    H229840   4.959   1.020   0.795
 9967TIP3   OH229841   4.707   7.720   1.017
 9967TIP3    H129842   4.779   7.757   1.069
 9967TIP3    H229843   4.748   7.648   0.968
 9968TIP3   OH229844   1.080   6.311   3.283
 9968TIP3    H129845   1.159   6.319   3.336
 9968TIP3    H229846   1.075   6.394   3.235
 9969TIP3   OH229847   7.873   0.724   2.294
 9969TIP3    H129848   7.911   0.799   2.246
 9969TIP3    H229849   7.839   0.762   2.375
 9970TIP3   OH229850   4.203   7.706   4.976
 9970TIP3    H129851   4.118   7.671   4.950
 9970TIP3    H229852   4.189   7.739   5.064
 9971TIP3   OH229853   0.274   1.568   2.125
 9971TIP3    H129854   0.239   1.554   2.213
 9971TIP3    H229855   0.235   1.651   2.097
 9972TIP3   OH229856   4.321   1.611   1.962
 9972TIP3    H129857   4.371   1.671   2.018
 9972TIP3    H229858   4.298   1.663   1.886
 9973TIP3   OH229859   6.886   0.441   0.251
 9973TIP3    H129860   6.945   0.516   0.260
 9973TIP3    H229861   6.943   0.365   0.245
 9974TIP3   OH229862   6.992   4.482   5.464
 9974TIP3    H129863   7.082   4.466   5.438
 9974TIP3    H229864   6.952   4.526   5.389
 9975TIP3   OH229865   7.011   1.429   2.716
 9975TIP3    H129866   7.093   1.455   2.758
 9975TIP3    H229867   6.994   1.341   2.749
 9976TIP3   OH229868   1.113   1.447   4.147
 9976TIP3    H129869   1.054   1.479   4.215
 9976TIP3    H229870   1.134   1.357   4.173
 9977TIP3   OH229871   3.975   5.063   6.642
 9977TIP3    H129872   4.059   5.099   6.672
 9977TIP3    H229873   3.962   4.985   6.695
 9978TIP3   OH229874   6.803   6.216   2.381
 9978TIP3    H129875   6.844   6.218   2.468
 9978TIP3    H229876   6.783   6.308   2.362
 9979TIP3   OH229877   6.590   3.198   1.890
 9979TIP3    H129878   6.555   3.249   1.817
 9979TIP3    H229879   6.673   3.163   1.857
 9980TIP3   OH229880   3.805   0.570   0.941
 9980TIP3    H129881   3.876   0.628   0.913
 9980TIP3    H229882   3.809   0.496   0.880
 9981TIP3   OH229883   5.789   0.463   0.541
 9981TIP3    H129884   5.878   0.437   0.520
 9981TIP3    H229885   5.762   0.517   0.467
 9982TIP3   OH229886   4.545   6.270   3.544
 9982TIP3    H129887   4.485   6.311   3.606
 9982TIP3    H229888   4.632   6.287   3.581
 9983TIP3   OH229889   0.853   5.984   1.810
 9983TIP3    H129890   0.908   5.918   1.853
 9983TIP3    H229891   0.871   6.065   1.858
 9984TIP3   OH229892   4.176   4.613   4.219
 9984TIP3    H129893   4.139   4.682   4.164
 9984TIP3    H229894   4.188   4.539   4.160
 9985TIP3   OH229895   0.043   6.896   6.144
 9985TIP3    H129896  -0.011   6.973   6.124
 9985TIP3    H229897   0.107   6.893   6.073
 9986TIP3   OH229898   2.963   7.921   0.893
 9986TIP3    H129899   3.003   7.940   0.808
 9986TIP3    H229900   2.891   7.861   0.873
 9987TIP3   OH229901   4.826   0.300   5.408
 9987TIP3    H129902   4.763   0.367   5.382
 9987TIP3    H229903   4.905   0.322   5.359
 9988TIP3   OH229904   5.359   7.038   0.499
 9988TIP3    H129905   5.268   7.068   0.499
 9988TIP3    H229906   5.354   6.944   0.514
 9989TIP3   OH229907   3.018   6.862   4.920
 9989TIP3    H129908   2.935   6.907   4.932
 9989TIP3    H229909   3.002   6.773   4.952
 9990TIP3   OH229910   2.564   5.462   1.200
 9990TIP3    H129911   2.603   5.521   1.265
 9990TIP3    H229912   2.541   5.519   1.126
 9991TIP3   OH229913   7.025   2.369   2.405
 9991TIP3    H129914   7.018   2.427   2.330
 9991TIP3    H229915   7.015   2.426   2.481
 9992TIP3   OH229916   1.992   2.678   5.381
 9992TIP3    H129917   2.017   2.763   5.345
 9992TIP3    H229918   1.929   2.699   5.450
 9993TIP3   OH229919   6.804   5.666   1.309
 9993TIP3    H129920   6.847   5.721   1.375
 9993TIP3    H229921   6.793   5.724   1.233
 9994TIP3   OH229922   0.819   7.741   0.813
 9994TIP3    H129923   0.775   7.657   0.824
 9994TIP3    H229924   0.890   7.723   0.750
 9995TIP3   OH229925   7.534   3.883   6.253
 9995TIP3    H129926   7.597   3.866   6.323
 9995TIP3    H229927   7.489   3.799   6.241
 9996TIP3   OH229928   7.357   1.048   2.271
 9996TIP3    H129929   7.390   1.136   2.289
 9996TIP3    H229930   7.369   1.037   2.176
 9997TIP3   OH229931  -0.008   3.081   0.819
 9997TIP3    H129932   0.012   2.989   0.832
 9997TIP3    H229933   0.060   3.113   0.760
 9998TIP3   OH229934   3.525   6.072   2.145
 9998TIP3    H129935   3.429   6.072   2.142
 9998TIP3    H229936   3.546   6.098   2.234
 9999TIP3   OH229937   8.118   6.540   1.287
 9999TIP3    H129938   8.065   6.605   1.334
 9999TIP3    H229939   8.202   6.540   1.334
10000TIP3   OH229940   7.806   3.330   6.456
10000TIP3    H129941   7.876   3.286   6.505
10000TIP3    H229942   7.810   3.290   6.369
10001TIP3   OH229943   2.458   3.646   1.557
10001TIP3    H129944   2.399   3.616   1.488
10001TIP3    H229945   2.476   3.737   1.535
10002TIP3   OH229946   1.039   1.761   2.452
10002TIP3    H129947   1.011   1.739   2.541
10002TIP3    H229948   1.069   1.852   2.459
10003TIP3   OH229949   2.396   2.791   6.828
10003TIP3    H129950   2.483   2.773   6.793
10003TIP3    H229951   2.411   2.810   6.921
10004TIP3   OH229952   2.417   3.966   6.308
10004TIP3    H129953   2.413   4.062   6.310
10004TIP3    H229954   2.470   3.943   6.385
10005TIP3   OH229955   4.330   0.841   4.110
10005TIP3    H129956   4.399   0.870   4.051
10005TIP3    H229957   4.251   0.838   4.055
10006TIP3   OH229958   3.193   0.131   5.586
10006TIP3    H129959   3.113   0.162   5.544
10006TIP3    H229960   3.246   0.097   5.515
10007TIP3   OH229961   2.447   2.161   5.438
10007TIP3    H129962   2.358   2.130   5.418
10007TIP3    H229963   2.435   2.253   5.462
10008TIP3   OH229964   8.060   4.851   1.650
10008TIP3    H129965   7.989   4.852   1.586
10008TIP3    H229966   8.135   4.888   1.603
10009TIP3   OH229967   3.202   1.293   1.073
10009TIP3    H129968   3.236   1.223   1.018
10009TIP3    H229969   3.277   1.350   1.089
10010TIP3   OH229970   3.667   2.127   0.511
10010TIP3    H129971   3.755   2.142   0.477
10010TIP3    H229972   3.679   2.071   0.587
10011TIP3   OH229973   0.843   4.581   6.586
10011TIP3    H129974   0.788   4.659   6.581
10011TIP3    H229975   0.840   4.556   6.679
10012TIP3   OH229976   5.237   4.981   2.028
10012TIP3    H129977   5.170   5.031   1.983
10012TIP3    H229978   5.228   4.892   1.992
10013TIP3   OH229979   0.878   5.441   0.544
10013TIP3    H129980   0.919   5.370   0.493
10013TIP3    H229981   0.951   5.482   0.591
10014TIP3   OH229982   4.756   4.980   3.217
10014TIP3    H129983   4.766   4.886   3.226
10014TIP3    H229984   4.838   5.017   3.248
10015TIP3   OH229985   0.480   4.984   3.252
10015TIP3    H129986   0.533   4.927   3.197
10015TIP3    H229987   0.399   4.995   3.203
10016TIP3   OH229988   4.255   0.754   1.852
10016TIP3    H129989   4.189   0.686   1.865
10016TIP3    H229990   4.206   0.834   1.837
10017TIP3   OH229991   0.878   0.604   0.155
10017TIP3    H129992   0.938   0.646   0.216
10017TIP3    H229993   0.923   0.607   0.071
10018TIP3   OH229994   5.703   4.510   0.521
10018TIP3    H129995   5.651   4.556   0.588
10018TIP3    H229996   5.727   4.579   0.459
10019TIP3   OH229997   6.800   7.418   5.431
10019TIP3    H129998   6.712   7.425   5.468
10019TIP3    H229999   6.793   7.458   5.344
10020TIP3   OH230000   0.737   1.558   6.815
10020TIP3    H130001   0.715   1.560   6.908
10020TIP3    H230002   0.673   1.498   6.777
10021TIP3   OH230003   3.429   6.230   1.449
10021TIP3    H130004   3.344   6.271   1.434
10021TIP3    H230005   3.484   6.301   1.481
10022TIP3   OH230006   1.596   5.953   1.735
10022TIP3    H130007   1.615   5.896   1.809
10022TIP3    H230008   1.558   5.895   1.669
10023TIP3   OH230009   8.191   0.392   2.013
10023TIP3    H130010   8.169   0.435   2.096
10023TIP3    H230011   8.192   0.463   1.949
10024TIP3   OH230012   4.907   2.317   4.265
10024TIP3    H130013   4.858   2.395   4.289
10024TIP3    H230014   4.963   2.300   4.340
10025TIP3   OH230015   3.111   2.114   6.305
10025TIP3    H130016   3.143   2.027   6.281
10025TIP3    H230017   3.083   2.105   6.396
10026TIP3   OH230018   3.510   0.184   3.464
10026TIP3    H130019   3.501   0.180   3.368
10026TIP3    H230020   3.443   0.247   3.491
10027TIP3   OH230021   2.655   4.515   6.526
10027TIP3    H130022   2.643   4.539   6.434
10027TIP3    H230023   2.743   4.546   6.548
10028TIP3   OH230024   2.299   3.980   1.556
10028TIP3    H130025   2.325   4.058   1.604
10028TIP3    H230026   2.206   3.994   1.534
10029TIP3   OH230027   7.190   7.249   6.214
10029TIP3    H130028   7.219   7.245   6.305
10029TIP3    H230029   7.233   7.327   6.179
10030TIP3   OH230030   3.409   7.014   5.672
10030TIP3    H130031   3.500   7.002   5.646
10030TIP3    H230032   3.362   6.942   5.629
10031TIP3   OH230033   4.149   7.187   0.193
10031TIP3    H130034   4.054   7.198   0.190
10031TIP3    H230035   4.180   7.261   0.246
10032TIP3   OH230036   6.851   3.646   1.624
10032TIP3    H130037   6.767   3.603   1.609
10032TIP3    H230038   6.909   3.612   1.556
10033TIP3   OH230039   7.640   1.538   2.226
10033TIP3    H130040   7.568   1.595   2.254
10033TIP3    H230041   7.685   1.589   2.158
10034TIP3   OH230042   8.075   1.287   3.256
10034TIP3    H130043   8.003   1.227   3.243
10034TIP3    H230044   8.149   1.231   3.281
10035TIP3   OH230045   6.216   3.186   1.611
10035TIP3    H130046   6.129   3.185   1.570
10035TIP3    H230047   6.242   3.093   1.615
10036TIP3   OH230048   1.703   5.993   6.690
10036TIP3    H130049   1.745   6.029   6.611
10036TIP3    H230050   1.676   5.905   6.665
10037TIP3   OH230051   6.621   0.592   2.036
10037TIP3    H130052   6.570   0.672   2.027
10037TIP3    H230053   6.564   0.523   2.003
10038TIP3   OH230054   4.310   6.527   6.511
10038TIP3    H130055   4.367   6.464   6.465
10038TIP3    H230056   4.242   6.547   6.447
10039TIP3   OH230057   7.905   6.121   1.909
10039TIP3    H130058   7.919   6.028   1.924
10039TIP3    H230059   7.864   6.126   1.822
10040TIP3   OH230060   6.557   1.065   4.306
10040TIP3    H130061   6.527   0.979   4.275
10040TIP3    H230062   6.637   1.046   4.354
10041TIP3   OH230063   5.249   4.600   2.193
10041TIP3    H130064   5.302   4.574   2.118
10041TIP3    H230065   5.238   4.520   2.245
10042TIP3   OH230066   7.133   7.262   4.472
10042TIP3    H130067   7.086   7.183   4.496
10042TIP3    H230068   7.225   7.243   4.495
10043TIP3   OH230069   1.714   5.425   4.038
10043TIP3    H130070   1.763   5.378   4.105
10043TIP3    H230071   1.660   5.487   4.087
10044TIP3   OH230072   5.049   6.609   0.246
10044TIP3    H130073   5.063   6.606   0.340
10044TIP3    H230074   5.131   6.643   0.210
10045TIP3   OH230075   5.289   1.361   1.462
10045TIP3    H130076   5.196   1.339   1.457
10045TIP3    H230077   5.305   1.418   1.387
10046TIP3   OH230078   6.144   1.509   1.129
10046TIP3    H130079   6.070   1.481   1.182
10046TIP3    H230080   6.154   1.440   1.063
10047TIP3   OH230081   3.398   6.762   5.546
10047TIP3    H130082   3.411   6.709   5.468
10047TIP3    H230083   3.311   6.800   5.536
10048TIP3   OH230084   6.088   0.672   0.273
10048TIP3    H130085   6.153   0.617   0.230
10048TIP3    H230086   6.124   0.761   0.268
10049TIP3   OH230087   1.898   4.448   0.991
10049TIP3    H130088   1.979   4.455   1.042
10049TIP3    H230089   1.857   4.534   0.998
10050TIP3   OH230090   0.196   3.174   0.533
10050TIP3    H130091   0.267   3.132   0.485
10050TIP3    H230092   0.240   3.233   0.594
10051TIP3   OH230093   5.174   4.021   4.450
10051TIP3    H130094   5.164   4.115   4.436
10051TIP3    H230095   5.251   3.997   4.398
10052TIP3   OH230096   1.031   4.656   4.134
10052TIP3    H130097   0.968   4.716   4.094
10052TIP3    H230098   1.103   4.651   4.070
10053TIP3   OH230099   2.390   2.753   4.540
10053TIP3    H130100   2.363   2.843   4.558
10053TIP3    H230101   2.383   2.708   4.625
10054TIP3   OH230102   2.377   3.708   1.251
10054TIP3    H130103   2.373   3.648   1.176
10054TIP3    H230104   2.317   3.670   1.315
10055TIP3   OH230105   1.559   1.407   6.063
10055TIP3    H130106   1.551   1.447   5.977
10055TIP3    H230107   1.471   1.376   6.084
10056TIP3   OH230108   2.731   7.484   6.046
10056TIP3    H130109   2.704   7.530   6.126
10056TIP3    H230110   2.793   7.543   6.004
10057TIP3   OH230111   4.863   4.478   3.542
10057TIP3    H130112   4.947   4.519   3.561
10057TIP3    H230113   4.809   4.549   3.507
10058TIP3   OH230114   1.729   7.104   0.592
10058TIP3    H130115   1.716   7.165   0.665
10058TIP3    H230116   1.664   7.129   0.527
10059TIP3   OH230117   1.011   0.090   0.950
10059TIP3    H130118   1.087   0.034   0.963
10059TIP3    H230119   0.962   0.085   1.032
10060TIP3   OH230120   4.001   2.586   0.817
10060TIP3    H130121   4.083   2.617   0.779
10060TIP3    H230122   3.985   2.502   0.773
10061TIP3   OH230123   3.251   4.097   5.886
10061TIP3    H130124   3.178   4.042   5.858
10061TIP3    H230125   3.329   4.049   5.860
10062TIP3   OH230126   0.853   3.361   4.217
10062TIP3    H130127   0.865   3.442   4.267
10062TIP3    H230128   0.836   3.391   4.127
10063TIP3   OH230129   1.937   3.533   5.805
10063TIP3    H130130   1.964   3.595   5.737
10063TIP3    H230131   1.843   3.522   5.793
10064TIP3   OH230132   1.795   6.590   6.336
10064TIP3    H130133   1.803   6.685   6.326
10064TIP3    H230134   1.825   6.554   6.252
10065TIP3   OH230135   3.026   3.773   1.675
10065TIP3    H130136   3.035   3.845   1.738
10065TIP3    H230137   2.988   3.814   1.598
10066TIP3   OH230138   3.325   3.974   4.666
10066TIP3    H130139   3.368   3.943   4.745
10066TIP3    H230140   3.360   4.063   4.653
10067TIP3   OH230141   8.266   3.935   4.200
10067TIP3    H130142   8.352   3.964   4.232
10067TIP3    H230143   8.218   3.910   4.278
10068TIP3   OH230144   7.740   3.286   5.109
10068TIP3    H130145   7.723   3.265   5.201
10068TIP3    H230146   7.713   3.207   5.062
10069TIP3   OH230147   8.160   7.255   3.419
10069TIP3    H130148   8.231   7.302   3.375
10069TIP3    H230149   8.110   7.324   3.463
10070TIP3   OH230150   5.594   5.725   3.575
10070TIP3    H130151   5.674   5.777   3.574
10070TIP3    H230152   5.618   5.644   3.620
10071TIP3   OH230153   0.372   0.885   0.942
10071TIP3    H130154   0.300   0.888   1.005
10071TIP3    H230155   0.449   0.862   0.995
10072TIP3   OH230156   7.856   5.297   0.352
10072TIP3    H130157   7.906   5.215   0.344
10072TIP3    H230158   7.789   5.290   0.283
10073TIP3   OH230159   2.349   3.394   1.260
10073TIP3    H130160   2.350   3.298   1.258
10073TIP3    H230161   2.405   3.420   1.187
10074TIP3   OH230162   6.550   5.801   4.005
10074TIP3    H130163   6.523   5.873   3.948
10074TIP3    H230164   6.511   5.823   4.090
10075TIP3   OH230165   5.665   0.281   3.298
10075TIP3    H130166   5.756   0.286   3.270
10075TIP3    H230167   5.668   0.235   3.382
10076TIP3   OH230168   7.161   3.537   0.513
10076TIP3    H130169   7.075   3.540   0.470
10076TIP3    H230170   7.224   3.544   0.441
10077TIP3   OH230171   2.482   3.284   3.075
10077TIP3    H130172   2.465   3.343   3.002
10077TIP3    H230173   2.435   3.323   3.149
10078TIP3   OH230174   8.371   0.481   3.185
10078TIP3    H130175   8.443   0.503   3.126
10078TIP3    H230176   8.346   0.564   3.225
10079TIP3   OH230177   6.273   4.216   4.691
10079TIP3    H130178   6.268   4.144   4.755
10079TIP3    H230179   6.209   4.280   4.721
10080TIP3   OH230180   3.011   0.350   4.177
10080TIP3    H130181   2.995   0.434   4.134
10080TIP3    H230182   3.086   0.313   4.129
10081TIP3   OH230183   4.930   4.816   0.803
10081TIP3    H130184   4.909   4.896   0.755
10081TIP3    H230185   5.026   4.812   0.802
10082TIP3   OH230186   7.176   3.809   1.814
10082TIP3    H130187   7.131   3.725   1.821
10082TIP3    H230188   7.110   3.870   1.782
10083TIP3   OH230189   7.031   2.894   2.066
10083TIP3    H130190   7.104   2.954   2.047
10083TIP3    H230191   7.054   2.813   2.020
10084TIP3   OH230192   7.030   0.425   6.040
10084TIP3    H130193   7.017   0.467   5.956
10084TIP3    H230194   7.104   0.471   6.079
10085TIP3   OH230195   0.731   7.761   5.702
10085TIP3    H130196   0.791   7.779   5.629
10085TIP3    H230197   0.773   7.802   5.778
10086TIP3   OH230198   7.123   2.320   3.463
10086TIP3    H130199   7.056   2.343   3.399
10086TIP3    H230200   7.140   2.401   3.511
10087TIP3   OH230201   6.175   3.867   2.510
10087TIP3    H130202   6.090   3.828   2.530
10087TIP3    H230203   6.211   3.812   2.440
10088TIP3   OH230204   7.452   0.658   1.281
10088TIP3    H130205   7.444   0.575   1.328
10088TIP3    H230206   7.481   0.634   1.193
10089TIP3   OH230207   5.165   6.888   4.210
10089TIP3    H130208   5.209   6.915   4.291
10089TIP3    H230209   5.187   6.957   4.148
10090TIP3   OH230210   0.250   7.154   5.896
10090TIP3    H130211   0.302   7.193   5.827
10090TIP3    H230212   0.224   7.227   5.952
10091TIP3   OH230213   5.934   1.945   5.583
10091TIP3    H130214   5.892   2.030   5.578
10091TIP3    H230215   5.948   1.919   5.492
10092TIP3   OH230216   5.316   7.454   0.895
10092TIP3    H130217   5.392   7.455   0.836
10092TIP3    H230218   5.242   7.430   0.838
10093TIP3   OH230219   3.771   3.162   6.169
10093TIP3    H130220   3.816   3.170   6.254
10093TIP3    H230221   3.841   3.172   6.104
10094TIP3   OH230222   8.372   5.857   6.795
10094TIP3    H130223   8.334   5.793   6.856
10094TIP3    H230224   8.366   5.941   6.840
10095TIP3   OH230225   4.429   2.410   5.422
10095TIP3    H130226   4.349   2.369   5.389
10095TIP3    H230227   4.444   2.484   5.363
10096TIP3   OH230228   2.471   5.426   6.734
10096TIP3    H130229   2.382   5.442   6.701
10096TIP3    H230230   2.519   5.393   6.658
10097TIP3   OH230231   4.012   0.879   6.047
10097TIP3    H130232   4.003   0.911   6.137
10097TIP3    H230233   4.018   0.784   6.056
10098TIP3   OH230234   1.904   4.075   4.760
10098TIP3    H130235   1.880   3.992   4.801
10098TIP3    H230236   1.821   4.123   4.753
10099TIP3   OH230237   5.070   0.380   6.671
10099TIP3    H130238   5.059   0.389   6.576
10099TIP3    H230239   5.154   0.421   6.690
10100TIP3   OH230240   1.728   0.739   0.642
10100TIP3    H130241   1.800   0.800   0.660
10100TIP3    H230242   1.739   0.670   0.708
10101TIP3   OH230243   2.068   6.292   0.886
10101TIP3    H130244   2.116   6.210   0.893
10101TIP3    H230245   2.011   6.281   0.810
10102TIP3   OH230246   4.596   5.051   1.009
10102TIP3    H130247   4.567   4.961   1.021
10102TIP3    H230248   4.612   5.060   0.915
10103TIP3   OH230249   3.330   1.112   5.041
10103TIP3    H130250   3.272   1.133   4.967
10103TIP3    H230251   3.384   1.040   5.009
10104TIP3   OH230252   6.778   4.193   2.016
10104TIP3    H130253   6.799   4.099   2.019
10104TIP3    H230254   6.850   4.235   2.063
10105TIP3   OH230255   0.147   1.026   6.613
10105TIP3    H130256   0.084   1.093   6.642
10105TIP3    H230257   0.099   0.975   6.548
10106TIP3   OH230258   0.794   7.119   2.456
10106TIP3    H130259   0.723   7.096   2.515
10106TIP3    H230260   0.785   7.059   2.382
10107TIP3   OH230261   1.757   5.608   6.295
10107TIP3    H130262   1.722   5.581   6.209
10107TIP3    H230263   1.808   5.533   6.324
10108TIP3   OH230264   5.491   7.385   1.261
10108TIP3    H130265   5.403   7.415   1.239
10108TIP3    H230266   5.541   7.466   1.275
10109TIP3   OH230267   3.090   7.837   3.126
10109TIP3    H130268   3.103   7.888   3.046
10109TIP3    H230269   3.069   7.901   3.193
10110TIP3   OH230270   0.456   1.020   3.351
10110TIP3    H130271   0.520   0.953   3.329
10110TIP3    H230272   0.508   1.091   3.389
10111TIP3   OH230273   1.975   1.055   4.639
10111TIP3    H130274   1.887   1.018   4.648
10111TIP3    H230275   1.981   1.119   4.709
10112TIP3   OH230276   3.117   0.584   5.137
10112TIP3    H130277   3.203   0.543   5.126
10112TIP3    H230278   3.070   0.563   5.057
10113TIP3   OH230279   6.962   4.758   4.965
10113TIP3    H130280   6.869   4.735   4.965
10113TIP3    H230281   6.963   4.850   4.939
10114TIP3   OH230282   8.000   5.263   0.792
10114TIP3    H130283   8.033   5.223   0.711
10114TIP3    H230284   7.908   5.239   0.794
10115TIP3   OH230285   4.348   3.828   5.825
10115TIP3    H130286   4.439   3.850   5.841
10115TIP3    H230287   4.343   3.733   5.842
10116TIP3   OH230288   4.531   5.921   6.424
10116TIP3    H130289   4.525   5.831   6.454
10116TIP3    H230290   4.458   5.966   6.466
10117TIP3   OH230291   2.425   6.162   3.805
10117TIP3    H130292   2.503   6.108   3.818
10117TIP3    H230293   2.379   6.121   3.731
10118TIP3   OH230294   2.223   7.853   1.836
10118TIP3    H130295   2.240   7.940   1.872
10118TIP3    H230296   2.301   7.802   1.859
10119TIP3   OH230297   5.294   2.810   0.330
10119TIP3    H130298   5.228   2.848   0.389
10119TIP3    H230299   5.259   2.724   0.308
10120TIP3   OH230300   0.981   3.858   1.132
10120TIP3    H130301   0.992   3.768   1.161
10120TIP3    H230302   0.979   3.909   1.213
10121TIP3   OH230303   6.558   4.109   5.554
10121TIP3    H130304   6.543   4.017   5.528
10121TIP3    H230305   6.618   4.142   5.488
10122TIP3   OH230306   3.091   4.614   1.857
10122TIP3    H130307   3.075   4.703   1.826
10122TIP3    H230308   3.097   4.562   1.777
10123TIP3   OH230309   3.421   5.102   6.537
10123TIP3    H130310   3.464   5.119   6.621
10123TIP3    H230311   3.470   5.154   6.474
10124TIP3   OH230312   2.349   4.781   4.126
10124TIP3    H130313   2.309   4.760   4.042
10124TIP3    H230314   2.418   4.715   4.137
10125TIP3   OH230315   4.602   3.332   5.434
10125TIP3    H130316   4.533   3.304   5.373
10125TIP3    H230317   4.568   3.413   5.472
10126TIP3   OH230318   2.029   0.974   4.276
10126TIP3    H130319   2.002   0.883   4.285
10126TIP3    H230320   2.107   0.981   4.332
10127TIP3   OH230321   1.774   3.237   5.784
10127TIP3    H130322   1.802   3.238   5.876
10127TIP3    H230323   1.679   3.252   5.788
10128TIP3   OH230324   7.582   6.743   1.113
10128TIP3    H130325   7.586   6.794   1.194
10128TIP3    H230326   7.672   6.715   1.098
10129TIP3   OH230327   7.698   0.965   1.125
10129TIP3    H130328   7.729   1.021   1.197
10129TIP3    H230329   7.749   0.994   1.050
10130TIP3   OH230330   2.467   6.314   4.041
10130TIP3    H130331   2.433   6.255   3.974
10130TIP3    H230332   2.527   6.260   4.093
10131TIP3   OH230333   4.986   7.907   0.226
10131TIP3    H130334   5.044   7.843   0.268
10131TIP3    H230335   4.970   7.872   0.138
10132TIP3   OH230336   4.068   4.646   2.787
10132TIP3    H130337   4.039   4.729   2.748
10132TIP3    H230338   4.161   4.640   2.767
10133TIP3   OH230339   1.892   3.530   2.123
10133TIP3    H130340   1.828   3.587   2.081
10133TIP3    H230341   1.866   3.529   2.215
10134TIP3   OH230342   7.913   7.323   1.116
10134TIP3    H130343   7.898   7.302   1.023
10134TIP3    H230344   7.948   7.242   1.153
10135TIP3   OH230345   7.450   7.713   0.401
10135TIP3    H130346   7.489   7.635   0.362
10135TIP3    H230347   7.450   7.778   0.331
10136TIP3   OH230348   7.803   1.665   5.610
10136TIP3    H130349   7.865   1.722   5.565
10136TIP3    H230350   7.857   1.610   5.667
10137TIP3   OH230351   3.219   4.797   4.710
10137TIP3    H130352   3.221   4.711   4.668
10137TIP3    H230353   3.167   4.852   4.652
10138TIP3   OH230354   2.793   4.599   5.545
10138TIP3    H130355   2.829   4.575   5.459
10138TIP3    H230356   2.868   4.633   5.594
10139TIP3   OH230357   2.303   7.650   6.429
10139TIP3    H130358   2.359   7.722   6.401
10139TIP3    H230359   2.218   7.691   6.444
10140TIP3   OH230360   1.016   3.626   2.454
10140TIP3    H130361   1.097   3.673   2.434
10140TIP3    H230362   0.961   3.690   2.498
10141TIP3   OH230363   1.053   6.091   2.860
10141TIP3    H130364   1.063   6.026   2.790
10141TIP3    H230365   1.127   6.150   2.848
10142TIP3   OH230366   7.889   6.288   6.231
10142TIP3    H130367   7.864   6.360   6.288
10142TIP3    H230368   7.965   6.320   6.183
10143TIP3   OH230369   7.028   6.880   5.768
10143TIP3    H130370   6.942   6.921   5.779
10143TIP3    H230371   7.050   6.896   5.676
10144TIP3   OH230372   7.928   3.766   4.552
10144TIP3    H130373   7.989   3.821   4.502
10144TIP3    H230374   7.871   3.828   4.597
10145TIP3   OH230375   0.565   7.036   4.776
10145TIP3    H130376   0.507   7.096   4.730
10145TIP3    H230377   0.606   7.089   4.844
10146TIP3   OH230378   2.122   5.964   2.129
10146TIP3    H130379   2.040   5.921   2.104
10146TIP3    H230380   2.169   5.976   2.046
10147TIP3   OH230381   7.288   0.377   2.917
10147TIP3    H130382   7.234   0.433   2.972
10147TIP3    H230383   7.372   0.370   2.963
10148TIP3   OH230384   5.911   1.500   5.689
10148TIP3    H130385   5.966   1.427   5.660
10148TIP3    H230386   5.972   1.569   5.714
10149TIP3   OH230387   3.247   6.372   5.879
10149TIP3    H130388   3.208   6.414   5.802
10149TIP3    H230389   3.190   6.398   5.951
10150TIP3   OH230390   0.316   0.916   2.343
10150TIP3    H130391   0.394   0.861   2.345
10150TIP3    H230392   0.348   1.004   2.361
10151TIP3   OH230393   3.435   2.194   5.952
10151TIP3    H130394   3.412   2.147   6.032
10151TIP3    H230395   3.522   2.231   5.970
10152TIP3   OH230396   3.125   6.260   3.789
10152TIP3    H130397   3.171   6.201   3.729
10152TIP3    H230398   3.070   6.314   3.732
10153TIP3   OH230399   2.180   5.185   5.843
10153TIP3    H130400   2.203   5.103   5.799
10153TIP3    H230401   2.085   5.192   5.832
10154TIP3   OH230402   2.070   5.632   5.468
10154TIP3    H130403   2.160   5.614   5.496
10154TIP3    H230404   2.032   5.546   5.453
10155TIP3   OH230405   2.057   2.288   3.692
10155TIP3    H130406   2.039   2.296   3.598
10155TIP3    H230407   1.978   2.321   3.734
10156TIP3   OH230408   5.060   4.427   0.710
10156TIP3    H130409   4.990   4.478   0.750
10156TIP3    H230410   5.017   4.372   0.646
10157TIP3   OH230411   5.250   0.999   2.224
10157TIP3    H130412   5.161   0.992   2.257
10157TIP3    H230413   5.257   0.929   2.159
10158TIP3   OH230414   8.397   2.523   2.885
10158TIP3    H130415   8.345   2.448   2.857
10158TIP3    H230416   8.444   2.492   2.963
10159TIP3   OH230417   8.175   5.004   3.492
10159TIP3    H130418   8.232   4.955   3.432
10159TIP3    H230419   8.122   5.059   3.435
10160TIP3   OH230420   3.624   1.180   2.428
10160TIP3    H130421   3.689   1.249   2.438
10160TIP3    H230422   3.658   1.125   2.357
10161TIP3   OH230423   7.130   3.404   5.264
10161TIP3    H130424   7.069   3.448   5.324
10161TIP3    H230425   7.211   3.455   5.271
10162TIP3   OH230426   2.896   2.399   0.304
10162TIP3    H130427   2.852   2.407   0.220
10162TIP3    H230428   2.974   2.453   0.296
10163TIP3   OH230429   0.992   4.377   1.375
10163TIP3    H130430   1.063   4.409   1.432
10163TIP3    H230431   0.921   4.439   1.389
10164TIP3   OH230432   3.430   6.934   2.046
10164TIP3    H130433   3.441   7.006   2.109
10164TIP3    H230434   3.407   6.859   2.100
10165TIP3   OH230435   4.347   0.463   3.334
10165TIP3    H130436   4.320   0.383   3.380
10165TIP3    H230437   4.268   0.517   3.333
10166TIP3   OH230438   7.278   2.789   5.356
10166TIP3    H130439   7.374   2.780   5.355
10166TIP3    H230440   7.256   2.796   5.448
10167TIP3   OH230441   0.423   3.515   2.284
10167TIP3    H130442   0.514   3.540   2.267
10167TIP3    H230443   0.415   3.427   2.247
10168TIP3   OH230444   5.890   4.192   4.740
10168TIP3    H130445   5.831   4.137   4.791
10168TIP3    H230446   5.940   4.131   4.686
10169TIP3   OH230447   4.500   6.544   4.329
10169TIP3    H130448   4.541   6.538   4.415
10169TIP3    H230449   4.414   6.504   4.340
10170TIP3   OH230450   2.778   7.426   1.116
10170TIP3    H130451   2.785   7.414   1.211
10170TIP3    H230452   2.739   7.513   1.105
10171TIP3   OH230453   7.663   7.855   2.167
10171TIP3    H130454   7.734   7.790   2.168
10171TIP3    H230455   7.641   7.866   2.075
10172TIP3   OH230456   3.142   5.165   4.796
10172TIP3    H130457   3.165   5.076   4.823
10172TIP3    H230458   3.051   5.176   4.826
10173TIP3   OH230459   5.085   7.444   0.728
10173TIP3    H130460   5.100   7.488   0.645
10173TIP3    H230461   4.991   7.455   0.744
10174TIP3   OH230462   7.517   7.811   5.397
10174TIP3    H130463   7.608   7.818   5.427
10174TIP3    H230464   7.476   7.749   5.458
10175TIP3   OH230465   1.175   1.083   0.333
10175TIP3    H130466   1.180   1.110   0.424
10175TIP3    H230467   1.106   1.138   0.296
10176TIP3   OH230468   8.255   4.431   3.952
10176TIP3    H130469   8.241   4.352   3.898
10176TIP3    H230470   8.341   4.418   3.992
10177TIP3   OH230471   5.698   7.687   3.534
10177TIP3    H130472   5.653   7.771   3.542
10177TIP3    H230473   5.660   7.632   3.603
10178TIP3   OH230474   6.320   6.023   1.457
10178TIP3    H130475   6.366   6.107   1.459
10178TIP3    H230476   6.324   5.992   1.547
10179TIP3   OH230477   3.274   0.993   4.231
10179TIP3    H130478   3.216   1.007   4.157
10179TIP3    H230479   3.362   0.995   4.193
10180TIP3   OH230480   2.190   4.757   1.936
10180TIP3    H130481   2.272   4.730   1.893
10180TIP3    H230482   2.129   4.686   1.919
10181TIP3   OH230483   1.431   6.101   2.535
10181TIP3    H130484   1.484   6.032   2.575
10181TIP3    H230485   1.487   6.179   2.537
10182TIP3   OH230486   3.388   7.131   1.154
10182TIP3    H130487   3.435   7.214   1.154
10182TIP3    H230488   3.448   7.069   1.195
10183TIP3   OH230489   3.442   6.850   3.852
10183TIP3    H130490   3.476   6.819   3.936
10183TIP3    H230491   3.347   6.855   3.865
10184TIP3   OH230492   1.318   5.661   2.081
10184TIP3    H130493   1.375   5.608   2.025
10184TIP3    H230494   1.233   5.617   2.077
10185TIP3   OH230495   1.676   6.534   2.024
10185TIP3    H130496   1.591   6.553   2.063
10185TIP3    H230497   1.677   6.583   1.942
10186TIP3   OH230498   3.158   0.994   5.276
10186TIP3    H130499   3.198   1.040   5.350
10186TIP3    H230500   3.184   1.044   5.199
10187TIP3   OH230501   8.375   3.311   2.094
10187TIP3    H130502   8.321   3.249   2.143
10187TIP3    H230503   8.324   3.331   2.015
10188TIP3   OH230504   7.670   1.956   2.773
10188TIP3    H130505   7.613   1.893   2.817
10188TIP3    H230506   7.609   2.018   2.732
10189TIP3   OH230507   0.895   7.694   2.684
10189TIP3    H130508   0.935   7.698   2.771
10189TIP3    H230509   0.941   7.624   2.639
10190TIP3   OH230510   5.672   3.760   5.005
10190TIP3    H130511   5.663   3.666   4.989
10190TIP3    H230512   5.765   3.772   5.025
10191TIP3   OH230513   4.375   4.074   2.777
10191TIP3    H130514   4.359   3.997   2.831
10191TIP3    H230515   4.288   4.105   2.752
10192TIP3   OH230516   5.061   0.679   2.944
10192TIP3    H130517   5.017   0.621   3.006
10192TIP3    H230518   5.044   0.640   2.858
10193TIP3   OH230519   5.225   7.085   4.853
10193TIP3    H130520   5.310   7.106   4.814
10193TIP3    H230521   5.245   7.019   4.920
10194TIP3   OH230522   8.090   0.975   1.067
10194TIP3    H130523   8.137   0.932   1.138
10194TIP3    H230524   8.118   1.066   1.069
10195TIP3   OH230525   1.454   5.747   0.896
10195TIP3    H130526   1.530   5.736   0.840
10195TIP3    H230527   1.435   5.660   0.930
10196TIP3   OH230528   3.939   1.688   0.925
10196TIP3    H130529   3.994   1.616   0.958
10196TIP3    H230530   3.872   1.699   0.991
10197TIP3   OH230531   6.778   1.620   3.936
10197TIP3    H130532   6.782   1.552   3.869
10197TIP3    H230533   6.761   1.572   4.018
10198TIP3   OH230534   7.646   2.610   1.276
10198TIP3    H130535   7.702   2.568   1.211
10198TIP3    H230536   7.569   2.638   1.227
10199TIP3   OH230537   0.290   4.388   6.478
10199TIP3    H130538   0.382   4.414   6.465
10199TIP3    H230539   0.274   4.322   6.411
10200TIP3   OH230540   6.275   1.416   2.898
10200TIP3    H130541   6.238   1.337   2.936
10200TIP3    H230542   6.214   1.441   2.829
10201TIP3   OH230543   8.325   7.310   1.688
10201TIP3    H130544   8.233   7.291   1.670
10201TIP3    H230545   8.336   7.290   1.781
10202TIP3   OH230546   4.183   3.680   1.396
10202TIP3    H130547   4.185   3.667   1.490
10202TIP3    H230548   4.222   3.600   1.360
10203TIP3   OH230549   0.380   1.900   0.118
10203TIP3    H130550   0.297   1.900   0.166
10203TIP3    H230551   0.358   1.865   0.032
10204TIP3   OH230552   6.193   7.552   6.292
10204TIP3    H130553   6.147   7.599   6.361
10204TIP3    H230554   6.154   7.585   6.210
10205TIP3   OH230555   7.800   7.583   0.058
10205TIP3    H130556   7.790   7.517  -0.010
10205TIP3    H230557   7.894   7.600   0.062
10206TIP3   OH230558   0.635   0.479   0.709
10206TIP3    H130559   0.624   0.560   0.659
10206TIP3    H230560   0.548   0.439   0.708
10207TIP3   OH230561   6.592   2.255   0.703
10207TIP3    H130562   6.519   2.293   0.751
10207TIP3    H230563   6.665   2.314   0.719
10208TIP3   OH230564   2.983   7.355   5.339
10208TIP3    H130565   2.980   7.272   5.386
10208TIP3    H230566   2.918   7.409   5.382
10209TIP3   OH230567   1.009   2.356   3.313
10209TIP3    H130568   0.990   2.439   3.269
10209TIP3    H230569   1.065   2.381   3.386
10210TIP3   OH230570   1.808   2.495   4.254
10210TIP3    H130571   1.872   2.476   4.322
10210TIP3    H230572   1.858   2.543   4.187
10211TIP3   OH230573   0.436   6.431   3.399
10211TIP3    H130574   0.512   6.433   3.341
10211TIP3    H230575   0.396   6.517   3.390
10212TIP3   OH230576   2.660   7.364   2.327
10212TIP3    H130577   2.599   7.421   2.375
10212TIP3    H230578   2.747   7.398   2.349
10213TIP3   OH230579   1.367   3.486   2.046
10213TIP3    H130580   1.449   3.445   2.071
10213TIP3    H230581   1.302   3.416   2.051
10214TIP3   OH230582   6.489   3.236   2.725
10214TIP3    H130583   6.477   3.222   2.819
10214TIP3    H230584   6.401   3.257   2.694
10215TIP3   OH230585   4.621   3.751   1.277
10215TIP3    H130586   4.589   3.685   1.338
10215TIP3    H230587   4.631   3.705   1.194
10216TIP3   OH230588   3.205   5.828   4.478
10216TIP3    H130589   3.275   5.819   4.413
10216TIP3    H230590   3.136   5.877   4.433
10217TIP3   OH230591   1.621   0.293   2.238
10217TIP3    H130592   1.710   0.258   2.228
10217TIP3    H230593   1.565   0.229   2.195
10218TIP3   OH230594   7.576   6.905   0.242
10218TIP3    H130595   7.516   6.864   0.305
10218TIP3    H230596   7.599   6.989   0.282
10219TIP3   OH230597   7.615   3.275   6.662
10219TIP3    H130598   7.656   3.240   6.741
10219TIP3    H230599   7.688   3.296   6.604
10220TIP3   OH230600   6.283   2.921   5.340
10220TIP3    H130601   6.250   3.010   5.332
10220TIP3    H230602   6.354   2.927   5.404
10221TIP3   OH230603   4.144   0.010   1.465
10221TIP3    H130604   4.088   0.085   1.485
10221TIP3    H230605   4.230   0.036   1.497
10222TIP3   OH230606   0.043   0.321   0.973
10222TIP3    H130607   0.094   0.366   1.040
10222TIP3    H230608   0.019   0.389   0.911
10223TIP3   OH230609   4.892   2.960   1.274
10223TIP3    H130610   4.898   3.049   1.309
10223TIP3    H230611   4.826   2.966   1.206
10224TIP3   OH230612   5.343   5.711   4.031
10224TIP3    H130613   5.375   5.663   4.107
10224TIP3    H230614   5.325   5.799   4.063
10225TIP3   OH230615   7.627   3.928   1.090
10225TIP3    H130616   7.594   3.850   1.134
10225TIP3    H230617   7.709   3.949   1.135
10226TIP3   OH230618   5.977   3.643   0.770
10226TIP3    H130619   5.888   3.609   0.759
10226TIP3    H230620   6.032   3.565   0.769
10227TIP3   OH230621   3.774   1.775   3.998
10227TIP3    H130622   3.827   1.814   3.929
10227TIP3    H230623   3.687   1.814   3.985
10228TIP3   OH230624   4.129   7.245   1.985
10228TIP3    H130625   4.074   7.225   2.062
10228TIP3    H230626   4.156   7.159   1.953
10229TIP3   OH230627   7.053   7.284   5.745
10229TIP3    H130628   7.074   7.232   5.822
10229TIP3    H230629   7.036   7.372   5.779
10230TIP3   OH230630   1.747   5.207   4.280
10230TIP3    H130631   1.824   5.265   4.281
10230TIP3    H230632   1.771   5.135   4.338
10231TIP3   OH230633   6.896   1.908   1.805
10231TIP3    H130634   6.901   1.937   1.896
10231TIP3    H230635   6.961   1.839   1.798
10232TIP3   OH230636   3.575   0.861   3.834
10232TIP3    H130637   3.552   0.951   3.811
10232TIP3    H230638   3.668   0.853   3.814
10233TIP3   OH230639   0.928   2.565   5.880
10233TIP3    H130640   0.956   2.651   5.851
10233TIP3    H230641   0.938   2.509   5.804
10234TIP3   OH230642   7.831   0.116   4.917
10234TIP3    H130643   7.803   0.195   4.963
10234TIP3    H230644   7.774   0.113   4.839
10235TIP3   OH230645   0.985   6.627   6.230
10235TIP3    H130646   0.927   6.575   6.286
10235TIP3    H230647   0.927   6.668   6.166
10236TIP3   OH230648   7.562   5.757   0.017
10236TIP3    H130649   7.513   5.720   0.091
10236TIP3    H230650   7.613   5.828   0.056
10237TIP3   OH230651   0.474   2.209   0.226
10237TIP3    H130652   0.487   2.267   0.151
10237TIP3    H230653   0.412   2.143   0.196
10238TIP3   OH230654   1.552   0.802   3.426
10238TIP3    H130655   1.474   0.841   3.466
10238TIP3    H230656   1.533   0.802   3.332
10239TIP3   OH230657   7.774   1.418   4.184
10239TIP3    H130658   7.746   1.327   4.197
10239TIP3    H230659   7.861   1.410   4.145
10240TIP3   OH230660   5.907   0.560   6.814
10240TIP3    H130661   5.901   0.555   6.719
10240TIP3    H230662   6.001   0.556   6.832
10241TIP3   OH230663   3.492   6.549   4.989
10241TIP3    H130664   3.510   6.492   4.915
10241TIP3    H230665   3.426   6.610   4.957
10242TIP3   OH230666   3.885   5.959   0.102
10242TIP3    H130667   3.824   6.022   0.139
10242TIP3    H230668   3.836   5.877   0.100
10243TIP3   OH230669   7.072   4.498   4.710
10243TIP3    H130670   7.084   4.412   4.669
10243TIP3    H230671   6.990   4.489   4.759
10244TIP3   OH230672   2.988   0.486   3.540
10244TIP3    H130673   2.897   0.457   3.532
10244TIP3    H230674   2.999   0.506   3.633
10245TIP3   OH230675   6.560   7.678   5.974
10245TIP3    H130676   6.613   7.600   5.960
10245TIP3    H230677   6.590   7.740   5.907
10246TIP3   OH230678   3.877   3.938   5.450
10246TIP3    H130679   3.863   3.920   5.358
10246TIP3    H230680   3.933   4.016   5.451
10247TIP3   OH230681   2.527   6.946   1.499
10247TIP3    H130682   2.493   7.025   1.542
10247TIP3    H230683   2.462   6.925   1.432
10248TIP3   OH230684   4.100   7.316   1.597
10248TIP3    H130685   4.062   7.368   1.526
10248TIP3    H230686   4.068   7.357   1.677
10249TIP3   OH230687   7.280   4.273   1.218
10249TIP3    H130688   7.229   4.198   1.248
10249TIP3    H230689   7.217   4.344   1.211
10250TIP3   OH230690   5.148   6.055   5.466
10250TIP3    H130691   5.129   5.970   5.426
10250TIP3    H230692   5.195   6.034   5.547
10251TIP3   OH230693   4.351   2.701   1.678
10251TIP3    H130694   4.427   2.678   1.731
10251TIP3    H230695   4.276   2.672   1.729
10252TIP3   OH230696   5.121   1.037   0.236
10252TIP3    H130697   5.119   1.071   0.325
10252TIP3    H230698   5.102   0.944   0.245
10253TIP3   OH230699   5.292   0.759   0.254
10253TIP3    H130700   5.358   0.690   0.249
10253TIP3    H230701   5.221   0.727   0.198
10254TIP3   OH230702   5.273   1.349   2.221
10254TIP3    H130703   5.227   1.373   2.302
10254TIP3    H230704   5.351   1.303   2.251
10255TIP3   OH230705   8.419   0.203   3.303
10255TIP3    H130706   8.389   0.290   3.275
10255TIP3    H230707   8.345   0.146   3.283
10256TIP3   OH230708   0.225   5.994   2.508
10256TIP3    H130709   0.243   6.013   2.416
10256TIP3    H230710   0.194   6.077   2.544
10257TIP3   OH230711   1.145   4.724   4.665
10257TIP3    H130712   1.191   4.695   4.744
10257TIP3    H230713   1.211   4.772   4.615
10258TIP3   OH230714   2.605   7.642   1.041
10258TIP3    H130715   2.574   7.629   1.131
10258TIP3    H230716   2.528   7.675   0.994
10259TIP3   OH230717   7.927   6.983   3.860
10259TIP3    H130718   8.013   6.997   3.819
10259TIP3    H230719   7.936   7.019   3.948
10260TIP3   OH230720   5.679   6.278   4.147
10260TIP3    H130721   5.642   6.235   4.070
10260TIP3    H230722   5.712   6.362   4.114
10261TIP3   OH230723   5.458   5.244   1.033
10261TIP3    H130724   5.497   5.185   1.097
10261TIP3    H230725   5.401   5.189   0.980
10262TIP3   OH230726   6.318   1.123   1.905
10262TIP3    H130727   6.228   1.101   1.880
10262TIP3    H230728   6.309   1.186   1.976
10263TIP3   OH230729   8.108   4.324   2.018
10263TIP3    H130730   8.068   4.257   2.073
10263TIP3    H230731   8.155   4.380   2.081
10264TIP3   OH230732   6.477   2.099   5.714
10264TIP3    H130733   6.393   2.078   5.674
10264TIP3    H230734   6.542   2.055   5.659
10265TIP3   OH230735   1.613   1.413   5.503
10265TIP3    H130736   1.570   1.439   5.422
10265TIP3    H230737   1.550   1.353   5.544
10266TIP3   OH230738   7.285   5.511   5.164
10266TIP3    H130739   7.319   5.529   5.252
10266TIP3    H230740   7.202   5.559   5.160
10267TIP3   OH230741   1.652   5.215   0.794
10267TIP3    H130742   1.705   5.135   0.797
10267TIP3    H230743   1.562   5.184   0.805
10268TIP3   OH230744   7.548   1.844   0.612
10268TIP3    H130745   7.469   1.895   0.631
10268TIP3    H230746   7.534   1.810   0.523
10269TIP3   OH230747   1.290   5.394   4.384
10269TIP3    H130748   1.297   5.457   4.312
10269TIP3    H230749   1.299   5.448   4.463
10270TIP3   OH230750   2.480   2.731   5.070
10270TIP3    H130751   2.388   2.719   5.044
10270TIP3    H230752   2.527   2.739   4.987
10271TIP3   OH230753   8.069   5.674   5.882
10271TIP3    H130754   7.979   5.642   5.878
10271TIP3    H230755   8.123   5.598   5.860
10272TIP3   OH230756   5.721   3.439   5.917
10272TIP3    H130757   5.727   3.522   5.965
10272TIP3    H230758   5.810   3.423   5.886
10273TIP3   OH230759   2.723   4.154   2.822
10273TIP3    H130760   2.752   4.157   2.913
10273TIP3    H230761   2.800   4.126   2.773
10274TIP3   OH230762   0.812   6.456   0.311
10274TIP3    H130763   0.901   6.473   0.344
10274TIP3    H230764   0.768   6.411   0.383
10275TIP3   OH230765   0.770   2.491   1.130
10275TIP3    H130766   0.849   2.524   1.086
10275TIP3    H230767   0.801   2.460   1.215
10276TIP3   OH230768   3.350   4.322   3.230
10276TIP3    H130769   3.418   4.323   3.298
10276TIP3    H230770   3.398   4.328   3.148
10277TIP3   OH230771   4.957   3.003   3.140
10277TIP3    H130772   4.901   2.994   3.217
10277TIP3    H230773   5.027   2.939   3.154
10278TIP3   OH230774   8.080   4.679   2.999
10278TIP3    H130775   8.041   4.699   3.084
10278TIP3    H230776   8.131   4.757   2.976
10279TIP3   OH230777   6.718   7.871   3.388
10279TIP3    H130778   6.774   7.887   3.464
10279TIP3    H230779   6.633   7.846   3.425
10280TIP3   OH230780   4.105   4.563   2.426
10280TIP3    H130781   4.053   4.640   2.448
10280TIP3    H230782   4.173   4.596   2.368
10281TIP3   OH230783   3.892   6.630   0.125
10281TIP3    H130784   3.954   6.685   0.077
10281TIP3    H230785   3.811   6.680   0.126
10282TIP3   OH230786   4.085   5.536   6.199
10282TIP3    H130787   4.160   5.552   6.142
10282TIP3    H230788   4.039   5.463   6.158
10283TIP3   OH230789   1.876   0.435   1.988
10283TIP3    H130790   1.866   0.431   2.083
10283TIP3    H230791   1.837   0.353   1.957
10284TIP3   OH230792   6.658   5.668   2.783
10284TIP3    H130793   6.719   5.649   2.855
10284TIP3    H230794   6.583   5.611   2.800
10285TIP3   OH230795   1.107   4.196   2.000
10285TIP3    H130796   1.126   4.266   1.937
10285TIP3    H230797   1.177   4.203   2.065
10286TIP3   OH230798   6.866   4.187   5.347
10286TIP3    H130799   6.955   4.155   5.362
10286TIP3    H230800   6.869   4.278   5.376
10287TIP3   OH230801   8.370   5.488   4.308
10287TIP3    H130802   8.384   5.542   4.230
10287TIP3    H230803   8.379   5.398   4.275
10288TIP3   OH230804   4.031   3.978   6.150
10288TIP3    H130805   4.018   4.063   6.108
10288TIP3    H230806   4.028   3.915   6.078
10289TIP3   OH230807   8.360   2.848   2.069
10289TIP3    H130808   8.359   2.771   2.127
10289TIP3    H230809   8.386   2.920   2.126
10290TIP3   OH230810   4.388   4.386   3.410
10290TIP3    H130811   4.419   4.301   3.442
10290TIP3    H230812   4.343   4.425   3.485
10291TIP3   OH230813   7.620   1.598   1.045
10291TIP3    H130814   7.695   1.645   1.082
10291TIP3    H230815   7.562   1.667   1.014
10292TIP3   OH230816   8.402   2.162   3.746
10292TIP3    H130817   8.347   2.200   3.678
10292TIP3    H230818   8.342   2.109   3.799
10293TIP3   OH230819   5.528   1.146   2.557
10293TIP3    H130820   5.530   1.222   2.499
10293TIP3    H230821   5.585   1.082   2.514
10294TIP3   OH230822   1.310   5.374   2.275
10294TIP3    H130823   1.400   5.370   2.309
10294TIP3    H230824   1.270   5.292   2.305
10295TIP3   OH230825   4.267   2.753   1.998
10295TIP3    H130826   4.184   2.743   2.044
10295TIP3    H230827   4.268   2.845   1.971
10296TIP3   OH230828   5.847   5.781   1.494
10296TIP3    H130829   5.864   5.873   1.515
10296TIP3    H230830   5.932   5.737   1.506
10297TIP3   OH230831   3.582   3.272   2.948
10297TIP3    H130832   3.655   3.239   2.896
10297TIP3    H230833   3.516   3.297   2.884
10298TIP3   OH230834   6.402   0.047   1.000
10298TIP3    H130835   6.382   0.132   0.960
10298TIP3    H230836   6.384  -0.017   0.931
10299TIP3   OH230837   4.205   1.502   3.392
10299TIP3    H130838   4.248   1.462   3.316
10299TIP3    H230839   4.233   1.448   3.466
10300TIP3   OH230840   0.092   3.279   6.660
10300TIP3    H130841   0.159   3.214   6.683
10300TIP3    H230842   0.087   3.337   6.736
10301TIP3   OH230843   7.576   6.864   1.939
10301TIP3    H130844   7.506   6.926   1.923
10301TIP3    H230845   7.656   6.909   1.913
10302TIP3   OH230846   5.115   1.771   2.419
10302TIP3    H130847   5.116   1.808   2.508
10302TIP3    H230848   5.030   1.797   2.384
10303TIP3   OH230849   6.850   6.956   0.917
10303TIP3    H130850   6.837   6.861   0.928
10303TIP3    H230851   6.799   6.978   0.840
10304TIP3   OH230852   5.423   1.758   6.176
10304TIP3    H130853   5.415   1.748   6.082
10304TIP3    H230854   5.515   1.736   6.195
10305TIP3   OH230855   1.376   5.171   3.907
10305TIP3    H130856   1.390   5.184   4.001
10305TIP3    H230857   1.422   5.244   3.865
10306TIP3   OH230858   1.869   5.280   3.815
10306TIP3    H130859   1.824   5.332   3.748
10306TIP3    H230860   1.799   5.237   3.864
10307TIP3   OH230861   5.959   7.644   4.536
10307TIP3    H130862   5.876   7.601   4.552
10307TIP3    H230863   5.954   7.673   4.445
10308TIP3   OH230864   2.999   4.777   4.898
10308TIP3    H130865   2.932   4.826   4.850
10308TIP3    H230866   3.082   4.812   4.866
10309TIP3   OH230867   0.579   3.489   0.644
10309TIP3    H130868   0.525   3.503   0.566
10309TIP3    H230869   0.627   3.408   0.626
10310TIP3   OH230870   7.478   4.261   2.761
10310TIP3    H130871   7.405   4.317   2.787
10310TIP3    H230872   7.441   4.173   2.757
10311TIP3   OH230873   4.501   0.776   1.449
10311TIP3    H130874   4.506   0.840   1.521
10311TIP3    H230875   4.450   0.820   1.382
10312TIP3   OH230876   3.883   3.853   0.047
10312TIP3    H130877   3.890   3.821   0.137
10312TIP3    H230878   3.961   3.907   0.034
10313TIP3   OH230879   6.775   0.950   2.196
10313TIP3    H130880   6.845   0.890   2.170
10313TIP3    H230881   6.817   1.035   2.205
10314TIP3   OH230882   3.548   0.020   2.606
10314TIP3    H130883   3.602   0.094   2.578
10314TIP3    H230884   3.610  -0.047   2.634
10315TIP3   OH230885   6.153   6.843   4.783
10315TIP3    H130886   6.130   6.935   4.799
10315TIP3    H230887   6.168   6.839   4.688
10316TIP3   OH230888   3.391   1.886   6.859
10316TIP3    H130889   3.376   1.819   6.792
10316TIP3    H230890   3.483   1.909   6.850
10317TIP3   OH230891   0.017   7.731   0.435
10317TIP3    H130892  -0.007   7.638   0.434
10317TIP3    H230893   0.067   7.742   0.516
10318TIP3   OH230894   5.163   4.690   2.972
10318TIP3    H130895   5.109   4.612   2.959
10318TIP3    H230896   5.142   4.720   3.060
10319TIP3   OH230897   6.158   6.497   4.879
10319TIP3    H130898   6.141   6.415   4.926
10319TIP3    H230899   6.077   6.546   4.887
10320TIP3   OH230900   5.825   2.901   6.574
10320TIP3    H130901   5.913   2.919   6.609
10320TIP3    H230902   5.830   2.932   6.484
10321TIP3   OH230903   2.197   2.184   0.470
10321TIP3    H130904   2.239   2.198   0.555
10321TIP3    H230905   2.156   2.268   0.449
10322TIP3   OH230906   6.592   7.471   5.170
10322TIP3    H130907   6.543   7.390   5.183
10322TIP3    H230908   6.682   7.442   5.156
10323TIP3   OH230909   1.927   4.753   0.281
10323TIP3    H130910   1.933   4.832   0.228
10323TIP3    H230911   1.906   4.683   0.219
10324TIP3   OH230912   3.358   4.021   4.108
10324TIP3    H130913   3.263   4.032   4.120
10324TIP3    H230914   3.383   3.956   4.173
10325TIP3   OH230915   2.643   2.978   5.371
10325TIP3    H130916   2.613   2.936   5.451
10325TIP3    H230917   2.738   2.965   5.371
10326TIP3   OH230918   3.439   7.242   4.868
10326TIP3    H130919   3.385   7.237   4.947
10326TIP3    H230920   3.391   7.190   4.803
10327TIP3   OH230921   7.203   5.954   2.442
10327TIP3    H130922   7.262   5.896   2.395
10327TIP3    H230923   7.228   5.946   2.534
10328TIP3   OH230924   6.282   1.984   5.908
10328TIP3    H130925   6.275   1.889   5.923
10328TIP3    H230926   6.286   1.993   5.813
10329TIP3   OH230927   6.439   2.433   2.002
10329TIP3    H130928   6.370   2.369   2.019
10329TIP3    H230929   6.448   2.481   2.085
10330TIP3   OH230930   1.958   7.435   1.270
10330TIP3    H130931   1.939   7.351   1.228
10330TIP3    H230932   1.937   7.501   1.204
10331TIP3   OH230933   6.317   0.588   0.633
10331TIP3    H130934   6.314   0.543   0.548
10331TIP3    H230935   6.244   0.552   0.683
10332TIP3   OH230936   4.397   0.485   1.232
10332TIP3    H130937   4.385   0.390   1.227
10332TIP3    H230938   4.349   0.512   1.310
10333TIP3   OH230939   7.993   5.518   0.231
10333TIP3    H130940   7.963   5.428   0.245
10333TIP3    H230941   7.919   5.572   0.255
10334TIP3   OH230942   6.559   1.509   6.879
10334TIP3    H130943   6.583   1.526   6.788
10334TIP3    H230944   6.526   1.593   6.912
10335TIP3   OH230945   4.889   5.744   2.656
10335TIP3    H130946   4.868   5.822   2.708
10335TIP3    H230947   4.934   5.778   2.579
10336TIP3   OH230948   4.054   3.329   1.061
10336TIP3    H130949   4.137   3.322   1.012
10336TIP3    H230950   4.026   3.239   1.074
10337TIP3   OH230951   4.919   1.753   4.288
10337TIP3    H130952   4.983   1.817   4.257
10337TIP3    H230953   4.840   1.772   4.238
10338TIP3   OH230954   0.492   7.370   4.667
10338TIP3    H130955   0.426   7.380   4.598
10338TIP3    H230956   0.443   7.334   4.742
10339TIP3   OH230957   3.955   1.620   1.273
10339TIP3    H130958   3.883   1.575   1.228
10339TIP3    H230959   3.912   1.667   1.345
10340TIP3   OH230960   2.351   6.391   0.971
10340TIP3    H130961   2.292   6.424   1.038
10340TIP3    H230962   2.295   6.378   0.894
10341TIP3   OH230963   7.060   7.070   6.769
10341TIP3    H130964   7.117   7.000   6.801
10341TIP3    H230965   7.116   7.123   6.712
10342TIP3   OH230966   3.811   6.214   5.526
10342TIP3    H130967   3.794   6.230   5.433
10342TIP3    H230968   3.732   6.245   5.571
10343TIP3   OH230969   4.249   4.965   4.304
10343TIP3    H130970   4.227   4.907   4.232
10343TIP3    H230971   4.168   4.975   4.353
10344TIP3   OH230972   1.652   3.478   2.968
10344TIP3    H130973   1.646   3.383   2.980
10344TIP3    H230974   1.697   3.509   3.047
10345TIP3   OH230975   4.399   6.618   6.164
10345TIP3    H130976   4.368   6.696   6.118
10345TIP3    H230977   4.350   6.546   6.124
10346TIP3   OH230978   4.213   7.784   3.921
10346TIP3    H130979   4.246   7.873   3.912
10346TIP3    H230980   4.196   7.755   3.832
10347TIP3   OH230981   6.497   4.887   3.457
10347TIP3    H130982   6.415   4.845   3.429
10347TIP3    H230983   6.471   4.947   3.526
10348TIP3   OH230984   5.064   2.815   2.803
10348TIP3    H130985   5.059   2.857   2.717
10348TIP3    H230986   4.983   2.840   2.847
10349TIP3   OH230987   6.184   6.528   2.246
10349TIP3    H130988   6.123   6.601   2.259
10349TIP3    H230989   6.132   6.450   2.261
10350TIP3   OH230990   3.902   0.027   4.842
10350TIP3    H130991   3.972   0.065   4.895
10350TIP3    H230992   3.879   0.096   4.780
10351TIP3   OH230993   2.229   6.945   0.910
10351TIP3    H130994   2.247   6.887   0.836
10351TIP3    H230995   2.140   6.976   0.895
10352TIP3   OH230996   2.509   0.377   4.491
10352TIP3    H130997   2.428   0.421   4.464
10352TIP3    H230998   2.493   0.354   4.583
10353TIP3   OH230999   7.043   2.011   4.726
10353TIP3    H131000   7.029   1.939   4.664
10353TIP3    H231001   6.969   2.004   4.787
10354TIP3   OH231002   8.186   5.443   5.706
10354TIP3    H131003   8.255   5.377   5.702
10354TIP3    H231004   8.107   5.393   5.728
10355TIP3   OH231005   4.612   1.684   1.521
10355TIP3    H131006   4.642   1.722   1.438
10355TIP3    H231007   4.668   1.607   1.533
10356TIP3   OH231008   2.994   3.734   6.328
10356TIP3    H131009   3.012   3.801   6.395
10356TIP3    H231010   2.990   3.783   6.246
10357TIP3   OH231011   0.895   1.018   5.869
10357TIP3    H131012   0.913   1.110   5.852
10357TIP3    H231013   0.974   0.972   5.840
10358TIP3   OH231014   2.696   2.510   5.507
10358TIP3    H131015   2.673   2.573   5.440
10358TIP3    H231016   2.678   2.425   5.467
10359TIP3   OH231017   7.137   0.727   1.640
10359TIP3    H131018   7.226   0.720   1.677
10359TIP3    H231019   7.151   0.748   1.548
10360TIP3   OH231020   0.721   5.274   4.739
10360TIP3    H131021   0.738   5.369   4.742
10360TIP3    H231022   0.713   5.249   4.831
10361TIP3   OH231023   4.463   6.778   0.562
10361TIP3    H131024   4.444   6.729   0.481
10361TIP3    H231025   4.550   6.815   0.548
10362TIP3   OH231026   7.262   0.260   5.325
10362TIP3    H131027   7.333   0.314   5.361
10362TIP3    H231028   7.262   0.181   5.379
10363TIP3   OH231029   1.547   6.771   5.380
10363TIP3    H131030   1.530   6.821   5.301
10363TIP3    H231031   1.637   6.739   5.370
10364TIP3   OH231032   2.287   6.546   1.292
10364TIP3    H131033   2.207   6.525   1.339
10364TIP3    H231034   2.278   6.638   1.267
10365TIP3   OH231035   8.347   2.889   3.038
10365TIP3    H131036   8.417   2.953   3.024
10365TIP3    H231037   8.294   2.892   2.958
10366TIP3   OH231038   3.211   6.464   1.892
10366TIP3    H131039   3.288   6.410   1.911
10366TIP3    H231040   3.205   6.465   1.797
10367TIP3   OH231041   0.659   1.944   0.209
10367TIP3    H131042   0.568   1.969   0.195
10367TIP3    H231043   0.663   1.915   0.300
10368TIP3   OH231044   3.094   4.247   5.421
10368TIP3    H131045   3.107   4.163   5.466
10368TIP3    H231046   3.122   4.230   5.331
10369TIP3   OH231047   1.105   2.914   0.533
10369TIP3    H131048   1.127   2.971   0.459
10369TIP3    H231049   1.012   2.893   0.521
10370TIP3   OH231050   2.259   1.421   6.793
10370TIP3    H131051   2.352   1.408   6.810
10370TIP3    H231052   2.221   1.438   6.879
10371TIP3   OH231053   6.853   6.733   4.962
10371TIP3    H131054   6.873   6.715   5.054
10371TIP3    H231055   6.771   6.783   4.964
10372TIP3   OH231056   4.748   0.217   2.186
10372TIP3    H131057   4.699   0.143   2.151
10372TIP3    H231058   4.804   0.178   2.254
10373TIP3   OH231059   0.943   3.861   5.114
10373TIP3    H131060   0.883   3.917   5.163
10373TIP3    H231061   0.936   3.892   5.023
10374TIP3   OH231062   1.891   5.294   4.674
10374TIP3    H131063   1.862   5.256   4.591
10374TIP3    H231064   1.926   5.380   4.651
10375TIP3   OH231065   0.920   0.527   5.107
10375TIP3    H131066   0.883   0.464   5.046
10375TIP3    H231067   1.010   0.496   5.122
10376TIP3   OH231068   1.292   6.339   3.468
10376TIP3    H131069   1.329   6.417   3.507
10376TIP3    H231070   1.241   6.298   3.539
10377TIP3   OH231071   4.427   4.963   5.345
10377TIP3    H131072   4.516   4.997   5.360
10377TIP3    H231073   4.421   4.953   5.250
10378TIP3   OH231074   1.860   0.031   1.663
10378TIP3    H131075   1.911   0.030   1.581
10378TIP3    H231076   1.770   0.046   1.634
10379TIP3   OH231077   4.972   5.509   2.404
10379TIP3    H131078   4.942   5.579   2.346
10379TIP3    H231079   5.060   5.489   2.373
10380TIP3   OH231080   8.315   5.184   6.845
10380TIP3    H131081   8.377   5.161   6.775
10380TIP3    H231082   8.289   5.100   6.883
10381TIP3   OH231083   5.812   4.680   0.861
10381TIP3    H131084   5.849   4.593   0.879
10381TIP3    H231085   5.829   4.694   0.768
10382TIP3   OH231086   0.743   2.847   6.332
10382TIP3    H131087   0.790   2.930   6.332
10382TIP3    H231088   0.732   2.825   6.424
10383TIP3   OH231089   4.399   4.032   3.416
10383TIP3    H131090   4.392   4.070   3.503
10383TIP3    H231091   4.392   3.938   3.430
10384TIP3   OH231092   1.401   5.003   0.676
10384TIP3    H131093   1.373   5.071   0.737
10384TIP3    H231094   1.427   4.930   0.733
10385TIP3   OH231095   3.476   0.947   1.687
10385TIP3    H131096   3.455   1.038   1.706
10385TIP3    H231097   3.570   0.947   1.670
10386TIP3   OH231098   8.085   7.783   0.990
10386TIP3    H131099   8.063   7.806   1.080
10386TIP3    H231100   8.126   7.697   0.996
10387TIP3   OH231101   1.140   1.057   1.296
10387TIP3    H131102   1.086   1.101   1.231
10387TIP3    H231103   1.081   1.041   1.370
10388TIP3   OH231104   6.514   4.388   2.565
10388TIP3    H131105   6.578   4.455   2.540
10388TIP3    H231106   6.481   4.354   2.482
10389TIP3   OH231107   7.371   3.945   5.002
10389TIP3    H131108   7.456   3.927   5.042
10389TIP3    H231109   7.389   4.012   4.936
10390TIP3   OH231110   5.985   6.420   6.274
10390TIP3    H131111   5.917   6.425   6.208
10390TIP3    H231112   5.940   6.391   6.353
10391TIP3   OH231113   3.291   5.873   2.427
10391TIP3    H131114   3.237   5.862   2.506
10391TIP3    H231115   3.259   5.953   2.387
10392TIP3   OH231116   5.048   1.119   5.434
10392TIP3    H131117   5.014   1.102   5.522
10392TIP3    H231118   5.096   1.040   5.410
10393TIP3   OH231119   2.541   0.496   2.234
10393TIP3    H131120   2.556   0.518   2.142
10393TIP3    H231121   2.479   0.423   2.232
10394TIP3   OH231122   5.660   3.710   1.106
10394TIP3    H131123   5.652   3.716   1.201
10394TIP3    H231124   5.729   3.644   1.092
10395TIP3   OH231125   0.755   5.135   0.374
10395TIP3    H131126   0.851   5.136   0.372
10395TIP3    H231127   0.729   5.197   0.305
10396TIP3   OH231128   7.624   2.913   4.665
10396TIP3    H131129   7.672   2.995   4.673
10396TIP3    H231130   7.668   2.865   4.595
10397TIP3   OH231131   1.585   1.537   2.086
10397TIP3    H131132   1.578   1.531   1.991
10397TIP3    H231133   1.628   1.456   2.112
10398TIP3   OH231134   0.610   3.842   5.388
10398TIP3    H131135   0.569   3.757   5.371
10398TIP3    H231136   0.546   3.889   5.442
10399TIP3   OH231137   5.089   6.336   4.024
10399TIP3    H131138   5.178   6.312   3.996
10399TIP3    H231139   5.093   6.334   4.120
10400TIP3   OH231140   7.166   4.906   3.020
10400TIP3    H131141   7.123   4.938   2.941
10400TIP3    H231142   7.094   4.875   3.075
10401TIP3   OH231143   4.303   4.464   1.484
10401TIP3    H131144   4.285   4.557   1.469
10401TIP3    H231145   4.337   4.460   1.574
10402TIP3   OH231146   2.085   4.117   6.300
10402TIP3    H131147   2.174   4.091   6.324
10402TIP3    H231148   2.036   4.114   6.383
10403TIP3   OH231149   7.032   7.729   4.510
10403TIP3    H131150   7.127   7.723   4.509
10403TIP3    H231151   7.005   7.703   4.421
10404TIP3   OH231152   0.431   6.224   6.719
10404TIP3    H131153   0.518   6.261   6.710
10404TIP3    H231154   0.395   6.265   6.797
10405TIP3   OH231155   2.530   4.356   2.271
10405TIP3    H131156   2.529   4.280   2.330
10405TIP3    H231157   2.620   4.359   2.238
10406TIP3   OH231158   7.265   7.081   3.531
10406TIP3    H131159   7.338   7.142   3.520
10406TIP3    H231160   7.188   7.131   3.508
10407TIP3   OH231161   3.037   3.188   1.945
10407TIP3    H131162   2.971   3.153   2.005
10407TIP3    H231163   3.006   3.164   1.858
10408TIP3   OH231164   6.415   4.264   2.306
10408TIP3    H131165   6.321   4.262   2.288
10408TIP3    H231166   6.454   4.297   2.225
10409TIP3   OH231167   3.686   4.955   0.435
10409TIP3    H131168   3.641   4.883   0.390
10409TIP3    H231169   3.735   5.000   0.367
10410TIP3   OH231170   6.136   5.150   3.721
10410TIP3    H131171   6.232   5.144   3.728
10410TIP3    H231172   6.104   5.074   3.769
10411TIP3   OH231173   7.267   4.420   4.366
10411TIP3    H131174   7.307   4.472   4.296
10411TIP3    H231175   7.199   4.477   4.403
10412TIP3   OH231176   7.291   7.850   6.049
10412TIP3    H131177   7.202   7.885   6.050
10412TIP3    H231178   7.316   7.844   6.141
10413TIP3   OH231179   7.130   0.784   4.379
10413TIP3    H131180   7.133   0.776   4.283
10413TIP3    H231181   7.123   0.878   4.395
10414TIP3   OH231182   3.231   1.217   2.737
10414TIP3    H131183   3.180   1.296   2.752
10414TIP3    H231184   3.301   1.244   2.676
10415TIP3   OH231185   8.011   3.201   4.631
10415TIP3    H131186   7.934   3.229   4.582
10415TIP3    H231187   8.067   3.279   4.634
10416TIP3   OH231188   4.360   7.718   5.477
10416TIP3    H131189   4.334   7.700   5.567
10416TIP3    H231190   4.407   7.802   5.482
10417TIP3   OH231191   5.641   3.207   6.024
10417TIP3    H131192   5.636   3.296   5.989
10417TIP3    H231193   5.733   3.195   6.046
10418TIP3   OH231194   2.798   4.985   5.582
10418TIP3    H131195   2.733   4.953   5.520
10418TIP3    H231196   2.781   5.079   5.590
10419TIP3   OH231197   4.371   5.002   4.070
10419TIP3    H131198   4.330   5.011   4.156
10419TIP3    H231199   4.336   4.921   4.035
10420TIP3   OH231200   7.222   5.179   5.883
10420TIP3    H131201   7.150   5.169   5.820
10420TIP3    H231202   7.222   5.097   5.933
10421TIP3   OH231203   1.299   2.529   1.204
10421TIP3    H131204   1.319   2.436   1.207
10421TIP3    H231205   1.366   2.567   1.147
10422TIP3   OH231206   6.516   0.828   6.426
10422TIP3    H131207   6.610   0.843   6.437
10422TIP3    H231208   6.484   0.908   6.384
10423TIP3   OH231209   6.695   7.055   6.346
10423TIP3    H131210   6.691   7.126   6.282
10423TIP3    H231211   6.657   7.093   6.425
10424TIP3   OH231212   6.221   1.752   5.493
10424TIP3    H131213   6.301   1.797   5.466
10424TIP3    H231214   6.169   1.746   5.413
10425TIP3   OH231215   4.876   1.933   4.879
10425TIP3    H131216   4.927   1.863   4.919
10425TIP3    H231217   4.797   1.939   4.932
10426TIP3   OH231218   6.492   5.851   3.315
10426TIP3    H131219   6.408   5.817   3.346
10426TIP3    H231220   6.507   5.805   3.232
10427TIP3   OH231221   8.295   5.976   3.258
10427TIP3    H131222   8.331   5.971   3.346
10427TIP3    H231223   8.363   6.019   3.206
10428TIP3   OH231224   1.744   5.670   6.607
10428TIP3    H131225   1.710   5.581   6.604
10428TIP3    H231226   1.840   5.658   6.609
10429TIP3   OH231227   4.228   7.129   4.283
10429TIP3    H131228   4.154   7.171   4.327
10429TIP3    H231229   4.213   7.035   4.294
10430TIP3   OH231230   7.510   4.027   6.628
10430TIP3    H131231   7.482   3.953   6.573
10430TIP3    H231232   7.429   4.072   6.651
10431TIP3   OH231233   6.845   3.198   3.520
10431TIP3    H131234   6.900   3.127   3.554
10431TIP3    H231235   6.890   3.227   3.441
10432TIP3   OH231236   6.206   3.846   0.912
10432TIP3    H131237   6.127   3.880   0.870
10432TIP3    H231238   6.227   3.911   0.980
10433TIP3   OH231239   4.459   1.699   6.080
10433TIP3    H131240   4.478   1.757   6.007
10433TIP3    H231241   4.371   1.725   6.109
10434TIP3   OH231242   0.708   7.241   1.302
10434TIP3    H131243   0.624   7.251   1.256
10434TIP3    H231244   0.683   7.226   1.393
10435TIP3   OH231245   5.374   0.909   4.924
10435TIP3    H131246   5.331   0.981   4.971
10435TIP3    H231247   5.310   0.882   4.859
10436TIP3   OH231248   3.945   6.690   1.533
10436TIP3    H131249   4.019   6.696   1.473
10436TIP3    H231250   3.902   6.607   1.511
10437TIP3   OH231251   7.308   7.145   2.464
10437TIP3    H131252   7.359   7.143   2.544
10437TIP3    H231253   7.220   7.171   2.492
10438TIP3   OH231254   3.764   4.150   6.656
10438TIP3    H131255   3.750   4.116   6.567
10438TIP3    H231256   3.749   4.244   6.649
10439TIP3   OH231257   5.832   0.934   5.373
10439TIP3    H131258   5.883   0.954   5.452
10439TIP3    H231259   5.741   0.939   5.402
10440TIP3   OH231260   7.121   4.208   4.238
10440TIP3    H131261   7.176   4.227   4.162
10440TIP3    H231262   7.106   4.292   4.279
10441TIP3   OH231263   3.610   6.910   3.010
10441TIP3    H131264   3.575   6.838   2.957
10441TIP3    H231265   3.566   6.988   2.977
10442TIP3   OH231266   7.120   0.819   2.603
10442TIP3    H131267   7.199   0.863   2.633
10442TIP3    H231268   7.081   0.879   2.540
10443TIP3   OH231269   3.613   3.612   5.601
10443TIP3    H131270   3.548   3.610   5.671
10443TIP3    H231271   3.652   3.525   5.602
10444TIP3   OH231272   1.026   2.197   3.844
10444TIP3    H131273   1.086   2.123   3.853
10444TIP3    H231274   0.991   2.188   3.755
10445TIP3   OH231275   7.085   6.100   5.919
10445TIP3    H131276   7.052   6.016   5.886
10445TIP3    H231277   7.099   6.153   5.841
10446TIP3   OH231278   7.011   0.870   5.419
10446TIP3    H131279   7.085   0.901   5.471
10446TIP3    H231280   6.959   0.818   5.480
10447TIP3   OH231281   1.235   1.953   2.816
10447TIP3    H131282   1.237   2.036   2.767
10447TIP3    H231283   1.290   1.969   2.892
10448TIP3   OH231284   7.103   4.123   5.447
10448TIP3    H131285   7.167   4.115   5.376
10448TIP3    H231286   7.152   4.164   5.519
10449TIP3   OH231287   1.342   1.068   4.558
10449TIP3    H131288   1.354   1.140   4.496
10449TIP3    H231289   1.410   1.081   4.624
10450TIP3   OH231290   6.613   2.388   5.499
10450TIP3    H131291   6.562   2.316   5.462
10450TIP3    H231292   6.681   2.405   5.433
10451TIP3   OH231293   3.825   3.673   3.076
10451TIP3    H131294   3.810   3.766   3.065
10451TIP3    H231295   3.853   3.664   3.167
10452TIP3   OH231296   0.741   6.638   4.348
10452TIP3    H131297   0.724   6.589   4.267
10452TIP3    H231298   0.689   6.718   4.339
10453TIP3   OH231299   2.678   0.744   5.593
10453TIP3    H131300   2.656   0.789   5.512
10453TIP3    H231301   2.620   0.667   5.594
10454TIP3   OH231302   1.113   3.264   3.181
10454TIP3    H131303   1.126   3.352   3.144
10454TIP3    H231304   1.190   3.215   3.152
10455TIP3   OH231305   6.565   5.261   0.959
10455TIP3    H131306   6.568   5.230   0.868
10455TIP3    H231307   6.511   5.341   0.954
10456TIP3   OH231308   0.836   6.350   3.405
10456TIP3    H131309   0.915   6.324   3.359
10456TIP3    H231310   0.867   6.391   3.486
10457TIP3   OH231311   3.837   6.305   4.333
10457TIP3    H131312   3.784   6.259   4.268
10457TIP3    H231313   3.927   6.278   4.313
10458TIP3   OH231314   7.870   6.530   5.924
10458TIP3    H131315   7.849   6.544   6.016
10458TIP3    H231316   7.962   6.554   5.916
10459TIP3   OH231317   7.122   4.106   1.386
10459TIP3    H131318   7.039   4.074   1.421
10459TIP3    H231319   7.164   4.151   1.460
10460TIP3   OH231320   5.113   4.324   5.143
10460TIP3    H131321   5.041   4.265   5.124
10460TIP3    H231322   5.099   4.399   5.085
10461TIP3   OH231323   7.807   3.573   0.559
10461TIP3    H131324   7.837   3.639   0.622
10461TIP3    H231325   7.888   3.528   0.532
10462TIP3   OH231326   6.056   0.124   4.852
10462TIP3    H131327   6.098   0.153   4.772
10462TIP3    H231328   6.046   0.205   4.904
10463TIP3   OH231329   5.458   0.928   3.433
10463TIP3    H131330   5.449   0.839   3.465
10463TIP3    H231331   5.398   0.934   3.359
10464TIP3   OH231332   5.720   3.945   2.456
10464TIP3    H131333   5.749   4.003   2.526
10464TIP3    H231334   5.646   3.896   2.494
10465TIP3   OH231335   6.241   7.359   6.460
10465TIP3    H131336   6.256   7.409   6.540
10465TIP3    H231337   6.231   7.426   6.391
10466TIP3   OH231338   0.312   1.659   2.584
10466TIP3    H131339   0.368   1.737   2.588
10466TIP3    H231340   0.223   1.694   2.587
10467TIP3   OH231341   4.509   7.178   4.387
10467TIP3    H131342   4.420   7.163   4.354
10467TIP3    H231343   4.513   7.128   4.469
10468TIP3   OH231344   6.605   6.498   0.895
10468TIP3    H131345   6.619   6.421   0.950
10468TIP3    H231346   6.532   6.544   0.936
10469TIP3   OH231347   4.648   2.182   6.578
10469TIP3    H131348   4.607   2.259   6.539
10469TIP3    H231349   4.727   2.168   6.526
10470TIP3   OH231350   1.762   4.069   1.753
10470TIP3    H131351   1.732   4.045   1.665
10470TIP3    H231352   1.682   4.097   1.798
10471TIP3   OH231353   4.302   0.404   3.745
10471TIP3    H131354   4.375   0.431   3.689
10471TIP3    H231355   4.223   0.431   3.697
10472TIP3   OH231356   6.829   6.331   0.787
10472TIP3    H131357   6.803   6.359   0.699
10472TIP3    H231358   6.763   6.268   0.813
10473TIP3   OH231359   4.149   3.377   5.874
10473TIP3    H131360   4.114   3.369   5.963
10473TIP3    H231361   4.242   3.357   5.883
10474TIP3   OH231362   0.482   2.881   5.436
10474TIP3    H131363   0.417   2.813   5.415
10474TIP3    H231364   0.508   2.861   5.525
10475TIP3   OH231365   2.638   4.818  -0.020
10475TIP3    H131366   2.664   4.890   0.038
10475TIP3    H231367   2.586   4.761   0.036
10476TIP3   OH231368   5.776   7.334   6.434
10476TIP3    H131369   5.841   7.359   6.369
10476TIP3    H231370   5.726   7.263   6.393
10477TIP3   OH231371   0.654   1.537   2.974
10477TIP3    H131372   0.565   1.518   2.945
10477TIP3    H231373   0.699   1.569   2.895
10478TIP3   OH231374   7.220   3.828   1.459
10478TIP3    H131375   7.216   3.908   1.511
10478TIP3    H231376   7.297   3.839   1.404
10479TIP3   OH231377   7.478   2.063   4.465
10479TIP3    H131378   7.474   1.993   4.400
10479TIP3    H231379   7.519   2.023   4.541
10480TIP3   OH231380   7.003   2.469   1.575
10480TIP3    H131381   7.096   2.491   1.567
10480TIP3    H231382   6.994   2.440   1.666
10481TIP3   OH231383   2.272   4.964   5.715
10481TIP3    H131384   2.329   5.007   5.652
10481TIP3    H231385   2.254   4.878   5.676
10482TIP3   OH231386   1.322   0.059   0.307
10482TIP3    H131387   1.325   0.077   0.401
10482TIP3    H231388   1.384   0.121   0.269
10483TIP3   OH231389   0.720   7.772   6.037
10483TIP3    H131390   0.655   7.842   6.028
10483TIP3    H231391   0.668   7.691   6.038
10484TIP3   OH231392   7.015   4.790   2.440
10484TIP3    H131393   6.958   4.857   2.402
10484TIP3    H231394   7.103   4.825   2.430
10485TIP3   OH231395   4.788   7.532   6.835
10485TIP3    H131396   4.721   7.492   6.891
10485TIP3    H231397   4.740   7.592   6.779
10486TIP3   OH231398   3.563   7.822   1.262
10486TIP3    H131399   3.532   7.841   1.173
10486TIP3    H231400   3.525   7.737   1.284
10487TIP3   OH231401   4.519   0.832   5.932
10487TIP3    H131402   4.482   0.839   5.844
10487TIP3    H231403   4.474   0.900   5.982
10488TIP3   OH231404   1.673   4.166   4.926
10488TIP3    H131405   1.747   4.186   4.984
10488TIP3    H231406   1.628   4.093   4.969
10489TIP3   OH231407   2.463   5.227   3.724
10489TIP3    H131408   2.450   5.294   3.791
10489TIP3    H231409   2.443   5.272   3.641
10490TIP3   OH231410   3.354   1.693   5.731
10490TIP3    H131411   3.267   1.688   5.690
10490TIP3    H231412   3.415   1.667   5.662
10491TIP3   OH231413   7.895   1.819   2.082
10491TIP3    H131414   7.899   1.890   2.146
10491TIP3    H231415   7.983   1.814   2.046
10492TIP3   OH231416   4.289   7.153   6.677
10492TIP3    H131417   4.198   7.180   6.686
10492TIP3    H231418   4.298   7.128   6.585
10493TIP3   OH231419   5.192   5.512   6.020
10493TIP3    H131420   5.198   5.593   5.969
10493TIP3    H231421   5.229   5.535   6.105
10494TIP3   OH231422   2.561   3.904   6.529
10494TIP3    H131423   2.630   3.843   6.504
10494TIP3    H231424   2.609   3.983   6.557
10495TIP3   OH231425   0.956   2.741   1.903
10495TIP3    H131426   0.940   2.646   1.906
10495TIP3    H231427   1.016   2.753   1.829
10496TIP3   OH231428   6.496   4.920   5.562
10496TIP3    H131429   6.545   4.976   5.502
10496TIP3    H231430   6.534   4.938   5.648
10497TIP3   OH231431   0.903   1.169   6.855
10497TIP3    H131432   0.873   1.208   6.773
10497TIP3    H231433   0.823   1.147   6.902
10498TIP3   OH231434   5.724   4.242   5.195
10498TIP3    H131435   5.724   4.173   5.262
10498TIP3    H231436   5.711   4.323   5.245
10499TIP3   OH231437   0.320   5.218   1.450
10499TIP3    H131438   0.316   5.152   1.519
10499TIP3    H231439   0.233   5.259   1.450
10500TIP3   OH231440   1.528   2.516   1.655
10500TIP3    H131441   1.588   2.495   1.727
10500TIP3    H231442   1.453   2.458   1.669
10501TIP3   OH231443   1.082   3.299   0.146
10501TIP3    H131444   1.151   3.288   0.212
10501TIP3    H231445   1.065   3.210   0.116
10502TIP3   OH231446   2.218   6.072   2.673
10502TIP3    H131447   2.154   6.139   2.697
10502TIP3    H231448   2.176   6.024   2.601
10503TIP3   OH231449   2.067   3.958   1.432
10503TIP3    H131450   2.076   3.870   1.395
10503TIP3    H231451   1.990   3.953   1.488
10504TIP3   OH231452   4.422   3.572   5.871
10504TIP3    H131453   4.417   3.477   5.857
10504TIP3    H231454   4.445   3.581   5.964
10505TIP3   OH231455   0.118   5.725   3.028
10505TIP3    H131456   0.154   5.681   2.951
10505TIP3    H231457   0.137   5.818   3.014
10506TIP3   OH231458   6.969   1.161   4.837
10506TIP3    H131459   6.891   1.204   4.873
10506TIP3    H231460   7.027   1.233   4.815
10507TIP3   OH231461   2.446   7.331   5.039
10507TIP3    H131462   2.465   7.309   4.948
10507TIP3    H231463   2.441   7.426   5.040
10508TIP3   OH231464   1.583   4.862   4.735
10508TIP3    H131465   1.612   4.949   4.708
10508TIP3    H231466   1.505   4.845   4.683
10509TIP3   OH231467   2.249   3.793   4.334
10509TIP3    H131468   2.200   3.788   4.415
10509TIP3    H231469   2.277   3.703   4.316
10510TIP3   OH231470   5.767   4.932   1.308
10510TIP3    H131471   5.845   4.916   1.362
10510TIP3    H231472   5.705   4.865   1.335
10511TIP3   OH231473   6.479   1.952   2.658
10511TIP3    H131474   6.453   1.975   2.747
10511TIP3    H231475   6.558   1.899   2.668
10512TIP3   OH231476   1.314   6.905   1.494
10512TIP3    H131477   1.395   6.906   1.546
10512TIP3    H231478   1.282   6.995   1.498
10513TIP3   OH231479   1.670   4.945   5.006
10513TIP3    H131480   1.591   4.911   4.963
10513TIP3    H231481   1.740   4.925   4.944
10514TIP3   OH231482   1.656   1.249   5.196
10514TIP3    H131483   1.696   1.168   5.164
10514TIP3    H231484   1.584   1.221   5.252
10515TIP3   OH231485   0.136   6.499   5.098
10515TIP3    H131486   0.152   6.588   5.066
10515TIP3    H231487   0.148   6.443   5.022
10516TIP3   OH231488   0.389   6.252   5.812
10516TIP3    H131489   0.322   6.282   5.873
10516TIP3    H231490   0.452   6.204   5.866
10517TIP3   OH231491   2.043   7.185   3.293
10517TIP3    H131492   2.009   7.205   3.206
10517TIP3    H231493   2.045   7.089   3.296
10518TIP3   OH231494   2.376   2.264   5.004
10518TIP3    H131495   2.288   2.261   5.043
10518TIP3    H231496   2.420   2.335   5.051
10519TIP3   OH231497   6.953   3.300   5.670
10519TIP3    H131498   6.876   3.348   5.699
10519TIP3    H231499   7.009   3.296   5.747
10520TIP3   OH231500   2.110   3.113   6.015
10520TIP3    H131501   2.127   3.049   5.946
10520TIP3    H231502   2.150   3.194   5.982
10521TIP3   OH231503   3.792   0.470   1.632
10521TIP3    H131504   3.789   0.523   1.712
10521TIP3    H231505   3.705   0.430   1.626
10522TIP3   OH231506   4.660   4.614   0.270
10522TIP3    H131507   4.593   4.591   0.334
10522TIP3    H231508   4.614   4.669   0.206
10523TIP3   OH231509   7.155   4.965   5.371
10523TIP3    H131510   7.093   4.914   5.319
10523TIP3    H231511   7.226   4.986   5.311
10524TIP3   OH231512   4.345   7.666   4.738
10524TIP3    H131513   4.316   7.673   4.829
10524TIP3    H231514   4.438   7.686   4.740
10525TIP3   OH231515   1.541   1.221   4.690
10525TIP3    H131516   1.508   1.294   4.637
10525TIP3    H231517   1.552   1.258   4.778
10526TIP3   OH231518   2.214   5.947   0.308
10526TIP3    H131519   2.246   6.024   0.261
10526TIP3    H231520   2.291   5.915   0.356
10527TIP3   OH231521   2.373   1.852   2.342
10527TIP3    H131522   2.384   1.913   2.414
10527TIP3    H231523   2.325   1.778   2.380
10528TIP3   OH231524   4.846   4.129   6.061
10528TIP3    H131525   4.849   4.186   5.984
10528TIP3    H231526   4.927   4.148   6.108
10529TIP3   OH231527   5.141   1.919   0.973
10529TIP3    H131528   5.230   1.925   0.937
10529TIP3    H231529   5.084   1.914   0.896
10530TIP3   OH231530   2.313   1.440   0.191
10530TIP3    H131531   2.254   1.445   0.116
10530TIP3    H231532   2.366   1.362   0.174
10531TIP3   OH231533   6.713   5.471   6.686
10531TIP3    H131534   6.699   5.565   6.683
10531TIP3    H231535   6.728   5.446   6.595
10532TIP3   OH231536   7.495   2.179   5.551
10532TIP3    H131537   7.582   2.200   5.518
10532TIP3    H231538   7.504   2.185   5.646
10533TIP3   OH231539   0.979   4.357   2.783
10533TIP3    H131540   0.891   4.375   2.814
10533TIP3    H231541   0.968   4.293   2.713
10534TIP3   OH231542   6.740   1.665   5.931
10534TIP3    H131543   6.707   1.712   5.854
10534TIP3    H231544   6.755   1.734   5.996
10535TIP3   OH231545   3.843   2.169   2.189
10535TIP3    H131546   3.932   2.202   2.203
10535TIP3    H231547   3.796   2.192   2.269
10536TIP3   OH231548   6.081   5.709   1.249
10536TIP3    H131549   6.012   5.643   1.252
10536TIP3    H231550   6.107   5.723   1.340
10537TIP3   OH231551   0.576   7.074   5.425
10537TIP3    H131552   0.542   7.159   5.397
10537TIP3    H231553   0.499   7.018   5.434
10538TIP3   OH231554   0.497   7.805   0.483
10538TIP3    H131555   0.575   7.859   0.468
10538TIP3    H231556   0.423   7.865   0.469
10539TIP3   OH231557   8.069   6.551   6.467
10539TIP3    H131558   8.164   6.547   6.456
10539TIP3    H231559   8.050   6.481   6.530
10540TIP3   OH231560   7.828   6.268   0.910
10540TIP3    H131561   7.755   6.329   0.903
10540TIP3    H231562   7.834   6.229   0.822
10541TIP3   OH231563   2.989   3.572   3.492
10541TIP3    H131564   2.924   3.529   3.438
10541TIP3    H231565   3.063   3.589   3.433
10542TIP3   OH231566   6.826   0.062   3.128
10542TIP3    H131567   6.908   0.068   3.078
10542TIP3    H231568   6.771   0.002   3.077
10543TIP3   OH231569   2.918   7.799   4.495
10543TIP3    H131570   2.869   7.789   4.576
10543TIP3    H231571   2.898   7.721   4.444
10544TIP3   OH231572   2.936   5.745   1.119
10544TIP3    H131573   2.974   5.662   1.148
10544TIP3    H231574   2.942   5.802   1.196
10545TIP3   OH231575   2.929   0.620   1.980
10545TIP3    H131576   2.887   0.561   2.043
10545TIP3    H231577   2.923   0.707   2.021
10546TIP3   OH231578   2.413   5.908   5.294
10546TIP3    H131579   2.455   5.871   5.372
10546TIP3    H231580   2.355   5.839   5.262
10547TIP3   OH231581   2.860   4.103   2.145
10547TIP3    H131582   2.896   4.157   2.215
10547TIP3    H231583   2.819   4.029   2.189
10548TIP3   OH231584   0.760   1.038   4.466
10548TIP3    H131585   0.811   1.045   4.546
10548TIP3    H231586   0.672   1.014   4.494
10549TIP3   OH231587   4.081   4.431   2.948
10549TIP3    H131588   4.063   4.359   2.889
10549TIP3    H231589   4.068   4.510   2.895
10550TIP3   OH231590   7.532   0.274   2.760
10550TIP3    H131591   7.491   0.187   2.758
10550TIP3    H231592   7.560   0.284   2.851
10551TIP3   OH231593   4.729   5.783   2.304
10551TIP3    H131594   4.680   5.834   2.240
10551TIP3    H231595   4.820   5.809   2.291
10552TIP3   OH231596   4.145   6.100   3.955
10552TIP3    H131597   4.079   6.087   3.887
10552TIP3    H231598   4.167   6.012   3.984
10553TIP3   OH231599   6.048   3.082   2.409
10553TIP3    H131600   6.050   3.008   2.348
10553TIP3    H231601   6.049   3.160   2.352
10554TIP3   OH231602   4.924   7.749   3.763
10554TIP3    H131603   4.942   7.822   3.703
10554TIP3    H231604   5.009   7.705   3.773
10555TIP3   OH231605   0.554   2.177   5.268
10555TIP3    H131606   0.476   2.122   5.265
10555TIP3    H231607   0.619   2.128   5.217
10556TIP3   OH231608   0.530   6.674   5.920
10556TIP3    H131609   0.457   6.614   5.934
10556TIP3    H231610   0.527   6.734   5.995
10557TIP3   OH231611   0.848   0.402   2.977
10557TIP3    H131612   0.760   0.387   3.012
10557TIP3    H231613   0.894   0.449   3.046
10558TIP3   OH231614   7.275   4.031   0.934
10558TIP3    H131615   7.336   3.959   0.954
10558TIP3    H231616   7.211   4.028   1.005
10559TIP3   OH231617   5.982   3.330   0.943
10559TIP3    H131618   6.051   3.327   1.010
10559TIP3    H231619   5.961   3.238   0.926
10560TIP3   OH231620   1.293   4.877   4.231
10560TIP3    H131621   1.216   4.894   4.177
10560TIP3    H231622   1.294   4.948   4.295
10561TIP3   OH231623   1.185   1.800   3.216
10561TIP3    H131624   1.220   1.877   3.171
10561TIP3    H231625   1.240   1.792   3.294
10562TIP3   OH231626   3.415   0.274   6.445
10562TIP3    H131627   3.326   0.238   6.438
10562TIP3    H231628   3.426   0.289   6.539
10563TIP3   OH231629   4.900   2.783   3.634
10563TIP3    H131630   4.878   2.735   3.714
10563TIP3    H231631   4.817   2.790   3.586
10564TIP3   OH231632   4.996   5.322   2.078
10564TIP3    H131633   4.948   5.259   2.131
10564TIP3    H231634   5.021   5.274   1.999
10565TIP3   OH231635   2.560   7.878   4.493
10565TIP3    H131636   2.473   7.840   4.482
10565TIP3    H231637   2.601   7.825   4.562
10566TIP3   OH231638   3.226   1.239   1.437
10566TIP3    H131639   3.237   1.162   1.380
10566TIP3    H231640   3.187   1.204   1.517
10567TIP3   OH231641   1.069   0.365   0.279
10567TIP3    H131642   1.120   0.353   0.198
10567TIP3    H231643   0.978   0.368   0.250
10568TIP3   OH231644   7.172   7.895   1.833
10568TIP3    H131645   7.172   7.800   1.843
10568TIP3    H231646   7.080   7.919   1.825
10569TIP3   OH231647   1.323   7.230   5.326
10569TIP3    H131648   1.276   7.203   5.404
10569TIP3    H231649   1.309   7.324   5.320
10570TIP3   OH231650   0.227   4.565   2.445
10570TIP3    H131651   0.241   4.472   2.426
10570TIP3    H231652   0.147   4.587   2.396
10571TIP3   OH231653   8.327   6.505   6.481
10571TIP3    H131654   8.334   6.508   6.576
10571TIP3    H231655   8.370   6.585   6.451
10572TIP3   OH231656   1.797   4.106   3.368
10572TIP3    H131657   1.747   4.187   3.356
10572TIP3    H231658   1.791   4.061   3.284
10573TIP3   OH231659   1.717   1.364   3.489
10573TIP3    H131660   1.671   1.284   3.463
10573TIP3    H231661   1.800   1.333   3.525
10574TIP3   OH231662   5.183   3.025   4.608
10574TIP3    H131663   5.204   2.973   4.686
10574TIP3    H231664   5.197   3.116   4.636
10575TIP3   OH231665   1.851   1.600   4.293
10575TIP3    H131666   1.866   1.570   4.383
10575TIP3    H231667   1.774   1.551   4.264
10576TIP3   OH231668   5.705   1.609   5.526
10576TIP3    H131669   5.735   1.651   5.446
10576TIP3    H231670   5.785   1.587   5.573
10577TIP3   OH231671   7.416   3.189  -0.008
10577TIP3    H131672   7.443   3.112  -0.058
10577TIP3    H231673   7.339   3.161   0.042
10578TIP3   OH231674   3.355   6.313   6.818
10578TIP3    H131675   3.262   6.331   6.830
10578TIP3    H231676   3.387   6.387   6.765
10579TIP3   OH231677   4.429   1.053   0.801
10579TIP3    H131678   4.478   1.087   0.726
10579TIP3    H231679   4.414   1.129   0.857
10580TIP3   OH231680   7.628   5.747   5.824
10580TIP3    H131681   7.690   5.777   5.757
10580TIP3    H231682   7.602   5.659   5.796
10581TIP3   OH231683   3.929   5.066   2.183
10581TIP3    H131684   3.840   5.056   2.148
10581TIP3    H231685   3.982   5.004   2.133
10582TIP3   OH231686   5.545   6.821   0.930
10582TIP3    H131687   5.627   6.836   0.978
10582TIP3    H231688   5.548   6.883   0.858
10583TIP3   OH231689   4.256   7.552   4.111
10583TIP3    H131690   4.288   7.594   4.191
10583TIP3    H231691   4.229   7.625   4.055
10584TIP3   OH231692   0.506   5.468   2.903
10584TIP3    H131693   0.572   5.506   2.961
10584TIP3    H231694   0.487   5.538   2.839
10585TIP3   OH231695   4.743   5.632   4.903
10585TIP3    H131696   4.766   5.592   4.819
10585TIP3    H231697   4.704   5.562   4.953
10586TIP3   OH231698   8.271   6.441   0.353
10586TIP3    H131699   8.200   6.445   0.289
10586TIP3    H231700   8.320   6.522   0.339
10587TIP3   OH231701   3.472   3.843   6.712
10587TIP3    H131702   3.567   3.831   6.703
10587TIP3    H231703   3.463   3.920   6.768
10588TIP3   OH231704   3.306   6.470   1.520
10588TIP3    H131705   3.385   6.518   1.493
10588TIP3    H231706   3.250   6.537   1.559
10589TIP3   OH231707   5.368   2.893   1.869
10589TIP3    H131708   5.346   2.914   1.779
10589TIP3    H231709   5.463   2.878   1.867
10590TIP3   OH231710   2.571   6.141   1.869
10590TIP3    H131711   2.586   6.146   1.963
10590TIP3    H231712   2.628   6.208   1.832
10591TIP3   OH231713   3.314   2.808   4.744
10591TIP3    H131714   3.362   2.889   4.760
10591TIP3    H231715   3.357   2.743   4.800
10592TIP3   OH231716   3.795   1.719   5.036
10592TIP3    H131717   3.815   1.694   4.947
10592TIP3    H231718   3.876   1.759   5.069
10593TIP3   OH231719   6.460   6.298   1.069
10593TIP3    H131720   6.417   6.384   1.066
10593TIP3    H231721   6.390   6.235   1.054
10594TIP3   OH231722   2.400   7.380   1.262
10594TIP3    H131723   2.420   7.309   1.203
10594TIP3    H231724   2.329   7.346   1.317
10595TIP3   OH231725   2.719   1.321   2.742
10595TIP3    H131726   2.670   1.332   2.823
10595TIP3    H231727   2.689   1.392   2.685
10596TIP3   OH231728   2.471   4.767   1.760
10596TIP3    H131729   2.508   4.823   1.829
10596TIP3    H231730   2.507   4.680   1.777
10597TIP3   OH231731   4.318   2.899   0.282
10597TIP3    H131732   4.336   2.865   0.194
10597TIP3    H231733   4.400   2.942   0.308
10598TIP3   OH231734   4.724   1.077   2.459
10598TIP3    H131735   4.638   1.053   2.494
10598TIP3    H231736   4.779   1.001   2.479
10599TIP3   OH231737   8.344   3.244   1.106
10599TIP3    H131738   8.428   3.256   1.062
10599TIP3    H231739   8.283   3.298   1.054
10600TIP3   OH231740   1.431   5.834   1.481
10600TIP3    H131741   1.415   5.833   1.387
10600TIP3    H231742   1.436   5.927   1.503
10601TIP3   OH231743   4.198   1.900   3.900
10601TIP3    H131744   4.185   1.957   3.976
10601TIP3    H231745   4.258   1.949   3.844
10602TIP3   OH231746   2.393   0.517   5.846
10602TIP3    H131747   2.405   0.609   5.824
10602TIP3    H231748   2.481   0.480   5.843
10603TIP3   OH231749   1.580   2.573   2.242
10603TIP3    H131750   1.639   2.499   2.238
10603TIP3    H231751   1.634   2.646   2.274
10604TIP3   OH231752   4.266   3.194   1.219
10604TIP3    H131753   4.247   3.118   1.163
10604TIP3    H231754   4.360   3.189   1.234
10605TIP3   OH231755   2.558   6.507   6.169
10605TIP3    H131756   2.531   6.456   6.092
10605TIP3    H231757   2.652   6.522   6.155
10606TIP3   OH231758   1.058   1.589   0.592
10606TIP3    H131759   1.019   1.502   0.588
10606TIP3    H231760   0.997   1.640   0.646
10607TIP3   OH231761   0.010   4.347   5.801
10607TIP3    H131762   0.051   4.262   5.820
10607TIP3    H231763  -0.084   4.328   5.800
10608TIP3   OH231764   6.484   0.267   6.799
10608TIP3    H131765   6.430   0.217   6.739
10608TIP3    H231766   6.512   0.204   6.865
10609TIP3   OH231767   1.945   5.780   4.512
10609TIP3    H131768   2.007   5.848   4.540
10609TIP3    H231769   1.865   5.798   4.561
10610TIP3   OH231770   4.340   2.609   3.701
10610TIP3    H131771   4.425   2.598   3.744
10610TIP3    H231772   4.306   2.691   3.738
10611TIP3   OH231773   6.950   2.958   6.258
10611TIP3    H131774   6.867   2.988   6.295
10611TIP3    H231775   6.995   3.039   6.232
10612TIP3   OH231776   1.631   5.595   4.259
10612TIP3    H131777   1.675   5.566   4.339
10612TIP3    H231778   1.671   5.680   4.239
10613TIP3   OH231779   1.278   0.826   6.753
10613TIP3    H131780   1.276   0.866   6.841
10613TIP3    H231781   1.243   0.894   6.696
10614TIP3   OH231782   4.601   0.090   4.182
10614TIP3    H131783   4.578   0.010   4.135
10614TIP3    H231784   4.517   0.127   4.208
10615TIP3   OH231785   2.424   2.113   1.886
10615TIP3    H131786   2.514   2.091   1.861
10615TIP3    H231787   2.415   2.079   1.975
10616TIP3   OH231788   8.305   2.301   3.514
10616TIP3    H131789   8.302   2.354   3.434
10616TIP3    H231790   8.226   2.325   3.561
10617TIP3   OH231791   2.733   5.948   1.257
10617TIP3    H131792   2.683   5.907   1.186
10617TIP3    H231793   2.768   6.028   1.218
10618TIP3   OH231794   3.139   2.278   2.726
10618TIP3    H131795   3.095   2.198   2.755
10618TIP3    H231796   3.131   2.276   2.631
10619TIP3   OH231797   4.529   0.417   1.689
10619TIP3    H131798   4.491   0.460   1.612
10619TIP3    H231799   4.580   0.485   1.732
10620TIP3   OH231800   4.262   3.505   3.146
10620TIP3    H131801   4.284   3.597   3.133
10620TIP3    H231802   4.261   3.494   3.241
10621TIP3   OH231803   1.548   3.916   6.140
10621TIP3    H131804   1.539   4.006   6.171
10621TIP3    H231805   1.464   3.897   6.097
10622TIP3   OH231806   0.964   0.663   5.349
10622TIP3    H131807   0.936   0.598   5.284
10622TIP3    H231808   0.912   0.643   5.427
10623TIP3   OH231809   5.502   2.188   1.189
10623TIP3    H131810   5.417   2.216   1.224
10623TIP3    H231811   5.560   2.263   1.204
10624TIP3   OH231812   1.854   2.242   4.814
10624TIP3    H131813   1.849   2.156   4.855
10624TIP3    H231814   1.771   2.284   4.836
10625TIP3   OH231815   3.789   3.888   1.139
10625TIP3    H131816   3.857   3.889   1.206
10625TIP3    H231817   3.708   3.870   1.188
10626TIP3   OH231818   1.695   1.424   0.226
10626TIP3    H131819   1.784   1.392   0.209
10626TIP3    H231820   1.693   1.442   0.320
10627TIP3   OH231821   7.626   4.694   2.584
10627TIP3    H131822   7.662   4.776   2.549
10627TIP3    H231823   7.532   4.701   2.568
10628TIP3   OH231824   5.328   3.882   5.300
10628TIP3    H131825   5.312   3.798   5.342
10628TIP3    H231826   5.354   3.859   5.210
10629TIP3   OH231827   2.828   2.373   6.807
10629TIP3    H131828   2.885   2.298   6.791
10629TIP3    H231829   2.886   2.440   6.844
10630TIP3   OH231830   2.730   3.254   4.180
10630TIP3    H131831   2.801   3.190   4.175
10630TIP3    H231832   2.763   3.322   4.240
10631TIP3   OH231833   2.317   4.308   6.252
10631TIP3    H131834   2.272   4.355   6.182
10631TIP3    H231835   2.385   4.257   6.207
10632TIP3   OH231836   3.688   7.822   6.374
10632TIP3    H131837   3.668   7.909   6.341
10632TIP3    H231838   3.640   7.763   6.316
10633TIP3   OH231839   1.744   2.169   3.201
10633TIP3    H131840   1.741   2.083   3.243
10633TIP3    H231841   1.657   2.205   3.214
10634TIP3   OH231842   7.722   1.485   0.402
10634TIP3    H131843   7.727   1.495   0.307
10634TIP3    H231844   7.630   1.464   0.419
10635TIP3   OH231845   3.138   7.336   0.183
10635TIP3    H131846   3.062   7.287   0.214
10635TIP3    H231847   3.210   7.304   0.237
10636TIP3   OH231848   5.056   0.329   2.959
10636TIP3    H131849   5.013   0.410   2.985
10636TIP3    H231850   5.005   0.298   2.883
10637TIP3   OH231851   3.412   7.835   4.094
10637TIP3    H131852   3.441   7.897   4.027
10637TIP3    H231853   3.346   7.883   4.144
10638TIP3   OH231854   2.981   6.331   3.548
10638TIP3    H131855   2.985   6.266   3.478
10638TIP3    H231856   2.964   6.414   3.504
10639TIP3   OH231857   1.195   0.975   5.822
10639TIP3    H131858   1.223   1.065   5.841
10639TIP3    H231859   1.221   0.960   5.731
10640TIP3   OH231860   2.749   4.954   2.731
10640TIP3    H131861   2.824   4.937   2.788
10640TIP3    H231862   2.679   4.898   2.764
10641TIP3   OH231863   5.438   4.719   6.736
10641TIP3    H131864   5.430   4.719   6.641
10641TIP3    H231865   5.350   4.699   6.768
10642TIP3   OH231866   0.793   6.653   0.939
10642TIP3    H131867   0.764   6.579   0.992
10642TIP3    H231868   0.888   6.653   0.949
10643TIP3   OH231869   2.127   7.586   4.222
10643TIP3    H131870   2.049   7.622   4.264
10643TIP3    H231871   2.144   7.504   4.269
10644TIP3   OH231872   2.698   5.158   1.526
10644TIP3    H131873   2.779   5.177   1.573
10644TIP3    H231874   2.717   5.181   1.435
10645TIP3   OH231875   2.217   3.425   2.966
10645TIP3    H131876   2.302   3.414   2.923
10645TIP3    H231877   2.167   3.348   2.940
10646TIP3   OH231878   2.584   4.615   2.440
10646TIP3    H131879   2.575   4.701   2.401
10646TIP3    H231880   2.591   4.555   2.366
10647TIP3   OH231881   3.096   0.064   0.375
10647TIP3    H131882   3.062   0.097   0.458
10647TIP3    H231883   3.025   0.013   0.337
10648TIP3   OH231884   1.045   0.784   3.751
10648TIP3    H131885   1.076   0.857   3.697
10648TIP3    H231886   1.003   0.825   3.826
10649TIP3   OH231887   2.452   4.101   5.812
10649TIP3    H131888   2.388   4.170   5.796
10649TIP3    H231889   2.465   4.060   5.726
10650TIP3   OH231890   0.270   0.328   1.617
10650TIP3    H131891   0.364   0.318   1.601
10650TIP3    H231892   0.265   0.379   1.698
10651TIP3   OH231893   7.390   5.808   2.302
10651TIP3    H131894   7.362   5.725   2.264
10651TIP3    H231895   7.409   5.864   2.227
10652TIP3   OH231896   5.618   1.329   0.612
10652TIP3    H131897   5.683   1.276   0.658
10652TIP3    H231898   5.664   1.410   0.591
10653TIP3   OH231899   4.041   7.700   2.920
10653TIP3    H131900   4.091   7.747   2.852
10653TIP3    H231901   3.950   7.706   2.891
10654TIP3   OH231902   4.421   0.927   4.708
10654TIP3    H131903   4.335   0.958   4.679
10654TIP3    H231904   4.467   1.006   4.736
10655TIP3   OH231905   4.838   4.546   0.836
10655TIP3    H131906   4.822   4.528   0.928
10655TIP3    H231907   4.852   4.641   0.832
10656TIP3   OH231908   1.906   7.704   4.364
10656TIP3    H131909   1.923   7.671   4.452
10656TIP3    H231910   1.839   7.772   4.377
10657TIP3   OH231911   5.861   0.402   1.910
10657TIP3    H131912   5.870   0.380   1.817
10657TIP3    H231913   5.948   0.430   1.937
10658TIP3   OH231914   1.786   0.309   0.365
10658TIP3    H131915   1.744   0.235   0.410
10658TIP3    H231916   1.801   0.277   0.276
10659TIP3   OH231917   6.354   3.742   2.343
10659TIP3    H131918   6.406   3.662   2.332
10659TIP3    H231919   6.418   3.813   2.334
10660TIP3   OH231920   4.697   0.169   1.235
10660TIP3    H131921   4.726   0.260   1.243
10660TIP3    H231922   4.629   0.159   1.300
10661TIP3   OH231923   0.646   2.161   5.801
10661TIP3    H131924   0.649   2.134   5.893
10661TIP3    H231925   0.661   2.255   5.804
10662TIP3   OH231926   5.596   6.119   5.653
10662TIP3    H131927   5.620   6.037   5.609
10662TIP3    H231928   5.536   6.161   5.592
10663TIP3   OH231929   0.032   3.811   3.707
10663TIP3    H131930   0.054   3.858   3.788
10663TIP3    H231931  -0.007   3.729   3.737
10664TIP3   OH231932   1.279   3.809   5.246
10664TIP3    H131933   1.231   3.747   5.191
10664TIP3    H231934   1.277   3.891   5.197
10665TIP3   OH231935   2.448   6.056   6.332
10665TIP3    H131936   2.493   6.136   6.358
10665TIP3    H231937   2.465   5.995   6.405
10666TIP3   OH231938   7.206   2.190   3.112
10666TIP3    H131939   7.229   2.178   3.020
10666TIP3    H231940   7.186   2.102   3.144
10667TIP3   OH231941   1.480   5.026   6.449
10667TIP3    H131942   1.548   5.083   6.412
10667TIP3    H231943   1.528   4.950   6.483
10668TIP3   OH231944   6.766   2.899   0.313
10668TIP3    H131945   6.682   2.944   0.326
10668TIP3    H231946   6.742   2.817   0.269
10669TIP3   OH231947   8.279   3.309   0.356
10669TIP3    H131948   8.347   3.264   0.306
10669TIP3    H231949   8.313   3.398   0.367
10670TIP3   OH231950   2.291   7.742   0.361
10670TIP3    H131951   2.252   7.821   0.398
10670TIP3    H231952   2.220   7.701   0.311
10671TIP3   OH231953   8.134   5.195   0.566
10671TIP3    H131954   8.192   5.271   0.570
10671TIP3    H231955   8.172   5.140   0.497
10672TIP3   OH231956   1.763   4.171   0.273
10672TIP3    H131957   1.785   4.254   0.314
10672TIP3    H231958   1.695   4.133   0.329
10673TIP3   OH231959   5.233   7.656   1.042
10673TIP3    H131960   5.269   7.580   0.996
10673TIP3    H231961   5.307   7.690   1.093
10674TIP3   OH231962   8.354   6.441   6.097
10674TIP3    H131963   8.333   6.385   6.171
10674TIP3    H231964   8.337   6.530   6.128
10675TIP3   OH231965   1.792   0.163   5.352
10675TIP3    H131966   1.865   0.103   5.368
10675TIP3    H231967   1.716   0.105   5.341
10676TIP3   OH231968   7.604   2.037   1.258
10676TIP3    H131969   7.512   2.054   1.240
10676TIP3    H231970   7.646   2.123   1.251
10677TIP3   OH231971   8.358   4.450   3.171
10677TIP3    H131972   8.346   4.358   3.195
10677TIP3    H231973   8.308   4.499   3.236
10678TIP3   OH231974   1.833   3.021   2.473
10678TIP3    H131975   1.752   3.015   2.524
10678TIP3    H231976   1.870   3.105   2.496
10679TIP3   OH231977   2.034   7.126   3.002
10679TIP3    H131978   2.105   7.171   2.956
10679TIP3    H231979   2.043   7.034   2.976
10680TIP3   OH231980   5.139   2.940   0.502
10680TIP3    H131981   5.060   2.994   0.493
10680TIP3    H231982   5.208   3.001   0.525
10681TIP3   OH231983   3.743   4.047   0.922
10681TIP3    H131984   3.778   3.998   0.996
10681TIP3    H231985   3.651   4.020   0.917
10682TIP3   OH231986   2.611   2.399   2.267
10682TIP3    H131987   2.573   2.463   2.207
10682TIP3    H231988   2.556   2.405   2.345
10683TIP3   OH231989   6.917   7.157   5.451
10683TIP3    H131990   6.880   7.245   5.455
10683TIP3    H231991   7.005   7.168   5.414
10684TIP3   OH231992   6.252   2.806   3.591
10684TIP3    H131993   6.168   2.815   3.546
10684TIP3    H231994   6.291   2.893   3.586
10685TIP3   OH231995   7.351   0.808   3.776
10685TIP3    H131996   7.361   0.876   3.842
10685TIP3    H231997   7.425   0.821   3.717
10686TIP3   OH231998   5.981   3.317   3.585
10686TIP3    H131999   5.941   3.233   3.606
10686TIP3    H232000   5.929   3.351   3.513
10687TIP3   OH232001   1.791   5.181   2.606
10687TIP3    H132002   1.847   5.181   2.528
10687TIP3    H232003   1.851   5.175   2.679
10688TIP3   OH232004   6.328   6.631   0.265
10688TIP3    H132005   6.296   6.545   0.291
10688TIP3    H232006   6.333   6.628   0.169
10689TIP3   OH232007   0.177   5.943   1.222
10689TIP3    H132008   0.090   5.983   1.215
10689TIP3    H232009   0.226   6.002   1.280
10690TIP3   OH232010   3.126   6.089   0.358
10690TIP3    H132011   3.090   6.093   0.269
10690TIP3    H232012   3.089   6.164   0.403
10691TIP3   OH232013   7.673   0.167   2.147
10691TIP3    H132014   7.679   0.246   2.200
10691TIP3    H232015   7.603   0.185   2.084
10692TIP3   OH232016   7.472   7.318   2.626
10692TIP3    H132017   7.435   7.276   2.704
10692TIP3    H232018   7.475   7.411   2.648
10693TIP3   OH232019   6.937   2.501   0.267
10693TIP3    H132020   6.929   2.405   0.269
10693TIP3    H232021   6.896   2.529   0.349
10694TIP3   OH232022   6.675   3.944   0.677
10694TIP3    H132023   6.619   3.959   0.753
10694TIP3    H232024   6.615   3.949   0.602
10695TIP3   OH232025   1.962   4.916   6.124
10695TIP3    H132026   1.904   4.840   6.123
10695TIP3    H232027   1.940   4.964   6.045
10696TIP3   OH232028   7.368   6.889   5.946
10696TIP3    H132029   7.307   6.819   5.970
10696TIP3    H232030   7.393   6.929   6.029
10697TIP3   OH232031   1.120   0.903   4.618
10697TIP3    H132032   1.180   0.975   4.597
10697TIP3    H232033   1.147   0.873   4.705
10698TIP3   OH232034   1.183   5.839   6.052
10698TIP3    H132035   1.276   5.834   6.076
10698TIP3    H232036   1.149   5.912   6.103
10699TIP3   OH232037   0.338   5.004   0.045
10699TIP3    H132038   0.266   4.958   0.088
10699TIP3    H232039   0.392   5.037   0.117
10700TIP3   OH232040   0.236   4.329   1.047
10700TIP3    H132041   0.193   4.288   1.121
10700TIP3    H232042   0.322   4.356   1.080
10701TIP3   OH232043   0.742   3.955   3.842
10701TIP3    H132044   0.777   3.866   3.837
10701TIP3    H232045   0.788   4.003   3.773
10702TIP3   OH232046   1.948   1.245   1.770
10702TIP3    H132047   2.001   1.269   1.847
10702TIP3    H232048   1.936   1.150   1.778
10703TIP3   OH232049   5.865   7.351   4.172
10703TIP3    H132050   5.960   7.351   4.187
10703TIP3    H232051   5.827   7.361   4.260
10704TIP3   OH232052   8.060   3.145   3.087
10704TIP3    H132053   8.096   3.063   3.121
10704TIP3    H232054   8.135   3.192   3.052
10705TIP3   OH232055   4.289   7.764   5.741
10705TIP3    H132056   4.367   7.816   5.762
10705TIP3    H232057   4.225   7.787   5.808
10706TIP3   OH232058   6.144   0.517   6.327
10706TIP3    H132059   6.193   0.435   6.321
10706TIP3    H232060   6.196   0.571   6.387
10707TIP3   OH232061   2.481   4.724   0.181
10707TIP3    H132062   2.454   4.637   0.212
10707TIP3    H232063   2.459   4.783   0.253
10708TIP3   OH232064   3.256   2.186   6.725
10708TIP3    H132065   3.241   2.094   6.746
10708TIP3    H232066   3.339   2.207   6.766
10709TIP3   OH232067   6.053   0.513   0.686
10709TIP3    H132068   6.067   0.462   0.605
10709TIP3    H232069   6.075   0.452   0.756
10710TIP3   OH232070   1.395   5.411   1.904
10710TIP3    H132071   1.387   5.325   1.945
10710TIP3    H232072   1.488   5.419   1.884
10711TIP3   OH232073   8.198   1.326   6.007
10711TIP3    H132074   8.108   1.313   6.036
10711TIP3    H232075   8.233   1.392   6.068
10712TIP3   OH232076   0.029   0.081   0.024
10712TIP3    H132077   0.023   0.081  -0.071
10712TIP3    H232078  -0.001  -0.007   0.049
10713TIP3   OH232079   1.789   0.691   4.927
10713TIP3    H132080   1.766   0.666   5.016
10713TIP3    H232081   1.708   0.680   4.877
10714TIP3   OH232082   3.606   2.186   4.371
10714TIP3    H132083   3.571   2.250   4.309
10714TIP3    H232084   3.693   2.164   4.336
10715TIP3   OH232085   0.578   5.289   2.449
10715TIP3    H132086   0.666   5.251   2.435
10715TIP3    H232087   0.571   5.297   2.544
10716TIP3   OH232088   5.760   4.880   3.491
10716TIP3    H132089   5.767   4.885   3.396
10716TIP3    H232090   5.684   4.825   3.508
10717TIP3   OH232091   8.218   7.742   4.341
10717TIP3    H132092   8.264   7.792   4.409
10717TIP3    H232093   8.286   7.720   4.277
10718TIP3   OH232094   4.372   5.382   4.787
10718TIP3    H132095   4.363   5.478   4.781
10718TIP3    H232096   4.302   5.348   4.732
10719TIP3   OH232097   0.417   1.387   2.609
10719TIP3    H132098   0.386   1.475   2.586
10719TIP3    H232099   0.396   1.334   2.532
10720TIP3   OH232100   4.623   0.716   3.920
10720TIP3    H132101   4.589   0.803   3.942
10720TIP3    H232102   4.615   0.666   4.001
10721TIP3   OH232103   7.324   7.038   2.007
10721TIP3    H132104   7.293   7.121   1.971
10721TIP3    H232105   7.263   6.973   1.972
10722TIP3   OH232106   3.922   7.635   5.003
10722TIP3    H132107   3.838   7.679   5.014
10722TIP3    H232108   3.918   7.597   4.915
10723TIP3   OH232109   4.897   5.576   4.612
10723TIP3    H132110   4.819   5.571   4.558
10723TIP3    H232111   4.904   5.668   4.638
10724TIP3   OH232112   5.445   7.469   4.868
10724TIP3    H132113   5.391   7.456   4.790
10724TIP3    H232114   5.400   7.538   4.917
10725TIP3   OH232115   4.362   5.304   3.790
10725TIP3    H132116   4.420   5.367   3.747
10725TIP3    H232117   4.303   5.275   3.721
10726TIP3   OH232118   5.894   5.812   3.821
10726TIP3    H132119   5.938   5.868   3.885
10726TIP3    H232120   5.930   5.840   3.737
10727TIP3   OH232121   2.758   0.523   1.336
10727TIP3    H132122   2.767   0.617   1.346
10727TIP3    H232123   2.668   0.509   1.308
10728TIP3   OH232124   5.252   3.933   1.660
10728TIP3    H132125   5.237   3.841   1.635
10728TIP3    H232126   5.193   3.948   1.733
10729TIP3   OH232127   8.070   5.723   4.654
10729TIP3    H132128   8.102   5.638   4.685
10729TIP3    H232129   7.989   5.737   4.702
10730TIP3   OH232130   4.997   0.871   1.572
10730TIP3    H132131   5.050   0.792   1.574
10730TIP3    H232132   4.908   0.840   1.554
10731TIP3   OH232133   2.780   3.484   4.863
10731TIP3    H132134   2.716   3.413   4.872
10731TIP3    H232135   2.747   3.554   4.919
10732TIP3   OH232136   6.243   1.612   3.753
10732TIP3    H132137   6.275   1.573   3.672
10732TIP3    H232138   6.313   1.671   3.781
10733TIP3   OH232139   5.436   6.064   2.037
10733TIP3    H132140   5.451   6.035   1.947
10733TIP3    H232141   5.442   6.159   2.034
10734TIP3   OH232142   2.010   4.161   1.723
10734TIP3    H132143   2.006   4.240   1.669
10734TIP3    H232144   1.919   4.144   1.747
10735TIP3   OH232145   3.399   1.940   2.666
10735TIP3    H132146   3.426   2.030   2.687
10735TIP3    H232147   3.469   1.906   2.611
10736TIP3   OH232148   1.633   0.725   6.383
10736TIP3    H132149   1.598   0.805   6.345
10736TIP3    H232150   1.657   0.671   6.307
10737TIP3   OH232151   4.479   0.509   6.393
10737TIP3    H132152   4.547   0.509   6.326
10737TIP3    H232153   4.430   0.590   6.378
10738TIP3   OH232154   1.790   7.430   3.713
10738TIP3    H132155   1.760   7.342   3.739
10738TIP3    H232156   1.871   7.414   3.666
10739TIP3   OH232157   3.963   2.502   2.308
10739TIP3    H132158   3.869   2.520   2.305
10739TIP3    H232159   3.993   2.543   2.390
10740TIP3   OH232160   4.873   6.539   4.233
10740TIP3    H132161   4.867   6.461   4.288
10740TIP3    H232162   4.965   6.564   4.237
10741TIP3   OH232163   0.388   3.380   4.613
10741TIP3    H132164   0.365   3.298   4.657
10741TIP3    H232165   0.341   3.447   4.663
10742TIP3   OH232166   6.627   0.105   3.301
10742TIP3    H132167   6.569   0.033   3.276
10742TIP3    H232168   6.698   0.102   3.237
10743TIP3   OH232169   3.120   1.460   2.793
10743TIP3    H132170   3.210   1.479   2.765
10743TIP3    H232171   3.073   1.542   2.782
10744TIP3   OH232172   4.101   2.298   3.197
10744TIP3    H132173   4.083   2.372   3.139
10744TIP3    H232174   4.084   2.221   3.142
10745TIP3   OH232175   1.463   4.524   5.815
10745TIP3    H132176   1.424   4.611   5.811
10745TIP3    H232177   1.557   4.539   5.804
10746TIP3   OH232178   1.106   3.985   2.241
10746TIP3    H132179   1.113   3.905   2.189
10746TIP3    H232180   1.118   4.056   2.177
10747TIP3   OH232181   5.761   3.207   2.468
10747TIP3    H132182   5.790   3.116   2.466
10747TIP3    H232183   5.828   3.256   2.421
10748TIP3   OH232184   2.819   6.525   2.448
10748TIP3    H132185   2.854   6.575   2.521
10748TIP3    H232186   2.892   6.519   2.385
10749TIP3   OH232187   2.260   6.188   4.288
10749TIP3    H132188   2.350   6.218   4.277
10749TIP3    H232189   2.215   6.262   4.328
10750TIP3   OH232190   6.323   6.994   0.649
10750TIP3    H132191   6.282   6.911   0.669
10750TIP3    H232192   6.355   6.985   0.559
10751TIP3   OH232193   0.048   1.204   4.480
10751TIP3    H132194   0.066   1.146   4.406
10751TIP3    H232195  -0.042   1.183   4.505
10752TIP3   OH232196   2.070   6.903   6.398
10752TIP3    H132197   2.122   6.976   6.363
10752TIP3    H232198   2.101   6.892   6.487
10753TIP3   OH232199   7.064   3.544   2.752
10753TIP3    H132200   6.990   3.599   2.728
10753TIP3    H232201   7.031   3.489   2.823
10754TIP3   OH232202   1.184   3.909   3.882
10754TIP3    H132203   1.170   3.854   3.805
10754TIP3    H232204   1.245   3.859   3.936
10755TIP3   OH232205   7.360   1.731   6.462
10755TIP3    H132206   7.380   1.638   6.449
10755TIP3    H232207   7.293   1.732   6.530
10756TIP3   OH232208   2.050   5.905   0.558
10756TIP3    H132209   2.045   5.885   0.465
10756TIP3    H232210   2.128   5.959   0.567
10757TIP3   OH232211   5.607   1.755   3.278
10757TIP3    H132212   5.684   1.812   3.278
10757TIP3    H232213   5.540   1.806   3.233
10758TIP3   OH232214   6.000   7.882   1.032
10758TIP3    H132215   5.988   7.936   0.954
10758TIP3    H232216   6.084   7.911   1.069
10759TIP3   OH232217   7.882   3.387   2.944
10759TIP3    H132218   7.820   3.359   3.011
10759TIP3    H232219   7.869   3.481   2.936
10760TIP3   OH232220   0.460   4.103   6.228
10760TIP3    H132221   0.491   4.158   6.156
10760TIP3    H232222   0.370   4.134   6.244
10761TIP3   OH232223   5.148   3.838   3.837
10761TIP3    H132224   5.163   3.833   3.931
10761TIP3    H232225   5.061   3.801   3.824
10762TIP3   OH232226   5.360   2.040   2.047
10762TIP3    H132227   5.298   1.976   2.081
10762TIP3    H232228   5.374   2.014   1.956
10763TIP3   OH232229   2.414   2.109   5.881
10763TIP3    H132230   2.343   2.103   5.817
10763TIP3    H232231   2.493   2.113   5.827
10764TIP3   OH232232   7.224   2.384   0.555
10764TIP3    H132233   7.269   2.377   0.639
10764TIP3    H232234   7.132   2.363   0.575
10765TIP3   OH232235   4.650   2.362   4.614
10765TIP3    H132236   4.689   2.449   4.608
10765TIP3    H232237   4.558   2.374   4.591
10766TIP3   OH232238   2.288   3.275   2.273
10766TIP3    H132239   2.257   3.341   2.210
10766TIP3    H232240   2.218   3.210   2.275
10767TIP3   OH232241   2.318   3.346   1.786
10767TIP3    H132242   2.233   3.370   1.751
10767TIP3    H232243   2.301   3.269   1.841
10768TIP3   OH232244   7.771   6.708   6.374
10768TIP3    H132245   7.812   6.642   6.318
10768TIP3    H232246   7.766   6.666   6.460
10769TIP3   OH232247   3.013   6.116   5.382
10769TIP3    H132248   3.075   6.150   5.447
10769TIP3    H232249   2.953   6.061   5.433
10770TIP3   OH232250   5.306   0.448   6.182
10770TIP3    H132251   5.321   0.356   6.157
10770TIP3    H232252   5.361   0.460   6.259
10771TIP3   OH232253   7.869   7.130   4.066
10771TIP3    H132254   7.779   7.127   4.035
10771TIP3    H232255   7.862   7.131   4.161
10772TIP3   OH232256   0.300   6.580   2.710
10772TIP3    H132257   0.388   6.550   2.686
10772TIP3    H232258   0.270   6.629   2.633
10773TIP3   OH232259   4.812   2.090   4.152
10773TIP3    H132260   4.770   2.173   4.132
10773TIP3    H232261   4.865   2.107   4.230
10774TIP3   OH232262   4.336   4.645   2.237
10774TIP3    H132263   4.428   4.618   2.233
10774TIP3    H232264   4.324   4.700   2.160
10775TIP3   OH232265   6.733   2.707   4.379
10775TIP3    H132266   6.671   2.775   4.351
10775TIP3    H232267   6.819   2.744   4.360
10776TIP3   OH232268   1.287   4.145   4.119
10776TIP3    H132269   1.335   4.063   4.110
10776TIP3    H232270   1.211   4.134   4.062
10777TIP3   OH232271   4.208   1.128   5.300
10777TIP3    H132272   4.226   1.083   5.217
10777TIP3    H232273   4.207   1.058   5.365
10778TIP3   OH232274   1.252   0.459   4.204
10778TIP3    H132275   1.203   0.381   4.230
10778TIP3    H232276   1.197   0.501   4.138
10779TIP3   OH232277   1.344   1.330   3.343
10779TIP3    H132278   1.295   1.251   3.363
10779TIP3    H232279   1.382   1.314   3.256
10780TIP3   OH232280   3.191   2.906   1.913
10780TIP3    H132281   3.132   2.851   1.964
10780TIP3    H232282   3.273   2.905   1.961
10781TIP3   OH232283   6.477   6.073   3.495
10781TIP3    H132284   6.445   5.994   3.452
10781TIP3    H232285   6.543   6.108   3.435
10782TIP3   OH232286   2.801   4.563   3.172
10782TIP3    H132287   2.886   4.606   3.173
10782TIP3    H232288   2.787   4.534   3.262
10783TIP3   OH232289   7.593   0.171   3.132
10783TIP3    H132290   7.537   0.114   3.079
10783TIP3    H232291   7.571   0.260   3.104
10784TIP3   OH232292   0.373   7.830   4.692
10784TIP3    H132293   0.410   7.757   4.742
10784TIP3    H232294   0.407   7.908   4.735
10785TIP3   OH232295   7.598   0.799   1.451
10785TIP3    H132296   7.542   0.755   1.387
10785TIP3    H232297   7.575   0.892   1.442
10786TIP3   OH232298   7.770   5.624   1.087
10786TIP3    H132299   7.851   5.572   1.091
10786TIP3    H232300   7.796   5.705   1.043
10787TIP3   OH232301   7.112   7.531   5.224
10787TIP3    H132302   7.199   7.518   5.262
10787TIP3    H232303   7.117   7.487   5.139
10788TIP3   OH232304   7.593   5.501   3.198
10788TIP3    H132305   7.667   5.552   3.233
10788TIP3    H232306   7.538   5.484   3.275
10789TIP3   OH232307   7.397   7.064   5.479
10789TIP3    H132308   7.492   7.052   5.475
10789TIP3    H232309   7.369   7.007   5.551
10790TIP3   OH232310   8.190   0.861   1.830
10790TIP3    H132311   8.283   0.884   1.831
10790TIP3    H232312   8.145   0.944   1.815
10791TIP3   OH232313   1.271   7.284   4.435
10791TIP3    H132314   1.245   7.359   4.489
10791TIP3    H232315   1.204   7.217   4.454
10792TIP3   OH232316   1.123   0.356   6.607
10792TIP3    H132317   1.112   0.377   6.515
10792TIP3    H232318   1.126   0.441   6.651
10793TIP3   OH232319   2.334   7.189   3.420
10793TIP3    H132320   2.242   7.201   3.397
10793TIP3    H232321   2.334   7.178   3.515
10794TIP3   OH232322   3.112   4.237   4.327
10794TIP3    H132323   3.151   4.158   4.366
10794TIP3    H232324   3.093   4.211   4.236
10795TIP3   OH232325   6.336   1.723   1.497
10795TIP3    H132326   6.328   1.720   1.402
10795TIP3    H232327   6.368   1.637   1.522
10796TIP3   OH232328   5.605   3.767   1.366
10796TIP3    H132329   5.583   3.852   1.402
10796TIP3    H232330   5.576   3.704   1.432
10797TIP3   OH232331   0.302   2.891   0.630
10797TIP3    H132332   0.298   2.978   0.591
10797TIP3    H232333   0.339   2.905   0.717
10798TIP3   OH232334   8.143   7.081   2.108
10798TIP3    H132335   8.203   7.117   2.173
10798TIP3    H232336   8.131   6.990   2.134
10799TIP3   OH232337   3.309   3.651   6.140
10799TIP3    H132338   3.334   3.688   6.225
10799TIP3    H232339   3.235   3.593   6.161
10800TIP3   OH232340   3.368   0.693   0.267
10800TIP3    H132341   3.386   0.773   0.218
10800TIP3    H232342   3.443   0.637   0.251
10801TIP3   OH232343   1.947   3.266   2.536
10801TIP3    H132344   1.953   3.328   2.464
10801TIP3    H232345   1.926   3.320   2.612
10802TIP3   OH232346   3.854   3.137   6.447
10802TIP3    H132347   3.792   3.168   6.513
10802TIP3    H232348   3.847   3.042   6.450
10803TIP3   OH232349   5.286   4.160   3.851
10803TIP3    H132350   5.315   4.213   3.777
10803TIP3    H232351   5.209   4.113   3.819
10804TIP3   OH232352   1.772   6.787   5.725
10804TIP3    H132353   1.842   6.740   5.679
10804TIP3    H232354   1.806   6.797   5.814
10805TIP3   OH232355   1.476   0.083   2.140
10805TIP3    H132356   1.441   0.020   2.077
10805TIP3    H232357   1.497   0.031   2.218
10806TIP3   OH232358   4.631   1.286   4.334
10806TIP3    H132359   4.585   1.342   4.397
10806TIP3    H232360   4.642   1.342   4.256
10807TIP3   OH232361   6.034   1.697   5.294
10807TIP3    H132362   5.939   1.688   5.307
10807TIP3    H232363   6.043   1.746   5.213
10808TIP3   OH232364   5.873   1.330   1.175
10808TIP3    H132365   5.799   1.331   1.237
10808TIP3    H232366   5.833   1.348   1.090
10809TIP3   OH232367   5.989   0.070   2.865
10809TIP3    H132368   5.913   0.118   2.897
10809TIP3    H232369   5.998   0.096   2.774
10810TIP3   OH232370   2.071   4.251   3.668
10810TIP3    H132371   2.085   4.345   3.671
10810TIP3    H232372   2.144   4.217   3.616
10811TIP3   OH232373   8.004   2.814   2.094
10811TIP3    H132374   8.086   2.780   2.130
10811TIP3    H232375   8.020   2.908   2.085
10812TIP3   OH232376   6.296   6.356   3.861
10812TIP3    H132377   6.275   6.433   3.808
10812TIP3    H232378   6.369   6.314   3.814
10813TIP3   OH232379   6.607   1.816   0.305
10813TIP3    H132380   6.651   1.769   0.234
10813TIP3    H232381   6.629   1.908   0.289
10814TIP3   OH232382   2.823   7.314   4.894
10814TIP3    H132383   2.787   7.308   4.806
10814TIP3    H232384   2.914   7.341   4.880
10815TIP3   OH232385   0.701   0.179   3.265
10815TIP3    H132386   0.771   0.153   3.325
10815TIP3    H232387   0.668   0.097   3.230
10816TIP3   OH232388   1.529   1.197   6.862
10816TIP3    H132389   1.565   1.234   6.782
10816TIP3    H232390   1.442   1.236   6.869
10817TIP3   OH232391   3.513   4.684   4.597
10817TIP3    H132392   3.544   4.646   4.515
10817TIP3    H232393   3.574   4.756   4.614
10818TIP3   OH232394   8.390   6.717   0.358
10818TIP3    H132395   8.302   6.746   0.333
10818TIP3    H232396   8.449   6.771   0.306
10819TIP3   OH232397   7.159   5.784   1.385
10819TIP3    H132398   7.241   5.752   1.424
10819TIP3    H232399   7.187   5.854   1.326
10820TIP3   OH232400   5.510   5.971   6.774
10820TIP3    H132401   5.494   5.929   6.858
10820TIP3    H232402   5.589   5.928   6.740
10821TIP3   OH232403   2.311   7.840   5.266
10821TIP3    H132404   2.236   7.789   5.235
10821TIP3    H232405   2.383   7.776   5.270
10822TIP3   OH232406   2.023   5.960   2.483
10822TIP3    H132407   1.933   5.988   2.500
10822TIP3    H232408   2.056   6.022   2.417
10823TIP3   OH232409   6.180   4.731   0.854
10823TIP3    H132410   6.206   4.821   0.832
10823TIP3    H232411   6.216   4.717   0.942
10824TIP3   OH232412   1.286   3.653   6.163
10824TIP3    H132413   1.293   3.677   6.256
10824TIP3    H232414   1.312   3.733   6.116
10825TIP3   OH232415   4.094   7.564   2.146
10825TIP3    H132416   4.145   7.488   2.117
10825TIP3    H232417   4.059   7.538   2.231
10826TIP3   OH232418   6.005   5.850   2.258
10826TIP3    H132419   5.937   5.914   2.279
10826TIP3    H232420   6.081   5.903   2.235
10827TIP3   OH232421   5.894   6.818   5.772
10827TIP3    H132422   5.880   6.871   5.693
10827TIP3    H232423   5.978   6.775   5.757
10828TIP3   OH232424   4.931   7.284   5.181
10828TIP3    H132425   4.871   7.247   5.247
10828TIP3    H232426   4.916   7.378   5.186
10829TIP3   OH232427   2.790   1.268   3.135
10829TIP3    H132428   2.828   1.339   3.187
10829TIP3    H232429   2.818   1.286   3.045
10830TIP3   OH232430   1.798   2.769   5.908
10830TIP3    H132431   1.725   2.730   5.860
10830TIP3    H232432   1.757   2.811   5.984
10831TIP3   OH232433   1.197   5.741   1.633
10831TIP3    H132434   1.198   5.670   1.697
10831TIP3    H232435   1.288   5.769   1.626
10832TIP3   OH232436   6.781   2.413   5.268
10832TIP3    H132437   6.798   2.448   5.181
10832TIP3    H232438   6.867   2.410   5.310
10833TIP3   OH232439   6.472   2.482   1.140
10833TIP3    H132440   6.521   2.533   1.205
10833TIP3    H232441   6.380   2.501   1.160
10834TIP3   OH232442   4.596   6.686   2.870
10834TIP3    H132443   4.652   6.634   2.927
10834TIP3    H232444   4.521   6.709   2.925
10835TIP3   OH232445   3.179   7.264   6.082
10835TIP3    H132446   3.095   7.284   6.042
10835TIP3    H232447   3.227   7.217   6.015
10836TIP3   OH232448   4.224   5.856   4.023
10836TIP3    H132449   4.162   5.807   4.077
10836TIP3    H232450   4.271   5.790   3.973
10837TIP3   OH232451   1.029   0.648   5.769
10837TIP3    H132452   1.017   0.730   5.720
10837TIP3    H232453   0.999   0.669   5.858
10838TIP3   OH232454   7.874   6.630   2.698
10838TIP3    H132455   7.781   6.649   2.695
10838TIP3    H232456   7.915   6.704   2.654
10839TIP3   OH232457   1.167   5.533   1.832
10839TIP3    H132458   1.108   5.459   1.816
10839TIP3    H232459   1.246   5.493   1.869
10840TIP3   OH232460   2.474   2.153   4.781
10840TIP3    H132461   2.425   2.173   4.861
10840TIP3    H232462   2.527   2.231   4.766
10841TIP3   OH232463   4.572   0.529   3.706
10841TIP3    H132464   4.567   0.572   3.792
10841TIP3    H232465   4.628   0.587   3.654
10842TIP3   OH232466   4.740   0.856   4.533
10842TIP3    H132467   4.765   0.771   4.497
10842TIP3    H232468   4.744   0.845   4.628
10843TIP3   OH232469   6.560   2.515   2.570
10843TIP3    H132470   6.632   2.455   2.589
10843TIP3    H232471   6.490   2.458   2.539
10844TIP3   OH232472   5.145   4.642   0.068
10844TIP3    H132473   5.057   4.605   0.060
10844TIP3    H232474   5.131   4.735   0.085
10845TIP3   OH232475   0.439   3.161   6.546
10845TIP3    H132476   0.390   3.097   6.495
10845TIP3    H232477   0.414   3.246   6.510
10846TIP3   OH232478   7.058   1.784   4.560
10846TIP3    H132479   7.153   1.774   4.571
10846TIP3    H232480   7.048   1.810   4.468
10847TIP3   OH232481   6.314   4.333   6.112
10847TIP3    H132482   6.220   4.334   6.130
10847TIP3    H232483   6.326   4.264   6.047
10848TIP3   OH232484   3.581   5.349   3.507
10848TIP3    H132485   3.508   5.363   3.567
10848TIP3    H232486   3.644   5.295   3.557
10849TIP3   OH232487   4.270   0.706   2.943
10849TIP3    H132488   4.233   0.794   2.945
10849TIP3    H232489   4.201   0.650   2.979
10850TIP3   OH232490   1.693   2.372   2.536
10850TIP3    H132491   1.603   2.370   2.568
10850TIP3    H232492   1.720   2.281   2.533
10851TIP3   OH232493   6.217   6.198   0.610
10851TIP3    H132494   6.209   6.103   0.614
10851TIP3    H232495   6.169   6.223   0.531
10852TIP3   OH232496   5.904   1.764   3.447
10852TIP3    H132497   5.887   1.826   3.519
10852TIP3    H232498   5.938   1.819   3.377
10853TIP3   OH232499   5.568   1.985   0.285
10853TIP3    H132500   5.592   1.895   0.263
10853TIP3    H232501   5.487   1.975   0.336
10854TIP3   OH232502   6.613   1.961   6.779
10854TIP3    H132503   6.698   1.978   6.821
10854TIP3    H232504   6.550   2.006   6.835
10855TIP3   OH232505   3.204   5.542   4.618
10855TIP3    H132506   3.131   5.555   4.558
10855TIP3    H232507   3.266   5.612   4.597
10856TIP3   OH232508   1.403   6.490   2.713
10856TIP3    H132509   1.495   6.468   2.727
10856TIP3    H232510   1.405   6.561   2.649
10857TIP3   OH232511   3.788   7.434   5.604
10857TIP3    H132512   3.741   7.517   5.591
10857TIP3    H232513   3.835   7.420   5.522
10858TIP3   OH232514   0.899   1.745   2.980
10858TIP3    H132515   0.901   1.838   3.001
10858TIP3    H232516   0.907   1.742   2.884
10859TIP3   OH232517   1.903   5.451   5.707
10859TIP3    H132518   1.962   5.527   5.700
10859TIP3    H232519   1.935   5.390   5.640
10860TIP3   OH232520   6.094   2.379   6.288
10860TIP3    H132521   6.057   2.292   6.273
10860TIP3    H232522   6.036   2.419   6.353
10861TIP3   OH232523   2.881   5.359   2.830
10861TIP3    H132524   2.944   5.320   2.770
10861TIP3    H232525   2.932   5.383   2.907
10862TIP3   OH232526   5.348   5.701   0.139
10862TIP3    H132527   5.424   5.696   0.197
10862TIP3    H232528   5.279   5.739   0.194
10863TIP3   OH232529   5.782   2.269   2.519
10863TIP3    H132530   5.804   2.292   2.429
10863TIP3    H232531   5.860   2.223   2.551
10864TIP3   OH232532   4.722   4.651   6.412
10864TIP3    H132533   4.723   4.643   6.317
10864TIP3    H232534   4.692   4.565   6.443
10865TIP3   OH232535   0.952   0.844   5.608
10865TIP3    H132536   0.956   0.777   5.539
10865TIP3    H232537   1.013   0.912   5.579
10866TIP3   OH232538   2.280   5.580   3.659
10866TIP3    H132539   2.250   5.538   3.740
10866TIP3    H232540   2.200   5.596   3.609
10867TIP3   OH232541   6.999   6.145   3.213
10867TIP3    H132542   7.055   6.119   3.141
10867TIP3    H232543   6.918   6.176   3.171
10868TIP3   OH232544   2.543   1.259   4.148
10868TIP3    H132545   2.464   1.313   4.155
10868TIP3    H232546   2.614   1.317   4.174
10869TIP3   OH232547   8.217   7.362   2.628
10869TIP3    H132548   8.222   7.441   2.683
10869TIP3    H232549   8.201   7.396   2.540
10870TIP3   OH232550   0.213   1.160   1.251
10870TIP3    H132551   0.158   1.098   1.299
10870TIP3    H232552   0.179   1.246   1.277
10871TIP3   OH232553   7.405   0.672   2.241
10871TIP3    H132554   7.315   0.660   2.270
10871TIP3    H232555   7.400   0.671   2.145
10872TIP3   OH232556   2.849   4.006   5.513
10872TIP3    H132557   2.778   4.069   5.511
10872TIP3    H232558   2.900   4.024   5.434
10873TIP3   OH232559   3.700   1.971   6.795
10873TIP3    H132560   3.746   2.027   6.857
10873TIP3    H232561   3.702   1.884   6.835
10874TIP3   OH232562   0.815   6.205   0.859
10874TIP3    H132563   0.750   6.259   0.904
10874TIP3    H232564   0.861   6.159   0.929
10875TIP3   OH232565   6.608   1.744   4.194
10875TIP3    H132566   6.632   1.807   4.126
10875TIP3    H232567   6.622   1.658   4.154
10876TIP3   OH232568   7.998   7.350   3.965
10876TIP3    H132569   7.924   7.379   4.019
10876TIP3    H232570   7.988   7.255   3.962
10877TIP3   OH232571   2.062   1.951   3.163
10877TIP3    H132572   2.079   1.884   3.097
10877TIP3    H232573   2.114   1.925   3.238
10878TIP3   OH232574   7.703   3.441   5.884
10878TIP3    H132575   7.735   3.494   5.957
10878TIP3    H232576   7.648   3.374   5.925
10879TIP3   OH232577   1.929   4.993   6.731
10879TIP3    H132578   1.928   4.980   6.826
10879TIP3    H232579   1.996   4.932   6.699
10880TIP3   OH232580   5.532   7.564   1.683
10880TIP3    H132581   5.524   7.605   1.770
10880TIP3    H232582   5.590   7.622   1.634
10881TIP3   OH232583   5.808   7.032   3.618
10881TIP3    H132584   5.741   7.066   3.679
10881TIP3    H232585   5.879   7.002   3.675
10882TIP3   OH232586   0.359   0.956   6.815
10882TIP3    H132587   0.356   0.954   6.720
10882TIP3    H232588   0.268   0.938   6.842
10883TIP3   OH232589   4.988   2.453   6.460
10883TIP3    H132590   4.961   2.507   6.386
10883TIP3    H232591   4.994   2.514   6.533
10884TIP3   OH232592   0.608   5.248   3.297
10884TIP3    H132593   0.556   5.167   3.292
10884TIP3    H232594   0.696   5.222   3.272
10885TIP3   OH232595   0.898   3.042   1.845
10885TIP3    H132596   0.958   3.043   1.919
10885TIP3    H232597   0.841   2.967   1.861
10886TIP3   OH232598   2.414   5.842   0.825
10886TIP3    H132599   2.486   5.869   0.767
10886TIP3    H232600   2.365   5.777   0.774
10887TIP3   OH232601   3.588   1.334   6.324
10887TIP3    H132602   3.492   1.331   6.332
10887TIP3    H232603   3.604   1.401   6.258
10888TIP3   OH232604   7.234   1.971   5.765
10888TIP3    H132605   7.230   1.891   5.817
10888TIP3    H232606   7.306   1.957   5.704
10889TIP3   OH232607   0.355   2.664   3.460
10889TIP3    H132608   0.270   2.637   3.494
10889TIP3    H232609   0.418   2.614   3.512
10890TIP3   OH232610   5.345   2.067   3.607
10890TIP3    H132611   5.291   2.075   3.528
10890TIP3    H232612   5.428   2.033   3.576
10891TIP3   OH232613   1.486   7.648   3.887
10891TIP3    H132614   1.397   7.620   3.907
10891TIP3    H232615   1.537   7.567   3.885
10892TIP3   OH232616   5.336   0.826   1.834
10892TIP3    H132617   5.326   0.909   1.881
10892TIP3    H232618   5.380   0.849   1.753
10893TIP3   OH232619   2.773   2.164   6.065
10893TIP3    H132620   2.718   2.220   6.120
10893TIP3    H232621   2.862   2.178   6.098
10894TIP3   OH232622   3.229   7.117   6.316
10894TIP3    H132623   3.321   7.089   6.321
10894TIP3    H232624   3.229   7.188   6.252
10895TIP3   OH232625   1.369   6.336   0.084
10895TIP3    H132626   1.401   6.335  -0.006
10895TIP3    H232627   1.365   6.429   0.107
10896TIP3   OH232628   2.915   6.616   5.820
10896TIP3    H132629   2.956   6.700   5.842
10896TIP3    H232630   2.962   6.585   5.744
10897TIP3   OH232631   6.511   4.500   0.268
10897TIP3    H132632   6.434   4.472   0.318
10897TIP3    H232633   6.580   4.438   0.293
10898TIP3   OH232634   3.755   1.140   0.494
10898TIP3    H132635   3.843   1.174   0.510
10898TIP3    H232636   3.768   1.067   0.433
10899TIP3   OH232637   3.691   7.710   1.927
10899TIP3    H132638   3.675   7.682   1.837
10899TIP3    H232639   3.777   7.753   1.924
10900TIP3   OH232640   3.629   4.517   4.958
10900TIP3    H132641   3.631   4.596   4.904
10900TIP3    H232642   3.611   4.549   5.046
10901TIP3   OH232643   1.838   6.079   4.363
10901TIP3    H132644   1.821   6.048   4.452
10901TIP3    H232645   1.831   6.174   4.369
10902TIP3   OH232646   1.740   7.313   5.239
10902TIP3    H132647   1.666   7.374   5.243
10902TIP3    H232648   1.705   7.231   5.275
10903TIP3   OH232649   5.103   2.856   1.393
10903TIP3    H132650   5.176   2.851   1.332
10903TIP3    H232651   5.032   2.897   1.343
10904TIP3   OH232652   2.766   6.237   0.923
10904TIP3    H132653   2.786   6.265   1.013
10904TIP3    H232654   2.845   6.258   0.873
10905TIP3   OH232655   3.764   5.482   1.210
10905TIP3    H132656   3.853   5.491   1.175
10905TIP3    H232657   3.711   5.541   1.158
10906TIP3   OH232658   5.044   3.933   1.884
10906TIP3    H132659   5.007   4.021   1.890
10906TIP3    H232660   5.128   3.938   1.930
10907TIP3   OH232661   3.241   2.533   0.804
10907TIP3    H132662   3.222   2.441   0.783
10907TIP3    H232663   3.295   2.529   0.883
10908TIP3   OH232664   4.536   5.471   1.718
10908TIP3    H132665   4.597   5.544   1.709
10908TIP3    H232666   4.548   5.442   1.809
10909TIP3   OH232667   4.662   7.003   5.177
10909TIP3    H132668   4.586   6.981   5.231
10909TIP3    H232669   4.714   7.061   5.232
10910TIP3   OH232670   7.365   4.799   0.317
10910TIP3    H132671   7.397   4.738   0.250
10910TIP3    H232672   7.427   4.871   0.315
10911TIP3   OH232673   7.675   0.925   1.889
10911TIP3    H132674   7.600   0.979   1.914
10911TIP3    H232675   7.715   0.972   1.816
10912TIP3   OH232676   1.529   2.794   6.067
10912TIP3    H132677   1.554   2.763   5.979
10912TIP3    H232678   1.552   2.886   6.067
10913TIP3   OH232679   4.487   2.158   4.652
10913TIP3    H132680   4.492   2.087   4.588
10913TIP3    H232681   4.546   2.226   4.617
10914TIP3   OH232682   4.988   0.578   4.250
10914TIP3    H132683   4.962   0.642   4.183
10914TIP3    H232684   5.022   0.504   4.200
10915TIP3   OH232685   5.552   1.226   6.858
10915TIP3    H132686   5.592   1.313   6.862
10915TIP3    H232687   5.497   1.229   6.780
10916TIP3   OH232688   5.444   2.313   5.831
10916TIP3    H132689   5.389   2.346   5.902
10916TIP3    H232690   5.421   2.221   5.823
10917TIP3   OH232691   4.547   4.176   1.575
10917TIP3    H132692   4.578   4.242   1.637
10917TIP3    H232693   4.545   4.221   1.491
10918TIP3   OH232694   1.408   0.630   5.055
10918TIP3    H132695   1.448   0.642   5.142
10918TIP3    H232696   1.468   0.572   5.009
10919TIP3   OH232697   5.479   4.999   1.557
10919TIP3    H132698   5.501   4.910   1.532
10919TIP3    H232699   5.396   4.990   1.605
10920TIP3   OH232700   2.952   4.837   6.341
10920TIP3    H132701   2.892   4.884   6.282
10920TIP3    H232702   3.039   4.862   6.310
10921TIP3   OH232703   2.423   2.207   6.786
10921TIP3    H132704   2.347   2.189   6.841
10921TIP3    H232705   2.390   2.198   6.696
10922TIP3   OH232706   0.818   1.999   3.044
10922TIP3    H132707   0.729   2.036   3.044
10922TIP3    H232708   0.860   2.037   3.121
10923TIP3   OH232709   2.630   0.974   5.773
10923TIP3    H132710   2.629   0.954   5.866
10923TIP3    H232711   2.670   0.897   5.732
10924TIP3   OH232712   2.801   1.099   1.670
10924TIP3    H132713   2.883   1.148   1.665
10924TIP3    H232714   2.756   1.118   1.588
10925TIP3   OH232715   1.835   6.784   0.916
10925TIP3    H132716   1.776   6.814   0.985
10925TIP3    H232717   1.783   6.723   0.864
10926TIP3   OH232718   5.396   7.313   3.569
10926TIP3    H132719   5.399   7.252   3.495
10926TIP3    H232720   5.446   7.389   3.539
10927TIP3   OH232721   3.535   4.206   3.403
10927TIP3    H132722   3.561   4.117   3.379
10927TIP3    H232723   3.480   4.195   3.480
10928TIP3   OH232724   4.155   1.737   4.572
10928TIP3    H132725   4.061   1.747   4.587
10928TIP3    H232726   4.168   1.764   4.481
10929TIP3   OH232727   2.162   2.220   5.413
10929TIP3    H132728   2.140   2.303   5.455
10929TIP3    H232729   2.110   2.155   5.461
10930TIP3   OH232730   6.814   3.495   5.153
10930TIP3    H132731   6.773   3.409   5.160
10930TIP3    H232732   6.844   3.516   5.241
10931TIP3   OH232733   6.720   7.036   2.939
10931TIP3    H132734   6.753   6.950   2.915
10931TIP3    H232735   6.733   7.090   2.861
10932TIP3   OH232736   1.830   4.479   1.588
10932TIP3    H132737   1.910   4.530   1.597
10932TIP3    H232738   1.773   4.511   1.657
10933TIP3   OH232739   2.617   1.541   5.805
10933TIP3    H132740   2.545   1.481   5.787
10933TIP3    H232741   2.614   1.555   5.900
10934TIP3   OH232742   2.918   5.106   4.959
10934TIP3    H132743   2.845   5.044   4.951
10934TIP3    H232744   2.952   5.091   5.048
10935TIP3   OH232745   3.451   5.289   4.319
10935TIP3    H132746   3.395   5.239   4.380
10935TIP3    H232747   3.476   5.225   4.252
10936TIP3   OH232748   2.877   3.642   5.174
10936TIP3    H132749   2.842   3.708   5.234
10936TIP3    H232750   2.811   3.573   5.173
10937TIP3   OH232751   6.062   6.562   2.847
10937TIP3    H132752   6.047   6.515   2.765
10937TIP3    H232753   6.021   6.647   2.835
10938TIP3   OH232754   5.008   4.341   1.317
10938TIP3    H132755   4.972   4.261   1.355
10938TIP3    H232756   4.983   4.337   1.225
10939TIP3   OH232757   5.860   6.563   1.033
10939TIP3    H132758   5.879   6.656   1.019
10939TIP3    H232759   5.850   6.555   1.128
10940TIP3   OH232760   7.691   7.705   6.440
10940TIP3    H132761   7.721   7.791   6.409
10940TIP3    H232762   7.696   7.648   6.364
10941TIP3   OH232763   2.078   3.373   1.304
10941TIP3    H132764   2.151   3.395   1.246
10941TIP3    H232765   2.027   3.454   1.310
10942TIP3   OH232766   0.390   0.693   0.725
10942TIP3    H132767   0.387   0.758   0.795
10942TIP3    H232768   0.322   0.720   0.663
10943TIP3   OH232769   5.652   3.873   6.569
10943TIP3    H132770   5.629   3.818   6.494
10943TIP3    H232771   5.618   3.960   6.546
10944TIP3   OH232772   3.658   0.758   3.433
10944TIP3    H132773   3.684   0.824   3.498
10944TIP3    H232774   3.692   0.675   3.468
10945TIP3   OH232775   5.966   0.013   4.210
10945TIP3    H132776   5.908   0.082   4.242
10945TIP3    H232777   5.979  -0.044   4.285
10946TIP3   OH232778   4.997   0.918   4.629
10946TIP3    H132779   4.912   0.937   4.590
10946TIP3    H232780   4.977   0.871   4.710
10947TIP3   OH232781   7.323   7.409   6.012
10947TIP3    H132782   7.372   7.326   6.015
10947TIP3    H232783   7.390   7.477   6.009
10948TIP3   OH232784   1.472   6.369   4.858
10948TIP3    H132785   1.508   6.444   4.906
10948TIP3    H232786   1.424   6.408   4.785
10949TIP3   OH232787   6.854   0.954   2.724
10949TIP3    H132788   6.881   0.865   2.747
10949TIP3    H232789   6.780   0.942   2.664
10950TIP3   OH232790   5.783   6.153   4.355
10950TIP3    H132791   5.704   6.108   4.384
10950TIP3    H232792   5.751   6.217   4.291
10951TIP3   OH232793   5.068   5.926   3.469
10951TIP3    H132794   5.088   5.913   3.376
10951TIP3    H232795   4.975   5.949   3.471
10952TIP3   OH232796   6.663   6.288   4.250
10952TIP3    H132797   6.687   6.348   4.320
10952TIP3    H232798   6.607   6.340   4.192
10953TIP3   OH232799   1.319   5.311  -0.037
10953TIP3    H132800   1.289   5.397  -0.066
10953TIP3    H232801   1.364   5.328   0.046
10954TIP3   OH232802   5.270   4.369   3.339
10954TIP3    H132803   5.307   4.415   3.414
10954TIP3    H232804   5.340   4.310   3.311
10955TIP3   OH232805   8.059   3.921   3.019
10955TIP3    H132806   7.967   3.945   3.026
10955TIP3    H232807   8.102   3.999   2.984
10956TIP3   OH232808   0.546   3.387   1.901
10956TIP3    H132809   0.566   3.311   1.955
10956TIP3    H232810   0.608   3.454   1.930
10957TIP3   OH232811   7.739   6.670   3.277
10957TIP3    H132812   7.728   6.748   3.331
10957TIP3    H232813   7.659   6.619   3.291
10958TIP3   OH232814   2.231   2.632   0.067
10958TIP3    H132815   2.152   2.588   0.097
10958TIP3    H232816   2.214   2.655  -0.024
10959TIP3   OH232817   7.996   6.058   4.904
10959TIP3    H132818   7.908   6.094   4.889
10959TIP3    H232819   8.028   6.105   4.982
10960TIP3   OH232820   7.666   1.691   1.702
10960TIP3    H132821   7.749   1.724   1.666
10960TIP3    H232822   7.640   1.621   1.642
10961TIP3   OH232823   7.566   6.521   6.100
10961TIP3    H132824   7.625   6.596   6.092
10961TIP3    H232825   7.494   6.552   6.155
10962TIP3   OH232826   1.472   7.323   3.990
10962TIP3    H132827   1.470   7.283   3.903
10962TIP3    H232828   1.551   7.378   3.988
10963TIP3   OH232829   6.765   5.413   4.853
10963TIP3    H132830   6.782   5.340   4.793
10963TIP3    H232831   6.851   5.435   4.888
10964TIP3   OH232832   3.572   3.425   2.491
10964TIP3    H132833   3.499   3.487   2.490
10964TIP3    H232834   3.551   3.362   2.422
10965TIP3   OH232835   6.930   0.228   3.334
10965TIP3    H132836   6.983   0.189   3.403
10965TIP3    H232837   6.921   0.158   3.268
10966TIP3   OH232838   2.294   4.652   2.625
10966TIP3    H132839   2.276   4.605   2.706
10966TIP3    H232840   2.327   4.585   2.565
10967TIP3   OH232841   2.003   5.991   3.302
10967TIP3    H132842   1.998   6.000   3.397
10967TIP3    H232843   2.044   5.905   3.289
10968TIP3   OH232844   5.935   4.698   4.689
10968TIP3    H132845   5.989   4.654   4.623
10968TIP3    H232846   5.867   4.633   4.711
10969TIP3   OH232847   0.286   4.060   2.296
10969TIP3    H132848   0.268   3.976   2.254
10969TIP3    H232849   0.375   4.082   2.267
10970TIP3   OH232850   7.052   7.491   6.416
10970TIP3    H132851   7.091   7.562   6.467
10970TIP3    H232852   7.066   7.516   6.325
10971TIP3   OH232853   7.308   5.958   3.243
10971TIP3    H132854   7.238   5.896   3.264
10971TIP3    H232855   7.283   6.039   3.287
10972TIP3   OH232856   6.193   5.359   5.838
10972TIP3    H132857   6.124   5.423   5.820
10972TIP3    H232858   6.275   5.407   5.823
10973TIP3   OH232859   3.889   6.401   1.108
10973TIP3    H132860   3.807   6.356   1.130
10973TIP3    H232861   3.915   6.364   1.024
10974TIP3   OH232862   0.538   0.135   4.893
10974TIP3    H132863   0.518   0.187   4.815
10974TIP3    H232864   0.476   0.062   4.890
10975TIP3   OH232865   3.862   4.693   0.120
10975TIP3    H132866   3.925   4.752   0.160
10975TIP3    H232867   3.915   4.619   0.090
10976TIP3   OH232868   4.889   4.534   0.085
10976TIP3    H132869   4.916   4.452   0.125
10976TIP3    H232870   4.808   4.557   0.129
10977TIP3   OH232871   2.972   2.707   3.177
10977TIP3    H132872   3.046   2.682   3.233
10977TIP3    H232873   3.010   2.768   3.114
10978TIP3   OH232874   6.555   3.746   3.637
10978TIP3    H132875   6.533   3.762   3.545
10978TIP3    H232876   6.586   3.830   3.669
10979TIP3   OH232877   1.587   0.102   4.706
10979TIP3    H132878   1.653   0.106   4.636
10979TIP3    H232879   1.507   0.136   4.666
10980TIP3   OH232880   4.618   1.349   2.757
10980TIP3    H132881   4.705   1.331   2.723
10980TIP3    H232882   4.563   1.358   2.679
10981TIP3   OH232883   2.790   5.637   3.409
10981TIP3    H132884   2.821   5.661   3.496
10981TIP3    H232885   2.695   5.643   3.415
10982TIP3   OH232886   5.748   5.937   3.144
10982TIP3    H132887   5.687   5.959   3.214
10982TIP3    H232888   5.810   5.876   3.185
10983TIP3   OH232889   1.164   3.011   3.278
10983TIP3    H132890   1.243   3.065   3.288
10983TIP3    H232891   1.091   3.073   3.287
10984TIP3   OH232892   4.097   5.606   0.929
10984TIP3    H132893   4.105   5.520   0.887
10984TIP3    H232894   4.038   5.655   0.872
10985TIP3   OH232895   8.120   7.868   5.431
10985TIP3    H132896   8.102   7.797   5.494
10985TIP3    H232897   8.112   7.948   5.483
10986TIP3   OH232898   0.256   6.519   3.924
10986TIP3    H132899   0.183   6.540   3.983
10986TIP3    H232900   0.233   6.434   3.887
10987TIP3   OH232901   3.365   2.796   1.415
10987TIP3    H132902   3.353   2.881   1.373
10987TIP3    H232903   3.293   2.790   1.477
10988TIP3   OH232904   3.689   4.702   5.631
10988TIP3    H132905   3.719   4.792   5.644
10988TIP3    H232906   3.769   4.649   5.633
10989TIP3   OH232907   4.087   6.935   0.513
10989TIP3    H132908   4.161   6.932   0.452
10989TIP3    H232909   4.110   6.872   0.581
10990TIP3   OH232910   3.772   7.374   1.231
10990TIP3    H132911   3.849   7.367   1.288
10990TIP3    H232912   3.785   7.457   1.184
10991TIP3   OH232913   3.197   1.954   1.917
10991TIP3    H132914   3.133   1.883   1.924
10991TIP3    H232915   3.273   1.914   1.876
10992TIP3   OH232916   0.237   6.409   0.719
10992TIP3    H132917   0.285   6.384   0.798
10992TIP3    H232918   0.158   6.354   0.721
10993TIP3   OH232919   4.415   6.947   3.615
10993TIP3    H132920   4.380   6.995   3.540
10993TIP3    H232921   4.361   6.869   3.622
10994TIP3   OH232922   3.056   7.243   6.666
10994TIP3    H132923   2.986   7.187   6.633
10994TIP3    H232924   3.015   7.290   6.739
10995TIP3   OH232925   7.739   5.495   3.518
10995TIP3    H132926   7.791   5.485   3.597
10995TIP3    H232927   7.757   5.584   3.488
10996TIP3   OH232928   1.133   2.812   4.672
10996TIP3    H132929   1.131   2.884   4.736
10996TIP3    H232930   1.214   2.826   4.623
10997TIP3   OH232931   6.909   1.979   5.240
10997TIP3    H132932   6.980   1.921   5.212
10997TIP3    H232933   6.865   1.931   5.310
10998TIP3   OH232934   5.561   6.863   1.923
10998TIP3    H132935   5.637   6.816   1.957
10998TIP3    H232936   5.595   6.911   1.847
10999TIP3   OH232937   4.862   7.425   2.825
10999TIP3    H132938   4.849   7.518   2.840
10999TIP3    H232939   4.880   7.418   2.731
11000TIP3   OH232940   3.079   3.181   3.487
11000TIP3    H132941   3.027   3.110   3.450
11000TIP3    H232942   3.073   3.168   3.582
11001TIP3   OH232943   0.513   3.144   3.413
11001TIP3    H132944   0.508   3.050   3.394
11001TIP3    H232945   0.547   3.183   3.333
11002TIP3   OH232946   7.531   5.495   6.748
11002TIP3    H132947   7.509   5.516   6.658
11002TIP3    H232948   7.622   5.465   6.744
11003TIP3   OH232949   4.323   5.251   1.081
11003TIP3    H132950   4.255   5.223   1.142
11003TIP3    H232951   4.309   5.196   1.004
11004TIP3   OH232952   5.457   2.911   5.660
11004TIP3    H132953   5.532   2.851   5.661
11004TIP3    H232954   5.389   2.866   5.710
11005TIP3   OH232955   2.095   3.299   4.455
11005TIP3    H132956   2.190   3.305   4.459
11005TIP3    H232957   2.077   3.220   4.405
11006TIP3   OH232958   2.942   4.184   6.170
11006TIP3    H132959   2.871   4.248   6.178
11006TIP3    H232960   3.021   4.238   6.159
11007TIP3   OH232961   4.091   5.000   1.603
11007TIP3    H132962   4.126   4.980   1.516
11007TIP3    H232963   3.998   4.979   1.597
11008TIP3   OH232964   8.323   4.830   3.325
11008TIP3    H132965   8.393   4.780   3.366
11008TIP3    H232966   8.247   4.772   3.329
11009TIP3   OH232967   5.032   3.365   5.001
11009TIP3    H132968   5.102   3.312   4.963
11009TIP3    H232969   5.048   3.361   5.095
11010TIP3   OH232970   8.153   4.935   5.715
11010TIP3    H132971   8.231   4.912   5.664
11010TIP3    H232972   8.132   5.024   5.688
11011TIP3   OH232973   1.058   0.747   1.377
11011TIP3    H132974   1.110   0.817   1.337
11011TIP3    H232975   1.113   0.714   1.449
11012TIP3   OH232976   1.768   2.988   4.624
11012TIP3    H132977   1.674   2.972   4.627
11012TIP3    H232978   1.804   2.928   4.689
11013TIP3   OH232979   4.317   5.966   5.808
11013TIP3    H132980   4.298   6.059   5.817
11013TIP3    H232981   4.273   5.925   5.883
11014TIP3   OH232982   1.382   5.406   3.506
11014TIP3    H132983   1.379   5.497   3.534
11014TIP3    H232984   1.368   5.356   3.587
11015TIP3   OH232985   5.942   0.278   6.326
11015TIP3    H132986   5.905   0.334   6.258
11015TIP3    H232987   5.985   0.338   6.387
11016TIP3   OH232988   7.992   5.114   6.423
11016TIP3    H132989   8.004   5.208   6.432
11016TIP3    H232990   7.947   5.087   6.503
11017TIP3   OH232991   6.384   2.880   6.505
11017TIP3    H132992   6.395   2.786   6.517
11017TIP3    H232993   6.381   2.916   6.593
11018TIP3   OH232994   5.842   4.941   5.472
11018TIP3    H132995   5.866   4.860   5.516
11018TIP3    H232996   5.916   4.959   5.414
11019TIP3   OH232997   6.817   5.876   3.873
11019TIP3    H132998   6.722   5.879   3.863
11019TIP3    H232999   6.838   5.783   3.871
11020TIP3   OH233000   5.479   1.503   0.305
11020TIP3    H133001   5.444   1.444   0.371
11020TIP3    H233002   5.429   1.484   0.226
11021TIP3   OH233003   2.404   5.072   0.694
11021TIP3    H133004   2.470   5.003   0.686
11021TIP3    H233005   2.395   5.107   0.606
11022TIP3   OH233006   4.288   7.775   0.982
11022TIP3    H133007   4.302   7.700   1.039
11022TIP3    H233008   4.217   7.748   0.924
11023TIP3   OH233009   0.353   3.501   5.063
11023TIP3    H133010   0.271   3.527   5.104
11023TIP3    H233011   0.333   3.417   5.022
11024TIP3   OH233012   7.211   1.496   2.914
11024TIP3    H133013   7.137   1.453   2.957
11024TIP3    H233014   7.241   1.561   2.977
11025TIP3   OH233015   6.412   3.026   3.577
11025TIP3    H133016   6.418   3.117   3.549
11025TIP3    H233017   6.503   2.998   3.589
11026TIP3   OH233018   3.727   2.528   4.771
11026TIP3    H133019   3.696   2.617   4.792
11026TIP3    H233020   3.798   2.542   4.708
11027TIP3   OH233021   2.557   5.772   3.134
11027TIP3    H133022   2.482   5.712   3.136
11027TIP3    H233023   2.594   5.767   3.222
11028TIP3   OH233024   2.758   7.079   4.686
11028TIP3    H133025   2.757   7.046   4.776
11028TIP3    H233026   2.687   7.143   4.682
11029TIP3   OH233027   2.592   2.684   6.651
11029TIP3    H133028   2.573   2.599   6.692
11029TIP3    H233029   2.614   2.662   6.560
11030TIP3   OH233030   1.847   2.689   0.126
11030TIP3    H133031   1.899   2.755   0.079
11030TIP3    H233032   1.820   2.733   0.207
11031TIP3   OH233033   5.725   1.008   1.666
11031TIP3    H133034   5.726   1.088   1.718
11031TIP3    H233035   5.675   1.030   1.588
11032TIP3   OH233036   1.366   4.236   0.292
11032TIP3    H133037   1.370   4.264   0.200
11032TIP3    H233038   1.453   4.258   0.327
11033TIP3   OH233039   5.977   1.184   5.854
11033TIP3    H133040   6.016   1.241   5.920
11033TIP3    H233041   5.889   1.220   5.841
11034TIP3   OH233042   0.327   7.693   0.790
11034TIP3    H133043   0.398   7.753   0.769
11034TIP3    H233044   0.306   7.651   0.706
11035TIP3   OH233045   3.229   0.878   3.613
11035TIP3    H133046   3.244   0.971   3.596
11035TIP3    H233047   3.286   0.833   3.552
11036TIP3   OH233048   2.769   0.367   1.545
11036TIP3    H133049   2.765   0.420   1.465
11036TIP3    H233050   2.678   0.340   1.561
11037TIP3   OH233051   4.495   2.612   4.257
11037TIP3    H133052   4.460   2.558   4.186
11037TIP3    H233053   4.423   2.670   4.281
11038TIP3   OH233054   1.857   7.394   5.681
11038TIP3    H133055   1.871   7.299   5.684
11038TIP3    H233056   1.797   7.408   5.608
11039TIP3   OH233057   1.219   6.199   2.167
11039TIP3    H133058   1.236   6.105   2.171
11039TIP3    H233059   1.281   6.237   2.230
11040TIP3   OH233060   1.773   2.282   4.094
11040TIP3    H133061   1.833   2.216   4.129
11040TIP3    H233062   1.767   2.348   4.163
11041TIP3   OH233063   0.569   2.375   6.632
11041TIP3    H133064   0.625   2.400   6.558
11041TIP3    H233065   0.603   2.427   6.706
11042TIP3   OH233066   1.232   3.052   1.229
11042TIP3    H133067   1.215   2.962   1.255
11042TIP3    H233068   1.303   3.045   1.164
11043TIP3   OH233069   6.832   3.060   1.959
11043TIP3    H133070   6.894   2.999   1.998
11043TIP3    H233071   6.785   3.097   2.034
11044TIP3   OH233072   1.786   4.104   2.252
11044TIP3    H133073   1.764   4.055   2.331
11044TIP3    H233074   1.709   4.159   2.235
11045TIP3   OH233075   8.129   1.512   3.130
11045TIP3    H133076   8.104   1.433   3.177
11045TIP3    H233077   8.168   1.480   3.048
11046TIP3   OH233078   5.294   2.261   1.598
11046TIP3    H133079   5.231   2.321   1.557
11046TIP3    H233080   5.340   2.222   1.524
11047TIP3   OH233081   5.642   4.222   5.828
11047TIP3    H133082   5.569   4.258   5.779
11047TIP3    H233083   5.627   4.251   5.918
11048TIP3   OH233084   3.479   0.566   2.165
11048TIP3    H133085   3.407   0.579   2.102
11048TIP3    H233086   3.527   0.649   2.164
11049TIP3   OH233087   4.127   6.158   0.582
11049TIP3    H133088   4.134   6.134   0.674
11049TIP3    H233089   4.053   6.217   0.577
11050TIP3   OH233090   1.329   7.402   0.302
11050TIP3    H133091   1.286   7.351   0.232
11050TIP3    H233092   1.260   7.458   0.337
11051TIP3   OH233093   4.507   1.436   0.424
11051TIP3    H133094   4.520   1.508   0.487
11051TIP3    H233095   4.500   1.480   0.340
11052TIP3   OH233096   4.787   0.245   4.921
11052TIP3    H133097   4.813   0.175   4.981
11052TIP3    H233098   4.848   0.316   4.940
11053TIP3   OH233099   0.608   7.663   1.279
11053TIP3    H133100   0.552   7.633   1.208
11053TIP3    H233101   0.690   7.689   1.236
11054TIP3   OH233102   2.038   7.630   1.427
11054TIP3    H133103   2.095   7.673   1.364
11054TIP3    H233104   1.998   7.558   1.379
11055TIP3   OH233105   0.434   4.532   2.660
11055TIP3    H133106   0.385   4.451   2.648
11055TIP3    H233107   0.503   4.509   2.722
11056TIP3   OH233108   7.277   6.577   6.788
11056TIP3    H133109   7.262   6.601   6.696
11056TIP3    H233110   7.271   6.481   6.789
11057TIP3   OH233111   1.996   5.248   6.601
11057TIP3    H133112   2.065   5.222   6.541
11057TIP3    H233113   1.983   5.172   6.658
11058TIP3   OH233114   1.304   0.494   1.831
11058TIP3    H133115   1.360   0.511   1.755
11058TIP3    H233116   1.229   0.447   1.796
11059TIP3   OH233117   0.649   1.498   6.116
11059TIP3    H133118   0.576   1.440   6.136
11059TIP3    H233119   0.687   1.461   6.036
11060TIP3   OH233120   5.814   0.372   2.463
11060TIP3    H133121   5.852   0.293   2.424
11060TIP3    H233122   5.815   0.355   2.557
11061TIP3   OH233123   2.458   3.198   4.158
11061TIP3    H133124   2.551   3.205   4.181
11061TIP3    H233125   2.424   3.129   4.215
11062TIP3   OH233126   4.951   2.778   3.980
11062TIP3    H133127   4.895   2.856   3.972
11062TIP3    H233128   5.032   2.803   3.937
11063TIP3   OH233129   7.665   6.386   3.171
11063TIP3    H133130   7.615   6.461   3.204
11063TIP3    H233131   7.677   6.330   3.248
11064TIP3   OH233132   8.058   5.560   1.297
11064TIP3    H133133   8.065   5.654   1.279
11064TIP3    H233134   8.045   5.520   1.211
11065TIP3   OH233135   5.144   6.745   6.638
11065TIP3    H133136   5.136   6.783   6.726
11065TIP3    H233137   5.089   6.667   6.641
11066TIP3   OH233138   2.476   2.537   1.287
11066TIP3    H133139   2.469   2.598   1.361
11066TIP3    H233140   2.565   2.502   1.293
11067TIP3   OH233141   5.145   5.047   1.098
11067TIP3    H133142   5.173   4.973   1.153
11067TIP3    H233143   5.069   5.083   1.144
11068TIP3   OH233144   3.007   7.239   4.151
11068TIP3    H133145   3.080   7.301   4.150
11068TIP3    H233146   2.976   7.240   4.241
11069TIP3   OH233147   3.854   7.396   2.845
11069TIP3    H133148   3.827   7.488   2.842
11069TIP3    H233149   3.836   7.369   2.935
11070TIP3   OH233150   1.371   6.009   3.131
11070TIP3    H133151   1.377   6.102   3.152
11070TIP3    H233152   1.282   5.984   3.157
11071TIP3   OH233153   6.896   0.715   5.014
11071TIP3    H133154   6.817   0.765   4.992
11071TIP3    H233155   6.869   0.655   5.082
11072TIP3   OH233156   1.234   4.425   0.433
11072TIP3    H133157   1.247   4.403   0.525
11072TIP3    H233158   1.285   4.360   0.385
11073TIP3   OH233159   3.416   7.264   1.445
11073TIP3    H133160   3.434   7.306   1.362
11073TIP3    H233161   3.501   7.232   1.475
11074TIP3   OH233162   1.728   7.830   6.521
11074TIP3    H133163   1.709   7.897   6.456
11074TIP3    H233164   1.648   7.779   6.527
11075TIP3   OH233165   7.385   1.600   5.408
11075TIP3    H133166   7.343   1.618   5.324
11075TIP3    H233167   7.320   1.552   5.458
11076TIP3   OH233168   2.460   0.779   1.089
11076TIP3    H133169   2.466   0.684   1.087
11076TIP3    H233170   2.447   0.800   1.182
11077TIP3   OH233171   2.412   1.685   3.895
11077TIP3    H133172   2.490   1.633   3.875
11077TIP3    H233173   2.395   1.735   3.815
11078TIP3   OH233174   2.487   3.878   3.263
11078TIP3    H133175   2.506   3.838   3.348
11078TIP3    H233176   2.417   3.825   3.226
11079TIP3   OH233177   4.410   6.480   5.755
11079TIP3    H133178   4.482   6.520   5.806
11079TIP3    H233179   4.392   6.544   5.686
11080TIP3   OH233180   0.460   5.646   4.673
11080TIP3    H133181   0.428   5.605   4.754
11080TIP3    H233182   0.415   5.599   4.603
11081TIP3   OH233183   6.706   4.299   0.324
11081TIP3    H133184   6.670   4.251   0.399
11081TIP3    H233185   6.800   4.301   0.339
11082TIP3   OH233186   4.129   5.591   4.039
11082TIP3    H133187   4.197   5.542   4.085
11082TIP3    H233188   4.121   5.546   3.954
11083TIP3   OH233189   1.014   7.679   0.633
11083TIP3    H133190   1.031   7.586   0.616
11083TIP3    H233191   1.071   7.725   0.572
11084TIP3   OH233192   4.256   1.283   3.553
11084TIP3    H133193   4.295   1.197   3.536
11084TIP3    H233194   4.173   1.263   3.596
11085TIP3   OH233195   4.063   6.407   2.077
11085TIP3    H133196   4.103   6.458   2.006
11085TIP3    H233197   4.099   6.446   2.157
11086TIP3   OH233198   7.731   4.700   0.453
11086TIP3    H133199   7.765   4.757   0.384
11086TIP3    H233200   7.737   4.611   0.416
11087TIP3   OH233201   6.222   7.120   6.796
11087TIP3    H133202   6.292   7.185   6.789
11087TIP3    H233203   6.201   7.117   6.890
11088TIP3   OH233204   5.645   7.890   6.585
11088TIP3    H133205   5.617   7.888   6.494
11088TIP3    H233206   5.607   7.811   6.624
11089TIP3   OH233207   3.768   4.329   3.426
11089TIP3    H133208   3.688   4.283   3.401
11089TIP3    H233209   3.806   4.359   3.344
11090TIP3   OH233210   1.888   0.916   0.969
11090TIP3    H133211   1.955   0.983   0.986
11090TIP3    H233212   1.848   0.942   0.886
11091TIP3   OH233213   6.624   6.434   2.528
11091TIP3    H133214   6.640   6.345   2.497
11091TIP3    H233215   6.570   6.475   2.461
11092TIP3   OH233216   3.124   1.556   4.954
11092TIP3    H133217   3.029   1.557   4.945
11092TIP3    H233218   3.154   1.494   4.888
11093TIP3   OH233219   2.492   0.893   4.797
11093TIP3    H133220   2.439   0.946   4.856
11093TIP3    H233221   2.491   0.942   4.714
11094TIP3   OH233222   2.998   7.905   4.986
11094TIP3    H133223   3.018   7.849   4.911
11094TIP3    H233224   2.944   7.975   4.949
11095TIP3   OH233225   5.182   2.085   3.398
11095TIP3    H133226   5.107   2.117   3.448
11095TIP3    H233227   5.149   2.073   3.309
11096TIP3   OH233228   7.606   1.872   4.615
11096TIP3    H133229   7.686   1.823   4.635
11096TIP3    H233230   7.571   1.897   4.700
11097TIP3   OH233231   0.528   0.668   4.125
11097TIP3    H133232   0.514   0.580   4.159
11097TIP3    H233233   0.621   0.670   4.100
11098TIP3   OH233234   1.830   3.753   1.782
11098TIP3    H133235   1.762   3.710   1.835
11098TIP3    H233236   1.782   3.792   1.709
11099TIP3   OH233237   4.841   1.931   0.725
11099TIP3    H133238   4.807   1.888   0.804
11099TIP3    H233239   4.909   1.873   0.693
11100TIP3   OH233240   0.477   2.100   1.011
11100TIP3    H133241   0.481   2.194   0.994
11100TIP3    H233242   0.565   2.068   0.989
11101TIP3   OH233243   1.784   1.978   2.144
11101TIP3    H133244   1.805   1.886   2.131
11101TIP3    H233245   1.689   1.979   2.160
11102TIP3   OH233246   0.228   1.856   1.335
11102TIP3    H133247   0.299   1.797   1.359
11102TIP3    H233248   0.245   1.879   1.244
11103TIP3   OH233249   2.672   4.397   2.636
11103TIP3    H133250   2.663   4.476   2.582
11103TIP3    H233251   2.700   4.430   2.721
11104TIP3   OH233252   2.364   3.392   3.289
11104TIP3    H133253   2.425   3.369   3.359
11104TIP3    H233254   2.299   3.448   3.331
11105TIP3   OH233255   3.094   0.704   4.096
11105TIP3    H133256   3.142   0.771   4.046
11105TIP3    H233257   3.003   0.732   4.090
11106TIP3   OH233258   0.614   3.131   2.645
11106TIP3    H133259   0.642   3.140   2.554
11106TIP3    H233260   0.540   3.190   2.653
11107TIP3   OH233261   3.798   2.395   1.623
11107TIP3    H133262   3.725   2.382   1.563
11107TIP3    H233263   3.771   2.468   1.679
11108TIP3   OH233264   1.510   2.103   6.617
11108TIP3    H133265   1.432   2.089   6.671
11108TIP3    H233266   1.563   2.165   6.667
11109TIP3   OH233267   6.413   6.070   6.513
11109TIP3    H133268   6.368   6.115   6.585
11109TIP3    H233269   6.409   6.131   6.440
11110TIP3   OH233270   7.444   1.892   3.714
11110TIP3    H133271   7.538   1.909   3.710
11110TIP3    H233272   7.412   1.914   3.627
11111TIP3   OH233273   6.055   3.936   6.448
11111TIP3    H133274   6.025   3.854   6.409
11111TIP3    H233275   6.105   3.978   6.379
11112TIP3   OH233276   6.370   5.267   1.544
11112TIP3    H133277   6.296   5.322   1.517
11112TIP3    H233278   6.402   5.229   1.463
11113TIP3   OH233279   4.114   0.306   5.994
11113TIP3    H133280   4.019   0.292   5.989
11113TIP3    H233281   4.144   0.249   6.064
11114TIP3   OH233282   4.193   6.254   3.531
11114TIP3    H133283   4.258   6.319   3.556
11114TIP3    H233284   4.236   6.170   3.547
11115TIP3   OH233285   4.339   3.462   0.393
11115TIP3    H133286   4.335   3.451   0.298
11115TIP3    H233287   4.311   3.552   0.408
11116TIP3   OH233288   1.036   0.508   2.257
11116TIP3    H133289   0.983   0.484   2.333
11116TIP3    H233290   1.064   0.598   2.274
11117TIP3   OH233291   5.346   6.222   4.762
11117TIP3    H133292   5.408   6.206   4.833
11117TIP3    H233293   5.388   6.288   4.707
11118TIP3   OH233294   0.800   5.817   3.399
11118TIP3    H133295   0.883   5.842   3.441
11118TIP3    H233296   0.819   5.820   3.305
11119TIP3   OH233297   5.913   6.995   4.253
11119TIP3    H133298   5.857   6.964   4.324
11119TIP3    H233299   5.853   7.026   4.186
11120TIP3   OH233300   2.538   3.743   3.500
11120TIP3    H133301   2.463   3.760   3.557
11120TIP3    H233302   2.610   3.723   3.560
11121TIP3   OH233303   4.209   7.076   1.603
11121TIP3    H133304   4.278   7.105   1.662
11121TIP3    H233305   4.156   7.153   1.587
11122TIP3   OH233306   5.648   2.433   2.715
11122TIP3    H133307   5.718   2.381   2.675
11122TIP3    H233308   5.567   2.397   2.678
11123TIP3   OH233309   6.145   1.213   3.033
11123TIP3    H133310   6.183   1.236   3.118
11123TIP3    H233311   6.116   1.122   3.044
11124TIP3   OH233312   4.150   6.813   2.102
11124TIP3    H133313   4.062   6.836   2.071
11124TIP3    H233314   4.206   6.884   2.068
11125TIP3   OH233315   4.937   3.894   1.047
11125TIP3    H133316   4.882   3.942   1.109
11125TIP3    H233317   4.984   3.830   1.101
11126TIP3   OH233318   1.153   3.230   4.724
11126TIP3    H133319   1.242   3.266   4.723
11126TIP3    H233320   1.161   3.150   4.775
11127TIP3   OH233321   6.811   2.674   5.469
11127TIP3    H133322   6.821   2.769   5.471
11127TIP3    H233323   6.891   2.642   5.427
11128TIP3   OH233324   5.652   1.207   1.893
11128TIP3    H133325   5.580   1.152   1.924
11128TIP3    H233326   5.611   1.286   1.860
11129TIP3   OH233327   1.289   2.208   6.181
11129TIP3    H133328   1.250   2.199   6.268
11129TIP3    H233329   1.322   2.121   6.160
11130TIP3   OH233330   0.534   7.913   1.092
11130TIP3    H133331   0.459   7.968   1.069
11130TIP3    H233332   0.563   7.877   1.008
11131TIP3   OH233333   7.715   4.009   0.823
11131TIP3    H133334   7.729   3.989   0.916
11131TIP3    H233335   7.717   4.105   0.819
11132TIP3   OH233336   7.913   2.694   2.312
11132TIP3    H133337   7.913   2.613   2.261
11132TIP3    H233338   7.938   2.762   2.250
11133TIP3   OH233339   7.971   4.188   3.155
11133TIP3    H133340   8.046   4.190   3.095
11133TIP3    H233341   7.907   4.134   3.110
11134TIP3   OH233342   0.681   1.740   2.572
11134TIP3    H133343   0.640   1.765   2.489
11134TIP3    H233344   0.734   1.816   2.596
11135TIP3   OH233345   3.991   7.775   4.069
11135TIP3    H133346   3.932   7.718   4.019
11135TIP3    H233347   4.066   7.788   4.012
11136TIP3   OH233348   0.972   0.877   6.286
11136TIP3    H133349   0.919   0.956   6.274
11136TIP3    H233350   1.059   0.903   6.257
11137TIP3   OH233351   6.030   2.145   1.852
11137TIP3    H133352   6.103   2.184   1.805
11137TIP3    H233353   6.001   2.073   1.796
11138TIP3   OH233354   5.835   7.431   4.646
11138TIP3    H133355   5.878   7.354   4.682
11138TIP3    H233356   5.798   7.401   4.562
11139TIP3   OH233357   3.639   5.937   6.178
11139TIP3    H133358   3.712   5.972   6.229
11139TIP3    H233359   3.676   5.923   6.090
11140TIP3   OH233360   1.589   7.712   2.518
11140TIP3    H133361   1.627   7.643   2.572
11140TIP3    H233362   1.504   7.678   2.491
11141TIP3   OH233363   2.464   6.536   4.376
11141TIP3    H133364   2.439   6.609   4.319
11141TIP3    H233365   2.543   6.567   4.420
11142TIP3   OH233366   2.136   6.856   1.513
11142TIP3    H133367   2.094   6.940   1.493
11142TIP3    H233368   2.190   6.875   1.590
11143TIP3   OH233369   3.497   3.519   1.738
11143TIP3    H133370   3.422   3.498   1.683
11143TIP3    H233371   3.459   3.553   1.819
11144TIP3   OH233372   6.694   4.545   6.091
11144TIP3    H133373   6.659   4.615   6.145
11144TIP3    H233374   6.663   4.464   6.132
11145TIP3   OH233375   7.460   4.741   4.420
11145TIP3    H133376   7.397   4.719   4.488
11145TIP3    H233377   7.541   4.697   4.445
11146TIP3   OH233378   0.083   5.602   1.525
11146TIP3    H133379   0.036   5.684   1.510
11146TIP3    H233380   0.053   5.573   1.611
11147TIP3   OH233381   2.813   3.291  -0.015
11147TIP3    H133382   2.850   3.360  -0.070
11147TIP3    H233383   2.863   3.295   0.066
11148TIP3   OH233384   8.333   6.364   5.215
11148TIP3    H133385   8.364   6.273   5.215
11148TIP3    H233386   8.404   6.414   5.175
11149TIP3   OH233387   6.259   2.109   0.120
11149TIP3    H133388   6.337   2.062   0.091
11149TIP3    H233389   6.288   2.200   0.129
11150TIP3   OH233390   6.054   1.865   1.660
11150TIP3    H133391   5.997   1.898   1.591
11150TIP3    H233392   6.142   1.871   1.623
11151TIP3   OH233393   6.417   0.236   0.112
11151TIP3    H133394   6.432   0.295   0.186
11151TIP3    H233395   6.331   0.199   0.128
11152TIP3   OH233396   2.781   6.923   0.100
11152TIP3    H133397   2.852   6.860   0.088
11152TIP3    H233398   2.824   7.001   0.134
11153TIP3   OH233399   4.586   3.075   2.566
11153TIP3    H133400   4.564   3.158   2.525
11153TIP3    H233401   4.578   3.091   2.660
11154TIP3   OH233402   1.496   5.054   1.494
11154TIP3    H133403   1.404   5.050   1.521
11154TIP3    H233404   1.507   4.981   1.434
11155TIP3   OH233405   2.493   4.135   2.451
11155TIP3    H133406   2.488   4.081   2.372
11155TIP3    H233407   2.587   4.145   2.467
11156TIP3   OH233408   1.000   7.050   6.151
11156TIP3    H133409   1.070   7.049   6.216
11156TIP3    H233410   1.023   7.122   6.092
11157TIP3   OH233411   5.605   5.300   5.440
11157TIP3    H133412   5.614   5.225   5.498
11157TIP3    H233413   5.557   5.365   5.492
11158TIP3   OH233414   5.971   3.350   6.367
11158TIP3    H133415   5.920   3.401   6.303
11158TIP3    H233416   6.004   3.414   6.429
11159TIP3   OH233417   2.619   0.339   6.021
11159TIP3    H133418   2.684   0.314   6.087
11159TIP3    H233419   2.647   0.426   5.992
11160TIP3   OH233420   6.319   6.899   2.876
11160TIP3    H133421   6.311   6.957   2.800
11160TIP3    H233422   6.254   6.830   2.860
11161TIP3   OH233423   7.145   1.499   5.625
11161TIP3    H133424   7.155   1.499   5.720
11161TIP3    H233425   7.116   1.409   5.604
11162TIP3   OH233426   4.664   6.358   1.232
11162TIP3    H133427   4.688   6.301   1.159
11162TIP3    H233428   4.569   6.362   1.230
11163TIP3   OH233429   7.570   0.058   6.424
11163TIP3    H133430   7.572   0.114   6.501
11163TIP3    H233431   7.662   0.046   6.400
11164TIP3   OH233432   2.504   4.836   5.811
11164TIP3    H133433   2.541   4.914   5.853
11164TIP3    H233434   2.412   4.858   5.796
11165TIP3   OH233435   3.425   7.509   3.668
11165TIP3    H133436   3.479   7.530   3.592
11165TIP3    H233437   3.452   7.572   3.734
11166TIP3   OH233438   2.000   5.164   2.780
11166TIP3    H133439   2.019   5.193   2.869
11166TIP3    H233440   2.049   5.082   2.770
11167TIP3   OH233441   2.901   3.212   6.164
11167TIP3    H133442   2.839   3.149   6.128
11167TIP3    H233443   2.854   3.295   6.163
11168TIP3   OH233444   3.219   6.402   4.471
11168TIP3    H133445   3.199   6.495   4.483
11168TIP3    H233446   3.171   6.358   4.542
11169TIP3   OH233447   0.692   1.090   6.025
11169TIP3    H133448   0.745   1.083   5.946
11169TIP3    H233449   0.603   1.073   5.996
11170TIP3   OH233450   0.070   7.267   2.790
11170TIP3    H133451  -0.026   7.266   2.784
11170TIP3    H233452   0.089   7.343   2.845
11171TIP3   OH233453   3.519   6.651   5.963
11171TIP3    H133454   3.522   6.616   6.052
11171TIP3    H233455   3.432   6.690   5.954
11172TIP3   OH233456   3.282   3.550   0.767
11172TIP3    H133457   3.287   3.557   0.671
11172TIP3    H233458   3.271   3.641   0.796
11173TIP3   OH233459   5.527   2.538   6.112
11173TIP3    H133460   5.522   2.633   6.125
11173TIP3    H233461   5.621   2.521   6.100
11174TIP3   OH233462   7.830   6.348   1.187
11174TIP3    H133463   7.805   6.337   1.095
11174TIP3    H233464   7.865   6.263   1.213
11175TIP3   OH233465   6.240   4.676   6.479
11175TIP3    H133466   6.181   4.608   6.511
11175TIP3    H233467   6.245   4.739   6.551
11176TIP3   OH233468   0.765   2.540   6.795
11176TIP3    H133469   0.770   2.490   6.877
11176TIP3    H233470   0.852   2.530   6.756
11177TIP3   OH233471   6.561   3.263   6.363
11177TIP3    H133472   6.556   3.356   6.342
11177TIP3    H233473   6.473   3.240   6.393
11178TIP3   OH233474   1.386   7.448   6.409
11178TIP3    H133475   1.478   7.441   6.384
11178TIP3    H233476   1.375   7.382   6.477
11179TIP3   OH233477   3.277   6.777   1.085
11179TIP3    H133478   3.245   6.789   1.174
11179TIP3    H233479   3.354   6.720   1.093
11180TIP3   OH233480   0.788   4.212   1.341
11180TIP3    H133481   0.793   4.136   1.398
11180TIP3    H233482   0.870   4.260   1.357
11181TIP3   OH233483   1.340   5.135   1.924
11181TIP3    H133484   1.430   5.102   1.922
11181TIP3    H233485   1.290   5.067   1.879
11182TIP3   OH233486   1.348   3.709   2.467
11182TIP3    H133487   1.365   3.651   2.541
11182TIP3    H233488   1.336   3.650   2.393
11183TIP3   OH233489   6.778   7.071   4.808
11183TIP3    H133490   6.764   7.133   4.735
11183TIP3    H233491   6.824   6.998   4.768
11184TIP3   OH233492   7.954   3.410   3.485
11184TIP3    H133493   7.878   3.362   3.518
11184TIP3    H233494   7.921   3.498   3.466
11185TIP3   OH233495   5.086   3.082   5.875
11185TIP3    H133496   5.117   3.030   5.949
11185TIP3    H233497   5.139   3.161   5.877
11186TIP3   OH233498   3.245   7.302   4.622
11186TIP3    H133499   3.232   7.395   4.637
11186TIP3    H233500   3.196   7.259   4.693
11187TIP3   OH233501   2.281   1.317   0.951
11187TIP3    H133502   2.233   1.298   0.870
11187TIP3    H233503   2.271   1.412   0.962
11188TIP3   OH233504   8.359   5.150   2.594
11188TIP3    H133505   8.387   5.240   2.577
11188TIP3    H233506   8.414   5.121   2.666
11189TIP3   OH233507   7.644   6.493   5.080
11189TIP3    H133508   7.589   6.514   5.155
11189TIP3    H233509   7.733   6.505   5.111
11190TIP3   OH233510   8.115   2.443   3.114
11190TIP3    H133511   8.032   2.396   3.118
11190TIP3    H233512   8.179   2.378   3.087
11191TIP3   OH233513   5.031   4.070   0.265
11191TIP3    H133514   5.087   4.041   0.337
11191TIP3    H233515   5.054   4.013   0.191
11192TIP3   OH233516   4.796   5.244   1.673
11192TIP3    H133517   4.879   5.233   1.721
11192TIP3    H233518   4.731   5.259   1.741
11193TIP3   OH233519   6.430   0.822   2.902
11193TIP3    H133520   6.502   0.829   2.839
11193TIP3    H233521   6.464   0.765   2.971
11194TIP3   OH233522   7.266   6.427   1.746
11194TIP3    H133523   7.345   6.375   1.731
11194TIP3    H233524   7.196   6.377   1.704
11195TIP3   OH233525   7.293   6.868   6.852
11195TIP3    H133526   7.250   6.786   6.826
11195TIP3    H233527   7.385   6.853   6.835
11196TIP3   OH233528   2.319   3.875   4.967
11196TIP3    H133529   2.370   3.923   4.902
11196TIP3    H233530   2.236   3.922   4.973
11197TIP3   OH233531   7.622   0.798   6.130
11197TIP3    H133532   7.637   0.859   6.057
11197TIP3    H233533   7.661   0.716   6.101
11198TIP3   OH233534   0.850   6.882   2.226
11198TIP3    H133535   0.928   6.830   2.246
11198TIP3    H233536   0.813   6.840   2.148
11199TIP3   OH233537   5.998   1.807   0.288
11199TIP3    H133538   6.058   1.754   0.236
11199TIP3    H233539   6.044   1.890   0.300
11200TIP3   OH233540   7.952   3.564   1.907
11200TIP3    H133541   8.030   3.606   1.872
11200TIP3    H233542   7.975   3.472   1.915
11201TIP3   OH233543   2.833   4.459   2.864
11201TIP3    H133544   2.855   4.510   2.942
11201TIP3    H233545   2.745   4.424   2.882
11202TIP3   OH233546   5.833   1.655   5.968
11202TIP3    H133547   5.843   1.671   5.874
11202TIP3    H233548   5.923   1.645   6.000
11203TIP3   OH233549   7.026   3.091   0.342
11203TIP3    H133550   7.110   3.114   0.381
11203TIP3    H233551   7.037   3.001   0.312
11204TIP3   OH233552   2.046   4.013   3.373
11204TIP3    H133553   1.959   4.051   3.376
11204TIP3    H233554   2.099   4.070   3.428
11205TIP3   OH233555   3.602   1.325   5.365
11205TIP3    H133556   3.660   1.312   5.439
11205TIP3    H233557   3.635   1.404   5.321
11206TIP3   OH233558   3.565   6.007   2.437
11206TIP3    H133559   3.494   6.032   2.497
11206TIP3    H233560   3.532   5.929   2.393
11207TIP3   OH233561   0.321   4.509   5.066
11207TIP3    H133562   0.325   4.419   5.097
11207TIP3    H233563   0.228   4.532   5.069
11208TIP3   OH233564   0.612   5.508   3.189
11208TIP3    H133565   0.595   5.426   3.235
11208TIP3    H233566   0.577   5.576   3.247
11209TIP3   OH233567   2.412   4.665   4.841
11209TIP3    H133568   2.407   4.755   4.873
11209TIP3    H233569   2.325   4.648   4.805
11210TIP3   OH233570   8.220   6.072   2.624
11210TIP3    H133571   8.206   6.065   2.719
11210TIP3    H233572   8.134   6.052   2.586
11211TIP3   OH233573   3.212   5.246   2.245
11211TIP3    H133574   3.263   5.182   2.195
11211TIP3    H233575   3.269   5.271   2.317
11212TIP3   OH233576   5.220   6.329   0.508
11212TIP3    H133577   5.205   6.307   0.416
11212TIP3    H233578   5.226   6.424   0.509
11213TIP3   OH233579   6.827   3.019   4.430
11213TIP3    H133580   6.824   3.112   4.451
11213TIP3    H233581   6.880   2.980   4.499
11214TIP3   OH233582   0.731   1.258   2.967
11214TIP3    H133583   0.648   1.305   2.960
11214TIP3    H233584   0.796   1.318   2.931
11215TIP3   OH233585   0.717   3.404   1.530
11215TIP3    H133586   0.736   3.349   1.454
11215TIP3    H233587   0.631   3.442   1.511
11216TIP3   OH233588   3.291   0.367   1.662
11216TIP3    H133589   3.201   0.340   1.681
11216TIP3    H233590   3.283   0.428   1.588
11217TIP3   OH233591   3.579   7.199   4.230
11217TIP3    H133592   3.515   7.178   4.161
11217TIP3    H233593   3.526   7.206   4.309
11218TIP3   OH233594   7.073   6.373   0.885
11218TIP3    H133595   7.120   6.315   0.826
11218TIP3    H233596   6.980   6.356   0.867
11219TIP3   OH233597   5.814   2.517   5.527
11219TIP3    H133598   5.812   2.464   5.607
11219TIP3    H233599   5.898   2.496   5.486
11220TIP3   OH233600   1.214   4.956   5.252
11220TIP3    H133601   1.175   5.043   5.247
11220TIP3    H233602   1.251   4.941   5.165
11221TIP3   OH233603   7.896   3.303   0.408
11221TIP3    H133604   7.861   3.249   0.337
11221TIP3    H233605   7.898   3.391   0.372
11222TIP3   OH233606   3.054   1.867   0.539
11222TIP3    H133607   2.964   1.898   0.544
11222TIP3    H233608   3.051   1.777   0.572
11223TIP3   OH233609   1.053   6.701   0.980
11223TIP3    H133610   1.074   6.773   1.039
11223TIP3    H233611   1.114   6.631   1.004
11224TIP3   OH233612   6.217   2.772   5.860
11224TIP3    H133613   6.258   2.809   5.938
11224TIP3    H233614   6.247   2.829   5.788
11225TIP3   OH233615   2.833   2.221   2.635
11225TIP3    H133616   2.776   2.288   2.674
11225TIP3    H233617   2.870   2.262   2.557
11226TIP3   OH233618   0.441   6.273   0.963
11226TIP3    H133619   0.518   6.248   1.015
11226TIP3    H233620   0.387   6.194   0.961
11227TIP3   OH233621   4.004   7.210   5.974
11227TIP3    H133622   3.968   7.273   6.037
11227TIP3    H233623   4.082   7.175   6.016
11228TIP3   OH233624   4.935   1.239   0.277
11228TIP3    H133625   5.002   1.181   0.243
11228TIP3    H233626   4.856   1.217   0.226
11229TIP3   OH233627   0.861   0.392   5.856
11229TIP3    H133628   0.878   0.320   5.916
11229TIP3    H233629   0.826   0.350   5.777
11230TIP3   OH233630   7.378   0.981   5.860
11230TIP3    H133631   7.468   0.980   5.892
11230TIP3    H233632   7.338   0.902   5.898
11231TIP3   OH233633   3.019   5.358   3.621
11231TIP3    H133634   3.055   5.408   3.548
11231TIP3    H233635   3.067   5.276   3.620
11232TIP3   OH233636   6.586   1.236   4.576
11232TIP3    H133637   6.549   1.252   4.489
11232TIP3    H233638   6.647   1.309   4.590
11233TIP3   OH233639   5.450   7.077   0.223
11233TIP3    H133640   5.443   7.050   0.315
11233TIP3    H233641   5.465   7.171   0.227
11234TIP3   OH233642   4.712   3.382   6.654
11234TIP3    H133643   4.632   3.330   6.646
11234TIP3    H233644   4.693   3.463   6.605
11235TIP3   OH233645   0.902   3.053   6.380
11235TIP3    H133646   0.982   3.104   6.387
11235TIP3    H233647   0.840   3.097   6.437
11236TIP3   OH233648   2.472   4.394   5.943
11236TIP3    H133649   2.499   4.366   5.856
11236TIP3    H233650   2.526   4.472   5.960
11237TIP3   OH233651   7.920   7.175   3.293
11237TIP3    H133652   7.971   7.173   3.374
11237TIP3    H233653   7.973   7.227   3.233
11238TIP3   OH233654   3.542   1.210   1.434
11238TIP3    H133655   3.568   1.205   1.526
11238TIP3    H233656   3.451   1.181   1.434
11239TIP3   OH233657   6.292   4.072   4.919
11239TIP3    H133658   6.367   4.068   4.978
11239TIP3    H233659   6.222   4.027   4.966
11240TIP3   OH233660   8.285   3.577   3.804
11240TIP3    H133661   8.203   3.532   3.784
11240TIP3    H233662   8.353   3.521   3.765
11241TIP3   OH233663   2.423   5.597   2.586
11241TIP3    H133664   2.510   5.592   2.625
11241TIP3    H233665   2.368   5.633   2.656
11242TIP3   OH233666   0.895   3.670   0.643
11242TIP3    H133667   0.884   3.585   0.686
11242TIP3    H233668   0.872   3.654   0.552
11243TIP3   OH233669   3.062   0.466   4.895
11243TIP3    H133670   2.975   0.504   4.881
11243TIP3    H233671   3.045   0.387   4.947
11244TIP3   OH233672   5.703   0.817   5.700
11244TIP3    H133673   5.728   0.737   5.745
11244TIP3    H233674   5.654   0.787   5.623
11245TIP3   OH233675   2.376   6.838   1.982
11245TIP3    H133676   2.405   6.805   1.897
11245TIP3    H233677   2.408   6.774   2.045
11246TIP3   OH233678   2.940   0.763   5.257
11246TIP3    H133679   2.988   0.844   5.275
11246TIP3    H233680   3.008   0.696   5.254
11247TIP3   OH233681   7.766   4.377   6.395
11247TIP3    H133682   7.859   4.398   6.402
11247TIP3    H233683   7.759   4.325   6.314
11248TIP3   OH233684   5.837   4.614   0.260
11248TIP3    H133685   5.905   4.580   0.202
11248TIP3    H233686   5.755   4.591   0.217
11249TIP3   OH233687   6.250   0.758   3.865
11249TIP3    H133688   6.181   0.710   3.912
11249TIP3    H233689   6.297   0.690   3.816
11250TIP3   OH233690   3.782   2.231   4.569
11250TIP3    H133691   3.720   2.240   4.497
11250TIP3    H233692   3.805   2.321   4.592
11251TIP3   OH233693   1.075   5.193   1.505
11251TIP3    H133694   1.134   5.139   1.558
11251TIP3    H233695   1.121   5.201   1.421
11252TIP3   OH233696   8.053   2.194   2.570
11252TIP3    H133697   7.961   2.177   2.550
11252TIP3    H233698   8.081   2.258   2.505
11253TIP3   OH233699   6.186   5.384   1.025
11253TIP3    H133700   6.216   5.300   0.990
11253TIP3    H233701   6.250   5.448   0.993
11254TIP3   OH233702   7.692   0.433   2.274
11254TIP3    H133703   7.638   0.395   2.344
11254TIP3    H233704   7.726   0.514   2.311
11255TIP3   OH233705   6.568   2.570   6.575
11255TIP3    H133706   6.547   2.579   6.667
11255TIP3    H233707   6.521   2.491   6.546
11256TIP3   OH233708   2.242   3.143   4.801
11256TIP3    H133709   2.227   3.229   4.841
11256TIP3    H233710   2.164   3.092   4.824
11257TIP3   OH233711   1.932   5.520   1.745
11257TIP3    H133712   1.985   5.569   1.809
11257TIP3    H233713   1.901   5.587   1.684
11258TIP3   OH233714   3.953   1.748   0.153
11258TIP3    H133715   3.963   1.655   0.131
11258TIP3    H233716   4.033   1.770   0.201
11259TIP3   OH233717   3.356   2.530   1.398
11259TIP3    H133718   3.362   2.625   1.414
11259TIP3    H233719   3.352   2.523   1.303
11260TIP3   OH233720   6.150   6.600   6.374
11260TIP3    H133721   6.089   6.538   6.335
11260TIP3    H233722   6.228   6.595   6.319
11261TIP3   OH233723   6.017   1.900   1.025
11261TIP3    H133724   5.966   1.933   0.951
11261TIP3    H233725   6.010   1.805   1.019
11262TIP3   OH233726   7.463   3.149   5.479
11262TIP3    H133727   7.483   3.103   5.561
11262TIP3    H233728   7.368   3.152   5.475
11263TIP3   OH233729   5.134   6.423   2.383
11263TIP3    H133730   5.096   6.366   2.450
11263TIP3    H233731   5.070   6.493   2.372
11264TIP3   OH233732   4.055   7.006   2.356
11264TIP3    H133733   4.140   6.989   2.317
11264TIP3    H233734   3.996   6.944   2.313
11265TIP3   OH233735   1.191   6.995   1.850
11265TIP3    H133736   1.232   7.019   1.933
11265TIP3    H233737   1.238   6.917   1.821
11266TIP3   OH233738   2.843   7.377   0.040
11266TIP3    H133739   2.882   7.464   0.048
11266TIP3    H233740   2.749   7.392   0.047
11267TIP3   OH233741   5.285   4.909   1.324
11267TIP3    H133742   5.211   4.883   1.379
11267TIP3    H233743   5.297   4.835   1.264
11268TIP3   OH233744   7.262   7.825   3.980
11268TIP3    H133745   7.329   7.889   3.956
11268TIP3    H233746   7.217   7.805   3.898
11269TIP3   OH233747   7.398   5.500   4.714
11269TIP3    H133748   7.469   5.446   4.749
11269TIP3    H233749   7.444   5.572   4.669
11270TIP3   OH233750   5.347   2.020   0.779
11270TIP3    H133751   5.429   1.979   0.809
11270TIP3    H233752   5.371   2.111   0.762
11271TIP3   OH233753  -0.001   1.229   0.371
11271TIP3    H133754   0.088   1.195   0.366
11271TIP3    H233755   0.009   1.318   0.405
11272TIP3   OH233756   4.252   5.337   5.866
11272TIP3    H133757   4.237   5.286   5.946
11272TIP3    H233758   4.326   5.394   5.887
11273TIP3   OH233759   3.577   2.197   2.461
11273TIP3    H133760   3.640   2.125   2.465
11273TIP3    H233761   3.544   2.204   2.551
11274TIP3   OH233762   3.176   1.968   4.517
11274TIP3    H133763   3.264   1.982   4.552
11274TIP3    H233764   3.143   1.892   4.565
11275TIP3   OH233765   7.035   7.863   3.334
11275TIP3    H133766   6.973   7.831   3.268
11275TIP3    H233767   6.984   7.925   3.387
11276TIP3   OH233768   0.920   3.525   0.108
11276TIP3    H133769   0.928   3.547   0.016
11276TIP3    H233770   0.983   3.453   0.121
11277TIP3   OH233771   0.570   0.634   1.938
11277TIP3    H133772   0.489   0.676   1.909
11277TIP3    H233773   0.616   0.702   1.987
11278TIP3   OH233774   4.649   1.427   4.877
11278TIP3    H133775   4.727   1.388   4.917
11278TIP3    H233776   4.669   1.520   4.869
11279TIP3   OH233777   0.389   4.092   0.193
11279TIP3    H133778   0.468   4.117   0.145
11279TIP3    H233779   0.320   4.147   0.156
11280TIP3   OH233780   0.405   7.661   5.868
11280TIP3    H133781   0.456   7.626   5.795
11280TIP3    H233782   0.326   7.696   5.827
11281TIP3   OH233783   0.547   2.510   2.950
11281TIP3    H133784   0.611   2.445   2.979
11281TIP3    H233785   0.495   2.529   3.028
11282TIP3   OH233786   6.244   4.681   3.786
11282TIP3    H133787   6.150   4.666   3.772
11282TIP3    H233788   6.284   4.664   3.701
11283TIP3   OH233789   3.719   0.493   4.764
11283TIP3    H133790   3.625   0.507   4.751
11283TIP3    H233791   3.736   0.526   4.852
11284TIP3   OH233792   4.767   6.393   5.861
11284TIP3    H133793   4.695   6.363   5.916
11284TIP3    H233794   4.845   6.387   5.917
11285TIP3   OH233795   2.245   3.104   3.202
11285TIP3    H133796   2.318   3.161   3.228
11285TIP3    H233797   2.242   3.111   3.107
11286TIP3   OH233798   2.609   3.815   2.016
11286TIP3    H133799   2.544   3.765   1.966
11286TIP3    H233800   2.682   3.754   2.025
11287TIP3   OH233801   7.564   3.250   0.977
11287TIP3    H133802   7.572   3.177   0.916
11287TIP3    H233803   7.492   3.303   0.942
11288TIP3   OH233804   6.582   2.258   4.179
11288TIP3    H133805   6.626   2.340   4.154
11288TIP3    H233806   6.573   2.264   4.274
11289TIP3   OH233807   8.359   5.259   3.898
11289TIP3    H133808   8.372   5.184   3.839
11289TIP3    H233809   8.289   5.310   3.856
11290TIP3   OH233810   6.547   4.823   3.892
11290TIP3    H133811   6.580   4.741   3.856
11290TIP3    H233812   6.593   4.891   3.843
11291TIP3   OH233813   0.306   4.767   5.247
11291TIP3    H133814   0.271   4.689   5.204
11291TIP3    H233815   0.305   4.834   5.178
11292TIP3   OH233816   1.642   2.118   2.931
11292TIP3    H133817   1.719   2.067   2.957
11292TIP3    H233818   1.568   2.058   2.942
11293TIP3   OH233819   0.781   7.292   4.616
11293TIP3    H133820   0.699   7.337   4.633
11293TIP3    H233821   0.808   7.324   4.530
11294TIP3   OH233822   1.000   5.017   3.077
11294TIP3    H133823   0.976   4.938   3.029
11294TIP3    H233824   1.092   5.031   3.055
11295TIP3   OH233825   2.849   3.076   5.005
11295TIP3    H133826   2.894   3.074   5.090
11295TIP3    H233827   2.819   2.986   4.992
11296TIP3   OH233828   0.090   1.831   6.182
11296TIP3    H133829   0.127   1.920   6.185
11296TIP3    H233830   0.055   1.823   6.094
11297TIP3   OH233831   7.381   3.505   5.649
11297TIP3    H133832   7.449   3.562   5.686
11297TIP3    H233833   7.360   3.545   5.564
11298TIP3   OH233834   6.189   7.113   5.553
11298TIP3    H133835   6.141   7.033   5.531
11298TIP3    H233836   6.281   7.091   5.538
11299TIP3   OH233837   2.633   1.777   4.110
11299TIP3    H133838   2.665   1.866   4.126
11299TIP3    H233839   2.698   1.739   4.050
11300TIP3   OH233840   4.307   6.229   1.144
11300TIP3    H133841   4.328   6.160   1.206
11300TIP3    H233842   4.308   6.309   1.196
11301TIP3   OH233843   3.613   4.299   5.497
11301TIP3    H133844   3.591   4.225   5.441
11301TIP3    H233845   3.533   4.316   5.547
11302TIP3   OH233846   2.766   4.458   5.096
11302TIP3    H133847   2.860   4.465   5.108
11302TIP3    H233848   2.754   4.433   5.004
11303TIP3   OH233849   4.629   7.525   1.309
11303TIP3    H133850   4.583   7.464   1.250
11303TIP3    H233851   4.721   7.515   1.287
11304TIP3   OH233852   4.946   0.072   6.672
11304TIP3    H133853   5.005   0.142   6.700
11304TIP3    H233854   4.939   0.015   6.748
11305TIP3   OH233855   0.114   1.073   1.633
11305TIP3    H133856   0.204   1.045   1.650
11305TIP3    H233857   0.070   1.067   1.718
11306TIP3   OH233858   6.370   7.633   6.541
11306TIP3    H133859   6.387   7.651   6.634
11306TIP3    H233860   6.275   7.644   6.532
11307TIP3   OH233861   0.659   1.684   5.249
11307TIP3    H133862   0.636   1.606   5.200
11307TIP3    H233863   0.585   1.700   5.307
11308TIP3   OH233864   5.236   6.501   6.357
11308TIP3    H133865   5.233   6.478   6.450
11308TIP3    H233866   5.313   6.558   6.349
11309TIP3   OH233867   0.371   1.000   1.709
11309TIP3    H133868   0.363   1.002   1.805
11309TIP3    H233869   0.354   0.909   1.686
11310TIP3   OH233870   5.078   4.800   2.521
11310TIP3    H133871   5.019   4.732   2.489
11310TIP3    H233872   5.091   4.858   2.446
11311TIP3   OH233873   3.014   4.274   2.797
11311TIP3    H133874   3.074   4.277   2.871
11311TIP3    H233875   2.952   4.346   2.812
11312TIP3   OH233876   0.214   1.684   3.958
11312TIP3    H133877   0.121   1.706   3.952
11312TIP3    H233878   0.256   1.740   3.893
11313TIP3   OH233879   3.821   4.332   0.874
11313TIP3    H133880   3.759   4.319   0.802
11313TIP3    H233881   3.864   4.247   0.885
11314TIP3   OH233882   1.328   7.873   6.303
11314TIP3    H133883   1.303   7.810   6.235
11314TIP3    H233884   1.363   7.819   6.374
11315TIP3   OH233885   4.484   3.314   2.504
11315TIP3    H133886   4.403   3.333   2.457
11315TIP3    H233887   4.542   3.387   2.482
11316TIP3   OH233888   7.226   4.670   3.508
11316TIP3    H133889   7.141   4.652   3.548
11316TIP3    H233890   7.208   4.741   3.446
11317TIP3   OH233891   5.758   7.175   2.064
11317TIP3    H133892   5.782   7.187   1.972
11317TIP3    H233893   5.672   7.215   2.072
11318TIP3   OH233894   6.779   4.147   0.088
11318TIP3    H133895   6.689   4.120   0.106
11318TIP3    H233896   6.790   4.227   0.139
11319TIP3   OH233897   3.508   7.792   2.697
11319TIP3    H133898   3.544   7.743   2.622
11319TIP3    H233899   3.525   7.884   2.676
11320TIP3   OH233900   1.208   7.246   0.098
11320TIP3    H133901   1.119   7.227   0.068
11320TIP3    H233902   1.248   7.294   0.026
11321TIP3   OH233903   7.968   2.805   1.231
11321TIP3    H133904   7.991   2.745   1.301
11321TIP3    H233905   8.038   2.794   1.166
11322TIP3   OH233906   0.661   7.621   2.392
11322TIP3    H133907   0.750   7.593   2.415
11322TIP3    H233908   0.616   7.540   2.368
11323TIP3   OH233909   4.596   7.165   1.068
11323TIP3    H133910   4.545   7.137   0.992
11323TIP3    H233911   4.674   7.109   1.068
11324TIP3   OH233912   0.612   0.037   6.689
11324TIP3    H133913   0.643   0.043   6.599
11324TIP3    H233914   0.617   0.127   6.722
11325TIP3   OH233915   1.615   7.521   0.137
11325TIP3    H133916   1.566   7.580   0.080
11325TIP3    H233917   1.690   7.573   0.167
11326TIP3   OH233918   6.212   0.788   4.220
11326TIP3    H133919   6.180   0.768   4.308
11326TIP3    H233920   6.153   0.741   4.161
11327TIP3   OH233921   4.091   1.749   6.704
11327TIP3    H133922   4.025   1.690   6.740
11327TIP3    H233923   4.110   1.810   6.775
11328TIP3   OH233924   2.947   6.839   0.732
11328TIP3    H133925   2.901   6.883   0.803
11328TIP3    H233926   2.892   6.855   0.655
11329TIP3   OH233927   3.510   1.932   6.373
11329TIP3    H133928   3.559   2.006   6.408
11329TIP3    H233929   3.501   1.951   6.279
11330TIP3   OH233930   2.620   3.745   3.036
11330TIP3    H133931   2.641   3.763   3.127
11330TIP3    H233932   2.546   3.685   3.039
11331TIP3   OH233933   6.250   7.659   5.791
11331TIP3    H133934   6.274   7.744   5.828
11331TIP3    H233935   6.326   7.603   5.808
11332TIP3   OH233936   3.271   6.884   0.222
11332TIP3    H133937   3.316   6.814   0.175
11332TIP3    H233938   3.332   6.910   0.292
11333TIP3   OH233939   5.791   2.215   2.212
11333TIP3    H133940   5.840   2.135   2.231
11333TIP3    H233941   5.701   2.185   2.197
11334TIP3   OH233942   4.374   6.019   2.119
11334TIP3    H133943   4.450   6.050   2.170
11334TIP3    H233944   4.338   5.947   2.171
11335TIP3   OH233945   5.635   1.792   2.916
11335TIP3    H133946   5.673   1.711   2.951
11335TIP3    H233947   5.644   1.784   2.821
11336TIP3   OH233948   1.226   7.161   1.520
11336TIP3    H133949   1.141   7.202   1.539
11336TIP3    H233950   1.262   7.212   1.448
11337TIP3   OH233951   6.644   3.568   4.013
11337TIP3    H133952   6.632   3.662   4.022
11337TIP3    H233953   6.564   3.530   4.049
11338TIP3   OH233954   5.411   1.753   5.503
11338TIP3    H133955   5.410   1.802   5.420
11338TIP3    H233956   5.319   1.751   5.529
11339TIP3   OH233957   2.429   3.049   6.111
11339TIP3    H133958   2.380   3.037   6.192
11339TIP3    H233959   2.397   2.980   6.053
11340TIP3   OH233960   1.917   6.064   4.628
11340TIP3    H133961   1.914   6.055   4.724
11340TIP3    H233962   2.005   6.097   4.610
11341TIP3   OH233963   7.386   3.032   4.031
11341TIP3    H133964   7.388   2.952   3.978
11341TIP3    H233965   7.440   3.011   4.107
11342TIP3   OH233966   0.696   5.721   1.284
11342TIP3    H133967   0.618   5.743   1.336
11342TIP3    H233968   0.715   5.802   1.236
11343TIP3   OH233969   8.242   6.010   5.433
11343TIP3    H133970   8.190   6.014   5.513
11343TIP3    H233971   8.317   5.955   5.455
11344TIP3   OH233972   3.523   0.839   0.787
11344TIP3    H133973   3.550   0.799   0.704
11344TIP3    H233974   3.562   0.927   0.784
11345TIP3   OH233975   4.984   7.164   2.022
11345TIP3    H133976   4.982   7.241   2.078
11345TIP3    H233977   4.926   7.186   1.949
11346TIP3   OH233978   1.552   1.229   0.075
11346TIP3    H133979   1.627   1.285   0.093
11346TIP3    H233980   1.486   1.288   0.039
11347TIP3   OH233981   2.457   0.078   0.626
11347TIP3    H133982   2.399   0.087   0.702
11347TIP3    H233983   2.519   0.010   0.652
11348TIP3   OH233984   1.297   7.104   6.282
11348TIP3    H133985   1.368   7.091   6.220
11348TIP3    H233986   1.340   7.125   6.365
11349TIP3   OH233987   6.626   6.661   1.421
11349TIP3    H133988   6.594   6.682   1.508
11349TIP3    H233989   6.718   6.688   1.422
11350TIP3   OH233990   7.421   5.381   0.148
11350TIP3    H133991   7.377   5.308   0.191
11350TIP3    H233992   7.386   5.383   0.059
11351TIP3   OH233993   4.489   5.349   2.255
11351TIP3    H133994   4.463   5.433   2.291
11351TIP3    H233995   4.582   5.341   2.278
11352TIP3   OH233996   6.362   5.953   1.735
11352TIP3    H133997   6.268   5.971   1.728
11352TIP3    H233998   6.402   6.038   1.748
11353TIP3   OH233999   0.133   1.719   0.322
11353TIP3    H134000   0.151   1.653   0.255
11353TIP3    H234001   0.125   1.801   0.273
11354TIP3   OH234002   0.749   2.226   0.966
11354TIP3    H134003   0.767   2.140   0.929
11354TIP3    H234004   0.821   2.240   1.029
11355TIP3   OH234005   4.062   0.434   4.200
11355TIP3    H134006   4.151   0.460   4.175
11355TIP3    H234007   4.026   0.393   4.121
11356TIP3   OH234008   6.949   7.070   4.571
11356TIP3    H134009   6.914   6.983   4.593
11356TIP3    H234010   6.883   7.109   4.514
11357TIP3   OH234011   7.526   6.537   5.318
11357TIP3    H134012   7.432   6.525   5.331
11357TIP3    H234013   7.551   6.602   5.384
11358TIP3   OH234014   6.551   4.818   2.028
11358TIP3    H134015   6.528   4.727   2.046
11358TIP3    H234016   6.596   4.848   2.107
11359TIP3   OH234017   4.791   7.078   5.862
11359TIP3    H134018   4.706   7.096   5.822
11359TIP3    H234019   4.852   7.133   5.812
11360TIP3   OH234020   0.905   3.338   3.466
11360TIP3    H134021   0.956   3.304   3.539
11360TIP3    H234022   0.814   3.335   3.496
11361TIP3   OH234023   5.547   6.065   0.963
11361TIP3    H134024   5.473   6.084   1.020
11361TIP3    H234025   5.515   5.997   0.904
11362TIP3   OH234026   4.016   3.314   0.480
11362TIP3    H134027   4.080   3.249   0.509
11362TIP3    H234028   3.968   3.337   0.559
11363TIP3   OH234029   0.824   6.204   2.004
11363TIP3    H134030   0.737   6.194   2.044
11363TIP3    H234031   0.873   6.255   2.068
11364TIP3   OH234032   6.996   0.761   6.112
11364TIP3    H134033   7.035   0.736   6.195
11364TIP3    H234034   6.941   0.836   6.133
11365TIP3   OH234035   3.398   1.482   0.922
11365TIP3    H134036   3.464   1.413   0.913
11365TIP3    H234037   3.328   1.456   0.862
11366TIP3   OH234038   3.647   5.696   2.567
11366TIP3    H134039   3.611   5.772   2.614
11366TIP3    H234040   3.726   5.673   2.616
11367TIP3   OH234041   3.244   5.872   2.698
11367TIP3    H134042   3.336   5.848   2.688
11367TIP3    H234043   3.234   5.894   2.791
11368TIP3   OH234044   7.179   1.951   3.238
11368TIP3    H134045   7.181   1.857   3.260
11368TIP3    H234046   7.086   1.973   3.238
11369TIP3   OH234047   7.031   2.026   2.010
11369TIP3    H134048   6.982   1.990   2.084
11369TIP3    H234049   7.063   2.111   2.042
11370TIP3   OH234050   5.737   2.777   5.157
11370TIP3    H134051   5.746   2.799   5.249
11370TIP3    H234052   5.757   2.683   5.152
11371TIP3   OH234053   2.790   7.413   3.000
11371TIP3    H134054   2.804   7.496   3.047
11371TIP3    H234055   2.838   7.348   3.050
11372TIP3   OH234056   5.985   0.661   6.136
11372TIP3    H134057   5.977   0.672   6.041
11372TIP3    H234058   6.050   0.592   6.148
11373TIP3   OH234059   3.316   7.323   5.772
11373TIP3    H134060   3.344   7.379   5.700
11373TIP3    H234061   3.397   7.288   5.808
11374TIP3   OH234062   5.722   7.071   2.820
11374TIP3    H134063   5.791   7.124   2.861
11374TIP3    H234064   5.667   7.043   2.892
11375TIP3   OH234065   0.820   3.965   2.803
11375TIP3    H134066   0.882   3.946   2.874
11375TIP3    H234067   0.758   3.892   2.804
11376TIP3   OH234068   1.467   3.328   4.659
11376TIP3    H134069   1.517   3.300   4.582
11376TIP3    H234070   1.524   3.306   4.734
11377TIP3   OH234071   0.170   0.236   5.390
11377TIP3    H134072   0.171   0.322   5.349
11377TIP3    H234073   0.157   0.175   5.317
11378TIP3   OH234074   4.765   6.755   3.615
11378TIP3    H134075   4.739   6.841   3.648
11378TIP3    H234076   4.756   6.697   3.690
11379TIP3   OH234077   6.491   2.589   6.178
11379TIP3    H134078   6.466   2.517   6.237
11379TIP3    H234079   6.560   2.552   6.123
11380TIP3   OH234080   2.275   1.308   5.160
11380TIP3    H134081   2.275   1.388   5.213
11380TIP3    H234082   2.359   1.309   5.114
11381TIP3   OH234083   1.926   1.329   4.123
11381TIP3    H134084   1.849   1.292   4.166
11381TIP3    H234085   1.892   1.366   4.041
11382TIP3   OH234086   6.817   7.288   3.270
11382TIP3    H134087   6.738   7.338   3.248
11382TIP3    H234088   6.786   7.221   3.330
11383TIP3   OH234089   6.655   1.875   3.965
11383TIP3    H134090   6.597   1.883   3.889
11383TIP3    H234091   6.685   1.785   3.962
11384TIP3   OH234092   1.113   5.033   3.440
11384TIP3    H134093   1.203   5.006   3.455
11384TIP3    H234094   1.070   4.954   3.405
11385TIP3   OH234095   4.232   3.180   3.821
11385TIP3    H134096   4.208   3.126   3.745
11385TIP3    H234097   4.167   3.250   3.822
11386TIP3   OH234098   6.107   7.464   4.228
11386TIP3    H134099   6.118   7.418   4.311
11386TIP3    H234100   6.195   7.494   4.205
11387TIP3   OH234101   1.633   6.319   2.467
11387TIP3    H134102   1.685   6.317   2.386
11387TIP3    H234103   1.617   6.412   2.483
11388TIP3   OH234104   6.327   4.527   4.766
11388TIP3    H134105   6.235   4.512   4.785
11388TIP3    H234106   6.332   4.529   4.671
11389TIP3   OH234107   3.962   0.410   5.562
11389TIP3    H134108   4.051   0.403   5.597
11389TIP3    H234109   3.917   0.332   5.594
11390TIP3   OH234110   2.938   1.143   3.424
11390TIP3    H134111   2.908   1.226   3.388
11390TIP3    H234112   2.909   1.144   3.516
11391TIP3   OH234113   7.940   7.352   5.271
11391TIP3    H134114   7.916   7.329   5.181
11391TIP3    H234115   7.861   7.392   5.307
11392TIP3   OH234116   0.144   4.245   2.910
11392TIP3    H134117   0.194   4.322   2.880
11392TIP3    H234118   0.072   4.238   2.847
11393TIP3   OH234119   7.396   1.850   5.185
11393TIP3    H134120   7.304   1.826   5.168
11393TIP3    H234121   7.391   1.915   5.255
11394TIP3   OH234122   6.493   6.804   4.042
11394TIP3    H134123   6.495   6.828   3.949
11394TIP3    H234124   6.406   6.831   4.071
11395TIP3   OH234125   0.444   7.438   1.422
11395TIP3    H134126   0.421   7.385   1.346
11395TIP3    H234127   0.363   7.445   1.473
11396TIP3   OH234128   7.301   2.647   0.491
11396TIP3    H134129   7.281   2.653   0.398
11396TIP3    H234130   7.263   2.564   0.519
11397TIP3   OH234131   7.847   0.208   5.598
11397TIP3    H134132   7.765   0.192   5.551
11397TIP3    H234133   7.915   0.177   5.538
11398TIP3   OH234134   7.249   7.356   1.888
11398TIP3    H134135   7.331   7.362   1.839
11398TIP3    H234136   7.182   7.351   1.821
11399TIP3   OH234137   3.825   4.709   3.441
11399TIP3    H134138   3.736   4.675   3.445
11399TIP3    H234139   3.828   4.757   3.358
11400TIP3   OH234140   5.495   7.814   4.647
11400TIP3    H134141   5.406   7.781   4.655
11400TIP3    H234142   5.550   7.735   4.644
11401TIP3   OH234143   0.661   0.963   4.934
11401TIP3    H134144   0.698   1.049   4.914
11401TIP3    H234145   0.737   0.906   4.944
11402TIP3   OH234146   0.278   7.839   1.230
11402TIP3    H134147   0.362   7.822   1.188
11402TIP3    H234148   0.215   7.785   1.183
11403TIP3   OH234149   6.998   2.968   0.918
11403TIP3    H134150   7.008   2.906   0.846
11403TIP3    H234151   6.969   2.915   0.992
11404TIP3   OH234152   0.539   7.802   3.293
11404TIP3    H134153   0.615   7.787   3.236
11404TIP3    H234154   0.466   7.814   3.232
11405TIP3   OH234155   0.285   5.760   0.431
11405TIP3    H134156   0.203   5.759   0.381
11405TIP3    H234157   0.308   5.852   0.436
11406TIP3   OH234158   5.331   6.627   3.732
11406TIP3    H134159   5.332   6.616   3.827
11406TIP3    H234160   5.275   6.556   3.701
11407TIP3   OH234161   4.862   2.864   5.496
11407TIP3    H134162   4.911   2.794   5.454
11407TIP3    H234163   4.837   2.922   5.423
11408TIP3   OH234164   3.366   6.434   2.341
11408TIP3    H134165   3.310   6.497   2.387
11408TIP3    H234166   3.365   6.463   2.250
11409TIP3   OH234167   6.547   3.887   4.437
11409TIP3    H134168   6.484   3.821   4.408
11409TIP3    H234169   6.497   3.943   4.496
11410TIP3   OH234170   3.554   3.805   5.349
11410TIP3    H134171   3.515   3.724   5.317
11410TIP3    H234172   3.571   3.789   5.442
11411TIP3   OH234173   1.494   5.484   6.607
11411TIP3    H134174   1.563   5.465   6.670
11411TIP3    H234175   1.425   5.421   6.627
11412TIP3   OH234176   8.199   2.913   4.497
11412TIP3    H134177   8.129   2.855   4.527
11412TIP3    H234178   8.280   2.865   4.514
11413TIP3   OH234179   2.163   3.874   3.882
11413TIP3    H134180   2.159   3.785   3.917
11413TIP3    H234181   2.187   3.928   3.957
11414TIP3   OH234182   6.878   5.772   2.021
11414TIP3    H134183   6.808   5.709   2.040
11414TIP3    H234184   6.870   5.789   1.927
11415TIP3   OH234185   2.723   5.999   5.946
11415TIP3    H134186   2.769   6.059   6.004
11415TIP3    H234187   2.645   5.972   5.996
11416TIP3   OH234188  -0.013   6.521   2.533
11416TIP3    H134189   0.081   6.506   2.544
11416TIP3    H234190  -0.042   6.452   2.474
11417TIP3   OH234191   0.829   1.415   0.359
11417TIP3    H134192   0.857   1.495   0.314
11417TIP3    H234193   0.740   1.399   0.326
11418TIP3   OH234194   7.562   1.431   1.618
11418TIP3    H134195   7.517   1.443   1.701
11418TIP3    H234196   7.649   1.398   1.641
11419TIP3   OH234197   4.503   2.428   3.267
11419TIP3    H134198   4.466   2.398   3.350
11419TIP3    H234199   4.505   2.350   3.211
11420TIP3   OH234200   2.036   1.118   5.586
11420TIP3    H134201   2.084   1.073   5.516
11420TIP3    H234202   1.976   1.177   5.539
11421TIP3   OH234203   0.611   6.846   6.740
11421TIP3    H134204   0.657   6.912   6.791
11421TIP3    H234205   0.526   6.886   6.720
11422TIP3   OH234206   6.370   1.597   2.173
11422TIP3    H134207   6.445   1.620   2.228
11422TIP3    H234208   6.298   1.649   2.209
11423TIP3   OH234209   1.731   4.551   5.761
11423TIP3    H134210   1.773   4.478   5.807
11423TIP3    H234211   1.726   4.521   5.670
11424TIP3   OH234212   6.099   1.562   6.881
11424TIP3    H134213   6.147   1.529   6.805
11424TIP3    H234214   6.091   1.656   6.864
11425TIP3   OH234215   3.582   0.423   2.387
11425TIP3    H134216   3.564   0.461   2.301
11425TIP3    H234217   3.517   0.461   2.446
11426TIP3   OH234218   5.603   0.467   1.982
11426TIP3    H134219   5.609   0.497   2.073
11426TIP3    H234220   5.691   0.437   1.960
11427TIP3   OH234221   0.177   7.358   2.180
11427TIP3    H134222   0.141   7.399   2.258
11427TIP3    H234223   0.201   7.270   2.208
11428TIP3   OH234224   7.421   6.205   4.496
11428TIP3    H134225   7.441   6.152   4.419
11428TIP3    H234226   7.398   6.291   4.461
11429TIP3   OH234227   1.574   2.569   1.390
11429TIP3    H134228   1.512   2.512   1.346
11429TIP3    H234229   1.588   2.527   1.475
11430TIP3   OH234230   7.930   4.325   2.272
11430TIP3    H134231   7.902   4.343   2.362
11430TIP3    H234232   7.863   4.368   2.218
11431TIP3   OH234233   6.715   4.724   5.081
11431TIP3    H134234   6.630   4.744   5.042
11431TIP3    H234235   6.694   4.678   5.162
11432TIP3   OH234236   5.937   5.370   0.917
11432TIP3    H134237   6.007   5.416   0.963
11432TIP3    H234238   5.956   5.277   0.930
11433TIP3   OH234239   5.302   3.616   3.758
11433TIP3    H134240   5.242   3.690   3.753
11433TIP3    H234241   5.343   3.611   3.671
11434TIP3   OH234242   7.697   2.459   5.032
11434TIP3    H134243   7.784   2.499   5.025
11434TIP3    H234244   7.636   2.533   5.032
11435TIP3   OH234245   1.859   5.212   1.496
11435TIP3    H134246   1.893   5.209   1.406
11435TIP3    H234247   1.937   5.216   1.551
11436TIP3   OH234248   0.892   4.970   1.166
11436TIP3    H134249   0.860   5.033   1.101
11436TIP3    H234250   0.968   4.928   1.124
11437TIP3   OH234251   6.511   5.645   5.173
11437TIP3    H134252   6.495   5.734   5.143
11437TIP3    H234253   6.505   5.591   5.093
11438TIP3   OH234254   4.618   6.889   3.128
11438TIP3    H134255   4.536   6.852   3.095
11438TIP3    H234256   4.596   6.919   3.216
11439TIP3   OH234257   8.003   4.088   3.428
11439TIP3    H134258   7.918   4.054   3.456
11439TIP3    H234259   7.997   4.093   3.332
11440TIP3   OH234260   7.231   4.259   1.587
11440TIP3    H134261   7.321   4.291   1.579
11440TIP3    H234262   7.204   4.284   1.675
11441TIP3   OH234263   2.682   2.707   4.687
11441TIP3    H134264   2.648   2.796   4.694
11441TIP3    H234265   2.776   2.716   4.702
11442TIP3   OH234266   4.664   0.178   1.697
11442TIP3    H134267   4.629   0.267   1.706
11442TIP3    H234268   4.647   0.155   1.606
11443TIP3   OH234269   3.703   4.220   2.553
11443TIP3    H134270   3.642   4.149   2.533
11443TIP3    H234271   3.659   4.299   2.521
11444TIP3   OH234272   5.675   3.225   6.444
11444TIP3    H134273   5.750   3.234   6.386
11444TIP3    H234274   5.708   3.251   6.530
11445TIP3   OH234275   0.848   0.154   6.037
11445TIP3    H134276   0.787   0.191   6.101
11445TIP3    H234277   0.926   0.133   6.088
11446TIP3   OH234278   1.619   5.300   1.139
11446TIP3    H134279   1.621   5.288   1.234
11446TIP3    H234280   1.590   5.216   1.105
11447TIP3   OH234281   3.737   0.034   6.257
11447TIP3    H134282   3.645   0.018   6.279
11447TIP3    H234283   3.773   0.077   6.335
11448TIP3   OH234284   1.674   3.111   3.289
11448TIP3    H134285   1.769   3.100   3.283
11448TIP3    H234286   1.643   3.025   3.318
11449TIP3   OH234287   6.523   7.197   5.103
11449TIP3    H134288   6.571   7.251   5.040
11449TIP3    H234289   6.442   7.246   5.120
11450TIP3   OH234290   2.050   6.766   0.602
11450TIP3    H134291   1.957   6.776   0.624
11450TIP3    H234292   2.071   6.676   0.626
11451TIP3   OH234293   7.009   3.630   2.187
11451TIP3    H134294   6.936   3.569   2.199
11451TIP3    H234295   7.086   3.581   2.216
11452TIP3   OH234296   3.541   0.129   0.299
11452TIP3    H134297   3.539   0.040   0.335
11452TIP3    H234298   3.550   0.116   0.204
11453TIP3   OH234299   6.945   6.382   4.530
11453TIP3    H134300   7.014   6.442   4.560
11453TIP3    H234301   6.873   6.439   4.504
11454TIP3   OH234302   2.561   6.620   6.762
11454TIP3    H134303   2.548   6.593   6.853
11454TIP3    H234304   2.502   6.695   6.751
11455TIP3   OH234305   1.598   1.142   3.062
11455TIP3    H134306   1.677   1.169   3.109
11455TIP3    H234307   1.579   1.055   3.095
11456TIP3   OH234308   6.607   3.128   3.309
11456TIP3    H134309   6.654   3.076   3.374
11456TIP3    H234310   6.586   3.210   3.355
11457TIP3   OH234311   4.936   0.302   2.421
11457TIP3    H134312   4.859   0.357   2.402
11457TIP3    H234313   4.901   0.231   2.476
11458TIP3   OH234314   1.361   2.775   4.506
11458TIP3    H134315   1.347   2.680   4.499
11458TIP3    H234316   1.300   2.813   4.443
11459TIP3   OH234317   1.380   0.814   6.495
11459TIP3    H134318   1.464   0.775   6.470
11459TIP3    H234319   1.386   0.824   6.590
11460TIP3   OH234320   7.520   1.803   2.948
11460TIP3    H134321   7.427   1.811   2.969
11460TIP3    H234322   7.564   1.791   3.032
11461TIP3   OH234323   4.263   1.175   6.205
11461TIP3    H134324   4.335   1.202   6.147
11461TIP3    H234325   4.279   1.223   6.286
11462TIP3   OH234326   3.567   7.313   6.446
11462TIP3    H134327   3.536   7.351   6.363
11462TIP3    H234328   3.500   7.338   6.510
11463TIP3   OH234329   0.480   1.916   0.683
11463TIP3    H134330   0.398   1.962   0.699
11463TIP3    H234331   0.545   1.963   0.735
11464TIP3   OH234332   3.286   3.005   5.272
11464TIP3    H134333   3.353   2.952   5.314
11464TIP3    H234334   3.286   2.977   5.180
11465TIP3   OH234335   4.911   3.078   4.041
11465TIP3    H134336   4.926   3.062   4.134
11465TIP3    H234337   4.995   3.112   4.009
11466TIP3   OH234338   7.713   1.822   1.449
11466TIP3    H134339   7.711   1.881   1.373
11466TIP3    H234340   7.627   1.780   1.449
11467TIP3   OH234341   5.133   4.399   6.366
11467TIP3    H134342   5.139   4.334   6.435
11467TIP3    H234343   5.060   4.456   6.392
11468TIP3   OH234344   6.695   2.065   0.191
11468TIP3    H134345   6.670   2.155   0.209
11468TIP3    H234346   6.787   2.069   0.165
11469TIP3   OH234347   7.742   3.175   1.154
11469TIP3    H134348   7.688   3.225   1.093
11469TIP3    H234349   7.774   3.101   1.101
11470TIP3   OH234350   6.215   4.123   0.735
11470TIP3    H134351   6.268   4.134   0.656
11470TIP3    H234352   6.182   4.033   0.730
11471TIP3   OH234353   4.675   6.920   5.514
11471TIP3    H134354   4.722   6.854   5.464
11471TIP3    H234355   4.661   6.880   5.600
11472TIP3   OH234356   2.144   4.570   0.388
11472TIP3    H134357   2.207   4.642   0.384
11472TIP3    H234358   2.059   4.612   0.380
11473TIP3   OH234359   5.089   0.107   4.944
11473TIP3    H134360   5.181   0.105   4.972
11473TIP3    H234361   5.040   0.081   5.022
11474TIP3   OH234362   4.620   1.416   0.780
11474TIP3    H134363   4.647   1.337   0.734
11474TIP3    H234364   4.657   1.488   0.729
11475TIP3   OH234365   6.039   7.363   0.289
11475TIP3    H134366   6.064   7.455   0.289
11475TIP3    H234367   6.072   7.329   0.373
11476TIP3   OH234368   4.544   5.414   5.605
11476TIP3    H134369   4.452   5.385   5.607
11476TIP3    H234370   4.575   5.400   5.694
11477TIP3   OH234371   7.669   5.140   2.296
11477TIP3    H134372   7.671   5.192   2.216
11477TIP3    H234373   7.677   5.204   2.367
11478TIP3   OH234374   7.766   3.307   2.088
11478TIP3    H134375   7.806   3.302   2.001
11478TIP3    H234376   7.792   3.226   2.131
11479TIP3   OH234377   4.632   5.065   5.909
11479TIP3    H134378   4.722   5.092   5.891
11479TIP3    H234379   4.586   5.079   5.827
11480TIP3   OH234380   2.155   2.961   6.250
11480TIP3    H134381   2.089   2.967   6.318
11480TIP3    H234382   2.125   3.022   6.182
11481TIP3   OH234383   7.167   5.732   4.306
11481TIP3    H134384   7.144   5.731   4.399
11481TIP3    H234385   7.161   5.641   4.278
11482TIP3   OH234386   1.488   6.597   1.434
11482TIP3    H134387   1.455   6.511   1.407
11482TIP3    H234388   1.531   6.582   1.517
11483TIP3   OH234389   6.323   4.147   5.264
11483TIP3    H134390   6.261   4.220   5.261
11483TIP3    H234391   6.305   4.104   5.347
11484TIP3   OH234392   1.861   6.022   1.674
11484TIP3    H134393   1.766   6.027   1.681
11484TIP3    H234394   1.890   5.987   1.758
11485TIP3   OH234395   7.727   1.457   3.787
11485TIP3    H134396   7.658   1.519   3.762
11485TIP3    H234397   7.683   1.396   3.847
11486TIP3   OH234398   0.491   6.189   3.085
11486TIP3    H134399   0.557   6.148   3.141
11486TIP3    H234400   0.535   6.266   3.049
11487TIP3   OH234401   2.420   1.398   2.103
11487TIP3    H134402   2.435   1.443   2.019
11487TIP3    H234403   2.365   1.459   2.153
11488TIP3   OH234404   2.142   6.866   4.205
11488TIP3    H134405   2.085   6.914   4.144
11488TIP3    H234406   2.096   6.871   4.289
11489TIP3   OH234407   2.315   7.407   6.260
11489TIP3    H134408   2.327   7.472   6.329
11489TIP3    H234409   2.286   7.458   6.184
11490TIP3   OH234410   6.408   7.125   1.979
11490TIP3    H134411   6.489   7.117   2.028
11490TIP3    H234412   6.355   7.187   2.029
11491TIP3   OH234413   3.141   1.160   0.351
11491TIP3    H134414   3.073   1.120   0.404
11491TIP3    H234415   3.108   1.248   0.331
11492TIP3   OH234416   6.541   0.932   3.202
11492TIP3    H134417   6.574   1.022   3.206
11492TIP3    H234418   6.615   0.881   3.171
11493TIP3   OH234419   6.357   5.173   5.062
11493TIP3    H134420   6.300   5.237   5.104
11493TIP3    H234421   6.301   5.098   5.044
11494TIP3   OH234422   3.065   3.833   3.818
11494TIP3    H134423   3.150   3.812   3.778
11494TIP3    H234424   3.062   3.780   3.898
11495TIP3   OH234425   6.020   4.371   3.386
11495TIP3    H134426   5.951   4.373   3.452
11495TIP3    H234427   5.988   4.312   3.318
11496TIP3   OH234428   5.159   0.076   5.503
11496TIP3    H134429   5.141   0.159   5.460
11496TIP3    H234430   5.156   0.011   5.432
11497TIP3   OH234431   3.016   0.609   2.600
11497TIP3    H134432   2.971   0.690   2.577
11497TIP3    H234433   3.107   0.636   2.617
11498TIP3   OH234434   0.394   1.275   1.732
11498TIP3    H134435   0.342   1.294   1.810
11498TIP3    H234436   0.381   1.182   1.717
11499TIP3   OH234437   7.421   7.037   1.669
11499TIP3    H134438   7.414   7.132   1.684
11499TIP3    H234439   7.341   7.015   1.621
11500TIP3   OH234440   7.352   2.456   5.006
11500TIP3    H134441   7.331   2.549   4.996
11500TIP3    H234442   7.369   2.445   5.100
11501TIP3   OH234443   5.140   5.871   4.314
11501TIP3    H134444   5.158   5.777   4.311
11501TIP3    H234445   5.055   5.877   4.359
11502TIP3   OH234446   1.991   4.368   5.135
11502TIP3    H134447   2.080   4.376   5.101
11502TIP3    H234448   2.000   4.384   5.229
11503TIP3   OH234449   0.898   4.393   5.305
11503TIP3    H134450   0.919   4.300   5.292
11503TIP3    H234451   0.803   4.395   5.313
11504TIP3   OH234452   0.791   7.774   3.814
11504TIP3    H134453   0.754   7.790   3.728
11504TIP3    H234454   0.882   7.805   3.808
11505TIP3   OH234455   3.252   5.554   3.192
11505TIP3    H134456   3.255   5.625   3.128
11505TIP3    H234457   3.335   5.562   3.240
11506TIP3   OH234458   5.688   4.496   4.452
11506TIP3    H134459   5.720   4.411   4.421
11506TIP3    H234460   5.605   4.508   4.407
11507TIP3   OH234461   6.947   0.150   2.152
11507TIP3    H134462   6.925   0.158   2.059
11507TIP3    H234463   6.924   0.060   2.175
11508TIP3   OH234464   2.545   3.918   1.437
11508TIP3    H134465   2.482   3.958   1.377
11508TIP3    H234466   2.520   3.951   1.524
11509TIP3   OH234467   0.673   3.176   1.084
11509TIP3    H134468   0.755   3.194   1.129
11509TIP3    H234469   0.630   3.262   1.078
11510TIP3   OH234470   2.687   3.218   5.528
11510TIP3    H134471   2.629   3.193   5.456
11510TIP3    H234472   2.676   3.148   5.592
11511TIP3   OH234473   2.216   1.471   4.415
11511TIP3    H134474   2.202   1.562   4.389
11511TIP3    H234475   2.181   1.420   4.343
11512TIP3   OH234476   6.105   7.580   3.951
11512TIP3    H134477   6.089   7.674   3.943
11512TIP3    H234478   6.117   7.566   4.045
11513TIP3   OH234479   6.380   1.297   0.097
11513TIP3    H134480   6.345   1.380   0.128
11513TIP3    H234481   6.475   1.312   0.092
11514TIP3   OH234482   3.048   5.542   3.833
11514TIP3    H134483   3.018   5.467   3.781
11514TIP3    H234484   3.134   5.563   3.797
11515TIP3   OH234485   8.284   3.282   4.701
11515TIP3    H134486   8.251   3.201   4.663
11515TIP3    H234487   8.281   3.345   4.629
11516TIP3   OH234488   2.066   7.609   4.898
11516TIP3    H134489   2.109   7.637   4.979
11516TIP3    H234490   1.990   7.559   4.928
11517TIP3   OH234491   4.531   0.626   5.515
11517TIP3    H134492   4.598   0.680   5.557
11517TIP3    H234493   4.448   0.670   5.536
11518TIP3   OH234494   5.610   3.746   5.476
11518TIP3    H134495   5.566   3.688   5.413
11518TIP3    H234496   5.544   3.762   5.543
11519TIP3   OH234497   4.796   3.415   4.327
11519TIP3    H134498   4.793   3.423   4.422
11519TIP3    H234499   4.878   3.458   4.302
11520TIP3   OH234500   7.679   3.833   4.725
11520TIP3    H134501   7.596   3.832   4.678
11520TIP3    H234502   7.666   3.774   4.799
11521TIP3   OH234503   4.822   6.293   2.245
11521TIP3    H134504   4.814   6.343   2.163
11521TIP3    H234505   4.782   6.209   2.225
11522TIP3   OH234506   5.523   3.015   2.076
11522TIP3    H134507   5.508   2.958   2.152
11522TIP3    H234508   5.451   2.994   2.017
11523TIP3   OH234509   7.851   6.671   1.739
11523TIP3    H134510   7.850   6.765   1.761
11523TIP3    H234511   7.871   6.669   1.646
11524TIP3   OH234512   5.766   4.774   4.367
11524TIP3    H134513   5.689   4.721   4.346
11524TIP3    H234514   5.822   4.717   4.420
11525TIP3   OH234515   7.260   4.535   3.807
11525TIP3    H134516   7.298   4.464   3.755
11525TIP3    H234517   7.333   4.595   3.822
11526TIP3   OH234518   6.018   4.475   4.076
11526TIP3    H134519   6.011   4.564   4.112
11526TIP3    H234520   5.928   4.441   4.078
11527TIP3   OH234521   6.557   7.756   4.341
11527TIP3    H134522   6.466   7.742   4.368
11527TIP3    H234523   6.571   7.851   4.351
11528TIP3   OH234524   4.403   4.123   6.502
11528TIP3    H134525   4.491   4.157   6.482
11528TIP3    H234526   4.358   4.122   6.417
11529TIP3   OH234527   1.971   5.937   4.873
11529TIP3    H134528   1.948   5.915   4.963
11529TIP3    H234529   2.061   5.908   4.863
11530TIP3   OH234530   4.064   0.642   1.662
11530TIP3    H134531   4.005   0.631   1.737
11530TIP3    H234532   4.020   0.707   1.607
11531TIP3   OH234533   4.460   4.743   3.366
11531TIP3    H134534   4.422   4.728   3.453
11531TIP3    H234535   4.543   4.694   3.367
11532TIP3   OH234536   1.314   5.872   5.628
11532TIP3    H134537   1.341   5.956   5.666
11532TIP3    H234538   1.221   5.884   5.609
11533TIP3   OH234539   4.553   1.624   0.957
11533TIP3    H134540   4.476   1.679   0.960
11533TIP3    H234541   4.540   1.566   0.882
11534TIP3   OH234542   1.402   1.264   5.611
11534TIP3    H134543   1.343   1.274   5.686
11534TIP3    H234544   1.375   1.182   5.570
11535TIP3   OH234545   2.557   6.968   4.124
11535TIP3    H134546   2.548   7.003   4.035
11535TIP3    H234547   2.517   7.034   4.180
11536TIP3   OH234548   0.575   4.951   4.825
11536TIP3    H134549   0.543   4.896   4.897
11536TIP3    H234550   0.659   4.984   4.856
11537TIP3   OH234551   6.429   6.239   4.871
11537TIP3    H134552   6.338   6.252   4.896
11537TIP3    H234553   6.448   6.149   4.897
11538TIP3   OH234554   0.074   5.114   5.066
11538TIP3    H134555   0.053   5.088   4.976
11538TIP3    H234556  -0.007   5.152   5.099
11539TIP3   OH234557   2.824   5.769   1.894
11539TIP3    H134558   2.750   5.793   1.951
11539TIP3    H234559   2.900   5.808   1.937
11540TIP3   OH234560   5.877   4.614   5.970
11540TIP3    H134561   5.874   4.614   6.066
11540TIP3    H234562   5.896   4.705   5.947
11541TIP3   OH234563   7.389   4.727   2.459
11541TIP3    H134564   7.389   4.702   2.367
11541TIP3    H234565   7.381   4.823   2.458
11542TIP3   OH234566   3.688   7.325   3.967
11542TIP3    H134567   3.694   7.373   4.049
11542TIP3    H234568   3.699   7.233   3.992
11543TIP3   OH234569   3.843   7.371   3.114
11543TIP3    H134570   3.826   7.277   3.122
11543TIP3    H234571   3.833   7.405   3.204
11544TIP3   OH234572   6.597   2.562   1.390
11544TIP3    H134573   6.656   2.493   1.418
11544TIP3    H234574   6.570   2.605   1.471
11545TIP3   OH234575   8.226   6.313   6.303
11545TIP3    H134576   8.263   6.345   6.386
11545TIP3    H234577   8.152   6.259   6.329
11546TIP3   OH234578   1.304   7.586   2.546
11546TIP3    H134579   1.242   7.647   2.506
11546TIP3    H234580   1.287   7.592   2.640
11547TIP3   OH234581   1.392   3.577   1.604
11547TIP3    H134582   1.368   3.638   1.534
11547TIP3    H234583   1.315   3.521   1.614
11548TIP3   OH234584   6.211   4.213   4.018
11548TIP3    H134585   6.228   4.127   3.979
11548TIP3    H234586   6.293   4.261   4.008
11549TIP3   OH234587   5.238   5.318   4.227
11549TIP3    H134588   5.317   5.290   4.273
11549TIP3    H234589   5.172   5.254   4.253
11550TIP3   OH234590   7.376   7.867   6.315
11550TIP3    H134591   7.432   7.792   6.334
11550TIP3    H234592   7.416   7.940   6.363
11551TIP3   OH234593   6.426   7.687   6.814
11551TIP3    H134594   6.419   7.616   6.877
11551TIP3    H234595   6.516   7.718   6.822
11552TIP3   OH234596   5.245   5.670   5.765
11552TIP3    H134597   5.291   5.699   5.844
11552TIP3    H234598   5.308   5.613   5.721
11553TIP3   OH234599   4.579   3.930   6.347
11553TIP3    H134600   4.507   3.873   6.374
11553TIP3    H234601   4.547   3.972   6.267
11554TIP3   OH234602   1.874   5.369   6.355
11554TIP3    H134603   1.942   5.351   6.289
11554TIP3    H234604   1.912   5.337   6.437
11555TIP3   OH234605   3.265   1.811   6.433
11555TIP3    H134606   3.345   1.863   6.423
11555TIP3    H234607   3.240   1.787   6.344
11556TIP3   OH234608   6.079   5.286   3.206
11556TIP3    H134609   5.987   5.311   3.194
11556TIP3    H234610   6.124   5.320   3.129
11557TIP3   OH234611   8.021   3.202   6.573
11557TIP3    H134612   8.065   3.287   6.576
11557TIP3    H234613   8.068   3.148   6.636
11558TIP3   OH234614   5.377   4.047   6.583
11558TIP3    H134615   5.334   3.978   6.532
11558TIP3    H234616   5.308   4.080   6.641
11559TIP3   OH234617   2.423   6.811   3.276
11559TIP3    H134618   2.335   6.840   3.300
11559TIP3    H234619   2.450   6.753   3.348
11560TIP3   OH234620   6.309   7.577   0.605
11560TIP3    H134621   6.397   7.613   0.615
11560TIP3    H234622   6.252   7.653   0.594
11561TIP3   OH234623   5.429   0.776   4.191
11561TIP3    H134624   5.442   0.857   4.240
11561TIP3    H234625   5.403   0.712   4.257
11562TIP3   OH234626   7.539   2.862   5.328
11562TIP3    H134627   7.587   2.836   5.407
11562TIP3    H234628   7.493   2.942   5.353
11563TIP3   OH234629   5.465   1.584   5.747
11563TIP3    H134630   5.404   1.643   5.791
11563TIP3    H234631   5.471   1.508   5.805
11564TIP3   OH234632   4.844   1.695   3.476
11564TIP3    H134633   4.854   1.614   3.526
11564TIP3    H234634   4.850   1.669   3.385
11565TIP3   OH234635   2.081   2.491   4.375
11565TIP3    H134636   2.136   2.567   4.389
11565TIP3    H234637   2.139   2.426   4.336
11566TIP3   OH234638   4.881   5.965   3.025
11566TIP3    H134639   4.912   6.052   3.048
11566TIP3    H234640   4.876   5.965   2.930
11567TIP3   OH234641   3.859   1.113   2.991
11567TIP3    H134642   3.790   1.149   2.936
11567TIP3    H234643   3.931   1.176   2.984
11568TIP3   OH234644   0.222   2.809   0.329
11568TIP3    H134645   0.253   2.861   0.403
11568TIP3    H234646   0.246   2.860   0.252
11569TIP3   OH234647   6.924   2.064   2.841
11569TIP3    H134648   7.008   2.110   2.836
11569TIP3    H234649   6.866   2.125   2.886
11570TIP3   OH234650   3.775   1.149   4.461
11570TIP3    H134651   3.777   1.193   4.546
11570TIP3    H234652   3.829   1.071   4.472
11571TIP3   OH234653   3.123   1.245   1.804
11571TIP3    H134654   3.046   1.217   1.854
11571TIP3    H234655   3.149   1.167   1.755
11572TIP3   OH234656   7.574   4.308   4.378
11572TIP3    H134657   7.565   4.394   4.419
11572TIP3    H234658   7.657   4.274   4.412
11573TIP3   OH234659   8.018   1.178   5.593
11573TIP3    H134660   7.999   1.099   5.642
11573TIP3    H234661   7.934   1.202   5.553
11574TIP3   OH234662   0.728   3.021   0.813
11574TIP3    H134663   0.757   3.080   0.743
11574TIP3    H234664   0.759   3.062   0.894
11575TIP3   OH234665   3.761   0.937   1.662
11575TIP3    H134666   3.806   0.927   1.746
11575TIP3    H234667   3.805   0.876   1.604
11576TIP3   OH234668   0.758   3.948   1.469
11576TIP3    H134669   0.769   3.857   1.495
11576TIP3    H234670   0.663   3.958   1.458
11577TIP3   OH234671   7.188   6.226   4.921
11577TIP3    H134672   7.170   6.317   4.896
11577TIP3    H234673   7.277   6.209   4.891
11578TIP3   OH234674   0.117   2.457   3.810
11578TIP3    H134675   0.056   2.383   3.810
11578TIP3    H234676   0.171   2.444   3.888
11579TIP3   OH234677   1.347   7.446   3.619
11579TIP3    H134678   1.361   7.357   3.653
11579TIP3    H234679   1.323   7.498   3.696
11580TIP3   OH234680   4.639   2.490   6.508
11580TIP3    H134681   4.558   2.445   6.529
11580TIP3    H234682   4.653   2.550   6.582
11581TIP3   OH234683   6.221   0.721   2.375
11581TIP3    H134684   6.289   0.771   2.421
11581TIP3    H234685   6.266   0.642   2.344
11582TIP3   OH234686   5.645   1.482   6.556
11582TIP3    H134687   5.724   1.448   6.597
11582TIP3    H234688   5.671   1.569   6.523
11583TIP3   OH234689   3.148   6.594   0.485
11583TIP3    H134690   3.115   6.684   0.480
11583TIP3    H234691   3.211   6.596   0.557
11584TIP3   OH234692   2.826   4.787   2.301
11584TIP3    H134693   2.831   4.692   2.305
11584TIP3    H234694   2.829   4.816   2.392
11585TIP3   OH234695   1.812   1.470   3.919
11585TIP3    H134696   1.791   1.494   3.828
11585TIP3    H234697   1.864   1.543   3.951
11586TIP3   OH234698   1.004   3.961   5.352
11586TIP3    H134699   0.998   3.918   5.266
11586TIP3    H234700   1.039   4.048   5.332
11587TIP3   OH234701   0.710   7.819   3.563
11587TIP3    H134702   0.627   7.860   3.588
11587TIP3    H234703   0.731   7.859   3.478
11588TIP3   OH234704   1.925   7.581   5.864
11588TIP3    H134705   1.887   7.506   5.818
11588TIP3    H234706   1.865   7.653   5.847
11589TIP3   OH234707   1.884   0.106   0.915
11589TIP3    H134708   1.958   0.146   0.870
11589TIP3    H234709   1.807   0.135   0.866
11590TIP3   OH234710   2.418   3.949   4.712
11590TIP3    H134711   2.357   3.990   4.650
11590TIP3    H234712   2.480   4.019   4.734
11591TIP3   OH234713   0.153   4.631   3.428
11591TIP3    H134714   0.232   4.679   3.403
11591TIP3    H234715   0.186   4.550   3.469
11592TIP3   OH234716   2.556   2.437   4.717
11592TIP3    H134717   2.593   2.525   4.722
11592TIP3    H234718   2.465   2.447   4.746
11593TIP3   OH234719   1.481   2.663   4.828
11593TIP3    H134720   1.551   2.645   4.765
11593TIP3    H234721   1.431   2.582   4.832
11594TIP3   OH234722   2.837   6.438   3.252
11594TIP3    H134723   2.895   6.479   3.316
11594TIP3    H234724   2.827   6.504   3.183
11595TIP3   OH234725   7.443   3.074   3.315
11595TIP3    H134726   7.415   2.992   3.356
11595TIP3    H234727   7.389   3.142   3.356
11596TIP3   OH234728   4.804   7.255   0.037
11596TIP3    H134729   4.774   7.319  -0.028
11596TIP3    H234730   4.738   7.185   0.034
11597TIP3   OH234731   7.585   0.530   5.688
11597TIP3    H134732   7.572   0.623   5.708
11597TIP3    H234733   7.669   0.508   5.728
11598TIP3   OH234734   7.674   6.327   5.377
11598TIP3    H134735   7.605   6.390   5.353
11598TIP3    H234736   7.727   6.374   5.441
11599TIP3   OH234737   5.715   4.352   5.536
11599TIP3    H134738   5.803   4.354   5.500
11599TIP3    H234739   5.690   4.259   5.534
11600TIP3   OH234740   0.028   1.552   6.226
11600TIP3    H134741   0.041   1.535   6.319
11600TIP3    H234742   0.053   1.644   6.215
11601TIP3   OH234743   0.955   3.980   1.937
11601TIP3    H134744   0.899   3.996   1.861
11601TIP3    H234745   1.015   4.054   1.938
11602TIP3   OH234746   6.324   5.881   5.137
11602TIP3    H134747   6.229   5.884   5.132
11602TIP3    H234748   6.345   5.906   5.226
11603TIP3   OH234749   2.839   3.308   1.723
11603TIP3    H134750   2.825   3.214   1.729
11603TIP3    H234751   2.758   3.342   1.687
11604TIP3   OH234752   3.595   0.445   6.325
11604TIP3    H134753   3.526   0.387   6.359
11604TIP3    H234754   3.664   0.385   6.296
11605TIP3   OH234755   0.940   5.321   5.865
11605TIP3    H134756   0.903   5.263   5.932
11605TIP3    H234757   0.935   5.270   5.784
11606TIP3   OH234758   6.728  -0.009   6.671
11606TIP3    H134759   6.814   0.028   6.689
11606TIP3    H234760   6.691  -0.029   6.757
11607TIP3   OH234761   5.630   3.314   3.785
11607TIP3    H134762   5.618   3.259   3.863
11607TIP3    H234763   5.649   3.252   3.715
11608TIP3   OH234764   5.057   1.167   6.693
11608TIP3    H134765   5.105   1.231   6.745
11608TIP3    H234766   5.004   1.220   6.633
11609TIP3   OH234767   5.657   4.941   5.268
11609TIP3    H134768   5.703   4.929   5.351
11609TIP3    H234769   5.679   5.030   5.241
11610TIP3   OH234770   0.100   3.496   0.052
11610TIP3    H134771   0.047   3.524   0.127
11610TIP3    H234772   0.190   3.516   0.078
11611TIP3   OH234773   4.764   1.576   0.215
11611TIP3    H134774   4.817   1.510   0.170
11611TIP3    H234775   4.747   1.642   0.149
11612TIP3   OH234776   5.495   5.363   2.090
11612TIP3    H134777   5.555   5.338   2.160
11612TIP3    H234778   5.414   5.316   2.110
11613TIP3   OH234779   2.186   7.352   1.432
11613TIP3    H134780   2.141   7.411   1.373
11613TIP3    H234781   2.163   7.383   1.520
11614TIP3   OH234782   3.871   6.617   5.044
11614TIP3    H134783   3.954   6.660   5.022
11614TIP3    H234784   3.838   6.586   4.959
11615TIP3   OH234785   1.936   4.451   4.534
11615TIP3    H134786   2.027   4.445   4.503
11615TIP3    H234787   1.898   4.366   4.511
11616TIP3   OH234788   6.529   1.846   4.995
11616TIP3    H134789   6.550   1.760   5.031
11616TIP3    H234790   6.489   1.827   4.910
11617TIP3   OH234791   3.363   0.459   5.682
11617TIP3    H134792   3.311   0.457   5.602
11617TIP3    H234793   3.426   0.531   5.669
11618TIP3   OH234794   3.831   2.107   1.438
11618TIP3    H134795   3.920   2.072   1.446
11618TIP3    H234796   3.819   2.160   1.516
11619TIP3   OH234797   1.057   5.189   5.211
11619TIP3    H134798   1.040   5.245   5.135
11619TIP3    H234799   1.077   5.250   5.282
11620TIP3   OH234800   0.551   7.366   0.751
11620TIP3    H134801   0.640   7.382   0.782
11620TIP3    H234802   0.545   7.416   0.669
11621TIP3   OH234803   7.992   5.381   5.171
11621TIP3    H134804   7.900   5.365   5.191
11621TIP3    H234805   7.992   5.467   5.128
11622TIP3   OH234806   1.656   5.179   6.288
11622TIP3    H134807   1.736   5.205   6.333
11622TIP3    H234808   1.646   5.243   6.217
11623TIP3   OH234809   3.868   6.768   4.335
11623TIP3    H134810   3.882   6.737   4.246
11623TIP3    H234811   3.872   6.689   4.389
11624TIP3   OH234812   2.378   1.668   3.037
11624TIP3    H134813   2.395   1.690   2.945
11624TIP3    H234814   2.297   1.714   3.058
11625TIP3   OH234815   1.685   1.807   0.110
11625TIP3    H134816   1.661   1.715   0.094
11625TIP3    H234817   1.680   1.848   0.024
11626TIP3   OH234818   2.703   7.161   1.840
11626TIP3    H134819   2.618   7.160   1.884
11626TIP3    H234820   2.735   7.071   1.848
11627TIP3   OH234821   8.079   1.112   6.561
11627TIP3    H134822   8.030   1.131   6.481
11627TIP3    H234823   8.014   1.114   6.631
11628TIP3   OH234824   7.148   0.174   4.251
11628TIP3    H134825   7.227   0.192   4.302
11628TIP3    H234826   7.107   0.100   4.296
11629TIP3   OH234827   2.950   2.821   6.448
11629TIP3    H134828   2.940   2.727   6.441
11629TIP3    H234829   2.862   2.854   6.468
11630TIP3   OH234830   2.338   7.737   2.538
11630TIP3    H134831   2.360   7.666   2.598
11630TIP3    H234832   2.245   7.754   2.554
11631TIP3   OH234833   1.704   5.912   5.841
11631TIP3    H134834   1.655   5.834   5.814
11631TIP3    H234835   1.720   5.899   5.935
11632TIP3   OH234836   2.662   4.268   4.604
11632TIP3    H134837   2.728   4.236   4.543
11632TIP3    H234838   2.710   4.284   4.685
11633TIP3   OH234839   8.091   2.606   1.415
11633TIP3    H134840   8.155   2.546   1.378
11633TIP3    H234841   8.006   2.563   1.402
11634TIP3   OH234842   4.171   1.782   4.311
11634TIP3    H134843   4.130   1.757   4.228
11634TIP3    H234844   4.249   1.725   4.317
11635TIP3   OH234845   2.214   5.612   4.194
11635TIP3    H134846   2.189   5.527   4.230
11635TIP3    H234847   2.288   5.641   4.248
11636TIP3   OH234848   6.965   4.625   6.076
11636TIP3    H134849   6.878   4.586   6.081
11636TIP3    H234850   6.972   4.657   5.986
11637TIP3   OH234851   5.986   0.448   0.980
11637TIP3    H134852   6.067   0.491   1.008
11637TIP3    H234853   5.916   0.502   1.017
11638TIP3   OH234854   5.290   4.132   1.886
11638TIP3    H134855   5.361   4.186   1.849
11638TIP3    H234856   5.308   4.130   1.980
11639TIP3   OH234857   2.946   1.404   1.175
11639TIP3    H134858   3.031   1.363   1.156
11639TIP3    H234859   2.917   1.363   1.256
11640TIP3   OH234860   2.198   6.502   6.170
11640TIP3    H134861   2.234   6.422   6.132
11640TIP3    H234862   2.224   6.499   6.262
11641TIP3   OH234863   1.441   6.635   6.023
11641TIP3    H134864   1.452   6.543   6.049
11641TIP3    H234865   1.528   6.674   6.035
11642TIP3   OH234866   5.552   2.709   2.113
11642TIP3    H134867   5.551   2.640   2.047
11642TIP3    H234868   5.464   2.709   2.150
11643TIP3   OH234869   3.743   2.420   6.157
11643TIP3    H134870   3.664   2.458   6.118
11643TIP3    H234871   3.815   2.471   6.120
11644TIP3   OH234872   7.404   3.640   4.179
11644TIP3    H134873   7.353   3.572   4.135
11644TIP3    H234874   7.417   3.605   4.268
11645TIP3   OH234875   7.049   5.030   2.758
11645TIP3    H134876   7.082   5.105   2.808
11645TIP3    H234877   7.044   5.062   2.668
11646TIP3   OH234878   2.680   6.350   4.989
11646TIP3    H134879   2.614   6.384   4.929
11646TIP3    H234880   2.669   6.404   5.068
11647TIP3   OH234881   8.187   6.654   3.549
11647TIP3    H134882   8.117   6.699   3.597
11647TIP3    H234883   8.142   6.607   3.479
11648TIP3   OH234884   3.273   2.758   1.031
11648TIP3    H134885   3.315   2.686   1.078
11648TIP3    H234886   3.289   2.835   1.085
11649TIP3   OH234887   5.032   5.612   3.863
11649TIP3    H134888   5.002   5.687   3.812
11649TIP3    H234889   5.121   5.595   3.832
11650TIP3   OH234890   6.835   0.674   2.779
11650TIP3    H134891   6.801   0.600   2.831
11650TIP3    H234892   6.843   0.639   2.690
11651TIP3   OH234893   7.334   1.964   5.419
11651TIP3    H134894   7.403   2.023   5.450
11651TIP3    H234895   7.349   1.882   5.466
11652TIP3   OH234896   3.332   3.476   0.194
11652TIP3    H134897   3.388   3.550   0.217
11652TIP3    H234898   3.246   3.515   0.176
11653TIP3   OH234899   4.672   7.455   4.223
11653TIP3    H134900   4.716   7.370   4.232
11653TIP3    H234901   4.639   7.455   4.133
11654TIP3   OH234902   1.989   6.157   1.128
11654TIP3    H134903   2.019   6.210   1.054
11654TIP3    H234904   1.957   6.076   1.089
11655TIP3   OH234905   6.327   5.487   3.310
11655TIP3    H134906   6.356   5.400   3.336
11655TIP3    H234907   6.235   5.491   3.335
11656TIP3   OH234908   7.336   1.195   2.769
11656TIP3    H134909   7.307   1.215   2.679
11656TIP3    H234910   7.298   1.266   2.822
11657TIP3   OH234911   5.615   4.196   6.392
11657TIP3    H134912   5.649   4.155   6.313
11657TIP3    H234913   5.544   4.253   6.361
11658TIP3   OH234914   7.915   2.542   6.434
11658TIP3    H134915   7.876   2.463   6.397
11658TIP3    H234916   7.952   2.588   6.358
11659TIP3   OH234917   3.441   3.275   3.677
11659TIP3    H134918   3.397   3.195   3.705
11659TIP3    H234919   3.372   3.328   3.637
11660TIP3   OH234920   6.270   1.064   4.254
11660TIP3    H134921   6.226   0.985   4.224
11660TIP3    H234922   6.340   1.078   4.190
11661TIP3   OH234923   1.071   5.804   1.902
11661TIP3    H134924   1.135   5.875   1.897
11661TIP3    H234925   1.122   5.725   1.890
11662TIP3   OH234926   7.045   1.531   0.693
11662TIP3    H134927   7.035   1.470   0.766
11662TIP3    H234928   7.127   1.577   0.710
11663TIP3   OH234929   3.427   3.879   4.904
11663TIP3    H134930   3.401   3.798   4.948
11663TIP3    H234931   3.515   3.897   4.937
11664TIP3   OH234932   0.710   7.822   1.694
11664TIP3    H134933   0.704   7.889   1.762
11664TIP3    H234934   0.666   7.860   1.618
11665TIP3   OH234935   0.962   5.399   2.407
11665TIP3    H134936   0.915   5.380   2.326
11665TIP3    H234937   0.940   5.326   2.466
11666TIP3   OH234938   6.433   3.864   5.685
11666TIP3    H134939   6.519   3.867   5.728
11666TIP3    H234940   6.372   3.848   5.756
11667TIP3   OH234941   1.838   0.491   1.438
11667TIP3    H134942   1.797   0.457   1.359
11667TIP3    H234943   1.810   0.430   1.507
11668TIP3   OH234944   6.345   2.056   4.628
11668TIP3    H134945   6.439   2.037   4.637
11668TIP3    H234946   6.330   2.129   4.689
11669TIP3   OH234947   5.235  -0.013   3.252
11669TIP3    H134948   5.314   0.039   3.268
11669TIP3    H234949   5.249  -0.055   3.167
11670TIP3   OH234950   1.222   5.618   2.404
11670TIP3    H134951   1.239   5.710   2.425
11670TIP3    H234952   1.300   5.588   2.358
11671TIP3   OH234953   3.134   1.464   6.211
11671TIP3    H134954   3.049   1.447   6.172
11671TIP3    H234955   3.177   1.524   6.149
11672TIP3   OH234956   5.961   3.355   5.711
11672TIP3    H134957   5.983   3.262   5.710
11672TIP3    H234958   6.023   3.395   5.772
11673TIP3   OH234959   4.078   4.185   5.353
11673TIP3    H134960   4.152   4.212   5.408
11673TIP3    H234961   4.002   4.195   5.411
11674TIP3   OH234962   6.931   3.330   1.387
11674TIP3    H134963   6.941   3.237   1.366
11674TIP3    H234964   6.905   3.331   1.479
11675TIP3   OH234965   4.886   5.881   0.640
11675TIP3    H134966   4.917   5.932   0.565
11675TIP3    H234967   4.800   5.850   0.614
11676TIP3   OH234968   8.025   7.012   0.202
11676TIP3    H134969   7.961   7.007   0.273
11676TIP3    H234970   7.984   7.070   0.137
11677TIP3   OH234971   2.446   4.104   5.525
11677TIP3    H134972   2.459   4.012   5.505
11677TIP3    H234973   2.368   4.129   5.475
11678TIP3   OH234974   8.029   1.894   6.055
11678TIP3    H134975   8.114   1.920   6.091
11678TIP3    H234976   8.051   1.849   5.973
11679TIP3   OH234977   7.380   5.390   3.884
11679TIP3    H134978   7.413   5.440   3.810
11679TIP3    H234979   7.450   5.328   3.904
11680TIP3   OH234980   8.036   1.828   3.669
11680TIP3    H134981   7.956   1.792   3.631
11680TIP3    H234982   8.106   1.794   3.614
11681TIP3   OH234983   7.357   1.298   4.312
11681TIP3    H134984   7.338   1.260   4.226
11681TIP3    H234985   7.339   1.392   4.301
11682TIP3   OH234986   1.708   0.241   2.974
11682TIP3    H134987   1.743   0.233   3.063
11682TIP3    H234988   1.613   0.232   2.986
11683TIP3   OH234989   7.273   7.517   2.493
11683TIP3    H134990   7.362   7.531   2.525
11683TIP3    H234991   7.283   7.500   2.399
11684TIP3   OH234992   6.168   0.051   5.347
11684TIP3    H134993   6.249   0.024   5.390
11684TIP3    H234994   6.121   0.102   5.413
11685TIP3   OH234995   8.326   5.690   0.764
11685TIP3    H134996   8.275   5.707   0.685
11685TIP3    H234997   8.274   5.627   0.813
11686TIP3   OH234998   2.179   7.783   1.250
11686TIP3    H134999   2.193   7.873   1.280
11686TIP3    H235000   2.107   7.790   1.188
11687TIP3   OH235001   0.468   6.194   6.422
11687TIP3    H135002   0.430   6.177   6.509
11687TIP3    H235003   0.501   6.283   6.427
11688TIP3   OH235004   5.971   2.586   3.329
11688TIP3    H135005   5.908   2.550   3.268
11688TIP3    H235006   6.051   2.598   3.277
11689TIP3   OH235007   7.268   3.581   2.928
11689TIP3    H135008   7.206   3.551   2.861
11689TIP3    H235009   7.268   3.511   2.993
11690TIP3   OH235010   7.047   6.247   6.363
11690TIP3    H135011   7.050   6.211   6.452
11690TIP3    H235012   6.989   6.323   6.370
11691TIP3   OH235013   8.085   7.715   2.240
11691TIP3    H135014   8.086   7.771   2.162
11691TIP3    H235015   8.011   7.748   2.292
11692TIP3   OH235016   7.563   6.807   6.794
11692TIP3    H135017   7.642   6.801   6.847
11692TIP3    H235018   7.557   6.899   6.770
11693TIP3   OH235019   8.075   3.923   4.785
11693TIP3    H135020   8.057   3.840   4.830
11693TIP3    H235021   8.130   3.898   4.710
11694TIP3   OH235022   3.437   3.442   4.290
11694TIP3    H135023   3.501   3.420   4.222
11694TIP3    H235024   3.420   3.359   4.335
11695TIP3   OH235025   0.147   1.507   4.928
11695TIP3    H135026   0.052   1.516   4.916
11695TIP3    H235027   0.183   1.590   4.897
11696TIP3   OH235028   5.083   4.227   6.160
11696TIP3    H135029   5.108   4.279   6.236
11696TIP3    H235030   5.149   4.248   6.094
11697TIP3   OH235031   4.645   2.772   3.506
11697TIP3    H135032   4.642   2.679   3.532
11697TIP3    H235033   4.555   2.792   3.478
11698TIP3   OH235034   6.210   3.078   3.807
11698TIP3    H135035   6.285   3.057   3.751
11698TIP3    H235036   6.207   3.007   3.871
11699TIP3   OH235037   2.308   5.478   4.962
11699TIP3    H135038   2.258   5.559   4.974
11699TIP3    H235039   2.372   5.498   4.894
11700TIP3   OH235040   7.450   0.895   1.071
11700TIP3    H135041   7.537   0.925   1.096
11700TIP3    H235042   7.465   0.809   1.032
11701TIP3   OH235043   7.602   6.073   1.836
11701TIP3    H135044   7.685   6.073   1.790
11701TIP3    H235045   7.543   6.123   1.780
11702TIP3   OH235046   2.544   5.013   2.559
11702TIP3    H135047   2.458   5.037   2.593
11702TIP3    H235048   2.591   4.978   2.635
11703TIP3   OH235049   3.585   3.356   0.432
11703TIP3    H135050   3.644   3.349   0.358
11703TIP3    H235051   3.637   3.397   0.502
11704TIP3   OH235052   4.870   7.864   6.194
11704TIP3    H135053   4.836   7.952   6.178
11704TIP3    H235054   4.953   7.861   6.146
11705TIP3   OH235055   4.709   1.497   1.136
11705TIP3    H135056   4.648   1.561   1.099
11705TIP3    H235057   4.795   1.533   1.116
11706TIP3   OH235058   1.790   6.846   2.124
11706TIP3    H135059   1.709   6.833   2.074
11706TIP3    H235060   1.857   6.860   2.058
11707TIP3   OH235061   3.157   0.158   4.815
11707TIP3    H135062   3.157   0.194   4.904
11707TIP3    H235063   3.206   0.222   4.764
11708TIP3   OH235064   3.397   6.110   5.302
11708TIP3    H135065   3.395   6.199   5.268
11708TIP3    H235066   3.481   6.074   5.271
11709TIP3   OH235067   3.946   4.437   5.136
11709TIP3    H135068   4.012   4.466   5.199
11709TIP3    H235069   3.972   4.478   5.054
11710TIP3   OH235070   7.528   7.265   0.992
11710TIP3    H135071   7.443   7.221   0.993
11710TIP3    H235072   7.592   7.194   0.984
11711TIP3   OH235073   0.302   3.024   4.329
11711TIP3    H135074   0.260   3.025   4.415
11711TIP3    H235075   0.345   2.939   4.325
11712TIP3   OH235076   1.815   0.074   5.808
11712TIP3    H135077   1.748   0.066   5.741
11712TIP3    H235078   1.778   0.032   5.885
11713TIP3   OH235079   6.869   0.442   2.022
11713TIP3    H135080   6.858   0.398   1.938
11713TIP3    H235081   6.800   0.508   2.024
11714TIP3   OH235082   0.926   4.845   6.848
11714TIP3    H135083   0.982   4.908   6.803
11714TIP3    H235084   0.984   4.772   6.870
11715TIP3   OH235085   1.632   6.638   6.735
11715TIP3    H135086   1.674   6.701   6.676
11715TIP3    H235087   1.697   6.623   6.804
11716TIP3   OH235088   0.629   0.660   1.003
11716TIP3    H135089   0.674   0.608   1.070
11716TIP3    H235090   0.562   0.602   0.969
11717TIP3   OH235091   8.147   4.505   2.565
11717TIP3    H135092   8.144   4.580   2.506
11717TIP3    H235093   8.238   4.476   2.565
11718TIP3   OH235094   6.238   2.061   6.386
11718TIP3    H135095   6.166   2.092   6.332
11718TIP3    H235096   6.288   2.002   6.329
11719TIP3   OH235097   4.714   2.431   0.551
11719TIP3    H135098   4.750   2.344   0.532
11719TIP3    H235099   4.702   2.470   0.465
11720TIP3   OH235100   1.664   3.710   3.900
11720TIP3    H135101   1.621   3.792   3.876
11720TIP3    H235102   1.725   3.694   3.828
11721TIP3   OH235103   0.878   2.165   4.937
11721TIP3    H135104   0.872   2.243   4.883
11721TIP3    H235105   0.788   2.141   4.956
11722TIP3   OH235106   4.333   1.816   0.473
11722TIP3    H135107   4.420   1.826   0.434
11722TIP3    H235108   4.341   1.856   0.560
11723TIP3   OH235109   0.245   1.270   0.178
11723TIP3    H135110   0.207   1.185   0.202
11723TIP3    H235111   0.295   1.252   0.098
11724TIP3   OH235112   5.072   3.334   4.667
11724TIP3    H135113   4.987   3.290   4.658
11724TIP3    H235114   5.051   3.424   4.692
11725TIP3   OH235115   3.779   6.288   6.339
11725TIP3    H135116   3.867   6.271   6.305
11725TIP3    H235117   3.721   6.273   6.264
11726TIP3   OH235118   7.738   0.907   6.432
11726TIP3    H135119   7.749   0.812   6.435
11726TIP3    H235120   7.745   0.936   6.523
11727TIP3   OH235121   4.214   0.162   5.727
11727TIP3    H135122   4.195   0.142   5.818
11727TIP3    H235123   4.191   0.082   5.679
11728TIP3   OH235124   3.746   3.924   5.697
11728TIP3    H135125   3.781   3.925   5.608
11728TIP3    H235126   3.807   3.979   5.747
11729TIP3   OH235127   5.297   4.927   0.363
11729TIP3    H135128   5.295   4.956   0.272
11729TIP3    H235129   5.365   4.860   0.366
11730TIP3   OH235130   6.629   4.892   1.742
11730TIP3    H135131   6.573   4.858   1.811
11730TIP3    H235132   6.578   4.881   1.662
11731TIP3   OH235133   6.086   5.447   3.690
11731TIP3    H135134   6.142   5.376   3.658
11731TIP3    H235135   6.036   5.408   3.762
11732TIP3   OH235136   1.102   4.328   3.032
11732TIP3    H135137   1.030   4.265   3.037
11732TIP3    H235138   1.123   4.332   2.939
11733TIP3   OH235139   5.308   3.490   5.706
11733TIP3    H135140   5.260   3.440   5.640
11733TIP3    H235141   5.391   3.443   5.716
11734TIP3   OH235142   5.881   3.729   6.757
11734TIP3    H135143   5.785   3.730   6.757
11734TIP3    H235144   5.907   3.813   6.720
11735TIP3   OH235145   0.404   4.435   6.121
11735TIP3    H135146   0.375   4.518   6.084
11735TIP3    H235147   0.462   4.459   6.193
11736TIP3   OH235148   7.723   6.638   6.635
11736TIP3    H135149   7.655   6.672   6.693
11736TIP3    H235150   7.778   6.584   6.692
11737TIP3   OH235151   6.453   7.723   1.496
11737TIP3    H135152   6.464   7.676   1.413
11737TIP3    H235153   6.541   7.727   1.533
11738TIP3   OH235154   6.406   0.979   3.934
11738TIP3    H135155   6.346   1.048   3.904
11738TIP3    H235156   6.357   0.898   3.920
11739TIP3   OH235157   2.616   5.395   6.485
11739TIP3    H135158   2.699   5.442   6.486
11739TIP3    H235159   2.641   5.303   6.485
11740TIP3   OH235160   2.913   3.479   1.479
11740TIP3    H135161   3.003   3.452   1.462
11740TIP3    H235162   2.862   3.439   1.408
11741TIP3   OH235163   6.050   5.965   1.738
11741TIP3    H135164   5.985   5.988   1.672
11741TIP3    H235165   6.008   5.984   1.822
11742TIP3   OH235166   5.193   1.829   4.194
11742TIP3    H135167   5.172   1.743   4.159
11742TIP3    H235168   5.205   1.884   4.116
11743TIP3   OH235169   0.428   2.934   5.846
11743TIP3    H135170   0.463   2.975   5.925
11743TIP3    H235171   0.506   2.907   5.797
11744TIP3   OH235172   2.547   5.512   3.690
11744TIP3    H135173   2.586   5.596   3.715
11744TIP3    H235174   2.458   5.535   3.664
11745TIP3   OH235175   6.837   2.330   3.843
11745TIP3    H135176   6.828   2.250   3.793
11745TIP3    H235177   6.779   2.318   3.919
11746TIP3   OH235178   2.054   6.598   1.484
11746TIP3    H135179   2.086   6.688   1.491
11746TIP3    H235180   2.097   6.552   1.557
11747TIP3   OH235181   5.308   3.823   0.069
11747TIP3    H135182   5.377   3.873   0.112
11747TIP3    H235183   5.227   3.871   0.090
11748TIP3   OH235184   1.846   3.342   0.858
11748TIP3    H135185   1.840   3.316   0.767
11748TIP3    H235186   1.898   3.422   0.858
11749TIP3   OH235187   2.639   5.978   3.856
11749TIP3    H135188   2.625   5.887   3.830
11749TIP3    H235189   2.598   5.985   3.942
11750TIP3   OH235190   7.670   4.691   2.213
11750TIP3    H135191   7.648   4.784   2.212
11750TIP3    H235192   7.585   4.647   2.211
11751TIP3   OH235193   0.640   4.910   0.238
11751TIP3    H135194   0.600   4.826   0.263
11751TIP3    H235195   0.575   4.976   0.261
11752TIP3   OH235196   0.937   5.519   4.378
11752TIP3    H135197   0.846   5.494   4.360
11752TIP3    H235198   0.990   5.450   4.340
11753TIP3   OH235199   3.365   6.862   6.760
11753TIP3    H135200   3.392   6.817   6.680
11753TIP3    H235201   3.346   6.952   6.732
11754TIP3   OH235202   4.660   5.377   2.678
11754TIP3    H135203   4.693   5.434   2.747
11754TIP3    H235204   4.628   5.437   2.610
11755TIP3   OH235205   2.232   1.086   5.385
11755TIP3    H135206   2.165   1.050   5.327
11755TIP3    H235207   2.284   1.144   5.328
11756TIP3   OH235208   4.085   5.025   2.383
11756TIP3    H135209   4.009   5.044   2.328
11756TIP3    H235210   4.062   5.063   2.469
11757TIP3   OH235211   8.090   5.662   1.581
11757TIP3    H135212   8.000   5.644   1.609
11757TIP3    H235213   8.089   5.645   1.487
11758TIP3   OH235214   7.090   3.165   6.135
11758TIP3    H135215   7.070   3.254   6.107
11758TIP3    H235216   7.153   3.175   6.207
11759TIP3   OH235217   7.293   5.448   2.145
11759TIP3    H135218   7.329   5.498   2.072
11759TIP3    H235219   7.234   5.385   2.105
11760TIP3   OH235220   4.803   1.051   3.874
11760TIP3    H135221   4.865   1.063   3.946
11760TIP3    H235222   4.832   0.971   3.831
11761TIP3   OH235223   1.319   0.741   3.251
11761TIP3    H135224   1.263   0.767   3.179
11761TIP3    H235225   1.263   0.747   3.329
11762TIP3   OH235226   3.684   2.732   4.101
11762TIP3    H135227   3.661   2.667   4.168
11762TIP3    H235228   3.778   2.720   4.089
11763TIP3   OH235229   1.424   3.438   0.873
11763TIP3    H135230   1.340   3.481   0.858
11763TIP3    H235231   1.406   3.375   0.943
11764TIP3   OH235232   4.232   7.910   4.433
11764TIP3    H135233   4.269   7.954   4.510
11764TIP3    H235234   4.147   7.876   4.463
11765TIP3   OH235235   2.593   0.037   0.134
11765TIP3    H135236   2.623   0.124   0.159
11765TIP3    H235237   2.583  -0.010   0.216
11766TIP3   OH235238   1.186   2.579   0.181
11766TIP3    H135239   1.097   2.611   0.193
11766TIP3    H235240   1.232   2.651   0.138
11767TIP3   OH235241   5.404   7.124   5.132
11767TIP3    H135242   5.355   7.043   5.115
11767TIP3    H235243   5.463   7.132   5.057
11768TIP3   OH235244   6.979   3.163   5.343
11768TIP3    H135245   7.066   3.128   5.362
11768TIP3    H235246   6.982   3.254   5.372
11769TIP3   OH235247   1.802   7.104   5.567
11769TIP3    H135248   1.793   7.021   5.614
11769TIP3    H235249   1.733   7.102   5.501
11770TIP3   OH235250   7.371   6.346   3.624
11770TIP3    H135251   7.454   6.308   3.652
11770TIP3    H235252   7.316   6.346   3.703
11771TIP3   OH235253   1.583   2.725   1.904
11771TIP3    H135254   1.635   2.706   1.982
11771TIP3    H235255   1.648   2.729   1.833
11772TIP3   OH235256   2.197   7.388   2.405
11772TIP3    H135257   2.201   7.320   2.472
11772TIP3    H235258   2.179   7.342   2.323
11773TIP3   OH235259   3.168   1.664   2.159
11773TIP3    H135260   3.224   1.741   2.162
11773TIP3    H235261   3.202   1.606   2.227
11774TIP3   OH235262   2.762   3.914   5.783
11774TIP3    H135263   2.838   3.858   5.798
11774TIP3    H235264   2.762   3.929   5.688
11775TIP3   OH235265   7.999   1.517   3.573
11775TIP3    H135266   7.943   1.586   3.539
11775TIP3    H235267   7.941   1.461   3.624
11776TIP3   OH235268   4.332   0.553   1.518
11776TIP3    H135269   4.369   0.639   1.498
11776TIP3    H235270   4.252   0.572   1.566
11777TIP3   OH235271   1.539   7.087   1.316
11777TIP3    H135272   1.616   7.120   1.361
11777TIP3    H235273   1.527   6.999   1.351
11778TIP3   OH235274   7.766   3.583   4.388
11778TIP3    H135275   7.675   3.608   4.373
11778TIP3    H235276   7.812   3.665   4.403
11779TIP3   OH235277   2.427   2.454   5.231
11779TIP3    H135278   2.479   2.456   5.311
11779TIP3    H235279   2.359   2.520   5.244
11780TIP3   OH235280   1.556   7.493   4.477
11780TIP3    H135281   1.516   7.577   4.459
11780TIP3    H235282   1.645   7.515   4.506
11781TIP3   OH235283   0.294   2.782   2.489
11781TIP3    H135284   0.262   2.763   2.578
11781TIP3    H235285   0.372   2.836   2.503
11782TIP3   OH235286   6.317   5.419   0.366
11782TIP3    H135287   6.226   5.393   0.384
11782TIP3    H235288   6.356   5.431   0.453
11783TIP3   OH235289   3.840   3.056   3.824
11783TIP3    H135290   3.770   2.997   3.852
11783TIP3    H235291   3.881   3.012   3.749
11784TIP3   OH235292   2.284   1.466   1.600
11784TIP3    H135293   2.372   1.504   1.609
11784TIP3    H235294   2.292   1.379   1.639
11785TIP3   OH235295   7.609   0.213   6.163
11785TIP3    H135296   7.659   0.253   6.092
11785TIP3    H235297   7.662   0.229   6.241
11786TIP3   OH235298   1.911   6.407   5.722
11786TIP3    H135299   1.848   6.398   5.650
11786TIP3    H235300   1.916   6.319   5.760
11787TIP3   OH235301   6.446   0.992   0.372
11787TIP3    H135302   6.471   0.963   0.460
11787TIP3    H235303   6.397   1.073   0.386
11788TIP3   OH235304   2.144   5.563   5.751
11788TIP3    H135305   2.202   5.630   5.716
11788TIP3    H235306   2.166   5.558   5.844
11789TIP3   OH235307   1.031   3.221   5.919
11789TIP3    H135308   1.047   3.306   5.877
11789TIP3    H235309   1.029   3.240   6.013
11790TIP3   OH235310   1.756   4.629   6.741
11790TIP3    H135311   1.780   4.604   6.830
11790TIP3    H235312   1.839   4.657   6.701
11791TIP3   OH235313   5.133   2.457   4.592
11791TIP3    H135314   5.163   2.511   4.519
11791TIP3    H235315   5.077   2.390   4.552
11792TIP3   OH235316   1.425   2.764   6.343
11792TIP3    H135317   1.410   2.856   6.363
11792TIP3    H235318   1.481   2.765   6.265
11793TIP3   OH235319   6.098   6.699   4.470
11793TIP3    H135320   6.072   6.682   4.380
11793TIP3    H235321   6.194   6.701   4.468
11794TIP3   OH235322   5.017   5.167   4.287
11794TIP3    H135323   4.928   5.200   4.303
11794TIP3    H235324   5.032   5.103   4.357
11795TIP3   OH235325   6.520   0.153   6.265
11795TIP3    H135326   6.600   0.166   6.316
11795TIP3    H235327   6.545   0.175   6.175
11796TIP3   OH235328   5.140   5.098   6.243
11796TIP3    H135329   5.075   5.156   6.282
11796TIP3    H235330   5.170   5.145   6.166
11797TIP3   OH235331   0.325   7.151   0.537
11797TIP3    H135332   0.319   7.243   0.513
11797TIP3    H235333   0.369   7.109   0.464
11798TIP3   OH235334   0.668   1.499   2.655
11798TIP3    H135335   0.672   1.590   2.624
11798TIP3    H235336   0.580   1.470   2.629
11799TIP3   OH235337   1.966   4.698   2.571
11799TIP3    H135338   2.014   4.679   2.490
11799TIP3    H235339   1.962   4.613   2.616
11800TIP3   OH235340   0.243   6.994   2.477
11800TIP3    H135341   0.159   6.989   2.523
11800TIP3    H235342   0.258   6.906   2.445
11801TIP3   OH235343   3.173   3.172   0.760
11801TIP3    H135344   3.262   3.198   0.738
11801TIP3    H235345   3.161   3.089   0.713
11802TIP3   OH235346   3.897   6.418   5.939
11802TIP3    H135347   3.861   6.486   5.884
11802TIP3    H235348   3.890   6.338   5.887
11803TIP3   OH235349   6.134   1.061   3.353
11803TIP3    H135350   6.056   1.093   3.309
11803TIP3    H235351   6.188   1.024   3.283
11804TIP3   OH235352   6.350   1.943   2.960
11804TIP3    H135353   6.298   2.022   2.975
11804TIP3    H235354   6.440   1.974   2.960
11805TIP3   OH235355   5.553   2.447   3.746
11805TIP3    H135356   5.646   2.424   3.753
11805TIP3    H235357   5.552   2.523   3.689
11806TIP3   OH235358   2.429   3.010   1.566
11806TIP3    H135359   2.521   3.031   1.550
11806TIP3    H235360   2.383   3.093   1.551
11807TIP3   OH235361   7.919   0.155   1.832
11807TIP3    H135362   7.953   0.196   1.753
11807TIP3    H235363   7.828   0.133   1.811
11808TIP3   OH235364   6.605   1.171   3.566
11808TIP3    H135365   6.603   1.200   3.658
11808TIP3    H235366   6.519   1.132   3.552
11809TIP3   OH235367   4.857   0.415   1.516
11809TIP3    H135368   4.808   0.432   1.435
11809TIP3    H235369   4.914   0.342   1.494
11810TIP3   OH235370   5.238   4.930   1.681
11810TIP3    H135371   5.204   5.006   1.728
11810TIP3    H235372   5.167   4.904   1.622
11811TIP3   OH235373   3.323   3.506   3.045
11811TIP3    H135374   3.237   3.548   3.052
11811TIP3    H235375   3.324   3.468   2.958
11812TIP3   OH235376   2.052   4.182   4.130
11812TIP3    H135377   2.117   4.123   4.166
11812TIP3    H235378   2.023   4.140   4.049
11813TIP3   OH235379   7.467   7.299   0.308
11813TIP3    H135380   7.526   7.369   0.335
11813TIP3    H235381   7.427   7.331   0.227
11814TIP3   OH235382   4.109   6.673   3.846
11814TIP3    H135383   4.078   6.584   3.834
11814TIP3    H235384   4.045   6.727   3.799
11815TIP3   OH235385   1.050   5.576   5.561
11815TIP3    H135386   1.027   5.668   5.577
11815TIP3    H235387   1.126   5.561   5.617
11816TIP3   OH235388   7.184   2.117   5.006
11816TIP3    H135389   7.141   2.115   4.921
11816TIP3    H235390   7.254   2.181   4.997
11817TIP3   OH235391   7.991   3.088   1.244
11817TIP3    H135392   7.940   3.093   1.325
11817TIP3    H235393   7.970   3.002   1.208
11818TIP3   OH235394   4.475   5.537   5.942
11818TIP3    H135395   4.521   5.567   6.021
11818TIP3    H235396   4.540   5.485   5.895
11819TIP3   OH235397   2.776   6.115   0.541
11819TIP3    H135398   2.729   6.150   0.466
11819TIP3    H235399   2.720   6.135   0.616
11820TIP3   OH235400   5.020   2.046   3.673
11820TIP3    H135401   5.020   2.081   3.762
11820TIP3    H235402   5.005   1.952   3.684
11821TIP3   OH235403   7.022   6.141   1.242
11821TIP3    H135404   6.976   6.199   1.302
11821TIP3    H235405   7.112   6.138   1.275
11822TIP3   OH235406   1.328   4.920   1.265
11822TIP3    H135407   1.390   4.857   1.301
11822TIP3    H235408   1.244   4.874   1.264
11823TIP3   OH235409   8.057   5.683   6.187
11823TIP3    H135410   8.070   5.594   6.152
11823TIP3    H235411   8.050   5.739   6.109
11824TIP3   OH235412   1.389   0.321   5.009
11824TIP3    H135413   1.346   0.373   5.077
11824TIP3    H235414   1.325   0.255   4.985
11825TIP3   OH235415   4.819   0.035   5.079
11825TIP3    H135416   4.875  -0.028   5.124
11825TIP3    H235417   4.739  -0.013   5.059
11826TIP3   OH235418   3.420   0.858   4.472
11826TIP3    H135419   3.355   0.902   4.417
11826TIP3    H235420   3.396   0.765   4.468
11827TIP3   OH235421   2.604   5.273   2.439
11827TIP3    H135422   2.692   5.312   2.433
11827TIP3    H235423   2.619   5.184   2.469
11828TIP3   OH235424   2.287   6.080   6.098
11828TIP3    H135425   2.337   6.011   6.055
11828TIP3    H235426   2.331   6.095   6.181
11829TIP3   OH235427   4.806   6.878   4.981
11829TIP3    H135428   4.731   6.913   4.933
11829TIP3    H235429   4.788   6.898   5.073
11830TIP3   OH235430   4.773   7.550   3.374
11830TIP3    H135431   4.767   7.455   3.376
11830TIP3    H235432   4.826   7.569   3.296
11831TIP3   OH235433   6.210   5.686   0.318
11831TIP3    H135434   6.258   5.722   0.393
11831TIP3    H235435   6.244   5.597   0.309
11832TIP3   OH235436   3.680   6.601   0.455
11832TIP3    H135437   3.723   6.652   0.387
11832TIP3    H235438   3.734   6.614   0.533
11833TIP3   OH235439   0.935   1.065  -0.009
11833TIP3    H135440   1.022   1.072   0.030
11833TIP3    H235441   0.945   1.102  -0.097
11834TIP3   OH235442   7.798   1.376   3.066
11834TIP3    H135443   7.727   1.343   3.010
11834TIP3    H235444   7.870   1.315   3.051
11835TIP3   OH235445   0.528   7.521   0.134
11835TIP3    H135446   0.604   7.534   0.190
11835TIP3    H235447   0.495   7.609   0.116
11836TIP3   OH235448   5.157   2.885   6.764
11836TIP3    H135449   5.149   2.830   6.842
11836TIP3    H235450   5.126   2.971   6.793
11837TIP3   OH235451   6.230   4.525   1.992
11837TIP3    H135452   6.178   4.556   2.066
11837TIP3    H235453   6.233   4.600   1.932
11838TIP3   OH235454   3.288   7.715   0.888
11838TIP3    H135455   3.338   7.634   0.875
11838TIP3    H235456   3.198   7.685   0.905
11839TIP3   OH235457   1.387   4.934   3.792
11839TIP3    H135458   1.449   4.888   3.848
11839TIP3    H235459   1.374   5.019   3.834
11840TIP3   OH235460   8.034   1.495   1.855
11840TIP3    H135461   7.955   1.474   1.905
11840TIP3    H235462   8.033   1.590   1.848
11841TIP3   OH235463   2.101   3.772   1.680
11841TIP3    H135464   2.021   3.782   1.730
11841TIP3    H235465   2.152   3.851   1.698
11842TIP3   OH235466   4.525   3.863   0.913
11842TIP3    H135467   4.617   3.892   0.916
11842TIP3    H235468   4.521   3.793   0.978
11843TIP3   OH235469   6.731   2.432   0.860
11843TIP3    H135470   6.709   2.376   0.935
11843TIP3    H235471   6.826   2.444   0.867
11844TIP3   OH235472   6.418   1.569   1.100
11844TIP3    H135473   6.324   1.547   1.104
11844TIP3    H235474   6.424   1.655   1.143
11845TIP3   OH235475   7.596   1.670   5.089
11845TIP3    H135476   7.539   1.723   5.145
11845TIP3    H235477   7.536   1.614   5.040
11846TIP3   OH235478   1.169   2.309   0.226
11846TIP3    H135479   1.263   2.287   0.226
11846TIP3    H235480   1.167   2.402   0.203
11847TIP3   OH235481   4.671   2.454   5.899
11847TIP3    H135482   4.702   2.501   5.822
11847TIP3    H235483   4.601   2.397   5.867
11848TIP3   OH235484   2.091   4.536   5.717
11848TIP3    H135485   2.014   4.482   5.736
11848TIP3    H235486   2.066   4.587   5.640
11849TIP3   OH235487   4.802   4.808   1.756
11849TIP3    H135488   4.766   4.848   1.677
11849TIP3    H235489   4.895   4.799   1.738
11850TIP3   OH235490   4.289   1.329   6.445
11850TIP3    H135491   4.349   1.334   6.519
11850TIP3    H235492   4.202   1.339   6.484
11851TIP3   OH235493   0.092   0.591   0.916
11851TIP3    H135494   0.034   0.618   0.845
11851TIP3    H235495   0.096   0.667   0.974
11852TIP3   OH235496   4.124   5.876   5.548
11852TIP3    H135497   4.094   5.827   5.471
11852TIP3    H235498   4.204   5.831   5.574
11853TIP3   OH235499   1.618   3.506   5.518
11853TIP3    H135500   1.650   3.506   5.609
11853TIP3    H235501   1.689   3.547   5.469
11854TIP3   OH235502   7.692   1.641   6.813
11854TIP3    H135503   7.614   1.688   6.841
11854TIP3    H235504   7.765   1.686   6.856
11855TIP3   OH235505   4.718   1.830   1.331
11855TIP3    H135506   4.732   1.925   1.330
11855TIP3    H235507   4.786   1.796   1.274
11856TIP3   OH235508   1.218   5.787   0.541
11856TIP3    H135509   1.183   5.876   0.546
11856TIP3    H235510   1.307   5.794   0.574
11857TIP3   OH235511   0.233   4.705   0.296
11857TIP3    H135512   0.147   4.674   0.325
11857TIP3    H235513   0.221   4.727   0.204
11858TIP3   OH235514   2.810   7.931   1.296
11858TIP3    H135515   2.867   7.854   1.289
11858TIP3    H235516   2.725   7.900   1.266
11859TIP3   OH235517   1.566   0.727   4.770
11859TIP3    H135518   1.568   0.746   4.676
11859TIP3    H235519   1.495   0.664   4.781
11860TIP3   OH235520   2.186   2.205   1.782
11860TIP3    H135521   2.145   2.145   1.719
11860TIP3    H235522   2.277   2.177   1.786
11861TIP3   OH235523   0.709   6.282   4.594
11861TIP3    H135524   0.724   6.309   4.503
11861TIP3    H235525   0.698   6.364   4.642
11862TIP3   OH235526   3.039   1.421   4.239
11862TIP3    H135527   3.131   1.444   4.230
11862TIP3    H235528   3.025   1.416   4.334
11863TIP3   OH235529   6.205   5.216   2.044
11863TIP3    H135530   6.280   5.209   1.985
11863TIP3    H235531   6.133   5.175   1.997
11864TIP3   OH235532   2.846   1.981   3.348
11864TIP3    H135533   2.807   2.030   3.275
11864TIP3    H235534   2.790   1.904   3.359
11865TIP3   OH235535   6.114   0.812   6.377
11865TIP3    H135536   6.207   0.828   6.361
11865TIP3    H235537   6.090   0.744   6.313
11866TIP3   OH235538  -0.036   3.375   5.250
11866TIP3    H135539   0.015   3.448   5.216
11866TIP3    H235540   0.015   3.297   5.229
11867TIP3   OH235541   5.354   2.583   1.611
11867TIP3    H135542   5.411   2.659   1.615
11867TIP3    H235543   5.412   2.512   1.582
11868TIP3   OH235544   7.408   4.818   6.251
11868TIP3    H135545   7.351   4.790   6.179
11868TIP3    H235546   7.378   4.767   6.326
11869TIP3   OH235547   5.322   4.448   4.417
11869TIP3    H135548   5.279   4.518   4.466
11869TIP3    H235549   5.340   4.487   4.331
11870TIP3   OH235550   3.721   7.141   5.167
11870TIP3    H135551   3.709   7.212   5.105
11870TIP3    H235552   3.780   7.080   5.123
11871TIP3   OH235553   1.128   2.071   1.983
11871TIP3    H135554   1.219   2.074   2.013
11871TIP3    H235555   1.116   1.981   1.952
11872TIP3   OH235556   3.086   4.502   5.541
11872TIP3    H135557   3.069   4.467   5.629
11872TIP3    H235558   3.091   4.425   5.485
11873TIP3   OH235559   7.920   4.716   2.171
11873TIP3    H135560   7.840   4.685   2.213
11873TIP3    H235561   7.950   4.642   2.118
11874TIP3   OH235562   1.622   6.192   6.111
11874TIP3    H135563   1.716   6.211   6.117
11874TIP3    H235564   1.580   6.262   6.161
11875TIP3   OH235565   3.877   3.190   3.158
11875TIP3    H135566   3.924   3.263   3.119
11875TIP3    H235567   3.845   3.139   3.083
11876TIP3   OH235568   7.243   0.748   5.953
11876TIP3    H135569   7.218   0.719   6.040
11876TIP3    H235570   7.232   0.670   5.898
11877TIP3   OH235571   2.410   4.459   3.132
11877TIP3    H135572   2.444   4.477   3.219
11877TIP3    H235573   2.328   4.508   3.127
11878TIP3   OH235574   1.627   5.320   1.420
11878TIP3    H135575   1.676   5.244   1.451
11878TIP3    H235576   1.595   5.361   1.500
11879TIP3   OH235577   3.336   7.611   6.748
11879TIP3    H135578   3.271   7.601   6.678
11879TIP3    H235579   3.295   7.571   6.824
11880TIP3   OH235580   0.457   0.706   6.796
11880TIP3    H135581   0.542   0.743   6.820
11880TIP3    H235582   0.393   0.770   6.828
11881TIP3   OH235583   4.253   2.078   4.105
11881TIP3    H135584   4.210   2.039   4.181
11881TIP3    H235585   4.337   2.109   4.139
11882TIP3   OH235586   7.407   3.183   4.896
11882TIP3    H135587   7.461   3.199   4.819
11882TIP3    H235588   7.387   3.270   4.930
11883TIP3   OH235589   5.245   3.292   6.590
11883TIP3    H135590   5.150   3.296   6.584
11883TIP3    H235591   5.274   3.263   6.503
11884TIP3   OH235592   1.640   6.442   4.135
11884TIP3    H135593   1.578   6.427   4.063
11884TIP3    H235594   1.622   6.531   4.164
11885TIP3   OH235595   3.440   2.233   5.277
11885TIP3    H135596   3.498   2.244   5.202
11885TIP3    H235597   3.359   2.199   5.240
11886TIP3   OH235598   1.077   5.566   0.691
11886TIP3    H135599   1.124   5.519   0.760
11886TIP3    H235600   1.147   5.602   0.636
11887TIP3   OH235601   5.788   3.266   5.100
11887TIP3    H135602   5.864   3.213   5.081
11887TIP3    H235603   5.737   3.214   5.162
11888TIP3   OH235604   2.319   0.866   3.489
11888TIP3    H135605   2.326   0.864   3.585
11888TIP3    H235606   2.308   0.774   3.464
11889TIP3   OH235607   4.130   0.522   3.563
11889TIP3    H135608   4.059   0.464   3.591
11889TIP3    H235609   4.096   0.566   3.485
11890TIP3   OH235610   1.642   0.633   6.128
11890TIP3    H135611   1.583   0.564   6.095
11890TIP3    H235612   1.693   0.660   6.052
11891TIP3   OH235613   6.103   0.314   4.381
11891TIP3    H135614   6.139   0.398   4.408
11891TIP3    H235615   6.008   0.325   4.390
11892TIP3   OH235616   0.244   4.205   1.867
11892TIP3    H135617   0.246   4.208   1.772
11892TIP3    H235618   0.224   4.114   1.888
11893TIP3   OH235619   1.633   5.473   0.701
11893TIP3    H135620   1.716   5.502   0.663
11893TIP3    H235621   1.643   5.378   0.711
11894TIP3   OH235622   1.787   4.283   3.655
11894TIP3    H135623   1.775   4.192   3.629
11894TIP3    H235624   1.882   4.296   3.654
11895TIP3   OH235625   1.192   2.732   6.067
11895TIP3    H135626   1.276   2.736   6.112
11895TIP3    H235627   1.139   2.802   6.106
11896TIP3   OH235628   8.152   5.197   3.006
11896TIP3    H135629   8.084   5.226   2.945
11896TIP3    H235630   8.199   5.277   3.029
11897TIP3   OH235631   3.508   5.774   3.593
11897TIP3    H135632   3.513   5.868   3.609
11897TIP3    H235633   3.537   5.733   3.674
11898TIP3   OH235634   3.232   3.642   3.336
11898TIP3    H135635   3.260   3.563   3.290
11898TIP3    H235636   3.280   3.713   3.294
11899TIP3   OH235637   7.783   3.576   6.593
11899TIP3    H135638   7.698   3.604   6.626
11899TIP3    H235639   7.765   3.493   6.548
11900TIP3   OH235640   3.607   5.305   1.342
11900TIP3    H135641   3.671   5.358   1.293
11900TIP3    H235642   3.573   5.365   1.408
11901TIP3   OH235643   3.665   5.615   4.852
11901TIP3    H135644   3.705   5.529   4.866
11901TIP3    H235645   3.581   5.610   4.897
11902TIP3   OH235646   4.859   5.350   1.189
11902TIP3    H135647   4.788   5.327   1.248
11902TIP3    H235648   4.898   5.267   1.165
11903TIP3   OH235649   0.770   3.167   5.572
11903TIP3    H135650   0.863   3.166   5.596
11903TIP3    H235651   0.724   3.175   5.656
11904TIP3   OH235652   5.088   3.283   3.256
11904TIP3    H135653   5.157   3.341   3.288
11904TIP3    H235654   5.102   3.278   3.162
11905TIP3   OH235655   6.875   4.911   6.411
11905TIP3    H135656   6.967   4.938   6.404
11905TIP3    H235657   6.842   4.958   6.487
11906TIP3   OH235658   3.450   1.400   3.780
11906TIP3    H135659   3.461   1.462   3.707
11906TIP3    H235660   3.533   1.407   3.829
11907TIP3   OH235661   2.165   3.455   2.105
11907TIP3    H135662   2.088   3.440   2.050
11907TIP3    H235663   2.170   3.551   2.113
11908TIP3   OH235664   7.058   1.638   0.261
11908TIP3    H135665   6.985   1.663   0.318
11908TIP3    H235666   7.135   1.677   0.303
11909TIP3   OH235667   6.896   5.870   6.740
11909TIP3    H135668   6.915   5.828   6.657
11909TIP3    H235669   6.970   5.847   6.797
11910TIP3   OH235670   3.906   6.450   3.029
11910TIP3    H135671   3.915   6.373   3.086
11910TIP3    H235672   3.917   6.524   3.089
11911TIP3   OH235673   1.996   1.630   4.051
11911TIP3    H135674   1.935   1.626   4.124
11911TIP3    H235675   2.021   1.722   4.045
11912TIP3   OH235676   4.662   6.723   2.480
11912TIP3    H135677   4.621   6.744   2.396
11912TIP3    H235678   4.622   6.784   2.542
11913TIP3   OH235679   5.990   7.766   5.160
11913TIP3    H135680   6.074   7.780   5.117
11913TIP3    H235681   5.969   7.674   5.141
11914TIP3   OH235682   2.033   5.528   4.604
11914TIP3    H135683   2.111   5.543   4.657
11914TIP3    H235684   2.005   5.615   4.575
11915TIP3   OH235685   0.032   4.876   5.609
11915TIP3    H135686   0.108   4.887   5.552
11915TIP3    H235687   0.047   4.792   5.653
11916TIP3   OH235688   3.750   2.343   6.718
11916TIP3    H135689   3.769   2.399   6.793
11916TIP3    H235690   3.834   2.302   6.697
11917TIP3   OH235691   5.789   1.596   3.004
11917TIP3    H135692   5.737   1.521   3.031
11917TIP3    H235693   5.880   1.568   3.017
11918TIP3   OH235694   3.468   7.897   5.760
11918TIP3    H135695   3.384   7.874   5.801
11918TIP3    H235696   3.514   7.814   5.752
11919TIP3   OH235697   7.289   1.203   2.503
11919TIP3    H135698   7.370   1.248   2.529
11919TIP3    H235699   7.311   1.110   2.508
11920TIP3   OH235700   7.430   0.699   0.169
11920TIP3    H135701   7.507   0.671   0.218
11920TIP3    H235702   7.435   0.794   0.166
11921TIP3   OH235703   0.909   5.762   6.237
11921TIP3    H135704   0.868   5.779   6.321
11921TIP3    H235705   0.968   5.836   6.224
11922TIP3   OH235706   7.056   4.944   5.615
11922TIP3    H135707   7.098   4.872   5.662
11922TIP3    H235708   7.111   4.956   5.537
11923TIP3   OH235709   8.040   0.384   3.252
11923TIP3    H135710   7.946   0.367   3.262
11923TIP3    H235711   8.070   0.405   3.340
11924TIP3   OH235712   7.355   1.095   3.639
11924TIP3    H135713   7.293   1.072   3.569
11924TIP3    H235714   7.320   1.176   3.675
11925TIP3   OH235715   1.617   3.351   1.542
11925TIP3    H135716   1.591   3.440   1.569
11925TIP3    H235717   1.563   3.293   1.595
11926TIP3   OH235718   2.918   5.948   4.936
11926TIP3    H135719   2.836   5.997   4.940
11926TIP3    H235720   2.974   5.989   5.002
11927TIP3   OH235721   0.028   5.401   2.534
11927TIP3    H135722  -0.002   5.484   2.497
11927TIP3    H235723   0.113   5.386   2.494
11928TIP3   OH235724   1.140   3.364   4.444
11928TIP3    H135725   1.186   3.390   4.524
11928TIP3    H235726   1.062   3.418   4.443
11929TIP3   OH235727   6.050   7.029   0.326
11929TIP3    H135728   6.069   6.952   0.379
11929TIP3    H235729   6.010   7.091   0.387
11930TIP3   OH235730   4.312   6.835   6.018
11930TIP3    H135731   4.380   6.901   6.022
11930TIP3    H235732   4.276   6.842   5.929
11931TIP3   OH235733   0.279   0.134   6.676
11931TIP3    H135734   0.197   0.087   6.657
11931TIP3    H235735   0.325   0.136   6.593
11932TIP3   OH235736   6.163   6.538   1.271
11932TIP3    H135737   6.098   6.471   1.293
11932TIP3    H235738   6.228   6.531   1.341
11933TIP3   OH235739   1.876   1.481   6.648
11933TIP3    H135740   1.942   1.457   6.583
11933TIP3    H235741   1.792   1.464   6.605
11934TIP3   OH235742   3.932   0.850   3.038
11934TIP3    H135743   3.898   0.931   2.999
11934TIP3    H235744   4.027   0.864   3.041
11935TIP3   OH235745   5.608   1.446   1.363
11935TIP3    H135746   5.538   1.410   1.310
11935TIP3    H235747   5.624   1.533   1.327
11936TIP3   OH235748   0.248   5.007   3.919
11936TIP3    H135749   0.198   5.066   3.862
11936TIP3    H235750   0.330   5.054   3.937
11937TIP3   OH235751   3.218   7.742   5.377
11937TIP3    H135752   3.273   7.817   5.353
11937TIP3    H235753   3.252   7.670   5.324
11938TIP3   OH235754   4.723   0.849   1.873
11938TIP3    H135755   4.658   0.871   1.940
11938TIP3    H235756   4.761   0.766   1.902
11939TIP3   OH235757   8.370   3.912   4.689
11939TIP3    H135758   8.383   3.977   4.759
11939TIP3    H235759   8.367   3.828   4.735
11940TIP3   OH235760   3.139   4.011   1.801
11940TIP3    H135761   3.214   4.039   1.853
11940TIP3    H235762   3.067   4.004   1.865
11941TIP3   OH235763   3.497   0.831   5.356
11941TIP3    H135764   3.497   0.916   5.312
11941TIP3    H235765   3.423   0.835   5.416
11942TIP3   OH235766   5.554   5.262   1.608
11942TIP3    H135767   5.482   5.281   1.667
11942TIP3    H235768   5.533   5.176   1.571
11943TIP3   OH235769   5.939   2.647   3.919
11943TIP3    H135770   6.027   2.647   3.882
11943TIP3    H235771   5.939   2.572   3.978
11944TIP3   OH235772   1.753   1.439   1.280
11944TIP3    H135773   1.753   1.397   1.366
11944TIP3    H235774   1.757   1.366   1.217
11945TIP3   OH235775   5.547   3.449   6.277
11945TIP3    H135776   5.453   3.437   6.261
11945TIP3    H235777   5.571   3.376   6.334
11946TIP3   OH235778   2.422   5.774   4.025
11946TIP3    H135779   2.400   5.685   4.053
11946TIP3    H235780   2.348   5.827   4.053
11947TIP3   OH235781   5.206   3.630   5.031
11947TIP3    H135782   5.255   3.555   5.064
11947TIP3    H235783   5.117   3.617   5.064
11948TIP3   OH235784   6.772   7.817   2.235
11948TIP3    H135785   6.795   7.865   2.314
11948TIP3    H235786   6.686   7.779   2.254
11949TIP3   OH235787   2.045   4.270   0.853
11949TIP3    H135788   1.968   4.313   0.890
11949TIP3    H235789   2.068   4.203   0.916
11950TIP3   OH235790   1.512   7.195   5.582
11950TIP3    H135791   1.515   7.109   5.625
11950TIP3    H235792   1.501   7.175   5.489
11951TIP3   OH235793   2.581   6.784   0.562
11951TIP3    H135794   2.638   6.721   0.517
11951TIP3    H235795   2.636   6.861   0.574
11952TIP3   OH235796   7.915   4.823   5.584
11952TIP3    H135797   7.901   4.756   5.651
11952TIP3    H235798   7.990   4.874   5.616
11953TIP3   OH235799   0.311   6.682   6.592
11953TIP3    H135800   0.216   6.691   6.592
11953TIP3    H235801   0.333   6.661   6.683
11954TIP3   OH235802   7.351   4.221   3.743
11954TIP3    H135803   7.368   4.139   3.790
11954TIP3    H235804   7.432   4.271   3.752
11955TIP3   OH235805   2.062   3.674   0.317
11955TIP3    H135806   2.070   3.646   0.408
11955TIP3    H235807   2.100   3.602   0.267
11956TIP3   OH235808   6.527   3.157   2.986
11956TIP3    H135809   6.524   3.154   3.082
11956TIP3    H235810   6.579   3.080   2.962
11957TIP3   OH235811   0.184   3.304   3.376
11957TIP3    H135812   0.136   3.222   3.386
11957TIP3    H235813   0.134   3.368   3.427
11958TIP3   OH235814   6.330   3.953   3.372
11958TIP3    H135815   6.349   4.046   3.385
11958TIP3    H235816   6.342   3.939   3.278
11959TIP3   OH235817   1.700   5.098   3.988
11959TIP3    H135818   1.625   5.147   4.021
11959TIP3    H235819   1.725   5.041   4.061
11960TIP3   OH235820   5.121   4.818   4.852
11960TIP3    H135821   5.206   4.783   4.823
11960TIP3    H235822   5.059   4.789   4.784
11961TIP3   OH235823   1.807   2.270   6.757
11961TIP3    H135824   1.859   2.343   6.792
11961TIP3    H235825   1.728   2.270   6.811
11962TIP3   OH235826   3.581   2.574   0.118
11962TIP3    H135827   3.519   2.539   0.054
11962TIP3    H235828   3.565   2.668   0.118
11963TIP3   OH235829   4.769   7.874   3.991
11963TIP3    H135830   4.801   7.817   3.921
11963TIP3    H235831   4.693   7.829   4.027
11964TIP3   OH235832   8.137   0.803   1.276
11964TIP3    H135833   8.067   0.786   1.339
11964TIP3    H235834   8.118   0.745   1.203
11965TIP3   OH235835   6.334   5.496   6.194
11965TIP3    H135836   6.397   5.542   6.249
11965TIP3    H235837   6.290   5.565   6.145
11966TIP3   OH235838   2.121   5.258   1.383
11966TIP3    H135839   2.192   5.259   1.447
11966TIP3    H235840   2.154   5.311   1.310
11967TIP3   OH235841   1.149   3.409   1.147
11967TIP3    H135842   1.215   3.396   1.214
11967TIP3    H235843   1.164   3.340   1.083
11968TIP3   OH235844   3.680   1.640   0.490
11968TIP3    H135845   3.759   1.695   0.492
11968TIP3    H235846   3.702   1.565   0.544
11969TIP3   OH235847   7.548   5.861   2.587
11969TIP3    H135848   7.519   5.838   2.499
11969TIP3    H235849   7.467   5.866   2.638
11970TIP3   OH235850   7.693   5.840   2.159
11970TIP3    H135851   7.756   5.892   2.208
11970TIP3    H235852   7.638   5.906   2.116
11971TIP3   OH235853   6.646   4.489   2.314
11971TIP3    H135854   6.586   4.526   2.249
11971TIP3    H235855   6.670   4.403   2.279
11972TIP3   OH235856   3.580   7.742   0.838
11972TIP3    H135857   3.525   7.677   0.793
11972TIP3    H235858   3.652   7.759   0.778
11973TIP3   OH235859   7.116   4.812   0.467
11973TIP3    H135860   7.201   4.804   0.424
11973TIP3    H235861   7.102   4.906   0.477
11974TIP3   OH235862   1.020   1.607   4.981
11974TIP3    H135863   1.028   1.630   4.889
11974TIP3    H235864   0.942   1.653   5.011
11975TIP3   OH235865   6.063   6.111   3.246
11975TIP3    H135866   6.003   6.038   3.262
11975TIP3    H235867   6.104   6.090   3.162
11976TIP3   OH235868   5.189   0.202   6.255
11976TIP3    H135869   5.166   0.110   6.271
11976TIP3    H235870   5.284   0.199   6.238
11977TIP3   OH235871   5.214   1.726   3.822
11977TIP3    H135872   5.222   1.817   3.853
11977TIP3    H235873   5.137   1.728   3.765
11978TIP3   OH235874   1.997   4.220   2.596
11978TIP3    H135875   2.067   4.161   2.623
11978TIP3    H235876   1.919   4.164   2.594
11979TIP3   OH235877   5.819   6.488   2.317
11979TIP3    H135878   5.791   6.542   2.243
11979TIP3    H235879   5.877   6.422   2.279
11980TIP3   OH235880   2.782   4.430   6.092
11980TIP3    H135881   2.829   4.510   6.068
11980TIP3    H235882   2.709   4.461   6.146
11981TIP3   OH235883   4.407   5.749   1.533
11981TIP3    H135884   4.463   5.671   1.531
11981TIP3    H235885   4.376   5.758   1.443
11982TIP3   OH235886   6.283   2.777   0.809
11982TIP3    H135887   6.268   2.715   0.881
11982TIP3    H235888   6.261   2.728   0.730
11983TIP3   OH235889   6.547   6.017   2.040
11983TIP3    H135890   6.587   5.941   2.000
11983TIP3    H235891   6.456   5.991   2.056
11984TIP3   OH235892   3.012   4.806   4.113
11984TIP3    H135893   2.987   4.820   4.205
11984TIP3    H235894   3.039   4.714   4.109
11985TIP3   OH235895   1.690  -0.002   3.235
11985TIP3    H135896   1.610  -0.027   3.282
11985TIP3    H235897   1.703   0.090   3.258
11986TIP3   OH235898   0.368   6.704   4.260
11986TIP3    H135899   0.355   6.702   4.165
11986TIP3    H235900   0.431   6.774   4.275
11987TIP3   OH235901   4.552   6.975   4.868
11987TIP3    H135902   4.499   6.947   4.943
11987TIP3    H235903   4.604   7.048   4.901
11988TIP3   OH235904   6.645   2.811   6.271
11988TIP3    H135905   6.681   2.833   6.186
11988TIP3    H235906   6.586   2.737   6.254
11989TIP3   OH235907   5.420   2.907   6.634
11989TIP3    H135908   5.427   2.973   6.564
11989TIP3    H235909   5.328   2.909   6.659
11990TIP3   OH235910   0.046   4.646   6.484
11990TIP3    H135911   0.097   4.618   6.408
11990TIP3    H235912   0.108   4.698   6.536
11991TIP3   OH235913   2.259   0.217   6.782
11991TIP3    H135914   2.230   0.304   6.753
11991TIP3    H235915   2.350   0.229   6.809
11992TIP3   OH235916   2.856   4.109   0.904
11992TIP3    H135917   2.801   4.129   0.980
11992TIP3    H235918   2.794   4.104   0.831
11993TIP3   OH235919   7.903   5.020   1.838
11993TIP3    H135920   7.869   4.983   1.920
11993TIP3    H235921   7.907   4.945   1.778
11994TIP3   OH235922   7.153   6.483   3.361
11994TIP3    H135923   7.187   6.535   3.434
11994TIP3    H235924   7.102   6.414   3.402
11995TIP3   OH235925   4.420   7.915   0.742
11995TIP3    H135926   4.471   7.935   0.821
11995TIP3    H235927   4.341   7.872   0.774
11996TIP3   OH235928   2.576   4.641   5.987
11996TIP3    H135929   2.586   4.713   6.050
11996TIP3    H235930   2.546   4.683   5.907
11997TIP3   OH235931   7.254   1.415   5.905
11997TIP3    H135932   7.219   1.326   5.898
11997TIP3    H235933   7.334   1.405   5.958
11998TIP3   OH235934   3.018   6.709   4.585
11998TIP3    H135935   2.991   6.799   4.602
11998TIP3    H235936   3.114   6.711   4.590
11999TIP3   OH235937   4.328   5.562   4.308
11999TIP3    H135938   4.341   5.467   4.308
11999TIP3    H235939   4.414   5.598   4.284
12000TIP3   OH235940   4.413   0.050   2.220
12000TIP3    H135941   4.443   0.092   2.301
12000TIP3    H235942   4.420  -0.044   2.238
12001TIP3   OH235943   5.469   3.188   4.781
12001TIP3    H135944   5.469   3.095   4.759
12001TIP3    H235945   5.562   3.210   4.794
12002TIP3   OH235946   4.426   5.653   6.515
12002TIP3    H135947   4.358   5.587   6.498
12002TIP3    H235948   4.460   5.631   6.601
12003TIP3   OH235949   8.113   6.551   1.630
12003TIP3    H135950   8.044   6.586   1.573
12003TIP3    H235951   8.095   6.589   1.716
12004TIP3   OH235952   0.693   7.013   3.410
12004TIP3    H135953   0.655   7.018   3.322
12004TIP3    H235954   0.629   7.055   3.467
12005TIP3   OH235955   0.201   4.961   4.185
12005TIP3    H135956   0.108   4.952   4.204
12005TIP3    H235957   0.205   4.973   4.090
12006TIP3   OH235958   0.729   1.215   0.088
12006TIP3    H135959   0.792   1.158   0.045
12006TIP3    H235960   0.771   1.301   0.089
12007TIP3   OH235961   0.682   4.740   3.787
12007TIP3    H135962   0.679   4.832   3.812
12007TIP3    H235963   0.607   4.728   3.729
12008TIP3   OH235964   6.661   0.478   5.593
12008TIP3    H135965   6.649   0.448   5.503
12008TIP3    H235966   6.572   0.480   5.629
12009TIP3   OH235967   7.344   5.716   1.132
12009TIP3    H135968   7.371   5.788   1.188
12009TIP3    H235969   7.377   5.739   1.045
12010TIP3   OH235970   1.410   3.892   4.109
12010TIP3    H135971   1.393   3.798   4.114
12010TIP3    H235972   1.449   3.914   4.194
12011TIP3   OH235973   6.271   3.392   4.438
12011TIP3    H135974   6.319   3.420   4.516
12011TIP3    H235975   6.262   3.298   4.448
12012TIP3   OH235976   7.218   2.729   2.960
12012TIP3    H135977   7.183   2.640   2.952
12012TIP3    H235978   7.309   2.721   2.931
12013TIP3   OH235979   1.515   3.682   4.412
12013TIP3    H135980   1.537   3.657   4.323
12013TIP3    H235981   1.446   3.748   4.403
12014TIP3   OH235982   3.111   4.261   2.011
12014TIP3    H135983   3.125   4.302   2.097
12014TIP3    H235984   3.034   4.306   1.976
12015TIP3   OH235985   5.204   5.884   3.706
12015TIP3    H135986   5.138   5.861   3.641
12015TIP3    H235987   5.154   5.910   3.783
12016TIP3   OH235988   4.818   0.312   3.706
12016TIP3    H135989   4.786   0.384   3.760
12016TIP3    H235990   4.789   0.233   3.752
12017TIP3   OH235991   4.148   4.158   2.461
12017TIP3    H135992   4.241   4.179   2.458
12017TIP3    H235993   4.118   4.170   2.371
12018TIP3   OH235994   1.617   7.371   3.451
12018TIP3    H135995   1.525   7.368   3.474
12018TIP3    H235996   1.653   7.288   3.483
12019TIP3   OH235997   5.313   4.167   2.171
12019TIP3    H135998   5.237   4.221   2.193
12019TIP3    H235999   5.321   4.105   2.244
12020TIP3   OH236000   2.709   7.656   6.285
12020TIP3    H136001   2.706   7.614   6.371
12020TIP3    H236002   2.772   7.727   6.295
12021TIP3   OH236003   2.099   0.678   2.751
12021TIP3    H136004   2.194   0.672   2.739
12021TIP3    H236005   2.069   0.587   2.756
12022TIP3   OH236006   2.540   7.106   0.223
12022TIP3    H136007   2.613   7.070   0.173
12022TIP3    H236008   2.553   7.072   0.312
12023TIP3   OH236009   6.501   1.171   2.432
12023TIP3    H136010   6.487   1.261   2.463
12023TIP3    H236011   6.596   1.160   2.431
12024TIP3   OH236012   2.477   2.029   4.483
12024TIP3    H136013   2.506   1.939   4.473
12024TIP3    H236014   2.553   2.082   4.462
12025TIP3   OH236015   7.606   0.865   6.878
12025TIP3    H136016   7.683   0.809   6.889
12025TIP3    H236017   7.629   0.924   6.806
12026TIP3   OH236018   0.227   4.746   2.724
12026TIP3    H136019   0.140   4.760   2.760
12026TIP3    H236020   0.283   4.805   2.773
12027TIP3   OH236021   0.824   4.182   0.761
12027TIP3    H136022   0.907   4.150   0.725
12027TIP3    H236023   0.801   4.118   0.829
12028TIP3   OH236024   5.870   2.878   0.486
12028TIP3    H136025   5.819   2.801   0.461
12028TIP3    H236026   5.830   2.951   0.439
12029TIP3   OH236027   0.183   1.838   6.493
12029TIP3    H136028   0.240   1.915   6.493
12029TIP3    H236029   0.232   1.773   6.442
12030TIP3   OH236030   5.415   5.650   2.066
12030TIP3    H136031   5.406   5.556   2.051
12030TIP3    H236032   5.350   5.690   2.008
12031TIP3   OH236033   6.753   1.482   0.875
12031TIP3    H136034   6.825   1.446   0.927
12031TIP3    H236035   6.772   1.576   0.870
12032TIP3   OH236036   7.990   5.457   0.551
12032TIP3    H136037   7.960   5.403   0.477
12032TIP3    H236038   8.019   5.395   0.617
12033TIP3   OH236039   4.340   5.601   3.400
12033TIP3    H136040   4.317   5.691   3.421
12033TIP3    H236041   4.293   5.582   3.319
12034TIP3   OH236042   8.127   0.554   4.035
12034TIP3    H136043   8.167   0.494   4.098
12034TIP3    H236044   8.053   0.592   4.082
12035TIP3   OH236045   6.665   0.667   2.316
12035TIP3    H136046   6.686   0.756   2.287
12035TIP3    H236047   6.628   0.625   2.238
12036TIP3   OH236048   1.947   2.850   3.479
12036TIP3    H136049   1.930   2.757   3.493
12036TIP3    H236050   2.017   2.853   3.414
12037TIP3   OH236051   5.007   2.099   5.745
12037TIP3    H136052   4.915   2.123   5.745
12037TIP3    H236053   5.047   2.155   5.811
12038TIP3   OH236054   2.986   7.861   6.854
12038TIP3    H136055   3.074   7.838   6.824
12038TIP3    H236056   2.974   7.952   6.826
12039TIP3   OH236057   5.116   7.194   2.617
12039TIP3    H136058   5.211   7.180   2.622
12039TIP3    H236059   5.106   7.262   2.549
12040TIP3   OH236060   7.366   3.462   0.017
12040TIP3    H136061   7.445   3.510  -0.006
12040TIP3    H236062   7.396   3.372   0.032
12041TIP3   OH236063   4.728   2.936   6.211
12041TIP3    H136064   4.704   2.852   6.171
12041TIP3    H236065   4.808   2.961   6.165
12042TIP3   OH236066   0.612   0.023   6.215
12042TIP3    H136067   0.682  -0.042   6.204
12042TIP3    H236068   0.536  -0.016   6.171
12043TIP3   OH236069   1.649   3.771   6.793
12043TIP3    H136070   1.740   3.750   6.775
12043TIP3    H236071   1.607   3.686   6.809
12044TIP3   OH236072   1.876   6.662   1.726
12044TIP3    H136073   1.903   6.680   1.636
12044TIP3    H236074   1.781   6.648   1.720
12045TIP3   OH236075   6.319   4.744   3.124
12045TIP3    H136076   6.272   4.762   3.205
12045TIP3    H236077   6.327   4.830   3.081
12046TIP3   OH236078   6.363   3.507   1.158
12046TIP3    H136079   6.419   3.569   1.111
12046TIP3    H236080   6.373   3.531   1.251
12047TIP3   OH236081   5.006   3.531   6.610
12047TIP3    H136082   5.079   3.592   6.608
12047TIP3    H236083   4.986   3.513   6.518
12048TIP3   OH236084   8.252   3.106   1.585
12048TIP3    H136085   8.162   3.091   1.614
12048TIP3    H236086   8.244   3.174   1.518
12049TIP3   OH236087   6.269   0.221   4.197
12049TIP3    H136088   6.233   0.263   4.119
12049TIP3    H236089   6.216   0.254   4.269
12050TIP3   OH236090   2.223   7.440   3.919
12050TIP3    H136091   2.305   7.490   3.928
12050TIP3    H236092   2.173   7.489   3.854
12051TIP3   OH236093   4.796   2.192   5.316
12051TIP3    H136094   4.801   2.099   5.338
12051TIP3    H236095   4.831   2.199   5.228
12052TIP3   OH236096   6.439   3.361   2.062
12052TIP3    H136097   6.496   3.304   2.011
12052TIP3    H236098   6.411   3.429   2.001
12053TIP3   OH236099   1.951   0.152   4.914
12053TIP3    H136100   1.962   0.061   4.944
12053TIP3    H236101   1.914   0.198   4.990
12054TIP3   OH236102   2.911   4.915   2.960
12054TIP3    H136103   2.944   4.985   3.016
12054TIP3    H236104   2.912   4.837   3.017
12055TIP3   OH236105   7.764   7.605   1.968
12055TIP3    H136106   7.815   7.524   1.970
12055TIP3    H236107   7.826   7.671   1.938
12056TIP3   OH236108   6.892   5.345   5.828
12056TIP3    H136109   6.804   5.326   5.796
12056TIP3    H236110   6.950   5.302   5.765
12057TIP3   OH236111   0.594   3.586   0.902
12057TIP3    H136112   0.687   3.608   0.909
12057TIP3    H236113   0.583   3.557   0.812
12058TIP3   OH236114   7.246   5.910   6.652
12058TIP3    H136115   7.314   5.851   6.619
12058TIP3    H236116   7.189   5.854   6.704
12059TIP3   OH236117   1.108   6.006   6.248
12059TIP3    H136118   1.056   6.072   6.294
12059TIP3    H236119   1.196   6.015   6.286
12060TIP3   OH236120   5.132   4.078   5.336
12060TIP3    H136121   5.207   4.018   5.341
12060TIP3    H236122   5.171   4.165   5.339
12061TIP3   OH236123   0.356   4.748   0.856
12061TIP3    H136124   0.440   4.779   0.823
12061TIP3    H236125   0.353   4.656   0.831
12062TIP3   OH236126   1.557   3.968   4.330
12062TIP3    H136127   1.642   3.955   4.288
12062TIP3    H236128   1.575   3.958   4.424
12063TIP3   OH236129   0.267   1.259   6.491
12063TIP3    H136130   0.332   1.305   6.545
12063TIP3    H236131   0.246   1.180   6.542
12064TIP3   OH236132   7.945   1.497   4.882
12064TIP3    H136133   7.964   1.501   4.789
12064TIP3    H236134   7.880   1.427   4.890
12065TIP3   OH236135   0.385   1.415   2.901
12065TIP3    H136136   0.353   1.413   2.811
12065TIP3    H236137   0.342   1.491   2.941
12066TIP3   OH236138   4.532   6.616   1.115
12066TIP3    H136139   4.592   6.679   1.155
12066TIP3    H236140   4.509   6.655   1.031
12067TIP3   OH236141   1.286   2.735   0.641
12067TIP3    H136142   1.263   2.645   0.618
12067TIP3    H236143   1.213   2.787   0.608
12068TIP3   OH236144   3.558   0.340   1.612
12068TIP3    H136145   3.465   0.318   1.625
12068TIP3    H236146   3.563   0.373   1.523
12069TIP3   OH236147   6.771   7.411   2.969
12069TIP3    H136148   6.764   7.319   2.996
12069TIP3    H236149   6.685   7.432   2.933
12070TIP3   OH236150   4.983   2.397   2.356
12070TIP3    H136151   5.001   2.491   2.354
12070TIP3    H236152   4.958   2.381   2.447
12071TIP3   OH236153   2.700   0.269   0.230
12071TIP3    H136154   2.736   0.352   0.199
12071TIP3    H236155   2.730   0.262   0.321
12072TIP3   OH236156   5.685   2.097   1.025
12072TIP3    H136157   5.614   2.139   1.075
12072TIP3    H236158   5.758   2.093   1.086
12073TIP3   OH236159   5.633   2.142   4.670
12073TIP3    H136160   5.568   2.212   4.662
12073TIP3    H236161   5.631   2.098   4.585
12074TIP3   OH236162   7.923   5.899   1.464
12074TIP3    H136163   7.996   5.884   1.404
12074TIP3    H236164   7.862   5.827   1.447
12075TIP3   OH236165   3.650   6.015   5.152
12075TIP3    H136166   3.714   5.944   5.144
12075TIP3    H236167   3.695   6.083   5.201
12076TIP3   OH236168   8.164   6.887   6.362
12076TIP3    H136169   8.073   6.892   6.389
12076TIP3    H236170   8.210   6.850   6.437
12077TIP3   OH236171   6.162   0.691   2.925
12077TIP3    H136172   6.255   0.713   2.919
12077TIP3    H236173   6.122   0.737   2.851
12078TIP3   OH236174   2.646   6.157   0.284
12078TIP3    H136175   2.650   6.253   0.280
12078TIP3    H236176   2.629   6.131   0.193
12079TIP3   OH236177   0.364   0.394   0.671
12079TIP3    H136178   0.337   0.472   0.720
12079TIP3    H236179   0.295   0.382   0.606
12080TIP3   OH236180   3.573   2.821   2.705
12080TIP3    H136181   3.496   2.767   2.689
12080TIP3    H236182   3.583   2.822   2.800
12081TIP3   OH236183   3.891   7.837   3.689
12081TIP3    H136184   3.806   7.832   3.647
12081TIP3    H236185   3.901   7.752   3.733
12082TIP3   OH236186   8.247   2.396   1.052
12082TIP3    H136187   8.216   2.307   1.039
12082TIP3    H236188   8.194   2.449   0.994
12083TIP3   OH236189   8.264   2.234   3.032
12083TIP3    H136190   8.315   2.172   2.981
12083TIP3    H236191   8.194   2.182   3.071
12084TIP3   OH236192   6.189   7.355   5.437
12084TIP3    H136193   6.205   7.278   5.492
12084TIP3    H236194   6.094   7.368   5.442
12085TIP3   OH236195   7.747   2.273   1.253
12085TIP3    H136196   7.789   2.353   1.285
12085TIP3    H236197   7.741   2.286   1.158
12086TIP3   OH236198   2.656   7.057   5.622
12086TIP3    H136199   2.672   7.048   5.715
12086TIP3    H236200   2.601   7.136   5.614
12087TIP3   OH236201   4.997   4.257   0.935
12087TIP3    H136202   5.069   4.206   0.974
12087TIP3    H236203   5.037   4.300   0.860
12088TIP3   OH236204   1.180   1.394   4.592
12088TIP3    H136205   1.157   1.339   4.667
12088TIP3    H236206   1.096   1.415   4.551
12089TIP3   OH236207   3.482   7.021   6.349
12089TIP3    H136208   3.529   7.007   6.267
12089TIP3    H236209   3.499   7.113   6.371
12090TIP3   OH236210   0.250   5.605   0.138
12090TIP3    H136211   0.334   5.583   0.098
12090TIP3    H236212   0.270   5.617   0.231
12091TIP3   OH236213   3.304   0.610   4.482
12091TIP3    H136214   3.213   0.618   4.453
12091TIP3    H236215   3.351   0.584   4.402
12092TIP3   OH236216   6.433   6.352   6.405
12092TIP3    H136217   6.386   6.380   6.326
12092TIP3    H236218   6.459   6.435   6.447
12093TIP3   OH236219   1.521   5.996   3.409
12093TIP3    H136220   1.500   6.030   3.322
12093TIP3    H236221   1.578   5.921   3.392
12094TIP3   OH236222   6.521   0.473   5.906
12094TIP3    H136223   6.508   0.483   6.000
12094TIP3    H236224   6.508   0.561   5.870
12095TIP3   OH236225   3.979   3.181   2.109
12095TIP3    H136226   4.032   3.184   2.188
12095TIP3    H236227   3.993   3.093   2.074
12096TIP3   OH236228   3.617   7.844   3.233
12096TIP3    H136229   3.611   7.793   3.152
12096TIP3    H236230   3.528   7.841   3.269
12097TIP3   OH236231   5.757   5.472   1.622
12097TIP3    H136232   5.755   5.473   1.717
12097TIP3    H236233   5.698   5.401   1.597
12098TIP3   OH236234   5.748   0.461   0.115
12098TIP3    H136235   5.653   0.474   0.110
12098TIP3    H236236   5.784   0.532   0.061
12099TIP3   OH236237   6.787   1.465   2.492
12099TIP3    H136238   6.829   1.383   2.517
12099TIP3    H236239   6.839   1.532   2.536
12100TIP3   OH236240   0.962   6.205   6.704
12100TIP3    H136241   0.948   6.115   6.735
12100TIP3    H236242   1.005   6.194   6.619
12101TIP3   OH236243   1.562   3.605   4.149
12101TIP3    H136244   1.509   3.527   4.134
12101TIP3    H236245   1.602   3.624   4.065
12102TIP3   OH236246   6.706   7.195   0.235
12102TIP3    H136247   6.698   7.282   0.195
12102TIP3    H236248   6.619   7.155   0.222
12103TIP3   OH236249   3.091   0.318   5.814
12103TIP3    H136250   3.096   0.405   5.773
12103TIP3    H236251   3.167   0.271   5.780
12104TIP3   OH236252   6.443   0.418   4.639
12104TIP3    H136253   6.456   0.452   4.550
12104TIP3    H236254   6.521   0.365   4.656
12105TIP3   OH236255   5.090   7.081   1.203
12105TIP3    H136256   4.996   7.079   1.182
12105TIP3    H236257   5.094   7.065   1.298
12106TIP3   OH236258   3.320   3.397   4.561
12106TIP3    H136259   3.411   3.369   4.565
12106TIP3    H236260   3.323   3.482   4.518
12107TIP3   OH236261   4.541   3.519   3.454
12107TIP3    H136262   4.622   3.538   3.503
12107TIP3    H236263   4.549   3.427   3.430
12108TIP3   OH236264   0.510   5.364   4.526
12108TIP3    H136265   0.532   5.345   4.617
12108TIP3    H236266   0.414   5.357   4.522
12109TIP3   OH236267   5.968   2.889   4.143
12109TIP3    H136268   5.932   2.883   4.231
12109TIP3    H236269   5.935   2.812   4.098
12110TIP3   OH236270   3.421   5.094   4.131
12110TIP3    H136271   3.342   5.040   4.136
12110TIP3    H236272   3.481   5.044   4.076
12111TIP3   OH236273   2.534   4.282   6.628
12111TIP3    H136274   2.549   4.236   6.545
12111TIP3    H236275   2.577   4.366   6.617
12112TIP3   OH236276   4.140   2.679   1.244
12112TIP3    H136277   4.229   2.690   1.278
12112TIP3    H236278   4.125   2.585   1.246
12113TIP3   OH236279   4.556   2.620   3.858
12113TIP3    H136280   4.547   2.710   3.891
12113TIP3    H236281   4.650   2.601   3.867
12114TIP3   OH236282   6.412   2.321   3.333
12114TIP3    H136283   6.396   2.411   3.361
12114TIP3    H236284   6.507   2.314   3.326
12115TIP3   OH236285   8.381   6.728   1.407
12115TIP3    H136286   8.451   6.723   1.343
12115TIP3    H236287   8.349   6.818   1.401
12116TIP3   OH236288   3.440   3.074   4.763
12116TIP3    H136289   3.371   3.138   4.781
12116TIP3    H236290   3.502   3.121   4.707
12117TIP3   OH236291   0.244   5.699   3.296
12117TIP3    H136292   0.174   5.757   3.327
12117TIP3    H236293   0.210   5.663   3.214
12118TIP3   OH236294   3.634   6.478   2.952
12118TIP3    H136295   3.597   6.398   2.989
12118TIP3    H236296   3.728   6.463   2.953
12119TIP3   OH236297   3.905   7.619   1.628
12119TIP3    H136298   3.960   7.594   1.554
12119TIP3    H236299   3.941   7.570   1.702
12120TIP3   OH236300   6.754   0.333   1.383
12120TIP3    H136301   6.718   0.300   1.465
12120TIP3    H236302   6.836   0.375   1.408
12121TIP3   OH236303   5.548   7.396   5.453
12121TIP3    H136304   5.463   7.368   5.486
12121TIP3    H236305   5.587   7.317   5.417
12122TIP3   OH236306   0.356   1.428   0.532
12122TIP3    H136307   0.337   1.499   0.592
12122TIP3    H236308   0.281   1.427   0.471
12123TIP3   OH236309   0.055   5.034   2.208
12123TIP3    H136310   0.014   5.121   2.207
12123TIP3    H236311   0.035   4.999   2.294
12124TIP3   OH236312   0.259   1.858   5.588
12124TIP3    H136313   0.297   1.882   5.672
12124TIP3    H236314   0.187   1.799   5.610
12125TIP3   OH236315   2.394   4.082   1.899
12125TIP3    H136316   2.406   4.105   1.806
12125TIP3    H236317   2.307   4.042   1.902
12126TIP3   OH236318   0.259   3.715   3.212
12126TIP3    H136319   0.205   3.636   3.217
12126TIP3    H236320   0.270   3.731   3.119
12127TIP3   OH236321   2.691   6.481   3.918
12127TIP3    H136322   2.611   6.454   3.964
12127TIP3    H236323   2.724   6.400   3.879
12128TIP3   OH236324   0.556   5.528   5.904
12128TIP3    H136325   0.471   5.526   5.948
12128TIP3    H236326   0.610   5.587   5.956
12129TIP3   OH236327   7.954   1.691   0.727
12129TIP3    H136328   7.948   1.601   0.694
12129TIP3    H236329   8.040   1.721   0.699
12130TIP3   OH236330   2.670   0.592   5.911
12130TIP3    H136331   2.633   0.670   5.953
12130TIP3    H236332   2.765   0.602   5.921
12131TIP3   OH236333   0.775   1.292   5.238
12131TIP3    H136334   0.847   1.229   5.248
12131TIP3    H236335   0.777   1.315   5.145
12132TIP3   OH236336   2.184   3.119   1.933
12132TIP3    H136337   2.158   3.192   1.989
12132TIP3    H236338   2.180   3.042   1.991
12133TIP3   OH236339   3.903   4.064   5.178
12133TIP3    H136340   3.984   4.110   5.199
12133TIP3    H236341   3.891   4.079   5.084
12134TIP3   OH236342   0.128   0.773   3.679
12134TIP3    H136343   0.217   0.738   3.679
12134TIP3    H236344   0.095   0.757   3.590
12135TIP3   OH236345   4.882   0.020   2.335
12135TIP3    H136346   4.970   0.038   2.370
12135TIP3    H236347   4.858  -0.064   2.373
12136TIP3   OH236348   0.160   1.241   4.854
12136TIP3    H136349   0.180   1.331   4.877
12136TIP3    H236350   0.064   1.236   4.853
12137TIP3   OH236351   6.412   4.699   6.224
12137TIP3    H136352   6.339   4.723   6.280
12137TIP3    H236353   6.483   4.678   6.285
12138TIP3   OH236354   6.679   7.586   4.166
12138TIP3    H136355   6.628   7.596   4.086
12138TIP3    H236356   6.649   7.658   4.222
12139TIP3   OH236357   3.082   6.080   2.612
12139TIP3    H136358   3.137   6.005   2.636
12139TIP3    H236359   2.992   6.048   2.625
12140TIP3   OH236360   4.660   6.013   5.661
12140TIP3    H136361   4.587   6.071   5.637
12140TIP3    H236362   4.634   5.927   5.628
12141TIP3   OH236363   5.845   5.870   0.978
12141TIP3    H136364   5.774   5.930   1.000
12141TIP3    H236365   5.806   5.783   0.986
12142TIP3   OH236366   1.105   6.935   6.457
12142TIP3    H136367   1.152   6.943   6.374
12142TIP3    H236368   1.157   6.987   6.518
12143TIP3   OH236369   8.059   6.928   3.460
12143TIP3    H136370   8.100   6.980   3.528
12143TIP3    H236371   8.130   6.876   3.422
12144TIP3   OH236372   3.348   1.364   1.893
12144TIP3    H136373   3.391   1.279   1.906
12144TIP3    H236374   3.266   1.343   1.849
12145TIP3   OH236375   5.118   2.951   2.298
12145TIP3    H136376   5.129   3.001   2.217
12145TIP3    H236377   5.036   2.904   2.287
12146TIP3   OH236378   1.299   5.171   6.106
12146TIP3    H136379   1.307   5.258   6.145
12146TIP3    H236380   1.281   5.188   6.013
12147TIP3   OH236381   5.352   5.617   3.441
12147TIP3    H136382   5.421   5.649   3.500
12147TIP3    H236383   5.352   5.679   3.368
12148TIP3   OH236384   5.527   5.936   2.254
12148TIP3    H136385   5.487   5.965   2.173
12148TIP3    H236386   5.578   5.858   2.230
12149TIP3   OH236387   6.428   5.248   3.966
12149TIP3    H136388   6.369   5.224   4.037
12149TIP3    H236389   6.432   5.344   3.970
12150TIP3   OH236390   0.901   4.862   0.322
12150TIP3    H136391   0.956   4.928   0.365
12150TIP3    H236392   0.815   4.903   0.315
12151TIP3   OH236393   6.200   6.411   0.320
12151TIP3    H136394   6.171   6.320   0.312
12151TIP3    H236395   6.152   6.444   0.397
12152TIP3   OH236396   6.261   1.150   0.585
12152TIP3    H136397   6.266   1.231   0.636
12152TIP3    H236398   6.168   1.141   0.564
12153TIP3   OH236399   4.630   2.103   1.757
12153TIP3    H136400   4.606   2.182   1.709
12153TIP3    H236401   4.723   2.114   1.778
12154TIP3   OH236402   8.291   6.052   1.808
12154TIP3    H136403   8.218   5.997   1.779
12154TIP3    H236404   8.309   6.024   1.897
12155TIP3   OH236405   7.637   5.470   4.058
12155TIP3    H136406   7.599   5.386   4.084
12155TIP3    H236407   7.661   5.458   3.966
12156TIP3   OH236408   6.148   6.865   5.412
12156TIP3    H136409   6.147   6.831   5.322
12156TIP3    H236410   6.230   6.834   5.449
12157TIP3   OH236411   6.881   7.880   5.614
12157TIP3    H136412   6.922   7.810   5.564
12157TIP3    H236413   6.855   7.945   5.549
12158TIP3   OH236414   8.391   3.944   2.493
12158TIP3    H136415   8.395   4.039   2.487
12158TIP3    H236416   8.352   3.916   2.410
12159TIP3   OH236417   2.264   6.992   6.029
12159TIP3    H136418   2.325   7.047   6.078
12159TIP3    H236419   2.293   6.902   6.046
12160TIP3   OH236420   4.055   5.660   4.326
12160TIP3    H136421   4.025   5.616   4.246
12160TIP3    H236422   4.150   5.660   4.319
12161TIP3   OH236423   7.988   3.002   4.819
12161TIP3    H136424   8.007   3.076   4.762
12161TIP3    H236425   8.063   2.997   4.878
12162TIP3   OH236426   1.052   1.294   3.707
12162TIP3    H136427   0.979   1.315   3.765
12162TIP3    H236428   1.116   1.363   3.721
12163TIP3   OH236429   3.213   7.436   4.233
12163TIP3    H136430   3.266   7.449   4.154
12163TIP3    H236431   3.271   7.389   4.293
12164TIP3   OH236432   2.137   7.836   5.560
12164TIP3    H136433   2.219   7.883   5.574
12164TIP3    H236434   2.069   7.904   5.560
12165TIP3   OH236435   4.131   3.969   0.027
12165TIP3    H136436   4.220   3.970   0.062
12165TIP3    H236437   4.133   4.035  -0.043
12166TIP3   OH236438   2.828   4.350   1.999
12166TIP3    H136439   2.833   4.413   2.071
12166TIP3    H236440   2.823   4.265   2.042
12167TIP3   OH236441   8.322   1.931   1.389
12167TIP3    H136442   8.346   2.003   1.447
12167TIP3    H236443   8.401   1.916   1.336
12168TIP3   OH236444   1.175   2.544   4.728
12168TIP3    H136445   1.153   2.635   4.709
12168TIP3    H236446   1.250   2.526   4.672
12169TIP3   OH236447   2.618   0.889   6.020
12169TIP3    H136448   2.547   0.951   6.037
12169TIP3    H236449   2.630   0.843   6.103
12170TIP3   OH236450   3.348   1.546   4.253
12170TIP3    H136451   3.388   1.472   4.208
12170TIP3    H236452   3.367   1.622   4.198
12171TIP3   OH236453   0.376   4.507   0.704
12171TIP3    H136454   0.466   4.476   0.706
12171TIP3    H236455   0.370   4.557   0.622
12172TIP3   OH236456   1.580   3.060   6.036
12172TIP3    H136457   1.530   3.129   5.992
12172TIP3    H236458   1.661   3.103   6.065
12173TIP3   OH236459   1.378   1.398   3.734
12173TIP3    H136460   1.452   1.443   3.693
12173TIP3    H236461   1.305   1.459   3.728
12174TIP3   OH236462   4.978   4.043   2.296
12174TIP3    H136463   4.940   4.127   2.270
12174TIP3    H236464   4.913   4.005   2.355
12175TIP3   OH236465   4.381   2.487   4.038
12175TIP3    H136466   4.445   2.521   3.975
12175TIP3    H236467   4.372   2.394   4.015
12176TIP3   OH236468   4.289   7.055   3.900
12176TIP3    H136469   4.262   7.066   3.809
12176TIP3    H236470   4.295   7.144   3.935
12177TIP3   OH236471   4.359   3.454   1.921
12177TIP3    H136472   4.292   3.517   1.949
12177TIP3    H236473   4.429   3.508   1.887
12178TIP3   OH236474   5.106   2.607   3.173
12178TIP3    H136475   5.021   2.642   3.201
12178TIP3    H236476   5.170   2.654   3.227
12179TIP3   OH236477   4.006   1.052   2.419
12179TIP3    H136478   3.924   1.084   2.382
12179TIP3    H236479   4.039   1.125   2.471
12180TIP3   OH236480   0.789   6.948   1.242
12180TIP3    H136481   0.806   6.936   1.148
12180TIP3    H236482   0.694   6.951   1.249
12181TIP3   OH236483   7.827   5.257   5.468
12181TIP3    H136484   7.810   5.275   5.376
12181TIP3    H236485   7.742   5.272   5.511
12182TIP3   OH236486   1.723   6.737   0.386
12182TIP3    H136487   1.659   6.788   0.437
12182TIP3    H236488   1.670   6.693   0.319
12183TIP3   OH236489   4.008   2.228   4.062
12183TIP3    H136490   4.011   2.323   4.073
12183TIP3    H236491   4.100   2.203   4.049
12184TIP3   OH236492   7.172   5.670   2.054
12184TIP3    H136493   7.144   5.619   2.130
12184TIP3    H236494   7.091   5.709   2.021
12185TIP3   OH236495   3.623   6.012   4.835
12185TIP3    H136496   3.554   5.946   4.838
12185TIP3    H236497   3.652   6.021   4.925
12186TIP3   OH236498   4.555   7.466   2.884
12186TIP3    H136499   4.613   7.530   2.926
12186TIP3    H236500   4.498   7.519   2.828
12187TIP3   OH236501   7.808   6.680   2.037
12187TIP3    H136502   7.806   6.674   1.941
12187TIP3    H236503   7.729   6.634   2.065
12188TIP3   OH236504   3.051   0.511   1.315
12188TIP3    H136505   3.037   0.527   1.222
12188TIP3    H236506   2.963   0.496   1.351
12189TIP3   OH236507   5.446   7.539   2.289
12189TIP3    H136508   5.496   7.530   2.208
12189TIP3    H236509   5.421   7.450   2.312
12190TIP3   OH236510   6.127   7.631   2.684
12190TIP3    H136511   6.106   7.598   2.597
12190TIP3    H236512   6.096   7.564   2.745
12191TIP3   OH236513   4.912   2.330   1.486
12191TIP3    H136514   4.984   2.392   1.479
12191TIP3    H236515   4.950   2.245   1.463
12192TIP3   OH236516   3.267   2.985   6.109
12192TIP3    H136517   3.290   2.961   6.199
12192TIP3    H236518   3.336   3.045   6.081
12193TIP3   OH236519   0.371   4.215   6.772
12193TIP3    H136520   0.333   4.299   6.746
12193TIP3    H236521   0.388   4.170   6.689
12194TIP3   OH236522   4.184   7.218   0.564
12194TIP3    H136523   4.194   7.223   0.659
12194TIP3    H236524   4.125   7.144   0.550
12195TIP3   OH236525   4.350   1.863   4.721
12195TIP3    H136526   4.385   1.902   4.641
12195TIP3    H236527   4.293   1.793   4.690
12196TIP3   OH236528   1.813   2.476   5.385
12196TIP3    H136529   1.881   2.542   5.376
12196TIP3    H236530   1.832   2.411   5.318
12197TIP3   OH236531   5.027   6.593   3.890
12197TIP3    H136532   4.935   6.588   3.865
12197TIP3    H236533   5.059   6.503   3.884
12198TIP3   OH236534   4.559   7.171   5.770
12198TIP3    H136535   4.500   7.132   5.706
12198TIP3    H236536   4.528   7.261   5.779
12199TIP3   OH236537   1.945   6.857   4.872
12199TIP3    H136538   1.926   6.764   4.867
12199TIP3    H236539   1.937   6.879   4.965
12200TIP3   OH236540   0.468   2.814   4.326
12200TIP3    H136541   0.564   2.813   4.325
12200TIP3    H236542   0.442   2.730   4.288
12201TIP3   OH236543   7.422   6.549   5.858
12201TIP3    H136544   7.366   6.589   5.925
12201TIP3    H236545   7.370   6.555   5.777
12202TIP3   OH236546   5.844   5.284   3.833
12202TIP3    H136547   5.852   5.221   3.761
12202TIP3    H236548   5.873   5.235   3.910
12203TIP3   OH236549   1.171   3.578   6.639
12203TIP3    H136550   1.173   3.672   6.660
12203TIP3    H236551   1.160   3.535   6.724
12204TIP3   OH236552   4.523   3.353   2.774
12204TIP3    H136553   4.474   3.350   2.691
12204TIP3    H236554   4.614   3.365   2.747
12205TIP3   OH236555   6.173   2.591   4.556
12205TIP3    H136556   6.088   2.602   4.599
12205TIP3    H236557   6.173   2.499   4.527
12206TIP3   OH236558   4.700   3.238   4.159
12206TIP3    H136559   4.733   3.317   4.201
12206TIP3    H236560   4.776   3.198   4.118
12207TIP3   OH236561   6.491   0.790   4.153
12207TIP3    H136562   6.499   0.762   4.062
12207TIP3    H236563   6.397   0.802   4.166
12208TIP3   OH236564   5.649   4.868   2.640
12208TIP3    H136565   5.679   4.823   2.719
12208TIP3    H236566   5.704   4.947   2.636
12209TIP3   OH236567   3.454   5.502   5.505
12209TIP3    H136568   3.493   5.574   5.455
12209TIP3    H236569   3.368   5.488   5.464
12210TIP3   OH236570   1.792   4.747   1.472
12210TIP3    H136571   1.865   4.695   1.438
12210TIP3    H236572   1.831   4.797   1.544
12211TIP3   OH236573   2.725   2.268   1.562
12211TIP3    H136574   2.789   2.291   1.494
12211TIP3    H236575   2.653   2.227   1.514
12212TIP3   OH236576   3.156   2.335   1.423
12212TIP3    H136577   3.182   2.260   1.477
12212TIP3    H236578   3.223   2.401   1.440
12213TIP3   OH236579   0.694   6.048   5.320
12213TIP3    H136580   0.614   6.099   5.308
12213TIP3    H236581   0.681   5.970   5.267
12214TIP3   OH236582   6.469   1.736   6.358
12214TIP3    H136583   6.458   1.781   6.274
12214TIP3    H236584   6.379   1.722   6.390
12215TIP3   OH236585   3.248   3.714   5.625
12215TIP3    H136586   3.191   3.672   5.561
12215TIP3    H236587   3.274   3.796   5.584
12216TIP3   OH236588   1.716   0.421   1.197
12216TIP3    H136589   1.676   0.347   1.151
12216TIP3    H236590   1.728   0.487   1.129
12217TIP3   OH236591   5.886   6.229   0.131
12217TIP3    H136592   5.927   6.177   0.062
12217TIP3    H236593   5.928   6.199   0.212
12218TIP3   OH236594   1.534   4.948   5.629
12218TIP3    H136595   1.545   5.035   5.667
12218TIP3    H236596   1.527   4.963   5.535
12219TIP3   OH236597   6.931   6.244   5.519
12219TIP3    H136598   6.874   6.172   5.493
12219TIP3    H236599   6.890   6.282   5.596
12220TIP3   OH236600   7.409   4.361   5.874
12220TIP3    H136601   7.394   4.371   5.968
12220TIP3    H236602   7.486   4.305   5.868
12221TIP3   OH236603   4.017   1.236   3.692
12221TIP3    H136604   3.992   1.160   3.744
12221TIP3    H236605   3.955   1.237   3.619
12222TIP3   OH236606   2.585   4.707   2.968
12222TIP3    H136607   2.644   4.771   3.008
12222TIP3    H236608   2.576   4.638   3.034
12223TIP3   OH236609   7.178   2.739   1.288
12223TIP3    H136610   7.133   2.770   1.367
12223TIP3    H236611   7.110   2.737   1.221
12224TIP3   OH236612   7.563   4.540   1.903
12224TIP3    H136613   7.632   4.474   1.913
12224TIP3    H236614   7.606   4.611   1.855
12225TIP3   OH236615   1.549   1.966   3.935
12225TIP3    H136616   1.482   1.902   3.912
12225TIP3    H236617   1.630   1.930   3.900
12226TIP3   OH236618   1.787   1.439   2.738
12226TIP3    H136619   1.701   1.395   2.741
12226TIP3    H236620   1.849   1.369   2.717
12227TIP3   OH236621   5.082   4.084   0.616
12227TIP3    H136622   5.020   4.025   0.572
12227TIP3    H236623   5.110   4.036   0.693
12228TIP3   OH236624   5.991   6.717   4.969
12228TIP3    H136625   6.036   6.697   5.051
12228TIP3    H236626   6.059   6.754   4.913
12229TIP3   OH236627   7.432   2.868   3.538
12229TIP3    H136628   7.456   2.915   3.617
12229TIP3    H236629   7.511   2.822   3.511
12230TIP3   OH236630   1.005   2.822   0.944
12230TIP3    H136631   1.079   2.781   0.898
12230TIP3    H236632   0.929   2.770   0.918
12231TIP3   OH236633   0.793   1.969   1.945
12231TIP3    H136634   0.814   1.942   2.035
12231TIP3    H236635   0.869   1.943   1.894
12232TIP3   OH236636   6.533   3.938   2.244
12232TIP3    H136637   6.607   3.890   2.207
12232TIP3    H236638   6.470   3.943   2.171
12233TIP3   OH236639   7.107   4.402   3.063
12233TIP3    H136640   7.163   4.480   3.069
12233TIP3    H236641   7.127   4.352   3.143
12234TIP3   OH236642   4.180   6.102   3.123
12234TIP3    H136643   4.124   6.165   3.168
12234TIP3    H236644   4.143   6.017   3.147
12235TIP3   OH236645   6.514   6.747   6.141
12235TIP3    H136646   6.449   6.686   6.109
12235TIP3    H236647   6.476   6.833   6.126
12236TIP3   OH236648   8.239   0.275   3.906
12236TIP3    H136649   8.198   0.249   3.988
12236TIP3    H236650   8.255   0.369   3.917
12237TIP3   OH236651   3.835   7.671   6.528
12237TIP3    H136652   3.779   7.722   6.470
12237TIP3    H236653   3.889   7.735   6.573
12238TIP3   OH236654   0.470   0.676   5.896
12238TIP3    H136655   0.426   0.681   5.980
12238TIP3    H236656   0.413   0.725   5.836
12239TIP3   OH236657   0.703   7.776   3.061
12239TIP3    H136658   0.781   7.829   3.075
12239TIP3    H236659   0.655   7.821   2.991
12240TIP3   OH236660   4.762   3.473   4.598
12240TIP3    H136661   4.667   3.468   4.609
12240TIP3    H236662   4.795   3.497   4.684
12241TIP3   OH236663   4.322   6.019   2.895
12241TIP3    H136664   4.254   6.039   2.959
12241TIP3    H236665   4.394   6.078   2.918
12242TIP3   OH236666   7.735   2.907   1.101
12242TIP3    H136667   7.811   2.850   1.118
12242TIP3    H236668   7.708   2.937   1.188
12243TIP3   OH236669   1.824   7.804   3.420
12243TIP3    H136670   1.814   7.896   3.444
12243TIP3    H236671   1.776   7.756   3.487
12244TIP3   OH236672   7.817   0.913   0.488
12244TIP3    H136673   7.840   1.005   0.500
12244TIP3    H236674   7.871   0.867   0.553
12245TIP3   OH236675   7.007   2.118   5.676
12245TIP3    H136676   7.087   2.162   5.648
12245TIP3    H236677   7.037   2.040   5.723
12246TIP3   OH236678   4.600   4.572   4.822
12246TIP3    H136679   4.628   4.605   4.737
12246TIP3    H236680   4.517   4.528   4.804
12247TIP3   OH236681   1.222   2.114   5.113
12247TIP3    H136682   1.131   2.135   5.133
12247TIP3    H236683   1.224   2.018   5.110
12248TIP3   OH236684   7.076   5.513   1.660
12248TIP3    H136685   7.006   5.558   1.708
12248TIP3    H236686   7.156   5.537   1.707
12249TIP3   OH236687   4.258   1.072   3.312
12249TIP3    H136688   4.308   1.029   3.381
12249TIP3    H236689   4.318   1.140   3.279
12250TIP3   OH236690   4.196   2.980   4.024
12250TIP3    H136691   4.112   3.025   4.039
12250TIP3    H236692   4.261   3.049   4.035
12251TIP3   OH236693   5.317   0.653   6.390
12251TIP3    H136694   5.300   0.705   6.469
12251TIP3    H236695   5.235   0.606   6.374
12252TIP3   OH236696   8.187   1.345   5.129
12252TIP3    H136697   8.226   1.346   5.216
12252TIP3    H236698   8.099   1.310   5.143
12253TIP3   OH236699   0.102   5.450   4.072
12253TIP3    H136700   0.092   5.512   4.001
12253TIP3    H236701   0.078   5.365   4.033
12254TIP3   OH236702   0.080   0.508   5.982
12254TIP3    H136703   0.162   0.462   5.963
12254TIP3    H236704   0.075   0.510   6.077
12255TIP3   OH236705   6.205   7.635   1.608
12255TIP3    H136706   6.250   7.601   1.685
12255TIP3    H236707   6.273   7.680   1.558
12256TIP3   OH236708   2.387   7.501   3.648
12256TIP3    H136709   2.358   7.566   3.584
12256TIP3    H236710   2.422   7.552   3.721
12257TIP3   OH236711   6.469   3.509   6.013
12257TIP3    H136712   6.396   3.453   6.039
12257TIP3    H236713   6.521   3.518   6.093
12258TIP3   OH236714   5.563   6.001   4.455
12258TIP3    H136715   5.476   6.016   4.492
12258TIP3    H236716   5.563   5.908   4.433
12259TIP3   OH236717   5.495   2.595   1.885
12259TIP3    H136718   5.403   2.600   1.857
12259TIP3    H236719   5.516   2.502   1.880
12260TIP3   OH236720   2.968   7.253   3.902
12260TIP3    H136721   2.963   7.231   3.995
12260TIP3    H236722   3.000   7.343   3.900
12261TIP3   OH236723   4.667   5.344   4.665
12261TIP3    H136724   4.665   5.396   4.585
12261TIP3    H236725   4.583   5.364   4.708
12262TIP3   OH236726   8.056   5.474   1.031
12262TIP3    H136727   8.152   5.479   1.040
12262TIP3    H236728   8.042   5.440   0.942
12263TIP3   OH236729   5.419   3.905   0.775
12263TIP3    H136730   5.334   3.909   0.818
12263TIP3    H236731   5.399   3.893   0.682
12264TIP3   OH236732   2.377   0.433   5.025
12264TIP3    H136733   2.334   0.420   5.110
12264TIP3    H236734   2.395   0.526   5.021
12265TIP3   OH236735   3.704   4.929   4.598
12265TIP3    H136736   3.670   5.008   4.642
12265TIP3    H236737   3.656   4.926   4.515
12266TIP3   OH236738   7.506   0.182   1.933
12266TIP3    H136739   7.543   0.147   1.852
12266TIP3    H236740   7.484   0.273   1.911
12267TIP3   OH236741   6.182   6.654   5.678
12267TIP3    H136742   6.261   6.708   5.686
12267TIP3    H236743   6.212   6.574   5.635
12268TIP3   OH236744   5.309   5.877   6.562
12268TIP3    H136745   5.325   5.963   6.525
12268TIP3    H236746   5.366   5.873   6.639
12269TIP3   OH236747   0.410   0.915   4.039
12269TIP3    H136748   0.438   0.938   4.128
12269TIP3    H236749   0.445   0.828   4.025
12270TIP3   OH236750   4.958   5.611   1.631
12270TIP3    H136751   4.879   5.576   1.590
12270TIP3    H236752   4.931   5.638   1.718
12271TIP3   OH236753   0.476   1.861   0.413
12271TIP3    H136754   0.501   1.871   0.505
12271TIP3    H236755   0.397   1.915   0.404
12272TIP3   OH236756   4.477   0.984   3.905
12272TIP3    H136757   4.537   1.055   3.928
12272TIP3    H236758   4.411   1.026   3.849
12273TIP3   OH236759   7.125   5.451   0.147
12273TIP3    H136760   7.053   5.467   0.208
12273TIP3    H236761   7.185   5.525   0.161
12274TIP3   OH236762   5.077   6.862   3.868
12274TIP3    H136763   5.068   6.768   3.883
12274TIP3    H236764   4.992   6.899   3.894
12275TIP3   OH236765   7.032   6.094   6.640
12275TIP3    H136766   6.971   6.066   6.709
12275TIP3    H236767   7.099   6.025   6.639
12276TIP3   OH236768   2.222   2.632   1.215
12276TIP3    H136769   2.236   2.678   1.133
12276TIP3    H236770   2.309   2.606   1.244
12277TIP3   OH236771   0.894   0.017   4.972
12277TIP3    H136772   0.802   0.041   4.976
12277TIP3    H236773   0.899  -0.065   5.020
12278TIP3   OH236774   3.914   7.483   3.371
12278TIP3    H136775   3.953   7.498   3.457
12278TIP3    H236776   3.970   7.531   3.310
12279TIP3   OH236777   3.827   4.526   4.009
12279TIP3    H136778   3.836   4.448   3.955
12279TIP3    H236779   3.863   4.501   4.094
12280TIP3   OH236780   8.207   5.229   4.410
12280TIP3    H136781   8.213   5.258   4.319
12280TIP3    H236782   8.163   5.301   4.455
12281TIP3   OH236783   6.841   0.221   4.456
12281TIP3    H136784   6.805   0.162   4.389
12281TIP3    H236785   6.830   0.308   4.419
12282TIP3   OH236786   7.374   4.227   4.103
12282TIP3    H136787   7.393   4.182   4.185
12282TIP3    H236788   7.374   4.158   4.036
12283TIP3   OH236789   7.358   0.264   6.255
12283TIP3    H136790   7.386   0.248   6.345
12283TIP3    H236791   7.440   0.264   6.205
12284TIP3   OH236792   6.985   5.284   3.492
12284TIP3    H136793   6.996   5.375   3.520
12284TIP3    H236794   7.006   5.232   3.569
12285TIP3   OH236795   4.444   7.249   5.042
12285TIP3    H136796   4.391   7.203   4.978
12285TIP3    H236797   4.533   7.246   5.007
12286TIP3   OH236798   0.898   2.715   0.164
12286TIP3    H136799   0.862   2.627   0.164
12286TIP3    H236800   0.823   2.772   0.183
12287TIP3   OH236801   6.762   7.359   0.923
12287TIP3    H136802   6.675   7.368   0.884
12287TIP3    H236803   6.819   7.336   0.849
12288TIP3   OH236804   5.102   1.444   6.605
12288TIP3    H136805   5.178   1.486   6.643
12288TIP3    H236806   5.030   1.465   6.665
12289TIP3   OH236807   4.528   4.526   5.451
12289TIP3    H136808   4.614   4.564   5.470
12289TIP3    H236809   4.529   4.442   5.497
12290TIP3   OH236810   3.324   5.779   2.162
12290TIP3    H136811   3.301   5.849   2.102
12290TIP3    H236812   3.288   5.806   2.246
12291TIP3   OH236813   6.573   5.817   1.854
12291TIP3    H136814   6.505   5.864   1.807
12291TIP3    H236815   6.593   5.741   1.799
12292TIP3   OH236816   8.157   1.993   0.342
12292TIP3    H136817   8.073   2.038   0.342
12292TIP3    H236818   8.138   1.907   0.378
12293TIP3   OH236819   3.502   4.644   3.754
12293TIP3    H136820   3.528   4.572   3.696
12293TIP3    H236821   3.557   4.718   3.728
12294TIP3   OH236822   6.178   2.216   0.782
12294TIP3    H136823   6.232   2.228   0.859
12294TIP3    H236824   6.215   2.140   0.738
12295TIP3   OH236825   2.432   6.081   4.708
12295TIP3    H136826   2.417   6.118   4.795
12295TIP3    H236827   2.345   6.077   4.669
12296TIP3   OH236828   5.099   0.572   3.828
12296TIP3    H136829   5.028   0.526   3.873
12296TIP3    H236830   5.139   0.627   3.894
12297TIP3   OH236831   4.010   3.802   4.200
12297TIP3    H136832   3.971   3.789   4.114
12297TIP3    H236833   3.940   3.780   4.262
12298TIP3   OH236834   3.981   0.013   0.537
12298TIP3    H136835   4.058   0.067   0.552
12298TIP3    H236836   3.995  -0.023   0.449
12299TIP3   OH236837   4.030   3.672   4.947
12299TIP3    H136838   4.075   3.680   4.863
12299TIP3    H236839   3.940   3.698   4.929
12300TIP3   OH236840   5.489   5.117   0.470
12300TIP3    H136841   5.431   5.047   0.440
12300TIP3    H236842   5.452   5.144   0.554
12301TIP3   OH236843   0.616   6.619   0.204
12301TIP3    H136844   0.546   6.647   0.263
12301TIP3    H236845   0.664   6.553   0.254
12302TIP3   OH236846   0.933   3.531   4.897
12302TIP3    H136847   0.858   3.586   4.919
12302TIP3    H236848   0.896   3.460   4.845
12303TIP3   OH236849   0.213   1.409   4.579
12303TIP3    H136850   0.161   1.330   4.564
12303TIP3    H236851   0.258   1.425   4.496
12304TIP3   OH236852   8.094   7.319   6.022
12304TIP3    H136853   8.097   7.265   6.100
12304TIP3    H236854   8.153   7.392   6.041
12305TIP3   OH236855   7.832   5.506   5.860
12305TIP3    H136856   7.764   5.529   5.797
12305TIP3    H236857   7.786   5.457   5.928
12306TIP3   OH236858   2.761   2.026   4.147
12306TIP3    H136859   2.807   2.106   4.119
12306TIP3    H236860   2.796   2.007   4.234
12307TIP3   OH236861   1.540   7.187   4.434
12307TIP3    H136862   1.446   7.208   4.433
12307TIP3    H236863   1.583   7.271   4.451
12308TIP3   OH236864   3.560   4.311   6.177
12308TIP3    H136865   3.479   4.360   6.194
12308TIP3    H236866   3.530   4.230   6.136
12309TIP3   OH236867   1.554   6.098   5.713
12309TIP3    H136868   1.561   6.057   5.800
12309TIP3    H236869   1.623   6.056   5.662
12310TIP3   OH236870   4.497   1.384   2.516
12310TIP3    H136871   4.448   1.313   2.474
12310TIP3    H236872   4.586   1.377   2.480
12311TIP3   OH236873   2.274   4.201   6.772
12311TIP3    H136874   2.306   4.219   6.860
12311TIP3    H236875   2.353   4.202   6.718
12312TIP3   OH236876   0.943   5.588   5.914
12312TIP3    H136877   1.032   5.625   5.911
12312TIP3    H236878   0.955   5.495   5.893
12313TIP3   OH236879   8.325   4.094   4.893
12313TIP3    H136880   8.284   4.056   4.971
12313TIP3    H236881   8.265   4.164   4.867
12314TIP3   OH236882   1.821   1.016   0.212
12314TIP3    H136883   1.837   1.109   0.198
12314TIP3    H236884   1.885   0.990   0.278
12315TIP3   OH236885   4.477   2.342   3.652
12315TIP3    H136886   4.416   2.294   3.595
12315TIP3    H236887   4.429   2.355   3.733
12316TIP3   OH236888   0.676   7.014   5.973
12316TIP3    H136889   0.627   6.976   5.901
12316TIP3    H236890   0.754   7.052   5.932
12317TIP3   OH236891   5.807   3.627   0.482
12317TIP3    H136892   5.895   3.660   0.460
12317TIP3    H236893   5.775   3.589   0.400
12318TIP3   OH236894   4.844   3.931   1.679
12318TIP3    H136895   4.779   3.861   1.686
12318TIP3    H236896   4.919   3.898   1.729
12319TIP3   OH236897   1.149   4.678   2.470
12319TIP3    H136898   1.186   4.694   2.556
12319TIP3    H236899   1.145   4.583   2.462
12320TIP3   OH236900   7.834   0.581   2.665
12320TIP3    H136901   7.835   0.671   2.632
12320TIP3    H236902   7.875   0.530   2.595
12321TIP3   OH236903   2.128   5.329   5.096
12321TIP3    H136904   2.200   5.268   5.111
12321TIP3    H236905   2.169   5.407   5.061
12322TIP3   OH236906   6.227   7.171   0.154
12322TIP3    H136907   6.183   7.112   0.214
12322TIP3    H236908   6.164   7.243   0.140
12323TIP3   OH236909   8.057   3.226   6.098
12323TIP3    H136910   8.066   3.235   6.003
12323TIP3    H236911   8.137   3.180   6.125
12324TIP3   OH236912   2.879   3.618   6.767
12324TIP3    H136913   2.860   3.527   6.790
12324TIP3    H236914   2.869   3.666   6.849
12325TIP3   OH236915   4.223   6.477   5.146
12325TIP3    H136916   4.218   6.566   5.179
12325TIP3    H236917   4.231   6.486   5.051
12326TIP3   OH236918   1.399   4.617   2.898
12326TIP3    H136919   1.478   4.591   2.945
12326TIP3    H236920   1.360   4.534   2.869
12327TIP3   OH236921   1.164   2.458   0.651
12327TIP3    H136922   1.123   2.410   0.723
12327TIP3    H236923   1.120   2.425   0.572
12328TIP3   OH236924   5.314   2.728   5.069
12328TIP3    H136925   5.221   2.714   5.089
12328TIP3    H236926   5.340   2.647   5.025
12329TIP3   OH236927   1.283   2.357   0.943
12329TIP3    H136928   1.239   2.442   0.948
12329TIP3    H236929   1.239   2.312   0.871
12330TIP3   OH236930   7.981   7.469   6.542
12330TIP3    H136931   8.015   7.536   6.483
12330TIP3    H236932   7.911   7.513   6.590
12331TIP3   OH236933   7.714   1.019   5.990
12331TIP3    H136934   7.804   1.012   5.957
12331TIP3    H236935   7.713   1.100   6.040
12332TIP3   OH236936   2.580   1.270   1.258
12332TIP3    H136937   2.488   1.269   1.285
12332TIP3    H236938   2.601   1.363   1.249
12333TIP3   OH236939   8.020   3.778   1.663
12333TIP3    H136940   8.003   3.788   1.569
12333TIP3    H236941   8.094   3.718   1.668
12334TIP3   OH236942   1.563   2.131   2.277
12334TIP3    H136943   1.576   2.219   2.241
12334TIP3    H236944   1.471   2.130   2.305
12335TIP3   OH236945   0.300   7.226   4.378
12335TIP3    H136946   0.210   7.258   4.369
12335TIP3    H236947   0.293   7.132   4.363
12336TIP3   OH236948   0.150   5.708   2.122
12336TIP3    H136949   0.184   5.792   2.155
12336TIP3    H236950   0.186   5.701   2.033
12337TIP3   OH236951   7.236   1.562   4.344
12337TIP3    H136952   7.157   1.612   4.324
12337TIP3    H236953   7.287   1.563   4.263
12338TIP3   OH236954   5.853   4.885   3.217
12338TIP3    H136955   5.936   4.923   3.187
12338TIP3    H236956   5.806   4.865   3.137
12339TIP3   OH236957   2.733   2.449   1.212
12339TIP3    H136958   2.796   2.390   1.254
12339TIP3    H236959   2.731   2.420   1.121
12340TIP3   OH236960   0.720   0.091   0.367
12340TIP3    H136961   0.794   0.087   0.428
12340TIP3    H236962   0.753   0.141   0.293
12341TIP3   OH236963   2.220   6.865   3.581
12341TIP3    H136964   2.304   6.911   3.573
12341TIP3    H236965   2.187   6.891   3.667
12342TIP3   OH236966   2.209   5.866   1.184
12342TIP3    H136967   2.211   5.785   1.133
12342TIP3    H236968   2.185   5.838   1.272
12343TIP3   OH236969   4.865   3.520   5.766
12343TIP3    H136970   4.948   3.562   5.743
12343TIP3    H236971   4.798   3.575   5.726
12344TIP3   OH236972   7.566   0.414   1.290
12344TIP3    H136973   7.513   0.386   1.215
12344TIP3    H236974   7.567   0.338   1.349
12345TIP3   OH236975   6.673   6.036   5.597
12345TIP3    H136976   6.631   6.099   5.539
12345TIP3    H236977   6.707   5.968   5.539
12346TIP3   OH236978   8.372   2.606   0.443
12346TIP3    H136979   8.413   2.653   0.370
12346TIP3    H236980   8.410   2.645   0.522
12347TIP3   OH236981   7.880   2.470   4.450
12347TIP3    H136982   7.906   2.428   4.532
12347TIP3    H236983   7.793   2.433   4.431
12348TIP3   OH236984   5.902   4.085   1.790
12348TIP3    H136985   5.879   4.136   1.713
12348TIP3    H236986   5.948   4.008   1.755
12349TIP3   OH236987   4.818   6.492   0.375
12349TIP3    H136988   4.821   6.580   0.336
12349TIP3    H236989   4.832   6.433   0.301
12350TIP3   OH236990   6.135   3.660   1.091
12350TIP3    H136991   6.136   3.711   1.010
12350TIP3    H236992   6.213   3.605   1.085
12351TIP3   OH236993   0.064   5.456   0.494
12351TIP3    H136994   0.095   5.546   0.501
12351TIP3    H236995   0.043   5.445   0.402
12352TIP3   OH236996   3.814   6.825   1.294
12352TIP3    H136997   3.820   6.837   1.388
12352TIP3    H236998   3.904   6.832   1.263
12353TIP3   OH236999   3.531   5.846   2.792
12353TIP3    H137000   3.609   5.865   2.843
12353TIP3    H237001   3.475   5.923   2.805
12354TIP3   OH237002   0.287   2.584   1.501
12354TIP3    H137003   0.347   2.646   1.543
12354TIP3    H237004   0.262   2.627   1.419
12355TIP3   OH237005   4.034   5.204   6.391
12355TIP3    H137006   4.128   5.194   6.379
12355TIP3    H237007   4.020   5.187   6.484
12356TIP3   OH237008   7.853   1.522   0.154
12356TIP3    H137009   7.873   1.480   0.071
12356TIP3    H237010   7.936   1.520   0.203
12357TIP3   OH237011   7.701   1.764   0.069
12357TIP3    H137012   7.651   1.745  -0.011
12357TIP3    H237013   7.738   1.679   0.095
12358TIP3   OH237014   1.681   4.275   0.769
12358TIP3    H137015   1.601   4.293   0.719
12358TIP3    H237016   1.668   4.322   0.852
12359TIP3   OH237017   3.299   4.229   5.638
12359TIP3    H137018   3.213   4.269   5.648
12359TIP3    H237019   3.304   4.164   5.709
12360TIP3   OH237020   4.969   3.262   0.991
12360TIP3    H137021   5.045   3.210   1.017
12360TIP3    H237022   4.986   3.286   0.900
12361TIP3   OH237023   8.151   2.412   0.482
12361TIP3    H137024   8.207   2.490   0.471
12361TIP3    H237025   8.210   2.338   0.467
12362TIP3   OH237026   7.414   3.589   3.695
12362TIP3    H137027   7.450   3.628   3.775
12362TIP3    H237028   7.415   3.495   3.711
12363TIP3   OH237029   6.335   1.138   5.348
12363TIP3    H137030   6.372   1.053   5.371
12363TIP3    H237031   6.350   1.145   5.253
12364TIP3   OH237032   6.853   0.688   5.580
12364TIP3    H137033   6.871   0.708   5.672
12364TIP3    H237034   6.780   0.626   5.583
12365TIP3   OH237035   1.067   1.327   1.050
12365TIP3    H137036   1.082   1.289   0.963
12365TIP3    H237037   1.045   1.418   1.033
12366TIP3   OH237038   1.774   5.188   3.129
12366TIP3    H137039   1.797   5.108   3.176
12366TIP3    H237040   1.856   5.218   3.091
12367TIP3   OH237041   6.122   1.547   3.420
12367TIP3    H137042   6.040   1.596   3.426
12367TIP3    H237043   6.126   1.498   3.502
12368TIP3   OH237044   2.813   6.218   3.835
12368TIP3    H137045   2.861   6.203   3.753
12368TIP3    H237046   2.758   6.140   3.845
12369TIP3   OH237047   6.832   5.268   2.835
12369TIP3    H137048   6.911   5.231   2.874
12369TIP3    H237049   6.821   5.220   2.753
12370TIP3   OH237050   1.505   3.007   5.714
12370TIP3    H137051   1.501   3.077   5.780
12370TIP3    H237052   1.435   3.028   5.653
12371TIP3   OH237053   1.776   3.112   1.712
12371TIP3    H137054   1.732   3.038   1.669
12371TIP3    H237055   1.866   3.081   1.727
12372TIP3   OH237056   5.260   3.007   0.123
12372TIP3    H137057   5.319   3.081   0.113
12372TIP3    H237058   5.289   2.963   0.204
12373TIP3   OH237059   6.925   5.452   0.333
12373TIP3    H137060   6.870   5.377   0.310
12373TIP3    H237061   6.865   5.527   0.336
12374TIP3   OH237062   1.853   7.684   5.132
12374TIP3    H137063   1.780   7.679   5.194
12374TIP3    H237064   1.822   7.636   5.055
12375TIP3   OH237065   2.161   1.797   0.045
12375TIP3    H137066   2.104   1.768   0.116
12375TIP3    H237067   2.180   1.889   0.066
12376TIP3   OH237068   5.639   5.336   6.298
12376TIP3    H137069   5.544   5.337   6.283
12376TIP3    H237070   5.672   5.413   6.254
12377TIP3   OH237071   6.991   1.379   1.355
12377TIP3    H137072   6.965   1.307   1.413
12377TIP3    H237073   7.061   1.342   1.301
12378TIP3   OH237074   3.845   1.683   6.242
12378TIP3    H137075   3.764   1.661   6.289
12378TIP3    H237076   3.900   1.725   6.308
12379TIP3   OH237077   5.772   7.280   0.307
12379TIP3    H137078   5.792   7.253   0.397
12379TIP3    H237079   5.857   7.285   0.264
12380TIP3   OH237080   5.391   6.027   0.099
12380TIP3    H137081   5.317   6.038   0.040
12380TIP3    H237082   5.351   6.011   0.185
12381TIP3   OH237083   8.134   2.472   6.590
12381TIP3    H137084   8.053   2.505   6.552
12381TIP3    H237085   8.188   2.448   6.514
12382TIP3   OH237086   3.457   1.023   5.976
12382TIP3    H137087   3.361   1.020   5.979
12382TIP3    H237088   3.480   1.111   6.008
12383TIP3   OH237089   6.797   0.046   2.811
12383TIP3    H137090   6.844   0.030   2.729
12383TIP3    H237091   6.814   0.138   2.832
12384TIP3   OH237092   5.447   3.846   6.247
12384TIP3    H137093   5.492   3.796   6.178
12384TIP3    H237094   5.360   3.805   6.253
12385TIP3   OH237095   7.308   7.600   2.229
12385TIP3    H137096   7.365   7.645   2.291
12385TIP3    H237097   7.339   7.627   2.143
12386TIP3   OH237098   5.183   1.133   0.486
12386TIP3    H137099   5.237   1.054   0.492
12386TIP3    H237100   5.119   1.124   0.556
12387TIP3   OH237101   8.256   7.488   3.761
12387TIP3    H137102   8.336   7.435   3.767
12387TIP3    H237103   8.185   7.424   3.753
12388TIP3   OH237104  -0.008   2.897   4.835
12388TIP3    H137105  -0.024   2.875   4.744
12388TIP3    H237106   0.069   2.954   4.833
12389TIP3   OH237107   4.955   2.853   0.954
12389TIP3    H137108   5.002   2.770   0.943
12389TIP3    H237109   5.022   2.920   0.940
12390TIP3   OH237110   0.536   1.258   0.715
12390TIP3    H137111   0.477   1.301   0.654
12390TIP3    H237112   0.491   1.178   0.741
12391TIP3   OH237113   0.319   6.648   2.982
12391TIP3    H137114   0.376   6.576   3.009
12391TIP3    H237115   0.291   6.625   2.894
12392TIP3   OH237116   1.708   0.982   4.697
12392TIP3    H137117   1.668   1.068   4.686
12392TIP3    H237118   1.639   0.928   4.736
12393TIP3   OH237119   0.770   3.438   5.496
12393TIP3    H137120   0.736   3.359   5.537
12393TIP3    H237121   0.767   3.419   5.402
12394TIP3   OH237122   1.701   4.141   3.980
12394TIP3    H137123   1.778   4.142   3.923
12394TIP3    H237124   1.725   4.198   4.053
12395TIP3   OH237125   3.115   0.597   6.445
12395TIP3    H137126   3.139   0.529   6.508
12395TIP3    H237127   3.194   0.651   6.437
12396TIP3   OH237128   3.843   7.705   5.908
12396TIP3    H137129   3.879   7.723   5.995
12396TIP3    H237130   3.919   7.685   5.855
12397TIP3   OH237131   3.387   5.478   6.373
12397TIP3    H137132   3.412   5.568   6.353
12397TIP3    H237133   3.318   5.486   6.439
12398TIP3   OH237134   6.160   5.913   0.528
12398TIP3    H137135   6.135   5.898   0.437
12398TIP3    H237136   6.093   5.870   0.580
12399TIP3   OH237137   7.612   4.896   4.194
12399TIP3    H137138   7.648   4.984   4.206
12399TIP3    H237139   7.688   4.839   4.186
12400TIP3   OH237140   3.925   7.137   0.788
12400TIP3    H137141   3.889   7.054   0.820
12400TIP3    H237142   4.020   7.128   0.801
12401TIP3   OH237143   7.014   3.187   4.639
12401TIP3    H137144   7.035   3.276   4.667
12401TIP3    H237145   7.098   3.142   4.635
12402TIP3   OH237146   0.063   3.441   1.628
12402TIP3    H137147   0.073   3.379   1.557
12402TIP3    H237148   0.136   3.422   1.688
12403TIP3   OH237149   3.615   0.486   3.997
12403TIP3    H137150   3.552   0.512   4.064
12403TIP3    H237151   3.564   0.483   3.916
12404TIP3   OH237152   2.548   3.514   5.266
12404TIP3    H137153   2.582   3.603   5.255
12404TIP3    H237154   2.550   3.499   5.361
12405TIP3   OH237155   6.889   5.939   6.457
12405TIP3    H137156   6.936   6.009   6.503
12405TIP3    H237157   6.956   5.895   6.404
12406TIP3   OH237158   7.220   6.975   6.407
12406TIP3    H137159   7.126   6.986   6.423
12406TIP3    H237160   7.258   7.061   6.427
12407TIP3   OH237161   8.259   4.624   4.356
12407TIP3    H137162   8.212   4.636   4.273
12407TIP3    H237163   8.251   4.708   4.401
12408TIP3   OH237164   1.033   3.986   1.394
12408TIP3    H137165   0.950   4.011   1.433
12408TIP3    H237166   1.044   3.894   1.418
12409TIP3   OH237167   5.898   3.123   3.022
12409TIP3    H137168   5.880   3.138   2.929
12409TIP3    H237169   5.984   3.081   3.024
12410TIP3   OH237170   1.421   1.434   1.407
12410TIP3    H137171   1.388   1.433   1.317
12410TIP3    H237172   1.404   1.523   1.437
12411TIP3   OH237173   0.915   7.579   4.700
12411TIP3    H137174   0.847   7.554   4.637
12411TIP3    H237175   0.888   7.664   4.732
12412TIP3   OH237176   6.121   4.666   2.960
12412TIP3    H137177   6.193   4.645   3.019
12412TIP3    H237178   6.151   4.637   2.874
12413TIP3   OH237179   7.598   2.945   3.740
12413TIP3    H137180   7.603   2.857   3.779
12413TIP3    H237181   7.687   2.980   3.750
12414TIP3   OH237182   3.178   0.074   4.117
12414TIP3    H137183   3.247   0.128   4.080
12414TIP3    H237184   3.189  -0.012   4.076
12415TIP3   OH237185   0.831   4.164   0.310
12415TIP3    H137186   0.843   4.246   0.262
12415TIP3    H237187   0.741   4.168   0.342
12416TIP3   OH237188   1.059   4.547   6.390
12416TIP3    H137189   1.120   4.621   6.391
12416TIP3    H237190   0.978   4.582   6.425
12417TIP3   OH237191   5.846   3.160   1.172
12417TIP3    H137192   5.845   3.088   1.110
12417TIP3    H237193   5.906   3.131   1.241
12418TIP3   OH237194   7.642   0.222   3.881
12418TIP3    H137195   7.612   0.133   3.901
12418TIP3    H237196   7.653   0.263   3.967
12419TIP3   OH237197   1.569   4.048   0.440
12419TIP3    H137198   1.606   3.966   0.473
12419TIP3    H237199   1.483   4.054   0.481
12420TIP3   OH237200   5.032   3.494   2.221
12420TIP3    H137201   4.971   3.428   2.190
12420TIP3    H237202   5.076   3.526   2.142
12421TIP3   OH237203   6.751   0.236   1.026
12421TIP3    H137204   6.680   0.239   1.091
12421TIP3    H237205   6.715   0.281   0.949
12422TIP3   OH237206   3.899   2.792   1.122
12422TIP3    H137207   3.984   2.772   1.161
12422TIP3    H237208   3.851   2.838   1.192
12423TIP3   OH237209   3.767   3.584   1.771
12423TIP3    H137210   3.806   3.496   1.772
12423TIP3    H237211   3.674   3.569   1.757
12424TIP3   OH237212   0.435   0.548   5.259
12424TIP3    H137213   0.494   0.473   5.262
12424TIP3    H237214   0.380   0.531   5.183
12425TIP3   OH237215   6.895   2.022   6.818
12425TIP3    H137216   6.955   2.096   6.823
12425TIP3    H237217   6.869   2.018   6.726
12426TIP3   OH237218   6.122   2.466   2.492
12426TIP3    H137219   6.067   2.501   2.423
12426TIP3    H237220   6.107   2.524   2.567
12427TIP3   OH237221   4.301   5.056   1.761
12427TIP3    H137222   4.231   5.056   1.696
12427TIP3    H237223   4.265   5.106   1.835
12428TIP3   OH237224   1.269   5.133   4.336
12428TIP3    H137225   1.289   5.217   4.377
12428TIP3    H237226   1.190   5.103   4.381
12429TIP3   OH237227   1.731   7.758   5.791
12429TIP3    H137228   1.701   7.791   5.876
12429TIP3    H237229   1.717   7.832   5.731
12430TIP3   OH237230   0.382   7.334   3.338
12430TIP3    H137231   0.467   7.374   3.322
12430TIP3    H237232   0.346   7.382   3.412
12431TIP3   OH237233   4.121   3.181   4.598
12431TIP3    H137234   4.169   3.182   4.680
12431TIP3    H237235   4.167   3.244   4.542
12432TIP3   OH237236   1.966   6.459   3.227
12432TIP3    H137237   1.971   6.422   3.139
12432TIP3    H237238   1.929   6.546   3.213
12433TIP3   OH237239   3.927   3.700   6.389
12433TIP3    H137240   3.928   3.657   6.475
12433TIP3    H237241   3.861   3.652   6.339
12434TIP3   OH237242   6.100   3.669   5.748
12434TIP3    H137243   6.113   3.597   5.810
12434TIP3    H237244   6.099   3.628   5.662
12435TIP3   OH237245   3.463   5.571   5.020
12435TIP3    H137246   3.502   5.498   5.068
12435TIP3    H237247   3.404   5.529   4.956
12436TIP3   OH237248   0.162   0.409   5.631
12436TIP3    H137249   0.164   0.349   5.556
12436TIP3    H237250   0.070   0.416   5.654
12437TIP3   OH237251   4.320   0.891   6.294
12437TIP3    H137252   4.308   0.928   6.206
12437TIP3    H237253   4.313   0.966   6.353
12438TIP3   OH237254   7.322   3.054   0.892
12438TIP3    H137255   7.409   3.028   0.862
12438TIP3    H237256   7.279   3.088   0.813
12439TIP3   OH237257   0.029   5.752   0.351
12439TIP3    H137258   0.030   5.788   0.262
12439TIP3    H237259   0.014   5.828   0.407
12440TIP3   OH237260   5.167   3.772   6.581
12440TIP3    H137261   5.182   3.846   6.640
12440TIP3    H237262   5.252   3.728   6.577
12441TIP3   OH237263   4.576   2.675   3.151
12441TIP3    H137264   4.546   2.591   3.184
12441TIP3    H237265   4.618   2.654   3.067
12442TIP3   OH237266   7.671   6.265   5.958
12442TIP3    H137267   7.743   6.308   5.912
12442TIP3    H237268   7.698   6.173   5.965
12443TIP3   OH237269   5.501   4.697   5.396
12443TIP3    H137270   5.527   4.746   5.317
12443TIP3    H237271   5.510   4.760   5.467
12444TIP3   OH237272   4.967   6.531   6.660
12444TIP3    H137273   4.942   6.555   6.570
12444TIP3    H237274   5.032   6.462   6.649
12445TIP3   OH237275   7.737   0.020   2.378
12445TIP3    H137276   7.681   0.065   2.314
12445TIP3    H237277   7.823   0.016   2.337
12446TIP3   OH237278   2.937   4.319   3.314
12446TIP3    H137279   2.985   4.374   3.376
12446TIP3    H237280   2.919   4.238   3.362
12447TIP3   OH237281   7.024   6.889   6.080
12447TIP3    H137282   7.023   6.973   6.035
12447TIP3    H237283   6.939   6.883   6.123
12448TIP3   OH237284   6.190   2.741   4.901
12448TIP3    H137285   6.213   2.740   4.808
12448TIP3    H237286   6.098   2.765   4.903
12449TIP3   OH237287   2.956   2.687   4.825
12449TIP3    H137288   2.879   2.663   4.876
12449TIP3    H237289   3.028   2.687   4.889
12450TIP3   OH237290   2.025   4.177   0.592
12450TIP3    H137291   1.950   4.210   0.543
12450TIP3    H237292   2.010   4.208   0.682
12451TIP3   OH237293   1.054   4.728   5.962
12451TIP3    H137294   1.039   4.733   5.868
12451TIP3    H237295   1.150   4.729   5.971
12452TIP3   OH237296   4.354   3.755   0.707
12452TIP3    H137297   4.286   3.718   0.762
12452TIP3    H237298   4.403   3.813   0.765
12453TIP3   OH237299   5.891   0.097   3.314
12453TIP3    H137300   5.903   0.029   3.380
12453TIP3    H237301   5.961   0.160   3.332
12454TIP3   OH237302   5.699   2.609   6.476
12454TIP3    H137303   5.660   2.530   6.439
12454TIP3    H237304   5.667   2.612   6.566
12455TIP3   OH237305   5.073   5.954   2.535
12455TIP3    H137306   5.103   5.930   2.447
12455TIP3    H237307   4.998   6.011   2.521
12456TIP3   OH237308   4.928   7.457   5.437
12456TIP3    H137309   4.877   7.426   5.512
12456TIP3    H237310   5.010   7.489   5.475
12457TIP3   OH237311   6.437   3.493   2.567
12457TIP3    H137312   6.450   3.484   2.473
12457TIP3    H237313   6.516   3.456   2.606
12458TIP3   OH237314   7.639   7.659   4.657
12458TIP3    H137315   7.715   7.692   4.705
12458TIP3    H237316   7.656   7.682   4.566
12459TIP3   OH237317   1.989   5.716   2.294
12459TIP3    H137318   1.970   5.773   2.368
12459TIP3    H237319   1.903   5.701   2.253
12460TIP3   OH237320  -0.023   7.078   5.937
12460TIP3    H137321   0.014   7.044   5.856
12460TIP3    H237322   0.032   7.154   5.959
12461TIP3   OH237323   0.082   4.234   4.051
12461TIP3    H137324   0.158   4.222   3.994
12461TIP3    H237325   0.119   4.249   4.138
12462TIP3   OH237326   2.574   4.851   0.698
12462TIP3    H137327   2.637   4.829   0.630
12462TIP3    H237328   2.584   4.782   0.763
12463TIP3   OH237329   7.347   5.310   6.822
12463TIP3    H137330   7.315   5.354   6.900
12463TIP3    H237331   7.425   5.359   6.796
12464TIP3   OH237332   3.762   2.950   1.289
12464TIP3    H137333   3.686   3.005   1.309
12464TIP3    H237334   3.837   3.006   1.307
12465TIP3   OH237335   0.665   2.124   4.375
12465TIP3    H137336   0.727   2.143   4.446
12465TIP3    H237337   0.694   2.040   4.339
12466TIP3   OH237338   3.362   7.143   2.634
12466TIP3    H137339   3.417   7.216   2.664
12466TIP3    H237340   3.423   7.085   2.588
12467TIP3   OH237341   4.587   4.039   0.303
12467TIP3    H137342   4.568   4.086   0.384
12467TIP3    H237343   4.588   4.108   0.236
12468TIP3   OH237344   2.053   0.977   5.196
12468TIP3    H137345   2.002   0.897   5.188
12468TIP3    H237346   1.988   1.047   5.188
12469TIP3   OH237347   0.444   3.809   1.555
12469TIP3    H137348   0.369   3.827   1.498
12469TIP3    H237349   0.416   3.735   1.608
12470TIP3   OH237350   0.779   0.362   0.200
12470TIP3    H137351   0.794   0.448   0.159
12470TIP3    H237352   0.766   0.383   0.293
12471TIP3   OH237353   4.205   5.214   4.475
12471TIP3    H137354   4.130   5.251   4.428
12471TIP3    H237355   4.168   5.142   4.526
12472TIP3   OH237356   0.700   5.224   1.213
12472TIP3    H137357   0.790   5.252   1.224
12472TIP3    H237358   0.657   5.241   1.297
12473TIP3   OH237359   2.066   3.147   4.222
12473TIP3    H137360   2.109   3.145   4.137
12473TIP3    H237361   1.995   3.210   4.212
12474TIP3   OH237362   4.627   6.510   4.545
12474TIP3    H137363   4.579   6.469   4.617
12474TIP3    H237364   4.674   6.583   4.586
12475TIP3   OH237365   0.528   4.603   4.006
12475TIP3    H137366   0.592   4.532   4.012
12475TIP3    H237367   0.574   4.674   3.961
12476TIP3   OH237368   6.285   4.546   4.020
12476TIP3    H137369   6.202   4.500   4.030
12476TIP3    H237370   6.281   4.583   3.931
12477TIP3   OH237371   3.947   2.915   3.595
12477TIP3    H137372   3.986   2.982   3.538
12477TIP3    H237373   3.886   2.868   3.538
12478TIP3   OH237374   4.113   3.363   6.160
12478TIP3    H137375   4.208   3.372   6.153
12478TIP3    H237376   4.100   3.277   6.200
12479TIP3   OH237377   0.898   6.984   1.496
12479TIP3    H137378   0.846   6.916   1.539
12479TIP3    H237379   0.873   6.979   1.404
12480TIP3   OH237380   3.400   4.629   5.799
12480TIP3    H137381   3.432   4.680   5.873
12480TIP3    H237382   3.467   4.638   5.732
12481TIP3   OH237383   5.362   2.722   5.882
12481TIP3    H137384   5.410   2.792   5.926
12481TIP3    H237385   5.275   2.724   5.921
12482TIP3   OH237386   3.636   2.196   3.949
12482TIP3    H137387   3.670   2.114   3.913
12482TIP3    H237388   3.646   2.260   3.878
12483TIP3   OH237389   8.166   4.171   2.956
12483TIP3    H137390   8.218   4.119   2.894
12483TIP3    H237391   8.155   4.256   2.913
12484TIP3   OH237392   7.638   2.830   0.415
12484TIP3    H137393   7.592   2.782   0.483
12484TIP3    H237394   7.653   2.917   0.452
12485TIP3   OH237395   1.633   1.246   2.195
12485TIP3    H137396   1.723   1.268   2.171
12485TIP3    H237397   1.630   1.253   2.290
12486TIP3   OH237398   3.885   7.943   5.616
12486TIP3    H137399   3.937   7.864   5.629
12486TIP3    H237400   3.842   7.957   5.701
12487TIP3   OH237401   2.215   2.636   6.712
12487TIP3    H137402   2.274   2.694   6.760
12487TIP3    H237403   2.271   2.593   6.648
12488TIP3   OH237404   3.384   1.169   6.568
12488TIP3    H137405   3.424   1.256   6.580
12488TIP3    H237406   3.329   1.179   6.491
12489TIP3   OH237407   1.598   1.138   1.935
12489TIP3    H137408   1.613   1.141   2.029
12489TIP3    H237409   1.658   1.071   1.903
12490TIP3   OH237410   0.353   5.226   6.257
12490TIP3    H137411   0.443   5.256   6.249
12490TIP3    H237412   0.338   5.175   6.177
12491TIP3   OH237413   4.876   6.224   3.873
12491TIP3    H137414   4.859   6.270   3.791
12491TIP3    H237415   4.937   6.281   3.920
12492TIP3   OH237416   0.801   1.868   4.357
12492TIP3    H137417   0.774   1.820   4.435
12492TIP3    H237418   0.891   1.893   4.375
12493TIP3   OH237419   6.689   1.577   0.465
12493TIP3    H137420   6.643   1.496   0.444
12493TIP3    H237421   6.677   1.632   0.388
12494TIP3   OH237422   5.456   5.457   0.451
12494TIP3    H137423   5.398   5.388   0.480
12494TIP3    H237424   5.529   5.456   0.513
12495TIP3   OH237425   4.086   4.004   4.543
12495TIP3    H137426   4.104   4.093   4.572
12495TIP3    H237427   4.161   3.981   4.488
12496TIP3   OH237428   7.301   5.272   1.785
12496TIP3    H137429   7.285   5.195   1.730
12496TIP3    H237430   7.349   5.333   1.729
12497TIP3   OH237431   6.282   6.923   6.119
12497TIP3    H137432   6.298   6.930   6.213
12497TIP3    H237433   6.187   6.915   6.111
12498TIP3   OH237434   5.585   3.783   4.269
12498TIP3    H137435   5.602   3.690   4.253
12498TIP3    H237436   5.643   3.805   4.342
12499TIP3   OH237437   7.759   5.939   5.267
12499TIP3    H137438   7.745   5.866   5.328
12499TIP3    H237439   7.826   5.993   5.310
12500TIP3   OH237440   4.669   3.855   3.017
12500TIP3    H137441   4.640   3.856   2.926
12500TIP3    H237442   4.637   3.937   3.054
12501TIP3   OH237443   4.645   1.635   0.597
12501TIP3    H137444   4.723   1.676   0.557
12501TIP3    H237445   4.588   1.708   0.619
12502TIP3   OH237446   7.996   5.588   3.109
12502TIP3    H137447   8.007   5.516   3.171
12502TIP3    H237448   8.078   5.591   3.061
12503TIP3   OH237449   8.200   6.979   5.607
12503TIP3    H137450   8.223   6.932   5.527
12503TIP3    H237451   8.240   7.066   5.595
12504TIP3   OH237452   6.167   4.920   1.106
12504TIP3    H137453   6.180   4.959   1.193
12504TIP3    H237454   6.077   4.888   1.107
12505TIP3   OH237455   3.279   2.833   2.541
12505TIP3    H137456   3.310   2.912   2.496
12505TIP3    H237457   3.227   2.787   2.475
12506TIP3   OH237458   1.704   2.133   6.419
12506TIP3    H137459   1.620   2.118   6.461
12506TIP3    H237460   1.767   2.085   6.473
12507TIP3   OH237461   3.885   4.630   2.115
12507TIP3    H137462   3.947   4.559   2.135
12507TIP3    H237463   3.834   4.597   2.042
12508TIP3   OH237464   3.450   2.184   4.666
12508TIP3    H137465   3.401   2.148   4.739
12508TIP3    H237466   3.460   2.111   4.605
12509TIP3   OH237467   3.152   5.629   1.990
12509TIP3    H137468   3.102   5.706   1.961
12509TIP3    H237469   3.222   5.666   2.044
12510TIP3   OH237470   3.428   1.102   3.819
12510TIP3    H137471   3.367   1.103   3.746
12510TIP3    H237472   3.461   1.192   3.824
12511TIP3   OH237473   2.168   4.768   0.669
12511TIP3    H137474   2.229   4.709   0.712
12511TIP3    H237475   2.082   4.727   0.681
12512TIP3   OH237476   6.101   4.608   1.168
12512TIP3    H137477   6.120   4.590   1.260
12512TIP3    H237478   6.110   4.703   1.160
12513TIP3   OH237479   5.128   0.933   1.055
12513TIP3    H137480   5.071   0.904   0.984
12513TIP3    H237481   5.216   0.905   1.030
12514TIP3   OH237482   7.928   1.291   6.073
12514TIP3    H137483   7.888   1.297   6.159
12514TIP3    H237484   7.854   1.290   6.012
12515TIP3   OH237485   1.929   6.521   6.099
12515TIP3    H137486   1.941   6.582   6.026
12515TIP3    H237487   2.013   6.522   6.146
12516TIP3   OH237488   7.559   6.226   0.475
12516TIP3    H137489   7.557   6.316   0.509
12516TIP3    H237490   7.647   6.195   0.496
12517TIP3   OH237491   7.933   1.140   0.371
12517TIP3    H137492   8.019   1.115   0.336
12517TIP3    H237493   7.900   1.204   0.308
12518TIP3   OH237494   0.743   6.568   2.177
12518TIP3    H137495   0.816   6.531   2.225
12518TIP3    H237496   0.666   6.524   2.211
12519TIP3   OH237497   1.830   4.056   6.596
12519TIP3    H137498   1.739   4.081   6.580
12519TIP3    H237499   1.843   3.979   6.541
12520TIP3   OH237500   7.276   6.193   3.421
12520TIP3    H137501   7.184   6.207   3.402
12520TIP3    H237502   7.292   6.243   3.501
12521TIP3   OH237503   1.315   6.413   5.179
12521TIP3    H137504   1.374   6.428   5.253
12521TIP3    H237505   1.239   6.468   5.199
12522TIP3   OH237506   6.758   3.443   2.519
12522TIP3    H137507   6.821   3.484   2.577
12522TIP3    H237508   6.731   3.363   2.564
12523TIP3   OH237509   3.112   1.062   2.229
12523TIP3    H137510   3.133   1.110   2.309
12523TIP3    H237511   3.058   1.123   2.178
12524TIP3   OH237512   5.614   1.850   6.587
12524TIP3    H137513   5.592   1.942   6.604
12524TIP3    H237514   5.530   1.809   6.568
12525TIP3   OH237515   6.817   3.987   3.539
12525TIP3    H137516   6.873   3.993   3.617
12525TIP3    H237517   6.839   4.066   3.489
12526TIP3   OH237518   7.703   0.510   0.514
12526TIP3    H137519   7.695   0.538   0.423
12526TIP3    H237520   7.772   0.564   0.551
12527TIP3   OH237521   0.823   5.164   2.470
12527TIP3    H137522   0.799   5.080   2.430
12527TIP3    H237523   0.884   5.141   2.540
12528TIP3   OH237524   2.565   5.812   5.502
12528TIP3    H137525   2.559   5.844   5.592
12528TIP3    H237526   2.610   5.727   5.510
12529TIP3   OH237527   4.439   0.324   0.955
12529TIP3    H137528   4.460   0.287   1.041
12529TIP3    H237529   4.346   0.346   0.960
12530TIP3   OH237530   4.917   7.088   0.500
12530TIP3    H137531   4.973   7.038   0.441
12530TIP3    H237532   4.876   7.154   0.444
12531TIP3   OH237533   2.180   1.501   5.790
12531TIP3    H137534   2.211   1.583   5.752
12531TIP3    H237535   2.146   1.524   5.876
12532TIP3   OH237536   8.270   1.396   2.937
12532TIP3    H137537   8.290   1.309   2.972
12532TIP3    H237538   8.356   1.434   2.916
12533TIP3   OH237539   2.979   2.944   3.395
12533TIP3    H137540   2.912   2.898   3.345
12533TIP3    H237541   2.984   2.896   3.478
12534TIP3   OH237542   5.495   2.043   2.835
12534TIP3    H137543   5.550   2.002   2.902
12534TIP3    H237544   5.542   2.028   2.753
12535TIP3   OH237545   2.421   1.441   3.239
12535TIP3    H137546   2.428   1.350   3.210
12535TIP3    H237547   2.394   1.488   3.160
12536TIP3   OH237548   3.868   6.097   4.694
12536TIP3    H137549   3.838   6.070   4.607
12536TIP3    H237550   3.797   6.073   4.753
12537TIP3   OH237551   4.822   2.178   0.517
12537TIP3    H137552   4.792   2.109   0.458
12537TIP3    H237553   4.831   2.136   0.602
12538TIP3   OH237554   8.343   0.663   5.326
12538TIP3    H137555   8.296   0.713   5.393
12538TIP3    H237556   8.274   0.616   5.278
12539TIP3   OH237557   6.189   0.325   1.415
12539TIP3    H137558   6.273   0.280   1.401
12539TIP3    H237559   6.137   0.301   1.338
12540TIP3   OH237560   5.310   2.321   3.736
12540TIP3    H137561   5.311   2.244   3.679
12540TIP3    H237562   5.400   2.354   3.733
12541TIP3   OH237563   1.798   2.665   2.977
12541TIP3    H137564   1.884   2.688   2.943
12541TIP3    H237565   1.812   2.647   3.070
12542TIP3   OH237566   6.484   1.430   6.567
12542TIP3    H137567   6.473   1.524   6.585
12542TIP3    H237568   6.500   1.425   6.473
12543TIP3   OH237569   5.069   5.229   6.639
12543TIP3    H137570   5.029   5.146   6.615
12543TIP3    H237571   5.159   5.223   6.607
12544TIP3   OH237572   0.133   1.458   2.705
12544TIP3    H137573   0.180   1.539   2.684
12544TIP3    H237574   0.046   1.470   2.666
12545TIP3   OH237575   5.023   6.572   0.776
12545TIP3    H137576   4.978   6.592   0.858
12545TIP3    H237577   5.115   6.564   0.801
12546TIP3   OH237578   1.703   2.019   4.687
12546TIP3    H137579   1.670   1.945   4.636
12546TIP3    H237580   1.742   1.979   4.765
12547TIP3   OH237581   0.291   6.317   4.158
12547TIP3    H137582   0.330   6.352   4.238
12547TIP3    H237583   0.317   6.380   4.090
12548TIP3   OH237584   2.180   4.635   4.702
12548TIP3    H137585   2.144   4.723   4.692
12548TIP3    H237586   2.186   4.601   4.612
12549TIP3   OH237587   2.607   6.002   0.992
12549TIP3    H137588   2.675   6.068   0.984
12549TIP3    H237589   2.582   5.982   0.901
12550TIP3   OH237590   7.327   0.545   3.266
12550TIP3    H137591   7.240   0.505   3.263
12550TIP3    H237592   7.382   0.480   3.311
12551TIP3   OH237593   4.673   0.537   5.306
12551TIP3    H137594   4.621   0.591   5.366
12551TIP3    H237595   4.621   0.535   5.225
12552TIP3   OH237596   2.280   5.841   3.757
12552TIP3    H137597   2.357   5.843   3.813
12552TIP3    H237598   2.283   5.756   3.714
12553TIP3   OH237599   0.861   6.797   5.394
12553TIP3    H137600   0.838   6.752   5.476
12553TIP3    H237601   0.957   6.803   5.396
12554TIP3   OH237602   1.419   3.946   5.435
12554TIP3    H137603   1.360   3.893   5.381
12554TIP3    H237604   1.439   4.022   5.379
12555TIP3   OH237605   7.837   4.870   1.444
12555TIP3    H137606   7.821   4.964   1.444
12555TIP3    H237607   7.880   4.852   1.361
12556TIP3   OH237608   7.179   6.867   2.606
12556TIP3    H137609   7.192   6.892   2.514
12556TIP3    H237610   7.084   6.870   2.618
12557TIP3   OH237611   1.981   0.879   4.901
12557TIP3    H137612   1.916   0.812   4.921
12557TIP3    H237613   2.026   0.847   4.823
12558TIP3   OH237614   7.259   2.665   6.368
12558TIP3    H137615   7.177   2.692   6.409
12558TIP3    H237616   7.232   2.629   6.283
12559TIP3   OH237617   4.803   7.747   6.663
12559TIP3    H137618   4.792   7.842   6.670
12559TIP3    H237619   4.840   7.733   6.576
12560TIP3   OH237620   7.412   2.425   1.096
12560TIP3    H137621   7.334   2.378   1.125
12560TIP3    H237622   7.415   2.504   1.151
12561TIP3   OH237623   1.895   6.142   5.852
12561TIP3    H137624   1.821   6.083   5.834
12561TIP3    H237625   1.972   6.087   5.839
12562TIP3   OH237626   5.804   0.950   6.147
12562TIP3    H137627   5.867   0.946   6.075
12562TIP3    H237628   5.720   0.926   6.108
12563TIP3   OH237629   0.406   5.103   4.313
12563TIP3    H137630   0.344   5.050   4.262
12563TIP3    H237631   0.478   5.042   4.333
12564TIP3   OH237632   3.903   5.073   6.016
12564TIP3    H137633   3.987   5.117   6.030
12564TIP3    H237634   3.901   5.004   6.082
12565TIP3   OH237635   0.711   5.946   0.677
12565TIP3    H137636   0.734   6.028   0.721
12565TIP3    H237637   0.795   5.908   0.652
12566TIP3   OH237638   4.029   3.887   2.078
12566TIP3    H137639   4.100   3.942   2.044
12566TIP3    H237640   4.005   3.831   2.004
12567TIP3   OH237641   1.279   4.240   6.840
12567TIP3    H137642   1.265   4.293   6.761
12567TIP3    H237643   1.368   4.263   6.868
12568TIP3   OH237644   1.215   0.525   5.605
12568TIP3    H137645   1.299   0.529   5.650
12568TIP3    H237646   1.157   0.580   5.658
12569TIP3   OH237647   5.038   2.370   5.347
12569TIP3    H137648   4.976   2.297   5.339
12569TIP3    H237649   5.029   2.400   5.437
12570TIP3   OH237650   8.091   2.083   3.587
12570TIP3    H137651   8.096   1.994   3.621
12570TIP3    H237652   8.136   2.079   3.503
12571TIP3   OH237653   2.241   1.526   3.655
12571TIP3    H137654   2.325   1.543   3.612
12571TIP3    H237655   2.242   1.432   3.673
12572TIP3   OH237656   4.057   7.288   2.323
12572TIP3    H137657   4.052   7.196   2.349
12572TIP3    H237658   3.972   7.306   2.284
12573TIP3   OH237659   1.407   5.364   1.628
12573TIP3    H137660   1.331   5.330   1.580
12573TIP3    H237661   1.382   5.357   1.720
12574TIP3   OH237662   2.100   6.149   1.388
12574TIP3    H137663   2.195   6.138   1.388
12574TIP3    H237664   2.077   6.164   1.297
12575TIP3   OH237665   5.863   4.932   4.584
12575TIP3    H137666   5.890   4.855   4.634
12575TIP3    H237667   5.899   4.919   4.497
12576TIP3   OH237668   7.149   7.599   6.175
12576TIP3    H137669   7.135   7.677   6.121
12576TIP3    H237670   7.203   7.542   6.120
12577TIP3   OH237671   3.053   4.063   4.654
12577TIP3    H137672   3.129   4.063   4.596
12577TIP3    H237673   2.992   4.124   4.614
12578TIP3   OH237674   8.344   3.991   5.333
12578TIP3    H137675   8.300   3.973   5.250
12578TIP3    H237676   8.350   4.087   5.336
12579TIP3   OH237677   7.935   1.494   5.312
12579TIP3    H137678   7.941   1.425   5.377
12579TIP3    H237679   7.842   1.517   5.308
12580TIP3   OH237680   4.534   2.732   0.443
12580TIP3    H137681   4.494   2.688   0.368
12580TIP3    H237682   4.489   2.696   0.519
12581TIP3   OH237683   5.044   6.707   5.002
12581TIP3    H137684   5.069   6.705   5.094
12581TIP3    H237685   4.980   6.777   4.996
12582TIP3   OH237686   4.886   2.125   0.920
12582TIP3    H137687   4.869   2.084   0.835
12582TIP3    H237688   4.943   2.199   0.900
12583TIP3   OH237689   1.125   3.231   1.409
12583TIP3    H137690   1.113   3.162   1.475
12583TIP3    H237691   1.153   3.184   1.331
12584TIP3   OH237692   6.990   0.153   0.906
12584TIP3    H137693   6.977   0.062   0.879
12584TIP3    H237694   6.971   0.205   0.828
12585TIP3   OH237695   3.471   6.368   3.532
12585TIP3    H137696   3.519   6.293   3.495
12585TIP3    H237697   3.400   6.384   3.470
12586TIP3   OH237698   2.351   3.528   4.285
12586TIP3    H137699   2.374   3.453   4.340
12586TIP3    H237700   2.292   3.493   4.219
12587TIP3   OH237701   6.904   7.579   1.786
12587TIP3    H137702   6.921   7.636   1.710
12587TIP3    H237703   6.990   7.566   1.825
12588TIP3   OH237704   1.702   4.900   6.575
12588TIP3    H137705   1.774   4.916   6.514
12588TIP3    H237706   1.744   4.900   6.661
12589TIP3   OH237707   5.785   2.750   0.843
12589TIP3    H137708   5.719   2.789   0.785
12589TIP3    H237709   5.824   2.680   0.791
12590TIP3   OH237710   3.867   2.436   5.753
12590TIP3    H137711   3.867   2.358   5.808
12590TIP3    H237712   3.953   2.434   5.709
12591TIP3   OH237713   4.916   2.166   3.458
12591TIP3    H137714   4.916   2.152   3.553
12591TIP3    H237715   4.889   2.257   3.447
12592TIP3   OH237716   7.928   7.351   4.980
12592TIP3    H137717   7.968   7.267   4.958
12592TIP3    H237718   7.854   7.359   4.921
12593TIP3   OH237719   5.741   5.886   0.274
12593TIP3    H137720   5.764   5.850   0.189
12593TIP3    H237721   5.713   5.976   0.256
12594TIP3   OH237722   6.982   3.827   5.317
12594TIP3    H137723   6.990   3.852   5.225
12594TIP3    H237724   6.995   3.908   5.365
12595TIP3   OH237725   6.448   5.520   4.015
12595TIP3    H137726   6.508   5.593   4.006
12595TIP3    H237727   6.473   5.477   4.097
12596TIP3   OH237728   6.743   5.623   2.522
12596TIP3    H137729   6.702   5.605   2.607
12596TIP3    H237730   6.833   5.647   2.544
12597TIP3   OH237731   6.971   3.607   5.811
12597TIP3    H137732   6.938   3.546   5.876
12597TIP3    H237733   6.893   3.645   5.771
12598TIP3   OH237734   5.516   3.653   3.213
12598TIP3    H137735   5.552   3.580   3.162
12598TIP3    H237736   5.456   3.696   3.153
12599TIP3   OH237737   6.214   4.902   2.671
12599TIP3    H137738   6.139   4.852   2.638
12599TIP3    H237739   6.267   4.919   2.593
12600TIP3   OH237740   0.752   6.949   5.214
12600TIP3    H137741   0.659   6.929   5.223
12600TIP3    H237742   0.793   6.901   5.287
12601TIP3   OH237743   5.100   1.670   0.330
12601TIP3    H137744   5.109   1.686   0.236
12601TIP3    H237745   5.151   1.591   0.346
12602TIP3   OH237746   1.346   4.205   1.690
12602TIP3    H137747   1.354   4.111   1.673
12602TIP3    H237748   1.413   4.224   1.756
12603TIP3   OH237749   4.353   1.977   3.687
12603TIP3    H137750   4.381   2.046   3.627
12603TIP3    H237751   4.383   1.896   3.646
12604TIP3   OH237752   1.495   3.002   3.932
12604TIP3    H137753   1.521   3.084   3.973
12604TIP3    H237754   1.512   2.936   3.999
12605TIP3   OH237755   4.025   2.270   0.404
12605TIP3    H137756   3.970   2.342   0.437
12605TIP3    H237757   3.998   2.194   0.456
12606TIP3   OH237758   1.210   4.643   6.706
12606TIP3    H137759   1.298   4.620   6.674
12606TIP3    H237760   1.226   4.715   6.768
12607TIP3   OH237761   3.610   2.805   5.988
12607TIP3    H137762   3.611   2.870   5.918
12607TIP3    H237763   3.620   2.721   5.943
12608TIP3   OH237764   5.022   4.942   6.815
12608TIP3    H137765   4.970   4.953   6.735
12608TIP3    H237766   5.027   4.847   6.827
12609TIP3   OH237767   5.055   1.275   6.348
12609TIP3    H137768   5.066   1.338   6.420
12609TIP3    H237769   5.141   1.233   6.340
12610TIP3   OH237770   1.208   6.626   6.486
12610TIP3    H137771   1.220   6.716   6.458
12610TIP3    H237772   1.183   6.632   6.578
12611TIP3   OH237773   5.944   0.417   4.935
12611TIP3    H137774   5.872   0.441   4.876
12611TIP3    H237775   5.972   0.500   4.973
12612TIP3   OH237776   7.699   5.363   3.814
12612TIP3    H137777   7.684   5.452   3.780
12612TIP3    H237778   7.768   5.328   3.758
12613TIP3   OH237779   0.016   7.565   5.131
12613TIP3    H137780   0.003   7.512   5.209
12613TIP3    H237781  -0.036   7.644   5.147
12614TIP3   OH237782   5.925   7.526   4.881
12614TIP3    H137783   5.918   7.528   4.785
12614TIP3    H237784   5.850   7.475   4.910
12615TIP3   OH237785   6.994   0.410   4.204
12615TIP3    H137786   6.957   0.393   4.117
12615TIP3    H237787   7.053   0.337   4.220
12616TIP3   OH237788   3.691   0.062   5.294
12616TIP3    H137789   3.634  -0.014   5.299
12616TIP3    H237790   3.644   0.125   5.240
12617TIP3   OH237791   0.154   2.194   4.775
12617TIP3    H137792   0.188   2.108   4.750
12617TIP3    H237793   0.219   2.229   4.835
12618TIP3   OH237794   7.593   5.719   5.302
12618TIP3    H137795   7.607   5.630   5.334
12618TIP3    H237796   7.498   5.731   5.301
12619TIP3   OH237797   7.680   7.496   5.437
12619TIP3    H137798   7.601   7.443   5.424
12619TIP3    H237799   7.672   7.527   5.527
12620TIP3   OH237800   3.161   7.854   0.071
12620TIP3    H137801   3.066   7.866   0.068
12620TIP3    H237802   3.174   7.769   0.114
12621TIP3   OH237803   0.261   1.974   5.846
12621TIP3    H137804   0.198   1.910   5.880
12621TIP3    H237805   0.289   2.023   5.923
12622TIP3   OH237806   1.404   2.123   5.711
12622TIP3    H137807   1.413   2.031   5.736
12622TIP3    H237808   1.476   2.139   5.650
12623TIP3   OH237809   1.603   7.719   5.318
12623TIP3    H137810   1.574   7.801   5.359
12623TIP3    H237811   1.555   7.715   5.235
12624TIP3   OH237812   4.060   0.332   1.396
12624TIP3    H137813   4.105   0.408   1.359
12624TIP3    H237814   4.014   0.367   1.473
12625TIP3   OH237815   3.324   1.043   2.927
12625TIP3    H137816   3.265   0.977   2.891
12625TIP3    H237817   3.307   1.122   2.876
12626TIP3   OH237818   5.040   6.544   2.057
12626TIP3    H137819   4.973   6.489   2.016
12626TIP3    H237820   5.010   6.634   2.041
12627TIP3   OH237821   6.536   3.027   1.332
12627TIP3    H137822   6.562   3.067   1.249
12627TIP3    H237823   6.441   3.037   1.335
12628TIP3   OH237824   1.375   5.401   5.640
12628TIP3    H137825   1.399   5.337   5.574
12628TIP3    H237826   1.358   5.481   5.591
12629TIP3   OH237827   2.993   5.847   3.141
12629TIP3    H137828   3.057   5.881   3.203
12629TIP3    H237829   3.009   5.896   3.061
12630TIP3   OH237830   0.896   2.232   6.724
12630TIP3    H137831   0.975   2.285   6.712
12630TIP3    H237832   0.879   2.236   6.818
12631TIP3   OH237833   7.979   3.004   0.393
12631TIP3    H137834   8.027   2.940   0.446
12631TIP3    H237835   8.004   3.089   0.429
12632TIP3   OH237836   2.279   2.094   3.735
12632TIP3    H137837   2.205   2.145   3.702
12632TIP3    H237838   2.306   2.140   3.815
12633TIP3   OH237839   5.639   7.560   1.042
12633TIP3    H137840   5.704   7.495   1.065
12633TIP3    H237841   5.690   7.635   1.010
12634TIP3   OH237842   3.386   0.838   5.046
12634TIP3    H137843   3.465   0.785   5.050
12634TIP3    H237844   3.331   0.805   5.116
12635TIP3   OH237845   4.099   2.889   5.831
12635TIP3    H137846   4.081   2.922   5.743
12635TIP3    H237847   4.012   2.884   5.872
12636TIP3   OH237848   7.818   5.897   1.101
12636TIP3    H137849   7.767   5.977   1.092
12636TIP3    H237850   7.908   5.927   1.119
12637TIP3   OH237851   3.037   5.786   1.533
12637TIP3    H137852   2.958   5.839   1.543
12637TIP3    H237853   3.027   5.716   1.598
12638TIP3   OH237854   5.522   4.656   4.226
12638TIP3    H137855   5.447   4.711   4.251
12638TIP3    H237856   5.489   4.603   4.153
12639TIP3   OH237857   4.712   4.079   4.268
12639TIP3    H137858   4.771   4.082   4.193
12639TIP3    H237859   4.723   3.991   4.304
12640TIP3   OH237860   1.772   5.439   5.273
12640TIP3    H137861   1.779   5.380   5.198
12640TIP3    H237862   1.692   5.489   5.256
12641TIP3   OH237863   4.052   6.614   6.056
12641TIP3    H137864   4.002   6.537   6.027
12641TIP3    H237865   4.096   6.645   5.977
12642TIP3   OH237866   5.803   4.656   6.242
12642TIP3    H137867   5.733   4.637   6.304
12642TIP3    H237868   5.871   4.699   6.294
12643TIP3   OH237869   5.681   1.671   2.197
12643TIP3    H137870   5.771   1.647   2.177
12643TIP3    H237871   5.668   1.643   2.288
12644TIP3   OH237872   2.019   1.245   1.382
12644TIP3    H137873   1.979   1.313   1.436
12644TIP3    H237874   1.952   1.176   1.378
12645TIP3   OH237875   0.914   5.496   6.303
12645TIP3    H137876   0.922   5.585   6.268
12645TIP3    H237877   0.828   5.494   6.345
12646TIP3   OH237878   3.554   4.898   3.618
12646TIP3    H137879   3.582   4.831   3.555
12646TIP3    H237880   3.491   4.951   3.570
12647TIP3   OH237881   0.775   5.431   1.637
12647TIP3    H137882   0.704   5.401   1.580
12647TIP3    H237883   0.838   5.472   1.578
12648TIP3   OH237884   5.299   3.197   1.608
12648TIP3    H137885   5.370   3.192   1.545
12648TIP3    H237886   5.307   3.283   1.648
12649TIP3   OH237887   8.100   2.644   2.899
12649TIP3    H137888   8.090   2.581   2.971
12649TIP3    H237889   8.192   2.670   2.902
12650TIP3   OH237890   7.604   5.487   2.354
12650TIP3    H137891   7.696   5.461   2.363
12650TIP3    H237892   7.590   5.549   2.426
12651TIP3   OH237893   6.740   6.443   0.547
12651TIP3    H137894   6.654   6.409   0.570
12651TIP3    H237895   6.742   6.531   0.585
12652TIP3   OH237896   0.489   6.907   1.231
12652TIP3    H137897   0.483   6.970   1.159
12652TIP3    H237898   0.412   6.924   1.285
12653TIP3   OH237899   1.003   6.076   4.218
12653TIP3    H137900   0.933   6.048   4.158
12653TIP3    H237901   0.961   6.077   4.304
12654TIP3   OH237902   6.557   7.326   1.167
12654TIP3    H137903   6.609   7.248   1.187
12654TIP3    H237904   6.563   7.333   1.071
12655TIP3   OH237905   3.664   6.295   1.226
12655TIP3    H137906   3.655   6.203   1.251
12655TIP3    H237907   3.618   6.302   1.142
12656TIP3   OH237908   4.552   4.590   2.933
12656TIP3    H137909   4.567   4.517   2.874
12656TIP3    H237910   4.600   4.663   2.894
12657TIP3   OH237911   5.194   1.975   0.180
12657TIP3    H137912   5.164   1.986   0.089
12657TIP3    H237913   5.264   1.909   0.174
12658TIP3   OH237914   8.260   4.725   1.854
12658TIP3    H137915   8.199   4.777   1.802
12658TIP3    H237916   8.251   4.759   1.943
12659TIP3   OH237917   6.761   5.489   4.321
12659TIP3    H137918   6.826   5.500   4.391
12659TIP3    H237919   6.808   5.442   4.252
12660TIP3   OH237920   2.388   0.899   4.282
12660TIP3    H137921   2.348   0.836   4.222
12660TIP3    H237922   2.322   0.914   4.350
12661TIP3   OH237923   4.844   6.360   1.966
12661TIP3    H137924   4.763   6.411   1.962
12661TIP3    H237925   4.860   6.333   1.876
12662TIP3   OH237926   3.729   1.136   3.908
12662TIP3    H137927   3.770   1.119   3.993
12662TIP3    H237928   3.779   1.082   3.846
12663TIP3   OH237929   3.340   7.028   1.693
12663TIP3    H137930   3.364   7.121   1.690
12663TIP3    H237931   3.254   7.027   1.734
12664TIP3   OH237932   6.550   6.502   2.074
12664TIP3    H137933   6.465   6.528   2.038
12664TIP3    H237934   6.608   6.498   1.998
12665TIP3   OH237935   4.587   1.841   5.879
12665TIP3    H137936   4.623   1.928   5.898
12665TIP3    H237937   4.533   1.854   5.801
12666TIP3   OH237938   3.693   3.996   4.612
12666TIP3    H137939   3.688   4.052   4.690
12666TIP3    H237940   3.751   3.924   4.638
12667TIP3   OH237941   1.814   5.812   4.228
12667TIP3    H137942   1.834   5.898   4.189
12667TIP3    H237943   1.854   5.814   4.314
12668TIP3   OH237944   8.007   3.029   6.340
12668TIP3    H137945   7.993   3.079   6.421
12668TIP3    H237946   8.102   3.028   6.329
12669TIP3   OH237947   7.867   3.026   3.809
12669TIP3    H137948   7.901   3.017   3.720
12669TIP3    H237949   7.917   3.100   3.845
12670TIP3   OH237950   1.920   5.307   0.104
12670TIP3    H137951   1.834   5.266   0.107
12670TIP3    H237952   1.980   5.240   0.137
12671TIP3   OH237953   4.741   7.273   3.118
12671TIP3    H137954   4.739   7.326   3.038
12671TIP3    H237955   4.658   7.225   3.118
12672TIP3   OH237956   7.534   4.259   3.146
12672TIP3    H137957   7.539   4.267   3.242
12672TIP3    H237958   7.608   4.310   3.114
12673TIP3   OH237959   2.229   0.661   4.191
12673TIP3    H137960   2.232   0.634   4.283
12673TIP3    H237961   2.135   0.664   4.170
12674TIP3   OH237962   0.382   2.723   1.696
12674TIP3    H137963   0.477   2.729   1.709
12674TIP3    H237964   0.351   2.671   1.770
12675TIP3   OH237965   7.172   5.100   0.501
12675TIP3    H137966   7.226   5.103   0.581
12675TIP3    H237967   7.111   5.173   0.511
12676TIP3   OH237968   6.521   3.349   0.231
12676TIP3    H137969   6.466   3.287   0.278
12676TIP3    H237970   6.519   3.428   0.284
12677TIP3   OH237971   5.409   2.089   4.198
12677TIP3    H137972   5.339   2.140   4.239
12677TIP3    H237973   5.379   1.998   4.203
12678TIP3   OH237974   4.806   4.654   4.985
12678TIP3    H137975   4.879   4.626   4.930
12678TIP3    H237976   4.728   4.625   4.937
12679TIP3   OH237977   3.400   3.115   6.687
12679TIP3    H137978   3.320   3.064   6.692
12679TIP3    H237979   3.470   3.050   6.696
12680TIP3   OH237980   1.131   6.121   1.892
12680TIP3    H137981   1.103   6.140   1.981
12680TIP3    H237982   1.188   6.195   1.869
12681TIP3   OH237983   7.950   1.834   2.377
12681TIP3    H137984   7.936   1.741   2.362
12681TIP3    H237985   8.035   1.839   2.422
12682TIP3   OH237986   3.968   0.856   2.691
12682TIP3    H137987   3.918   0.848   2.772
12682TIP3    H237988   3.910   0.822   2.624
12683TIP3   OH237989   3.872   2.900   3.089
12683TIP3    H137990   3.792   2.877   3.136
12683TIP3    H237991   3.943   2.864   3.143
12684TIP3   OH237992   3.999   5.242   5.427
12684TIP3    H137993   4.047   5.257   5.508
12684TIP3    H237994   3.948   5.322   5.413
12685TIP3   OH237995   4.212   2.681   0.686
12685TIP3    H137996   4.296   2.636   0.682
12685TIP3    H237997   4.222   2.758   0.630
12686TIP3   OH237998   4.474   7.226   3.015
12686TIP3    H137999   4.521   7.169   2.954
12686TIP3    H238000   4.480   7.313   2.976
12687TIP3   OH238001   1.466   0.866   6.062
12687TIP3    H138002   1.542   0.922   6.055
12687TIP3    H238003   1.476   0.802   5.992
12688TIP3   OH238004   3.909   6.792   2.276
12688TIP3    H138005   3.828   6.747   2.298
12688TIP3    H238006   3.970   6.722   2.254
12689TIP3   OH238007   6.366   6.219   2.432
12689TIP3    H138008   6.416   6.217   2.351
12689TIP3    H238009   6.285   6.172   2.413
12690TIP3   OH238010   8.385   0.048   3.557
12690TIP3    H138011   8.374   0.023   3.649
12690TIP3    H238012   8.296   0.063   3.526
12691TIP3   OH238013   7.667   2.630   0.243
12691TIP3    H138014   7.744   2.578   0.262
12691TIP3    H238015   7.654   2.685   0.320
12692TIP3   OH238016   5.980   5.808   3.287
12692TIP3    H138017   5.999   5.832   3.377
12692TIP3    H238018   5.982   5.712   3.286
12693TIP3   OH238019   2.130   2.508   3.165
12693TIP3    H138020   2.044   2.485   3.130
12693TIP3    H238021   2.188   2.509   3.089
12694TIP3   OH238022   0.335   4.121   4.086
12694TIP3    H138023   0.336   4.027   4.067
12694TIP3    H238024   0.395   4.131   4.160
12695TIP3   OH238025   8.029   4.355   3.516
12695TIP3    H138026   8.059   4.268   3.491
12695TIP3    H238027   7.934   4.348   3.520
12696TIP3   OH238028   5.649   3.943   4.700
12696TIP3    H138029   5.641   3.998   4.778
12696TIP3    H238030   5.610   3.859   4.726
12697TIP3   OH238031   5.505   5.067   1.268
12697TIP3    H138032   5.589   5.022   1.267
12697TIP3    H238033   5.445   5.004   1.310
12698TIP3   OH238034   2.948   3.868   0.979
12698TIP3    H138035   2.920   3.959   0.972
12698TIP3    H238036   2.877   3.826   1.029
12699TIP3   OH238037   6.230   7.278   5.790
12699TIP3    H138038   6.225   7.200   5.734
12699TIP3    H238039   6.258   7.246   5.875
12700TIP3   OH238040   3.299   5.843   1.150
12700TIP3    H138041   3.358   5.905   1.107
12700TIP3    H238042   3.225   5.897   1.179
12701TIP3   OH238043   3.568   0.682   1.276
12701TIP3    H138044   3.575   0.713   1.186
12701TIP3    H238045   3.567   0.587   1.269
12702TIP3   OH238046   2.332   4.827   3.025
12702TIP3    H138047   2.418   4.790   3.006
12702TIP3    H238048   2.271   4.771   2.977
12703TIP3   OH238049   1.821   6.883   6.299
12703TIP3    H138050   1.913   6.887   6.327
12703TIP3    H238051   1.801   6.972   6.270
12704TIP3   OH238052   2.558   0.389   4.789
12704TIP3    H138053   2.515   0.371   4.873
12704TIP3    H238054   2.539   0.480   4.771
12705TIP3   OH238055   6.124   4.350   5.198
12705TIP3    H138056   6.172   4.413   5.145
12705TIP3    H238057   6.034   4.358   5.169
12706TIP3   OH238058   2.009   1.549   3.209
12706TIP3    H138059   2.016   1.501   3.292
12706TIP3    H238060   1.915   1.560   3.196
12707TIP3   OH238061   7.357   1.121   4.079
12707TIP3    H138062   7.302   1.043   4.067
12707TIP3    H238063   7.327   1.183   4.013
12708TIP3   OH238064   0.683   0.000   5.891
12708TIP3    H138065   0.769   0.008   5.931
12708TIP3    H238066   0.684   0.061   5.818
12709TIP3   OH238067   3.401   1.322   3.339
12709TIP3    H138068   3.463   1.260   3.379
12709TIP3    H238069   3.339   1.341   3.410
12710TIP3   OH238070   0.896   1.840   1.391
12710TIP3    H138071   0.862   1.884   1.468
12710TIP3    H238072   0.838   1.765   1.378
12711TIP3   OH238073   1.882   3.555   1.245
12711TIP3    H138074   1.792   3.587   1.252
12711TIP3    H238075   1.889   3.521   1.156
12712TIP3   OH238076   8.167   7.503   4.841
12712TIP3    H138077   8.190   7.430   4.899
12712TIP3    H238078   8.079   7.529   4.869
12713TIP3   OH238079   6.483   0.016   4.148
12713TIP3    H138080   6.390   0.011   4.173
12713TIP3    H238081   6.530   0.012   4.231
12714TIP3   OH238082   5.814   3.690   4.416
12714TIP3    H138083   5.876   3.708   4.346
12714TIP3    H238084   5.753   3.626   4.379
12715TIP3   OH238085   6.265   6.606   6.614
12715TIP3    H138086   6.224   6.615   6.528
12715TIP3    H238087   6.264   6.694   6.650
12716TIP3   OH238088   6.467   7.146   5.479
12716TIP3    H138089   6.480   7.240   5.470
12716TIP3    H238090   6.532   7.107   5.419
12717TIP3   OH238091   4.027   4.833   0.942
12717TIP3    H138092   3.939   4.865   0.962
12717TIP3    H238093   4.015   4.741   0.920
12718TIP3   OH238094   6.507   7.264   1.452
12718TIP3    H138095   6.508   7.307   1.366
12718TIP3    H238096   6.545   7.177   1.436
12719TIP3   OH238097   1.150   0.371   5.909
12719TIP3    H138098   1.059   0.383   5.882
12719TIP3    H238099   1.152   0.401   6.000
12720TIP3   OH238100   7.495   7.632   5.998
12720TIP3    H138101   7.560   7.606   6.063
12720TIP3    H238102   7.486   7.727   6.008
12721TIP3   OH238103   1.353   1.605   3.392
12721TIP3    H138104   1.413   1.612   3.466
12721TIP3    H238105   1.344   1.511   3.378
12722TIP3   OH238106   4.939   7.039   0.142
12722TIP3    H138107   4.904   7.126   0.159
12722TIP3    H238108   5.032   7.046   0.165
12723TIP3   OH238109   2.223   3.721   6.865
12723TIP3    H138110   2.230   3.632   6.830
12723TIP3    H238111   2.229   3.778   6.789
12724TIP3   OH238112   0.957   7.323   3.420
12724TIP3    H138113   1.020   7.390   3.394
12724TIP3    H238114   0.881   7.338   3.364
12725TIP3   OH238115   6.971   1.126   3.868
12725TIP3    H138116   6.900   1.103   3.928
12725TIP3    H238117   7.010   1.043   3.843
12726TIP3   OH238118   2.968   0.697   5.609
12726TIP3    H138119   2.875   0.720   5.607
12726TIP3    H238120   2.974   0.619   5.554
12727TIP3   OH238121   4.137   3.783   5.371
12727TIP3    H138122   4.130   3.697   5.329
12727TIP3    H238123   4.145   3.844   5.298
12728TIP3   OH238124   2.188   0.840   6.581
12728TIP3    H138125   2.216   0.919   6.534
12728TIP3    H238126   2.182   0.867   6.672
12729TIP3   OH238127   7.215   7.928   5.631
12729TIP3    H138128   7.220   7.912   5.537
12729TIP3    H238129   7.176   7.848   5.667
12730TIP3   OH238130   5.616   1.197   1.472
12730TIP3    H138131   5.604   1.286   1.438
12730TIP3    H238132   5.537   1.150   1.445
12731TIP3   OH238133   7.899   0.976   4.524
12731TIP3    H138134   7.885   0.974   4.618
12731TIP3    H238135   7.891   0.885   4.496
12732TIP3   OH238136   6.158   6.871   2.634
12732TIP3    H138137   6.204   6.838   2.557
12732TIP3    H238138   6.081   6.814   2.642
12733TIP3   OH238139   6.228   6.728   1.088
12733TIP3    H138140   6.276   6.664   1.037
12733TIP3    H238141   6.181   6.677   1.154
12734TIP3   OH238142   3.092   6.372   6.809
12734TIP3    H138143   3.066   6.427   6.735
12734TIP3    H238144   3.032   6.398   6.880
12735TIP3   OH238145   3.583   4.022   3.953
12735TIP3    H138146   3.562   3.995   3.863
12735TIP3    H238147   3.501   4.009   4.001
12736TIP3   OH238148   1.418   3.878   4.829
12736TIP3    H138149   1.493   3.820   4.813
12736TIP3    H238150   1.374   3.885   4.744
12737TIP3   OH238151   7.791   6.870   5.144
12737TIP3    H138152   7.701   6.844   5.162
12737TIP3    H238153   7.828   6.890   5.229
12738TIP3   OH238154   0.024   5.773   1.045
12738TIP3    H138155   0.058   5.699   1.095
12738TIP3    H238156  -0.071   5.762   1.050
12739TIP3   OH238157   2.917   7.669   5.909
12739TIP3    H138158   2.998   7.619   5.899
12739TIP3    H238159   2.876   7.667   5.823
12740TIP3   OH238160   0.764   5.167   6.274
12740TIP3    H138161   0.777   5.246   6.326
12740TIP3    H238162   0.717   5.107   6.331
12741TIP3   OH238163   4.563   6.893   2.702
12741TIP3    H138164   4.592   6.982   2.723
12741TIP3    H238165   4.577   6.844   2.783
12742TIP3   OH238166   2.728   1.283   0.824
12742TIP3    H138167   2.661   1.300   0.891
12742TIP3    H238168   2.723   1.359   0.766
12743TIP3   OH238169   6.054   2.873   2.224
12743TIP3    H138170   5.981   2.821   2.188
12743TIP3    H238171   6.128   2.854   2.166
12744TIP3   OH238172   0.208   0.698   3.993
12744TIP3    H138173   0.225   0.644   4.070
12744TIP3    H238174   0.116   0.726   4.003
12745TIP3   OH238175   0.586   6.436   2.996
12745TIP3    H138176   0.565   6.510   3.052
12745TIP3    H238177   0.674   6.455   2.962
12746TIP3   OH238178   3.921   5.532   1.625
12746TIP3    H138179   3.891   5.443   1.608
12746TIP3    H238180   3.841   5.581   1.643
12747TIP3   OH238181   7.892   2.271   6.340
12747TIP3    H138182   7.972   2.294   6.294
12747TIP3    H238183   7.848   2.208   6.282
12748TIP3   OH238184   5.634   6.963   0.066
12748TIP3    H138185   5.577   7.015   0.122
12748TIP3    H238186   5.632   7.006  -0.019
12749TIP3   OH238187   4.505   3.233   3.462
12749TIP3    H138188   4.437   3.243   3.395
12749TIP3    H238189   4.462   3.185   3.533
12750TIP3   OH238190   7.521   3.287   2.697
12750TIP3    H138191   7.501   3.256   2.609
12750TIP3    H238192   7.564   3.371   2.684
12751TIP3   OH238193   2.273   4.851   1.574
12751TIP3    H138194   2.317   4.871   1.491
12751TIP3    H238195   2.340   4.811   1.629
12752TIP3   OH238196   4.340   1.714   4.041
12752TIP3    H138197   4.258   1.743   4.002
12752TIP3    H238198   4.364   1.635   3.992
12753TIP3   OH238199   6.082   1.993   3.199
12753TIP3    H138200   6.139   1.940   3.145
12753TIP3    H238201   6.093   2.082   3.166
12754TIP3   OH238202   7.860   7.658   5.325
12754TIP3    H138203   7.863   7.714   5.403
12754TIP3    H238204   7.799   7.588   5.347
12755TIP3   OH238205   1.536   6.193   3.612
12755TIP3    H138206   1.551   6.274   3.563
12755TIP3    H238207   1.547   6.123   3.547
12756TIP3   OH238208   7.959   3.889   4.171
12756TIP3    H138209   8.007   3.959   4.127
12756TIP3    H238210   8.002   3.809   4.140
12757TIP3   OH238211   4.120   5.839   1.094
12757TIP3    H138212   4.073   5.755   1.097
12757TIP3    H238213   4.052   5.904   1.082
12758TIP3   OH238214   0.406   0.014   6.449
12758TIP3    H138215   0.456   0.095   6.436
12758TIP3    H238216   0.388  -0.017   6.360
12759TIP3   OH238217   1.608   4.539   1.746
12759TIP3    H138218   1.635   4.631   1.750
12759TIP3    H238219   1.545   4.530   1.818
12760TIP3   OH238220   0.505   3.817   0.144
12760TIP3    H138221   0.550   3.765   0.077
12760TIP3    H238222   0.452   3.880   0.095
12761TIP3   OH238223   4.267   6.117   0.881
12761TIP3    H138224   4.353   6.077   0.866
12761TIP3    H238225   4.267   6.138   0.975
12762TIP3   OH238226   7.467   1.808   0.959
12762TIP3    H138227   7.416   1.881   0.993
12762TIP3    H238228   7.551   1.847   0.934
12763TIP3   OH238229   5.592   2.858   4.144
12763TIP3    H138230   5.651   2.927   4.175
12763TIP3    H238231   5.605   2.857   4.049
12764TIP3   OH238232   8.086   3.572   2.253
12764TIP3    H138233   8.075   3.579   2.348
12764TIP3    H238234   8.093   3.478   2.237
12765TIP3   OH238235   2.653   3.897   1.729
12765TIP3    H138236   2.605   3.886   1.811
12765TIP3    H238237   2.660   3.809   1.692
12766TIP3   OH238238   1.106   7.175   5.105
12766TIP3    H138239   1.175   7.178   5.172
12766TIP3    H238240   1.153   7.159   5.024
12767TIP3   OH238241   2.423   5.675   6.264
12767TIP3    H138242   2.362   5.611   6.301
12767TIP3    H238243   2.503   5.664   6.314
12768TIP3   OH238244   0.652   6.190   3.523
12768TIP3    H138245   0.718   6.126   3.549
12768TIP3    H238246   0.699   6.254   3.469
12769TIP3   OH238247   2.073   5.405   2.218
12769TIP3    H138248   2.138   5.367   2.158
12769TIP3    H238249   2.122   5.473   2.265
12770TIP3   OH238250   5.367   4.475   1.194
12770TIP3    H138251   5.326   4.396   1.159
12770TIP3    H238252   5.294   4.528   1.226
12771TIP3   OH238253   7.674   4.832   1.071
12771TIP3    H138254   7.594   4.795   1.110
12771TIP3    H238255   7.704   4.766   1.009
12772TIP3   OH238256   1.494   2.318   3.221
12772TIP3    H138257   1.438   2.321   3.299
12772TIP3    H238258   1.478   2.401   3.177
12773TIP3   OH238259   0.107   1.249   5.834
12773TIP3    H138260   0.172   1.311   5.866
12773TIP3    H238261   0.157   1.172   5.809
12774TIP3   OH238262   2.719   7.520   0.297
12774TIP3    H138263   2.635   7.558   0.273
12774TIP3    H238264   2.782   7.561   0.238
12775TIP3   OH238265   3.887   5.950   3.524
12775TIP3    H138266   3.909   5.860   3.545
12775TIP3    H238267   3.838   5.945   3.442
12776TIP3   OH238268   7.228   5.809   1.765
12776TIP3    H138269   7.214   5.904   1.757
12776TIP3    H238270   7.222   5.791   1.859
12777TIP3   OH238271   1.904   1.012   2.243
12777TIP3    H138272   1.974   1.001   2.179
12777TIP3    H238273   1.829   0.967   2.205
12778TIP3   OH238274   5.422   4.833   5.137
12778TIP3    H138275   5.418   4.814   5.044
12778TIP3    H238276   5.482   4.907   5.144
12779TIP3   OH238277   0.099   7.839   0.200
12779TIP3    H138278   0.013   7.845   0.158
12779TIP3    H238279   0.081   7.803   0.287
12780TIP3   OH238280   0.303   0.058   5.590
12780TIP3    H138281   0.297   0.136   5.536
12780TIP3    H238282   0.376   0.008   5.553
12781TIP3   OH238283   2.655   2.388   5.077
12781TIP3    H138284   2.570   2.419   5.108
12781TIP3    H238285   2.685   2.329   5.145
12782TIP3   OH238286   2.543   2.159   1.396
12782TIP3    H138287   2.508   2.070   1.397
12782TIP3    H238288   2.467   2.215   1.383
12783TIP3   OH238289   6.212   4.841   4.619
12783TIP3    H138290   6.172   4.754   4.614
12783TIP3    H238291   6.273   4.843   4.545
12784TIP3   OH238292   3.021   3.658   0.103
12784TIP3    H138293   2.951   3.640   0.166
12784TIP3    H238294   3.068   3.733   0.141
12785TIP3   OH238295   2.077   3.309   3.638
12785TIP3    H138296   2.165   3.274   3.622
12785TIP3    H238297   2.040   3.251   3.705
12786TIP3   OH238298   3.966   2.012   0.523
12786TIP3    H138299   3.968   1.951   0.596
12786TIP3    H238300   3.910   1.970   0.457
12787TIP3   OH238301   2.384   7.463   0.895
12787TIP3    H138302   2.475   7.433   0.897
12787TIP3    H238303   2.383   7.541   0.951
12788TIP3   OH238304   2.263   7.338   5.905
12788TIP3    H138305   2.323   7.320   5.977
12788TIP3    H238306   2.319   7.353   5.829
12789TIP3   OH238307   6.576   2.070   2.874
12789TIP3    H138308   6.613   2.150   2.836
12789TIP3    H238309   6.631   1.999   2.841
12790TIP3   OH238310   2.058   5.871   5.819
12790TIP3    H138311   2.144   5.841   5.790
12790TIP3    H238312   1.998   5.839   5.752
12791TIP3   OH238313   8.074   6.180   5.167
12791TIP3    H138314   8.014   6.254   5.165
12791TIP3    H238315   8.160   6.218   5.186
12792TIP3   OH238316   5.873   6.950   2.165
12792TIP3    H138317   5.839   7.033   2.134
12792TIP3    H238318   5.826   6.935   2.248
12793TIP3   OH238319   2.497   7.484   6.515
12793TIP3    H138320   2.467   7.468   6.604
12793TIP3    H238321   2.430   7.539   6.475
12794TIP3   OH238322   4.581   3.713   6.584
12794TIP3    H138323   4.518   3.751   6.523
12794TIP3    H238324   4.662   3.762   6.567
12795TIP3   OH238325   4.759   7.361   0.706
12795TIP3    H138326   4.770   7.455   0.692
12795TIP3    H238327   4.705   7.333   0.632
12796TIP3   OH238328   0.622   7.518   5.768
12796TIP3    H138329   0.671   7.597   5.746
12796TIP3    H238330   0.663   7.449   5.717
12797TIP3   OH238331   4.960   5.746   0.202
12797TIP3    H138332   4.898   5.699   0.258
12797TIP3    H238333   5.035   5.763   0.259
12798TIP3   OH238334   5.053   0.192   0.666
12798TIP3    H138335   5.088   0.251   0.600
12798TIP3    H238336   5.108   0.207   0.743
12799TIP3   OH238337   5.376   6.662   4.932
12799TIP3    H138338   5.334   6.584   4.896
12799TIP3    H238339   5.451   6.628   4.981
12800TIP3   OH238340   2.975   5.658   2.781
12800TIP3    H138341   3.051   5.615   2.822
12800TIP3    H238342   2.932   5.704   2.852
12801TIP3   OH238343   1.943   2.130   4.554
12801TIP3    H138344   1.963   2.037   4.568
12801TIP3    H238345   1.886   2.154   4.626
12802TIP3   OH238346   6.082   0.382   0.450
12802TIP3    H138347   6.177   0.391   0.445
12802TIP3    H238348   6.054   0.371   0.359
12803TIP3   OH238349   0.077   3.062   3.465
12803TIP3    H138350   0.099   2.978   3.424
12803TIP3    H238351   0.047   3.039   3.552
12804TIP3   OH238352   5.744   5.813   0.543
12804TIP3    H138353   5.660   5.767   0.538
12804TIP3    H238354   5.750   5.861   0.460
12805TIP3   OH238355   1.803   4.900   4.142
12805TIP3    H138356   1.863   4.862   4.206
12805TIP3    H238357   1.732   4.836   4.134
12806TIP3   OH238358   4.663   5.608   2.505
12806TIP3    H138359   4.675   5.648   2.419
12806TIP3    H238360   4.725   5.653   2.562
12807TIP3   OH238361   3.382   1.160   6.862
12807TIP3    H138362   3.304   1.206   6.895
12807TIP3    H238363   3.368   1.157   6.767
12808TIP3   OH238364   4.204   0.642   0.705
12808TIP3    H138365   4.297   0.640   0.726
12808TIP3    H238366   4.162   0.681   0.782
12809TIP3   OH238367   7.694   3.494   3.876
12809TIP3    H138368   7.621   3.544   3.912
12809TIP3    H238369   7.751   3.559   3.836
12810TIP3   OH238370   6.334   6.313   3.477
12810TIP3    H138371   6.398   6.245   3.454
12810TIP3    H238372   6.303   6.345   3.392
12811TIP3   OH238373   6.287   0.336   0.770
12811TIP3    H138374   6.319   0.384   0.846
12811TIP3    H238375   6.365   0.310   0.722
12812TIP3   OH238376   7.939   1.673   4.302
12812TIP3    H138377   7.872   1.605   4.309
12812TIP3    H238378   8.022   1.627   4.315
12813TIP3   OH238379   7.116   7.312   0.499
12813TIP3    H138380   7.048   7.293   0.564
12813TIP3    H238381   7.190   7.258   0.527
12814TIP3   OH238382   2.801   0.361   0.886
12814TIP3    H138383   2.769   0.271   0.874
12814TIP3    H238384   2.895   0.356   0.867
12815TIP3   OH238385   7.575   6.258   3.780
12815TIP3    H138386   7.629   6.337   3.776
12815TIP3    H238387   7.638   6.187   3.797
12816TIP3   OH238388   1.729   1.548   3.253
12816TIP3    H138389   1.682   1.618   3.299
12816TIP3    H238390   1.736   1.477   3.318
12817TIP3   OH238391   3.939   0.939   4.511
12817TIP3    H138392   3.925   0.865   4.451
12817TIP3    H238393   4.034   0.947   4.517
12818TIP3   OH238394   6.237   7.470   1.316
12818TIP3    H138395   6.160   7.419   1.341
12818TIP3    H238396   6.235   7.546   1.374
12819TIP3   OH238397   1.468   4.063   3.563
12819TIP3    H138398   1.523   4.024   3.630
12819TIP3    H238399   1.515   4.048   3.481
12820TIP3   OH238400   6.799   3.224   3.971
12820TIP3    H138401   6.728   3.182   3.921
12820TIP3    H238402   6.875   3.169   3.954
12821TIP3   OH238403   5.639   5.305   2.727
12821TIP3    H138404   5.679   5.219   2.737
12821TIP3    H238405   5.700   5.366   2.768
12822TIP3   OH238406   0.892   5.830   0.377
12822TIP3    H138407   0.911   5.843   0.470
12822TIP3    H238408   0.937   5.902   0.333
12823TIP3   OH238409   8.314   4.928   5.257
12823TIP3    H138410   8.274   4.980   5.327
12823TIP3    H238411   8.395   4.975   5.237
12824TIP3   OH238412   7.121   2.922   5.122
12824TIP3    H138413   7.148   2.895   5.210
12824TIP3    H238414   7.203   2.937   5.075
12825TIP3   OH238415   5.757   5.859   6.713
12825TIP3    H138416   5.820   5.899   6.773
12825TIP3    H238417   5.776   5.765   6.719
12826TIP3   OH238418   7.317   5.778   5.349
12826TIP3    H138419   7.289   5.696   5.389
12826TIP3    H238420   7.240   5.836   5.354
12827TIP3   OH238421   5.550   0.949   5.456
12827TIP3    H138422   5.508   0.904   5.382
12827TIP3    H238423   5.554   1.041   5.429
12828TIP3   OH238424   4.294   3.797   3.168
12828TIP3    H138425   4.234   3.870   3.184
12828TIP3    H238426   4.328   3.775   3.255
12829TIP3   OH238427   4.779   0.670   0.468
12829TIP3    H138428   4.816   0.648   0.382
12829TIP3    H238429   4.813   0.758   0.486
12830TIP3   OH238430   3.913   3.383   3.416
12830TIP3    H138431   3.923   3.474   3.387
12830TIP3    H238432   3.830   3.355   3.378
12831TIP3   OH238433   7.787   3.011   4.099
12831TIP3    H138434   7.763   3.103   4.102
12831TIP3    H238435   7.807   2.995   4.006
12832TIP3   OH238436   1.309   0.442   0.790
12832TIP3    H138437   1.232   0.468   0.739
12832TIP3    H238438   1.383   0.483   0.745
12833TIP3   OH238439   6.545   0.787   1.178
12833TIP3    H138440   6.470   0.751   1.225
12833TIP3    H238441   6.614   0.722   1.190
12834TIP3   OH238442   4.812   0.116   0.834
12834TIP3    H138443   4.746   0.178   0.805
12834TIP3    H238444   4.895   0.154   0.807
12835TIP3   OH238445   8.180   3.173   0.582
12835TIP3    H138446   8.216   3.224   0.510
12835TIP3    H238447   8.235   3.096   0.587
12836TIP3   OH238448   3.762   1.918   6.033
12836TIP3    H138449   3.826   1.849   6.018
12836TIP3    H238450   3.794   1.963   6.111
12837TIP3   OH238451   5.835   2.741   2.084
12837TIP3    H138452   5.828   2.733   1.989
12837TIP3    H238453   5.745   2.757   2.114
12838TIP3   OH238454   6.501   1.557   0.849
12838TIP3    H138455   6.578   1.509   0.879
12838TIP3    H238456   6.440   1.554   0.923
12839TIP3   OH238457   7.568   6.354   5.724
12839TIP3    H138458   7.519   6.388   5.649
12839TIP3    H238459   7.552   6.259   5.721
12840TIP3   OH238460   3.127   2.353   4.981
12840TIP3    H138461   3.055   2.314   4.931
12840TIP3    H238462   3.104   2.446   4.988
12841TIP3   OH238463   5.290   4.826   0.735
12841TIP3    H138464   5.366   4.768   0.741
12841TIP3    H238465   5.230   4.780   0.675
12842TIP3   OH238466   4.739   0.645   6.563
12842TIP3    H138467   4.739   0.609   6.651
12842TIP3    H238468   4.827   0.682   6.552
12843TIP3   OH238469   8.091   4.672   4.111
12843TIP3    H138470   8.089   4.577   4.108
12843TIP3    H238471   8.164   4.697   4.054
12844TIP3   OH238472   7.226   0.251   3.389
12844TIP3    H138473   7.182   0.186   3.445
12844TIP3    H238474   7.276   0.199   3.326
12845TIP3   OH238475   5.859   3.663   5.380
12845TIP3    H138476   5.896   3.576   5.396
12845TIP3    H238477   5.794   3.675   5.450
12846TIP3   OH238478   0.989   0.245   0.725
12846TIP3    H138479   0.977   0.335   0.754
12846TIP3    H238480   1.000   0.194   0.805
12847TIP3   OH238481   0.569   3.033   2.894
12847TIP3    H138482   0.594   3.035   2.801
12847TIP3    H238483   0.567   2.940   2.915
12848TIP3   OH238484   3.004   6.440   4.672
12848TIP3    H138485   3.000   6.535   4.685
12848TIP3    H238486   2.970   6.403   4.753
12849TIP3   OH238487   3.969   5.695   0.268
12849TIP3    H138488   3.919   5.738   0.337
12849TIP3    H238489   4.053   5.741   0.267
12850TIP3   OH238490   6.508   7.532   3.515
12850TIP3    H138491   6.536   7.475   3.443
12850TIP3    H238492   6.415   7.511   3.527
12851TIP3   OH238493   3.565   7.743   6.790
12851TIP3    H138494   3.492   7.699   6.747
12851TIP3    H238495   3.633   7.676   6.799
12852TIP3   OH238496   0.161   6.949   4.687
12852TIP3    H138497   0.094   6.905   4.635
12852TIP3    H238498   0.113   7.010   4.742
12853TIP3   OH238499   1.759   4.142   6.850
12853TIP3    H138500   1.770   4.111   6.760
12853TIP3    H238501   1.674   4.109   6.877
12854TIP3   OH238502   4.906   7.365   4.482
12854TIP3    H138503   4.955   7.435   4.524
12854TIP3    H238504   4.950   7.351   4.398
12855TIP3   OH238505   5.355   4.467   4.119
12855TIP3    H138506   5.383   4.377   4.103
12855TIP3    H238507   5.345   4.505   4.032
12856TIP3   OH238508   6.658   7.046   1.677
12856TIP3    H138509   6.568   7.077   1.692
12856TIP3    H238510   6.680   7.079   1.590
12857TIP3   OH238511   3.216   4.294   6.479
12857TIP3    H138512   3.136   4.320   6.432
12857TIP3    H238513   3.226   4.201   6.458
12858TIP3   OH238514   2.762   4.464   3.469
12858TIP3    H138515   2.803   4.381   3.493
12858TIP3    H238516   2.768   4.518   3.548
12859TIP3   OH238517   6.733   7.572   4.805
12859TIP3    H138518   6.791   7.629   4.856
12859TIP3    H238519   6.738   7.606   4.716
12860TIP3   OH238520   6.367   7.779   3.381
12860TIP3    H138521   6.384   7.820   3.466
12860TIP3    H238522   6.393   7.687   3.393
12861TIP3   OH238523   4.777   7.149   5.375
12861TIP3    H138524   4.751   7.070   5.423
12861TIP3    H238525   4.730   7.220   5.419
12862TIP3   OH238526   7.659   3.192   4.737
12862TIP3    H138527   7.660   3.280   4.776
12862TIP3    H238528   7.681   3.206   4.645
12863TIP3   OH238529   6.909   7.715   2.555
12863TIP3    H138530   6.988   7.731   2.608
12863TIP3    H238531   6.875   7.803   2.537
12864TIP3   OH238532   4.137   4.084   1.043
12864TIP3    H138533   4.149   4.005   1.096
12864TIP3    H238534   4.225   4.121   1.036
12865TIP3   OH238535   8.160   1.022   3.867
12865TIP3    H138536   8.135   0.929   3.861
12865TIP3    H238537   8.227   1.033   3.799
12866TIP3   OH238538   7.943   0.124   6.463
12866TIP3    H138539   7.947   0.037   6.503
12866TIP3    H238540   8.029   0.135   6.422
12867TIP3   OH238541   3.447   1.676   4.484
12867TIP3    H138542   3.463   1.586   4.513
12867TIP3    H238543   3.403   1.666   4.400
12868TIP3   OH238544   2.145   5.369   0.985
12868TIP3    H138545   2.163   5.328   0.901
12868TIP3    H238546   2.050   5.362   0.995
12869TIP3   OH238547   0.162   2.600   2.103
12869TIP3    H138548   0.083   2.549   2.085
12869TIP3    H238549   0.148   2.635   2.191
12870TIP3   OH238550   6.120   5.936   4.568
12870TIP3    H138551   6.159   5.849   4.554
12870TIP3    H238552   6.028   5.918   4.588
12871TIP3   OH238553   3.058   7.790   3.962
12871TIP3    H138554   2.983   7.764   4.016
12871TIP3    H238555   3.114   7.838   4.022
12872TIP3   OH238556   4.748   0.369   6.028
12872TIP3    H138557   4.729   0.459   6.055
12872TIP3    H238558   4.665   0.337   5.993
12873TIP3   OH238559   7.930   3.488   5.077
12873TIP3    H138560   7.949   3.530   5.161
12873TIP3    H238561   7.873   3.415   5.099
12874TIP3   OH238562   5.833   7.775   0.647
12874TIP3    H138563   5.788   7.856   0.625
12874TIP3    H238564   5.923   7.787   0.616
12875TIP3   OH238565   6.116   0.468   5.514
12875TIP3    H138566   6.051   0.523   5.558
12875TIP3    H238567   6.126   0.392   5.570
12876TIP3   OH238568   3.428   3.333   5.477
12876TIP3    H138569   3.383   3.284   5.546
12876TIP3    H238570   3.518   3.341   5.508
12877TIP3   OH238571   0.346   6.588   5.290
12877TIP3    H138572   0.274   6.577   5.228
12877TIP3    H238573   0.395   6.506   5.285
12878TIP3   OH238574   1.808   5.083   5.300
12878TIP3    H138575   1.895   5.072   5.340
12878TIP3    H238576   1.824   5.142   5.226
12879TIP3   OH238577   7.101   4.642   4.396
12879TIP3    H138578   7.063   4.724   4.364
12879TIP3    H238579   7.036   4.575   4.374
12880TIP3   OH238580   0.313   5.376   2.425
12880TIP3    H138581   0.394   5.330   2.446
12880TIP3    H238582   0.333   5.427   2.347
12881TIP3   OH238583   1.539   7.605   0.765
12881TIP3    H138584   1.496   7.675   0.716
12881TIP3    H238585   1.517   7.622   0.857
12882TIP3   OH238586   8.401   0.671   1.209
12882TIP3    H138587   8.324   0.718   1.239
12882TIP3    H238588   8.396   0.586   1.253
12883TIP3   OH238589   0.723   0.445   3.395
12883TIP3    H138590   0.631   0.466   3.414
12883TIP3    H238591   0.719   0.370   3.336
12884TIP3   OH238592   6.134   2.436   3.500
12884TIP3    H138593   6.072   2.388   3.554
12884TIP3    H238594   6.079   2.493   3.446
12885TIP3   OH238595   0.492   7.297   1.150
12885TIP3    H138596   0.495   7.232   1.081
12885TIP3    H238597   0.479   7.380   1.105
12886TIP3   OH238598   2.835   1.570   3.061
12886TIP3    H138599   2.872   1.599   2.978
12886TIP3    H238600   2.751   1.529   3.037
12887TIP3   OH238601   3.573   0.959   0.174
12887TIP3    H138602   3.545   0.884   0.122
12887TIP3    H238603   3.491   1.003   0.199
12888TIP3   OH238604   2.086   2.528   6.443
12888TIP3    H138605   2.077   2.439   6.475
12888TIP3    H238606   2.060   2.584   6.516
12889TIP3   OH238607   1.066   3.169   4.286
12889TIP3    H138608   1.003   3.235   4.259
12889TIP3    H238609   1.123   3.214   4.348
12890TIP3   OH238610   5.952   1.359   1.470
12890TIP3    H138611   5.913   1.443   1.448
12890TIP3    H238612   5.879   1.306   1.501
12891TIP3   OH238613   5.301   2.159   4.655
12891TIP3    H138614   5.322   2.067   4.636
12891TIP3    H238615   5.340   2.208   4.582
12892TIP3   OH238616   0.737   3.636   6.026
12892TIP3    H138617   0.741   3.682   5.942
12892TIP3    H238618   0.737   3.706   6.091
12893TIP3   OH238619   4.379   7.186   5.329
12893TIP3    H138620   4.408   7.177   5.238
12893TIP3    H238621   4.416   7.270   5.357
12894TIP3   OH238622   4.131   3.579   2.046
12894TIP3    H138623   4.091   3.569   2.132
12894TIP3    H238624   4.058   3.602   1.988
12895TIP3   OH238625   0.782   7.277   4.318
12895TIP3    H138626   0.805   7.370   4.308
12895TIP3    H238627   0.861   7.230   4.291
12896TIP3   OH238628   6.433   4.763   4.918
12896TIP3    H138629   6.398   4.675   4.904
12896TIP3    H238630   6.364   4.810   4.963
12897TIP3   OH238631   3.926   1.994   4.512
12897TIP3    H138632   3.937   1.943   4.592
12897TIP3    H238633   3.866   2.064   4.535
12898TIP3   OH238634   3.220   4.006   1.484
12898TIP3    H138635   3.139   4.048   1.513
12898TIP3    H238636   3.259   3.972   1.564
12899TIP3   OH238637   6.484   7.093   0.112
12899TIP3    H138638   6.396   7.124   0.130
12899TIP3    H238639   6.513   7.143   0.036
12900TIP3   OH238640   0.555   6.751   0.831
12900TIP3    H138641   0.647   6.731   0.848
12900TIP3    H238642   0.556   6.838   0.790
12901TIP3   OH238643   0.448   5.663   4.375
12901TIP3    H138644   0.366   5.616   4.390
12901TIP3    H238645   0.484   5.625   4.295
12902TIP3   OH238646   1.384   5.499   4.128
12902TIP3    H138647   1.431   5.416   4.127
12902TIP3    H238648   1.432   5.552   4.192
12903TIP3   OH238649   7.999   0.577   5.089
12903TIP3    H138650   8.091   0.557   5.108
12903TIP3    H238651   7.969   0.503   5.036
12904TIP3   OH238652   3.601   6.434   4.004
12904TIP3    H138653   3.564   6.485   3.933
12904TIP3    H238654   3.696   6.443   3.994
12905TIP3   OH238655   7.010   4.025   1.690
12905TIP3    H138656   6.962   4.099   1.727
12905TIP3    H238657   6.954   3.993   1.619
12906TIP3   OH238658   8.137   0.172   3.671
12906TIP3    H138659   8.180   0.090   3.694
12906TIP3    H238660   8.170   0.235   3.735
12907TIP3   OH238661   2.653   3.460   2.661
12907TIP3    H138662   2.735   3.414   2.637
12907TIP3    H238663   2.681   3.548   2.684
12908TIP3   OH238664   1.791   3.146   4.103
12908TIP3    H138665   1.713   3.192   4.074
12908TIP3    H238666   1.780   3.136   4.197
12909TIP3   OH238667   4.966   5.321   4.575
12909TIP3    H138668   4.965   5.298   4.668
12909TIP3    H238669   4.944   5.414   4.573
12910TIP3   OH238670   4.381   0.264   4.551
12910TIP3    H138671   4.342   0.212   4.621
12910TIP3    H238672   4.462   0.299   4.590
12911TIP3   OH238673   0.371   2.526   6.448
12911TIP3    H138674   0.448   2.533   6.393
12911TIP3    H238675   0.397   2.568   6.531
12912TIP3   OH238676   4.955   7.755   6.433
12912TIP3    H138677   4.946   7.754   6.338
12912TIP3    H238678   5.039   7.712   6.450
12913TIP3   OH238679   0.013   5.789   5.395
12913TIP3    H138680  -0.050   5.733   5.441
12913TIP3    H238681   0.008   5.761   5.304
12914TIP3   OH238682   2.347   2.310   0.690
12914TIP3    H138683   2.438   2.281   0.679
12914TIP3    H238684   2.314   2.257   0.762
12915TIP3   OH238685   2.216   5.366   6.730
12915TIP3    H138686   2.134   5.318   6.715
12915TIP3    H238687   2.281   5.298   6.745
12916TIP3   OH238688   5.994   3.922   0.756
12916TIP3    H138689   5.908   3.942   0.793
12916TIP3    H238690   6.000   3.827   0.759
12917TIP3   OH238691   5.878   3.028   4.759
12917TIP3    H138692   5.962   3.068   4.785
12917TIP3    H238693   5.816   3.101   4.762
12918TIP3   OH238694   4.435   7.765   0.494
12918TIP3    H138695   4.455   7.812   0.575
12918TIP3    H238696   4.414   7.676   0.522
12919TIP3   OH238697   2.112   1.076   2.433
12919TIP3    H138698   2.127   1.162   2.392
12919TIP3    H238699   2.035   1.041   2.388
12920TIP3   OH238700   7.694   7.405   3.663
12920TIP3    H138701   7.713   7.312   3.678
12920TIP3    H238702   7.647   7.433   3.741
12921TIP3   OH238703   8.335   7.523   0.256
12921TIP3    H138704   8.372   7.435   0.260
12921TIP3    H238705   8.364   7.558   0.172
12922TIP3   OH238706   7.885   1.850   5.179
12922TIP3    H138707   7.833   1.929   5.197
12922TIP3    H238708   7.869   1.831   5.087
12923TIP3   OH238709   1.907   5.995   4.068
12923TIP3    H138710   1.947   5.990   3.982
12923TIP3    H238711   1.875   6.085   4.075
12924TIP3   OH238712   4.674   3.697   2.498
12924TIP3    H138713   4.579   3.707   2.493
12924TIP3    H238714   4.693   3.628   2.434
12925TIP3   OH238715   0.338   7.141   2.243
12925TIP3    H138716   0.319   7.084   2.318
12925TIP3    H238717   0.318   7.087   2.167
12926TIP3   OH238718   1.231   3.789   2.841
12926TIP3    H138719   1.265   3.878   2.830
12926TIP3    H238720   1.307   3.732   2.833
12927TIP3   OH238721   4.822   6.027   6.686
12927TIP3    H138722   4.750   5.967   6.666
12927TIP3    H238723   4.781   6.099   6.734
12928TIP3   OH238724   4.349   6.544   3.362
12928TIP3    H138725   4.434   6.573   3.330
12928TIP3    H238726   4.348   6.449   3.348
12929TIP3   OH238727   3.350   7.245   4.365
12929TIP3    H138728   3.287   7.187   4.323
12929TIP3    H238729   3.323   7.248   4.456
12930TIP3   OH238730   5.596   6.218   6.333
12930TIP3    H138731   5.621   6.249   6.245
12930TIP3    H238732   5.668   6.246   6.389
12931TIP3   OH238733   7.084   2.743   2.445
12931TIP3    H138734   7.126   2.824   2.472
12931TIP3    H238735   7.111   2.679   2.511
12932TIP3   OH238736   7.816   5.815   0.582
12932TIP3    H138737   7.773   5.877   0.641
12932TIP3    H238738   7.747   5.755   0.554
12933TIP3   OH238739   2.294   5.130   0.405
12933TIP3    H138740   2.205   5.113   0.374
12933TIP3    H238741   2.315   5.217   0.372
12934TIP3   OH238742   2.822   3.327   4.607
12934TIP3    H138743   2.734   3.363   4.617
12934TIP3    H238744   2.828   3.260   4.675
12935TIP3   OH238745   2.166   4.314   2.145
12935TIP3    H138746   2.119   4.231   2.142
12935TIP3    H238747   2.181   4.329   2.239
12936TIP3   OH238748   1.869   3.845   4.948
12936TIP3    H138749   1.914   3.762   4.933
12936TIP3    H238750   1.863   3.851   5.044
12937TIP3   OH238751   7.188   6.583   2.141
12937TIP3    H138752   7.251   6.593   2.212
12937TIP3    H238753   7.102   6.590   2.183
12938TIP3   OH238754   7.962   7.612   5.055
12938TIP3    H138755   7.957   7.517   5.043
12938TIP3    H238756   7.921   7.627   5.140
12939TIP3   OH238757   1.335   0.219   6.684
12939TIP3    H138758   1.250   0.258   6.661
12939TIP3    H238759   1.388   0.293   6.715
12940TIP3   OH238760   3.379   5.347   3.697
12940TIP3    H138761   3.366   5.316   3.787
12940TIP3    H238762   3.337   5.280   3.643
12941TIP3   OH238763   5.751   7.130   4.095
12941TIP3    H138764   5.797   7.210   4.123
12941TIP3    H238765   5.670   7.131   4.145
12942TIP3   OH238766   8.231   3.434   4.946
12942TIP3    H138767   8.184   3.389   5.016
12942TIP3    H238768   8.256   3.365   4.884
12943TIP3   OH238769   2.059   6.576   1.018
12943TIP3    H138770   2.046   6.501   0.959
12943TIP3    H238771   1.985   6.634   0.999
12944TIP3   OH238772   3.196   6.870   3.447
12944TIP3    H138773   3.125   6.865   3.512
12944TIP3    H238774   3.262   6.808   3.479
12945TIP3   OH238775   6.098   3.948   5.059
12945TIP3    H138776   6.028   3.889   5.087
12945TIP3    H238777   6.076   4.032   5.100
12946TIP3   OH238778   4.016   5.572   1.192
12946TIP3    H138779   4.084   5.562   1.125
12946TIP3    H238780   4.063   5.562   1.275
12947TIP3   OH238781   8.139   1.289   2.584
12947TIP3    H138782   8.061   1.298   2.639
12947TIP3    H238783   8.187   1.215   2.622
12948TIP3   OH238784   4.716   2.577   0.312
12948TIP3    H138785   4.803   2.614   0.297
12948TIP3    H238786   4.661   2.653   0.330
12949TIP3   OH238787   1.027   2.013   4.441
12949TIP3    H138788   1.097   2.078   4.433
12949TIP3    H238789   0.957   2.059   4.487
12950TIP3   OH238790   2.579   4.907   2.295
12950TIP3    H138791   2.556   4.962   2.369
12950TIP3    H238792   2.674   4.895   2.303
12951TIP3   OH238793   4.924   3.693   5.102
12951TIP3    H138794   4.920   3.772   5.156
12951TIP3    H238795   4.861   3.634   5.143
12952TIP3   OH238796   1.691   5.624   2.716
12952TIP3    H138797   1.597   5.608   2.724
12952TIP3    H238798   1.714   5.588   2.630
12953TIP3   OH238799   5.616   2.521   4.478
12953TIP3    H138800   5.556   2.479   4.539
12953TIP3    H238801   5.567   2.595   4.442
12954TIP3   OH238802   6.899   7.359   0.688
12954TIP3    H138803   6.843   7.341   0.613
12954TIP3    H238804   6.893   7.454   0.700
12955TIP3   OH238805   6.910   7.826   1.983
12955TIP3    H138806   6.922   7.731   1.978
12955TIP3    H238807   6.824   7.837   2.022
12956TIP3   OH238808   8.383   6.713   3.226
12956TIP3    H138809   8.397   6.794   3.275
12956TIP3    H238810   8.384   6.740   3.134
12957TIP3   OH238811   7.850   4.066   4.763
12957TIP3    H138812   7.785   4.001   4.737
12957TIP3    H238813   7.917   4.016   4.810
12958TIP3   OH238814   4.702   1.799   4.096
12958TIP3    H138815   4.697   1.734   4.026
12958TIP3    H238816   4.697   1.883   4.051
12959TIP3   OH238817   3.860   7.441   4.776
12959TIP3    H138818   3.895   7.359   4.810
12959TIP3    H238819   3.935   7.486   4.739
12960TIP3   OH238820   4.566  -0.027   0.880
12960TIP3    H138821   4.494   0.004   0.825
12960TIP3    H238822   4.642   0.022   0.850
12961TIP3   OH238823   3.859   2.138   3.136
12961TIP3    H138824   3.799   2.212   3.141
12961TIP3    H238825   3.928   2.166   3.075
12962TIP3   OH238826   6.738   3.726   2.803
12962TIP3    H138827   6.824   3.768   2.807
12962TIP3    H238828   6.743   3.667   2.728
12963TIP3   OH238829   7.399   1.182   4.738
12963TIP3    H138830   7.349   1.221   4.810
12963TIP3    H238831   7.383   1.088   4.747
12964TIP3   OH238832   4.487   2.176   3.064
12964TIP3    H138833   4.456   2.086   3.049
12964TIP3    H238834   4.534   2.198   2.983
12965TIP3   OH238835   7.004   1.306   2.464
12965TIP3    H138836   7.091   1.278   2.491
12965TIP3    H238837   7.019   1.382   2.407
12966TIP3   OH238838   7.974   4.871   2.635
12966TIP3    H138839   8.044   4.815   2.603
12966TIP3    H238840   7.897   4.813   2.640
12967TIP3   OH238841   5.322   7.178   6.562
12967TIP3    H138842   5.277   7.179   6.478
12967TIP3    H238843   5.309   7.266   6.598
12968TIP3   OH238844   5.483   0.651   5.593
12968TIP3    H138845   5.434   0.607   5.662
12968TIP3    H238846   5.439   0.735   5.582
12969TIP3   OH238847   0.596   1.843   4.969
12969TIP3    H138848   0.616   1.758   4.931
12969TIP3    H238849   0.595   1.903   4.895
12970TIP3   OH238850   2.282   0.126   3.792
12970TIP3    H138851   2.323   0.113   3.878
12970TIP3    H238852   2.329   0.066   3.734
12971TIP3   OH238853   0.904   3.282   4.588
12971TIP3    H138854   0.885   3.196   4.550
12971TIP3    H238855   0.992   3.273   4.624
12972TIP3   OH238856   3.167   4.030   2.174
12972TIP3    H138857   3.084   4.068   2.146
12972TIP3    H238858   3.232   4.067   2.115
12973TIP3   OH238859   5.291   7.335   5.550
12973TIP3    H138860   5.219   7.389   5.585
12973TIP3    H238861   5.257   7.300   5.468
12974TIP3   OH238862   5.502   6.490   4.022
12974TIP3    H138863   5.559   6.419   3.994
12974TIP3    H238864   5.416   6.466   3.988
12975TIP3   OH238865   7.655   4.375   1.212
12975TIP3    H138866   7.564   4.347   1.204
12975TIP3    H238867   7.675   4.415   1.127
12976TIP3   OH238868   1.840   3.636   5.383
12976TIP3    H138869   1.849   3.731   5.394
12976TIP3    H238870   1.912   3.599   5.434
12977TIP3   OH238871   5.566   1.261   4.784
12977TIP3    H138872   5.572   1.207   4.863
12977TIP3    H238873   5.655   1.258   4.747
12978TIP3   OH238874   5.446   5.825   1.120
12978TIP3    H138875   5.494   5.798   1.042
12978TIP3    H238876   5.513   5.833   1.188
12979TIP3   OH238877   6.517   4.066   0.132
12979TIP3    H138878   6.448   4.001   0.115
12979TIP3    H238879   6.482   4.147   0.095
12980TIP3   OH238880   7.037   4.355   0.934
12980TIP3    H138881   6.973   4.414   0.974
12980TIP3    H238882   7.026   4.272   0.981
12981TIP3   OH238883   7.452   7.171   5.834
12981TIP3    H138884   7.450   7.080   5.803
12981TIP3    H238885   7.492   7.165   5.921
12982TIP3   OH238886   4.816   6.337   4.417
12982TIP3    H138887   4.746   6.372   4.472
12982TIP3    H238888   4.796   6.243   4.411
12983TIP3   OH238889   1.916   7.125   2.706
12983TIP3    H138890   1.858   7.176   2.650
12983TIP3    H238891   1.911   7.036   2.671
12984TIP3   OH238892   6.570   6.535   3.057
12984TIP3    H138893   6.571   6.601   2.988
12984TIP3    H238894   6.515   6.465   3.022
12985TIP3   OH238895   0.440   4.569   3.074
12985TIP3    H138896   0.506   4.562   3.143
12985TIP3    H238897   0.490   4.561   2.993
12986TIP3   OH238898   6.913   2.146   4.525
12986TIP3    H138899   6.992   2.132   4.577
12986TIP3    H238900   6.915   2.077   4.459
12987TIP3   OH238901   5.206   6.893   2.482
12987TIP3    H138902   5.120   6.892   2.441
12987TIP3    H238903   5.254   6.822   2.440
12988TIP3   OH238904   4.106   0.720   0.303
12988TIP3    H138905   4.123   0.670   0.383
12988TIP3    H238906   4.185   0.772   0.291
12989TIP3   OH238907   1.616   4.087   0.037
12989TIP3    H138908   1.637   3.998   0.007
12989TIP3    H238909   1.666   4.098   0.118
12990TIP3   OH238910   5.271   6.842   6.005
12990TIP3    H138911   5.294   6.750   6.016
12990TIP3    H238912   5.252   6.873   6.093
12991TIP3   OH238913   6.021   1.446   5.003
12991TIP3    H138914   5.949   1.504   5.027
12991TIP3    H238915   6.037   1.395   5.083
12992TIP3   OH238916   7.504   3.685   3.934
12992TIP3    H138917   7.470   3.667   4.022
12992TIP3    H238918   7.540   3.773   3.940
12993TIP3   OH238919   0.646   5.053   0.983
12993TIP3    H138920   0.664   5.096   1.066
12993TIP3    H238921   0.557   5.081   0.960
12994TIP3   OH238922   4.142   5.713   2.680
12994TIP3    H138923   4.175   5.719   2.770
12994TIP3    H238924   4.101   5.799   2.664
12995TIP3   OH238925   5.268   3.774   3.160
12995TIP3    H138926   5.222   3.745   3.239
12995TIP3    H238927   5.314   3.853   3.186
12996TIP3   OH238928   0.443   4.557   3.711
12996TIP3    H138929   0.390   4.566   3.790
12996TIP3    H238930   0.395   4.494   3.657
12997TIP3   OH238931   6.784   1.393   2.133
12997TIP3    H138932   6.802   1.321   2.194
12997TIP3    H238933   6.859   1.393   2.074
12998TIP3   OH238934   7.242   4.908   1.104
12998TIP3    H138935   7.290   4.987   1.080
12998TIP3    H238936   7.152   4.925   1.076
12999TIP3   OH238937   4.865   6.883   6.566
12999TIP3    H138938   4.887   6.971   6.536
12999TIP3    H238939   4.949   6.843   6.587
13000TIP3   OH238940   4.886   5.108   5.874
13000TIP3    H138941   4.969   5.116   5.921
13000TIP3    H238942   4.907   5.127   5.783
13001TIP3   OH238943   0.453   7.305   5.382
13001TIP3    H138944   0.390   7.360   5.336
13001TIP3    H238945   0.497   7.363   5.444
13002TIP3   OH238946   2.551   3.425   0.876
13002TIP3    H138947   2.623   3.463   0.826
13002TIP3    H238948   2.504   3.370   0.813
13003TIP3   OH238949   3.796   5.355   5.796
13003TIP3    H138950   3.746   5.434   5.818
13003TIP3    H238951   3.738   5.304   5.740
13004TIP3   OH238952   7.478   1.859   4.288
13004TIP3    H138953   7.540   1.786   4.283
13004TIP3    H238954   7.440   1.864   4.200
13005TIP3   OH238955   6.962   4.293   4.542
13005TIP3    H138956   6.870   4.318   4.545
13005TIP3    H238957   6.963   4.203   4.575
13006TIP3   OH238958   6.225   0.636   1.090
13006TIP3    H138959   6.294   0.593   1.040
13006TIP3    H238960   6.263   0.651   1.177
13007TIP3   OH238961   6.671   4.605   0.967
13007TIP3    H138962   6.732   4.623   1.039
13007TIP3    H238963   6.599   4.559   1.009
13008TIP3   OH238964   3.088   7.630   1.091
13008TIP3    H138965   3.174   7.645   1.131
13008TIP3    H238966   3.026   7.643   1.163
13009TIP3   OH238967   8.395   3.485   6.097
13009TIP3    H138968   8.301   3.501   6.105
13009TIP3    H238969   8.405   3.445   6.011
13010TIP3   OH238970   3.043   2.108   0.361
13010TIP3    H138971   3.078   2.034   0.409
13010TIP3    H238972   2.981   2.149   0.422
13011TIP3   OH238973   4.852   0.093   3.149
13011TIP3    H138974   4.910   0.168   3.136
13011TIP3    H238975   4.766   0.131   3.166
13012TIP3   OH238976   2.624   0.953   0.386
13012TIP3    H138977   2.612   0.977   0.478
13012TIP3    H238978   2.700   1.004   0.358
13013TIP3   OH238979   6.497   6.949   3.531
13013TIP3    H138980   6.499   7.016   3.463
13013TIP3    H238981   6.556   6.881   3.500
13014TIP3   OH238982   7.702   1.312   5.912
13014TIP3    H138983   7.664   1.273   5.833
13014TIP3    H238984   7.628   1.354   5.956
13015TIP3   OH238985   0.919   2.745   3.750
13015TIP3    H138986   0.983   2.777   3.686
13015TIP3    H238987   0.848   2.809   3.748
13016TIP3   OH238988   0.808   3.123   0.571
13016TIP3    H138989   0.752   3.185   0.524
13016TIP3    H238990   0.815   3.048   0.513
13017TIP3   OH238991   3.016   2.605   6.695
13017TIP3    H138992   2.980   2.596   6.783
13017TIP3    H238993   3.035   2.515   6.668
13018TIP3   OH238994   7.605   1.206   2.038
13018TIP3    H138995   7.557   1.124   2.030
13018TIP3    H238996   7.562   1.253   2.110
13019TIP3   OH238997   3.164   2.767   6.265
13019TIP3    H138998   3.076   2.775   6.303
13019TIP3    H238999   3.223   2.795   6.335
13020TIP3   OH239000   5.025   6.194   2.775
13020TIP3    H139001   5.082   6.184   2.698
13020TIP3    H239002   5.084   6.190   2.850
13021TIP3   OH239003   8.315   4.197   2.544
13021TIP3    H139004   8.223   4.172   2.553
13021TIP3    H239005   8.333   4.251   2.622
13022TIP3   OH239006   2.307   0.026   2.695
13022TIP3    H139007   2.366   0.095   2.667
13022TIP3    H239008   2.271   0.056   2.778
13023TIP3   OH239009   3.548   1.217   1.740
13023TIP3    H139010   3.610   1.224   1.812
13023TIP3    H239011   3.502   1.301   1.740
13024TIP3   OH239012   8.093   1.547   6.329
13024TIP3    H139013   8.128   1.520   6.244
13024TIP3    H239014   8.135   1.630   6.348
13025TIP3   OH239015   7.965   1.076   6.309
13025TIP3    H139016   7.900   1.141   6.286
13025TIP3    H239017   7.915   0.995   6.322
13026TIP3   OH239018   1.531   3.330   6.301
13026TIP3    H139019   1.596   3.398   6.285
13026TIP3    H239020   1.459   3.376   6.344
13027TIP3   OH239021   2.062   6.244   2.431
13027TIP3    H139022   2.147   6.286   2.444
13027TIP3    H239023   2.025   6.236   2.519
13028TIP3   OH239024   6.421   6.724   5.183
13028TIP3    H139025   6.486   6.693   5.120
13028TIP3    H239026   6.407   6.816   5.159
13029TIP3   OH239027   3.993   3.148   5.412
13029TIP3    H139028   4.033   3.207   5.476
13029TIP3    H239029   3.984   3.065   5.458
13030TIP3   OH239030   1.163   6.330   4.245
13030TIP3    H139031   1.131   6.245   4.215
13030TIP3    H239032   1.100   6.356   4.312
13031TIP3   OH239033   6.664   2.136   5.165
13031TIP3    H139034   6.686   2.227   5.146
13031TIP3    H239035   6.747   2.089   5.153
13032TIP3   OH239036   7.374   2.327   2.558
13032TIP3    H139037   7.394   2.376   2.638
13032TIP3    H239038   7.453   2.335   2.505
13033TIP3   OH239039   0.176   6.332   1.581
13033TIP3    H139040   0.210   6.414   1.616
13033TIP3    H239041   0.086   6.327   1.614
13034TIP3   OH239042   0.503   0.250   0.075
13034TIP3    H139043   0.535   0.293  -0.005
13034TIP3    H239044   0.566   0.275   0.143
13035TIP3   OH239045   4.214   4.804   3.691
13035TIP3    H139046   4.178   4.874   3.637
13035TIP3    H239047   4.307   4.802   3.668
13036TIP3   OH239048   5.350   6.505   0.141
13036TIP3    H139049   5.419   6.569   0.160
13036TIP3    H239050   5.379   6.462   0.061
13037TIP3   OH239051   3.463   7.715   2.080
13037TIP3    H139052   3.544   7.716   2.028
13037TIP3    H239053   3.434   7.624   2.074
13038TIP3   OH239054   8.141   0.141   3.218
13038TIP3    H139055   8.056   0.111   3.188
13038TIP3    H239056   8.129   0.234   3.236
13039TIP3   OH239057   7.229   3.248   2.731
13039TIP3    H139058   7.316   3.263   2.695
13039TIP3    H239059   7.239   3.263   2.825
13040TIP3   OH239060   1.490   0.582   1.644
13040TIP3    H139061   1.502   0.652   1.707
13040TIP3    H239062   1.563   0.523   1.659
13041TIP3   OH239063   6.013   4.029   4.521
13041TIP3    H139064   6.067   4.093   4.474
13041TIP3    H239065   6.052   3.944   4.499
13042TIP3   OH239066   5.990   5.763   5.533
13042TIP3    H139067   5.958   5.734   5.447
13042TIP3    H239068   6.082   5.739   5.534
13043TIP3   OH239069   1.806   6.707   4.510
13043TIP3    H139070   1.801   6.704   4.414
13043TIP3    H239071   1.724   6.667   4.540
13044TIP3   OH239072   1.613   2.872   3.674
13044TIP3    H139073   1.678   2.924   3.627
13044TIP3    H239074   1.595   2.922   3.754
13045TIP3   OH239075   3.602   4.297   3.973
13045TIP3    H139076   3.635   4.298   4.063
13045TIP3    H239077   3.566   4.210   3.961
13046TIP3   OH239078   4.071   6.239   6.767
13046TIP3    H139079   4.137   6.261   6.833
13046TIP3    H239080   4.006   6.188   6.815
13047TIP3   OH239081   1.135   7.594   1.081
13047TIP3    H139082   1.198   7.640   1.137
13047TIP3    H239083   1.050   7.620   1.115
13048TIP3   OH239084   7.048   0.378   4.573
13048TIP3    H139085   6.966   0.343   4.538
13048TIP3    H239086   7.104   0.301   4.585
13049TIP3   OH239087   5.230   2.855   4.821
13049TIP3    H139088   5.249   2.866   4.914
13049TIP3    H239089   5.183   2.771   4.816
13050TIP3   OH239090   8.208   4.229   3.770
13050TIP3    H139091   8.218   4.137   3.795
13050TIP3    H239092   8.275   4.244   3.704
13051TIP3   OH239093   0.289   6.107   1.652
13051TIP3    H139094   0.381   6.127   1.635
13051TIP3    H239095   0.242   6.186   1.624
13052TIP3   OH239096   6.381   3.693   5.429
13052TIP3    H139097   6.364   3.773   5.478
13052TIP3    H239098   6.465   3.662   5.461
13053TIP3   OH239099   2.034   1.430   5.064
13053TIP3    H139100   2.049   1.384   4.982
13053TIP3    H239101   2.108   1.489   5.073
13054TIP3   OH239102   1.175   0.876   6.073
13054TIP3    H139103   1.267   0.904   6.075
13054TIP3    H239104   1.145   0.898   5.985
13055TIP3   OH239105   4.383   4.025   4.621
13055TIP3    H139106   4.352   4.022   4.711
13055TIP3    H239107   4.385   3.933   4.593
13056TIP3   OH239108   6.078   3.661   2.263
13056TIP3    H139109   6.064   3.648   2.169
13056TIP3    H239110   6.172   3.645   2.275
13057TIP3   OH239111   2.391   1.097   2.865
13057TIP3    H139112   2.319   1.034   2.869
13057TIP3    H239113   2.385   1.136   2.778
13058TIP3   OH239114   3.292   4.050   4.374
13058TIP3    H139115   3.363   4.064   4.310
13058TIP3    H239116   3.337   4.018   4.452
13059TIP3   OH239117   8.312   0.405   6.758
13059TIP3    H139118   8.225   0.435   6.729
13059TIP3    H239119   8.339   0.342   6.692
13060TIP3   OH239120   4.171   5.916   6.673
13060TIP3    H139121   4.136   5.985   6.617
13060TIP3    H239122   4.249   5.953   6.713
13061TIP3   OH239123   3.987   0.363   5.274
13061TIP3    H139124   3.962   0.452   5.251
13061TIP3    H239125   4.014   0.369   5.366
13062TIP3   OH239126   8.243   3.985   1.504
13062TIP3    H139127   8.193   4.013   1.428
13062TIP3    H239128   8.239   3.889   1.502
13063TIP3   OH239129   3.421   3.643   2.525
13063TIP3    H139130   3.458   3.727   2.554
13063TIP3    H239131   3.342   3.666   2.477
13064TIP3   OH239132   6.442   3.195   5.549
13064TIP3    H139133   6.367   3.182   5.492
13064TIP3    H239134   6.502   3.124   5.526
13065TIP3   OH239135   4.045   5.845   4.561
13065TIP3    H139136   4.060   5.754   4.535
13065TIP3    H239137   3.951   5.859   4.547
13066TIP3   OH239138   6.837   2.978   0.023
13066TIP3    H139139   6.753   2.959   0.064
13066TIP3    H239140   6.888   2.898   0.036
13067TIP3   OH239141   4.193   1.489   6.089
13067TIP3    H139142   4.247   1.562   6.062
13067TIP3    H239143   4.167   1.446   6.007
13068TIP3   OH239144   7.488   7.230   3.465
13068TIP3    H139145   7.463   7.314   3.425
13068TIP3    H239146   7.551   7.192   3.405
13069TIP3   OH239147   5.439   5.372   3.776
13069TIP3    H139148   5.374   5.441   3.764
13069TIP3    H239149   5.416   5.306   3.711
13070TIP3   OH239150   3.904   3.483   5.570
13070TIP3    H139151   3.907   3.565   5.621
13070TIP3    H239152   3.991   3.445   5.582
13071TIP3   OH239153   7.088   2.884   1.530
13071TIP3    H139154   7.092   2.951   1.599
13071TIP3    H239155   7.002   2.844   1.540
13072TIP3   OH239156   1.126   2.752   3.959
13072TIP3    H139157   1.047   2.715   3.919
13072TIP3    H239158   1.165   2.806   3.890
13073TIP3   OH239159   1.335   4.581   4.189
13073TIP3    H139160   1.316   4.528   4.267
13073TIP3    H239161   1.295   4.666   4.208
13074TIP3   OH239162   4.832   4.699   3.179
13074TIP3    H139163   4.854   4.649   3.101
13074TIP3    H239164   4.916   4.723   3.217
13075TIP3   OH239165   7.676   0.097   4.696
13075TIP3    H139166   7.597   0.044   4.686
13075TIP3    H239167   7.746   0.044   4.656
13076TIP3   OH239168   0.946   5.085   4.667
13076TIP3    H139169   0.872   5.142   4.646
13076TIP3    H239170   0.914   5.030   4.739
13077TIP3   OH239171   5.692   0.784   1.508
13077TIP3    H139172   5.763   0.761   1.569
13077TIP3    H239173   5.625   0.824   1.564
13078TIP3   OH239174   3.901   5.312   5.126
13078TIP3    H139175   3.925   5.281   5.213
13078TIP3    H239176   3.978   5.297   5.072
13079TIP3   OH239177   5.486   7.615   6.217
13079TIP3    H139178   5.457   7.610   6.126
13079TIP3    H239179   5.510   7.526   6.240
13080TIP3   OH239180   6.841   1.260   1.749
13080TIP3    H139181   6.750   1.230   1.756
13080TIP3    H239182   6.865   1.241   1.659
13081TIP3   OH239183   6.386   0.879   5.444
13081TIP3    H139184   6.309   0.888   5.499
13081TIP3    H239185   6.372   0.798   5.395
13082TIP3   OH239186   2.277   3.421   5.175
13082TIP3    H139187   2.371   3.425   5.195
13082TIP3    H239188   2.269   3.467   5.091
13083TIP3   OH239189   0.056   3.821   4.996
13083TIP3    H139190  -0.019   3.874   5.024
13083TIP3    H239191   0.132   3.875   5.017
13084TIP3   OH239192   2.153   6.275   4.649
13084TIP3    H139193   2.185   6.310   4.566
13084TIP3    H239194   2.206   6.320   4.715
13085TIP3   OH239195   0.803   0.151   2.403
13085TIP3    H139196   0.728   0.202   2.435
13085TIP3    H239197   0.858   0.137   2.480
13086TIP3   OH239198   6.840   4.281   3.212
13086TIP3    H139199   6.901   4.324   3.153
13086TIP3    H239200   6.853   4.187   3.196
13087TIP3   OH239201   1.527   4.104   0.999
13087TIP3    H139202   1.585   4.159   1.051
13087TIP3    H239203   1.439   4.126   1.029
13088TIP3   OH239204   4.938   2.301   0.267
13088TIP3    H139205   4.936   2.397   0.273
13088TIP3    H239206   4.928   2.271   0.358
13089TIP3   OH239207   5.956   1.591   2.230
13089TIP3    H139208   6.034   1.647   2.227
13089TIP3    H239209   5.968   1.529   2.158
13090TIP3   OH239210   2.943   0.877   0.236
13090TIP3    H139211   2.925   0.886   0.330
13090TIP3    H239212   3.004   0.803   0.230
13091TIP3   OH239213   5.062   4.961   3.582
13091TIP3    H139214   5.156   4.950   3.569
13091TIP3    H239215   5.047   4.932   3.672
13092TIP3   OH239216   7.100   3.286   4.999
13092TIP3    H139217   7.194   3.274   4.984
13092TIP3    H239218   7.093   3.304   5.093
13093TIP3   OH239219   2.862   2.239   0.559
13093TIP3    H139220   2.857   2.306   0.491
13093TIP3    H239221   2.929   2.272   0.619
13094TIP3   OH239222   4.432   1.052   1.957
13094TIP3    H139223   4.392   1.131   1.994
13094TIP3    H239224   4.378   0.980   1.990
13095TIP3   OH239225   6.525   0.488   4.919
13095TIP3    H139226   6.478   0.440   4.851
13095TIP3    H239227   6.459   0.545   4.959
13096TIP3   OH239228   7.509   3.346   4.252
13096TIP3    H139229   7.547   3.270   4.295
13096TIP3    H239230   7.520   3.329   4.159
13097TIP3   OH239231   3.595   6.263   6.138
13097TIP3    H139232   3.552   6.284   6.056
13097TIP3    H239233   3.536   6.200   6.181
13098TIP3   OH239234   1.781   4.836   5.766
13098TIP3    H139235   1.745   4.748   5.775
13098TIP3    H239236   1.727   4.877   5.699
13099TIP3   OH239237   6.299   5.299   2.311
13099TIP3    H139238   6.383   5.255   2.327
13099TIP3    H239239   6.265   5.257   2.232
13100TIP3   OH239240   5.416   2.545   5.663
13100TIP3    H139241   5.392   2.456   5.688
13100TIP3    H239242   5.387   2.599   5.737
13101TIP3   OH239243   0.292   2.552   0.389
13101TIP3    H139244   0.216   2.517   0.343
13101TIP3    H239245   0.289   2.646   0.374
13102TIP3   OH239246   3.914   5.372   6.061
13102TIP3    H139247   3.894   5.391   5.969
13102TIP3    H239248   3.852   5.303   6.085
13103TIP3   OH239249   4.733   1.363   2.342
13103TIP3    H139250   4.753   1.377   2.250
13103TIP3    H239251   4.778   1.282   2.365
13104TIP3   OH239252   1.556   6.587   4.649
13104TIP3    H139253   1.605   6.647   4.705
13104TIP3    H239254   1.471   6.629   4.636
13105TIP3   OH239255   0.718   4.030   5.204
13105TIP3    H139256   0.698   3.960   5.267
13105TIP3    H239257   0.634   4.053   5.166
13106TIP3   OH239258   6.163   6.452   4.600
13106TIP3    H139259   6.153   6.459   4.695
13106TIP3    H239260   6.157   6.542   4.568
13107TIP3   OH239261   2.023   0.697   0.438
13107TIP3    H139262   2.089   0.651   0.385
13107TIP3    H239263   1.971   0.627   0.477
13108TIP3   OH239264   0.760   7.327   2.227
13108TIP3    H139265   0.845   7.286   2.241
13108TIP3    H239266   0.703   7.286   2.292
13109TIP3   OH239267   1.432   7.446   5.633
13109TIP3    H139268   1.507   7.506   5.624
13109TIP3    H239269   1.462   7.364   5.593
13110TIP3   OH239270   2.783   1.316   6.693
13110TIP3    H139271   2.785   1.351   6.604
13110TIP3    H239272   2.869   1.277   6.705
13111TIP3   OH239273   5.231   6.581   2.651
13111TIP3    H139274   5.294   6.623   2.592
13111TIP3    H239275   5.282   6.514   2.697
13112TIP3   OH239276   1.482   0.434   6.726
13112TIP3    H139277   1.507   0.500   6.791
13112TIP3    H239278   1.544   0.446   6.654
13113TIP3   OH239279   7.493   1.000   2.524
13113TIP3    H139280   7.545   1.080   2.522
13113TIP3    H239281   7.470   0.984   2.432
13114TIP3   OH239282   5.187   6.460   4.970
13114TIP3    H139283   5.185   6.413   5.053
13114TIP3    H239284   5.126   6.534   4.983
13115TIP3   OH239285   1.866   1.912   4.190
13115TIP3    H139286   1.910   1.981   4.141
13115TIP3    H239287   1.783   1.950   4.218
13116TIP3   OH239288   8.231   0.095   1.608
13116TIP3    H139289   8.290   0.103   1.533
13116TIP3    H239290   8.195   0.006   1.600
13117TIP3   OH239291   1.439   5.736   0.107
13117TIP3    H139292   1.437   5.813   0.051
13117TIP3    H239293   1.443   5.771   0.196
13118TIP3   OH239294   2.571   6.189   0.724
13118TIP3    H139295   2.562   6.268   0.671
13118TIP3    H239296   2.598   6.221   0.810
13119TIP3   OH239297   3.982   7.061   3.428
13119TIP3    H139298   4.039   7.067   3.506
13119TIP3    H239299   4.032   7.105   3.359
13120TIP3   OH239300   3.713   1.386   0.630
13120TIP3    H139301   3.709   1.297   0.594
13120TIP3    H239302   3.665   1.380   0.713
13121TIP3   OH239303   3.054   3.984   1.207
13121TIP3    H139304   2.996   3.949   1.274
13121TIP3    H239305   3.065   3.912   1.145
13122TIP3   OH239306   6.671   0.223   5.891
13122TIP3    H139307   6.707   0.259   5.972
13122TIP3    H239308   6.650   0.299   5.838
13123TIP3   OH239309   5.402   4.981   2.460
13123TIP3    H139310   5.396   5.072   2.489
13123TIP3    H239311   5.330   4.969   2.399
13124TIP3   OH239312   3.723   0.227   5.811
13124TIP3    H139313   3.707   0.133   5.824
13124TIP3    H239314   3.746   0.234   5.718
13125TIP3   OH239315   2.216   4.991   3.562
13125TIP3    H139316   2.163   5.024   3.635
13125TIP3    H239317   2.280   5.061   3.546
13126TIP3   OH239318   5.372   1.728   6.509
13126TIP3    H139319   5.345   1.661   6.446
13126TIP3    H239320   5.324   1.806   6.482
13127TIP3   OH239321   5.256   1.297  -0.028
13127TIP3    H139322   5.344   1.302   0.009
13127TIP3    H239323   5.201   1.344   0.035
13128TIP3   OH239324   2.870   1.263   2.510
13128TIP3    H139325   2.796   1.262   2.571
13128TIP3    H239326   2.832   1.288   2.426
13129TIP3   OH239327   3.108   5.950   1.320
13129TIP3    H139328   3.087   6.041   1.297
13129TIP3    H239329   3.057   5.933   1.399
13130TIP3   OH239330   0.368   1.382   3.351
13130TIP3    H139331   0.443   1.373   3.292
13130TIP3    H239332   0.401   1.352   3.435
13131TIP3   OH239333   4.776   7.292   6.651
13131TIP3    H139334   4.695   7.297   6.701
13131TIP3    H239335   4.795   7.383   6.626
13132TIP3   OH239336   5.017   5.041   3.322
13132TIP3    H139337   5.010   5.007   3.411
13132TIP3    H239338   5.076   5.116   3.329
13133TIP3   OH239339   7.041   1.608   1.208
13133TIP3    H139340   7.132   1.592   1.182
13133TIP3    H239341   7.020   1.537   1.268
13134TIP3   OH239342   2.926   1.152   0.977
13134TIP3    H139343   2.869   1.197   0.914
13134TIP3    H239344   2.973   1.223   1.021
13135TIP3   OH239345   0.738   5.989   1.309
13135TIP3    H139346   0.674   6.054   1.340
13135TIP3    H239347   0.821   6.016   1.347
13136TIP3   OH239348   0.015   0.628   3.439
13136TIP3    H139349  -0.030   0.684   3.375
13136TIP3    H239350   0.092   0.596   3.394
13137TIP3   OH239351   4.750   4.115   6.448
13137TIP3    H139352   4.801   4.086   6.524
13137TIP3    H239353   4.705   4.036   6.418
13138TIP3   OH239354   2.031   5.528   3.041
13138TIP3    H139355   1.971   5.529   2.967
13138TIP3    H239356   1.979   5.560   3.115
13139TIP3   OH239357   6.055   1.002   1.903
13139TIP3    H139358   6.066   0.955   1.820
13139TIP3    H239359   6.120   0.963   1.962
13140TIP3   OH239360   5.423   0.186   2.508
13140TIP3    H139361   5.443   0.273   2.543
13140TIP3    H239362   5.493   0.169   2.445
13141TIP3   OH239363   0.257   0.214   3.859
13141TIP3    H139364   0.261   0.118   3.855
13141TIP3    H239365   0.348   0.242   3.850
13142TIP3   OH239366   4.292   2.486   5.712
13142TIP3    H139367   4.213   2.439   5.685
13142TIP3    H239368   4.328   2.434   5.783
13143TIP3   OH239369   2.543   1.570   6.064
13143TIP3    H139370   2.501   1.610   6.140
13143TIP3    H239371   2.563   1.481   6.092
13144TIP3   OH239372   2.857   6.702   6.775
13144TIP3    H139373   2.788   6.755   6.736
13144TIP3    H239374   2.908   6.763   6.829
13145TIP3   OH239375   5.165   4.362   6.800
13145TIP3    H139376   5.187   4.355   6.892
13145TIP3    H239377   5.196   4.280   6.761
13146TIP3   OH239378   4.852   3.284   1.272
13146TIP3    H139379   4.931   3.289   1.325
13146TIP3    H239380   4.881   3.252   1.187
13147TIP3   OH239381   2.725   1.012   2.311
13147TIP3    H139382   2.684   1.026   2.396
13147TIP3    H239383   2.788   0.942   2.326
13148TIP3   OH239384   3.455   4.043   6.086
13148TIP3    H139385   3.360   4.051   6.084
13148TIP3    H239386   3.474   3.967   6.032
13149TIP3   OH239387   1.054   4.126   1.680
13149TIP3    H139388   0.994   4.194   1.712
13149TIP3    H239389   1.137   4.171   1.668
13150TIP3   OH239390   1.167   5.893   5.044
13150TIP3    H139391   1.103   5.911   4.976
13150TIP3    H239392   1.167   5.971   5.099
13151TIP3   OH239393   2.918   7.625   0.106
13151TIP3    H139394   2.898   7.704   0.157
13151TIP3    H239395   2.929   7.657   0.017
13152TIP3   OH239396   3.123   1.697   0.219
13152TIP3    H139397   3.195   1.754   0.245
13152TIP3    H239398   3.162   1.635   0.158
13153TIP3   OH239399   5.709   3.168   0.128
13153TIP3    H139400   5.679   3.259   0.124
13153TIP3    H239401   5.693   3.134   0.040
13154TIP3   OH239402   4.507   7.001   0.340
13154TIP3    H139403   4.513   7.085   0.385
13154TIP3    H239404   4.575   6.947   0.380
13155TIP3   OH239405   2.118   0.324   4.481
13155TIP3    H139406   2.192   0.311   4.540
13155TIP3    H239407   2.047   0.273   4.519
13156TIP3   OH239408   4.448   7.845   6.118
13156TIP3    H139409   4.381   7.798   6.068
13156TIP3    H239410   4.406   7.928   6.143
13157TIP3   OH239411   0.751   6.283   4.020
13157TIP3    H139412   0.758   6.301   3.926
13157TIP3    H239413   0.799   6.201   4.032
13158TIP3   OH239414   5.944   0.984   2.988
13158TIP3    H139415   5.982   0.897   2.982
13158TIP3    H239416   5.864   0.979   2.936
13159TIP3   OH239417   4.286   0.307   5.227
13159TIP3    H139418   4.237   0.388   5.212
13159TIP3    H239419   4.304   0.274   5.140
13160TIP3   OH239420   8.172   7.257   1.360
13160TIP3    H139421   8.267   7.261   1.353
13160TIP3    H239422   8.155   7.261   1.455
13161TIP3   OH239423   0.700   2.292   0.388
13161TIP3    H139424   0.644   2.222   0.354
13161TIP3    H239425   0.638   2.356   0.425
13162TIP3   OH239426   1.197   0.623   0.168
13162TIP3    H139427   1.259   0.657   0.232
13162TIP3    H239428   1.190   0.530   0.188
13163TIP3   OH239429   0.481   6.799   5.497
13163TIP3    H139430   0.388   6.799   5.472
13163TIP3    H239431   0.527   6.779   5.416
13164TIP3   OH239432   3.032   2.327   5.493
13164TIP3    H139433   3.127   2.315   5.490
13164TIP3    H239434   3.015   2.362   5.580
13165TIP3   OH239435   7.821   6.195   0.586
13165TIP3    H139436   7.802   6.118   0.640
13165TIP3    H239437   7.913   6.185   0.562
13166TIP3   OH239438   6.743   4.301   1.501
13166TIP3    H139439   6.772   4.230   1.558
13166TIP3    H239440   6.689   4.257   1.434
13167TIP3   OH239441   7.074   6.904   1.120
13167TIP3    H139442   7.166   6.915   1.097
13167TIP3    H239443   7.028   6.896   1.037
13168TIP3   OH239444   0.643   4.363   2.381
13168TIP3    H139445   0.612   4.428   2.318
13168TIP3    H239446   0.692   4.414   2.446
13169TIP3   OH239447   0.633   1.933   6.869
13169TIP3    H139448   0.572   2.006   6.868
13169TIP3    H239449   0.586   1.862   6.825
13170TIP3   OH239450   8.304   5.766   6.558
13170TIP3    H139451   8.313   5.804   6.645
13170TIP3    H239452   8.362   5.690   6.558
13171TIP3   OH239453   2.900   7.197   1.016
13171TIP3    H139454   2.850   7.276   1.038
13171TIP3    H239455   2.988   7.213   1.051
13172TIP3   OH239456   5.997   6.051   5.551
13172TIP3    H139457   6.050   6.072   5.628
13172TIP3    H239458   5.992   5.956   5.551
13173TIP3   OH239459   5.669   5.202   6.576
13173TIP3    H139460   5.611   5.138   6.618
13173TIP3    H239461   5.704   5.253   6.648
13174TIP3   OH239462   7.280   1.249   0.996
13174TIP3    H139463   7.256   1.285   1.082
13174TIP3    H239464   7.230   1.168   0.990
13175TIP3   OH239465   5.289   7.700   5.340
13175TIP3    H139466   5.350   7.774   5.341
13175TIP3    H239467   5.300   7.658   5.426
13176TIP3   OH239468   1.535   5.628   1.639
13176TIP3    H139469   1.475   5.554   1.628
13176TIP3    H239470   1.531   5.674   1.555
13177TIP3   OH239471   7.631   6.170   6.227
13177TIP3    H139472   7.720   6.205   6.226
13177TIP3    H239473   7.591   6.201   6.146
13178TIP3   OH239474   2.330   5.319   5.633
13178TIP3    H139475   2.272   5.301   5.707
13178TIP3    H239476   2.348   5.233   5.595
13179TIP3   OH239477   4.745   1.868   4.556
13179TIP3    H139478   4.738   1.894   4.464
13179TIP3    H239479   4.753   1.950   4.604
13180TIP3   OH239480   7.624   5.597   0.572
13180TIP3    H139481   7.576   5.598   0.489
13180TIP3    H239482   7.562   5.630   0.637
13181TIP3   OH239483   6.986   0.374   5.344
13181TIP3    H139484   6.961   0.331   5.426
13181TIP3    H239485   7.030   0.305   5.294
13182TIP3   OH239486   4.691   2.306   6.200
13182TIP3    H139487   4.618   2.247   6.214
13182TIP3    H239488   4.683   2.332   6.108
13183TIP3   OH239489   2.866   1.836   0.262
13183TIP3    H139490   2.892   1.914   0.212
13183TIP3    H239491   2.925   1.767   0.231
13184TIP3   OH239492   5.020   5.643   1.962
13184TIP3    H139493   5.023   5.672   2.053
13184TIP3    H239494   4.973   5.559   1.965
13185TIP3   OH239495   6.168   0.122   0.104
13185TIP3    H139496   6.117   0.202   0.107
13185TIP3    H239497   6.107   0.055   0.074
13186TIP3   OH239498   5.621   7.644   5.411
13186TIP3    H139499   5.575   7.686   5.483
13186TIP3    H239500   5.601   7.551   5.421
13187TIP3   OH239501   0.669   1.403   5.870
13187TIP3    H139502   0.742   1.361   5.824
13187TIP3    H239503   0.660   1.488   5.827
13188TIP3   OH239504   2.978   0.460   4.519
13188TIP3    H139505   3.002   0.514   4.445
13188TIP3    H239506   2.923   0.517   4.574
13189TIP3   OH239507   6.011   5.049   1.898
13189TIP3    H139508   5.958   5.088   1.967
13189TIP3    H239509   5.967   4.966   1.878
13190TIP3   OH239510   7.782   1.388   0.951
13190TIP3    H139511   7.857   1.425   0.998
13190TIP3    H239512   7.736   1.465   0.916
13191TIP3   OH239513   6.313   2.018   5.076
13191TIP3    H139514   6.396   1.989   5.038
13191TIP3    H239515   6.262   1.938   5.087
13192TIP3   OH239516   7.357   5.248   5.458
13192TIP3    H139517   7.262   5.249   5.447
13192TIP3    H239518   7.371   5.208   5.544
13193TIP3   OH239519   3.154   3.596   1.853
13193TIP3    H139520   3.111   3.667   1.806
13193TIP3    H239521   3.121   3.517   1.811
13194TIP3   OH239522   5.095   0.650   5.534
13194TIP3    H139523   5.156   0.592   5.580
13194TIP3    H239524   5.070   0.715   5.600
13195TIP3   OH239525   5.169   6.417   3.602
13195TIP3    H139526   5.141   6.355   3.535
13195TIP3    H239527   5.115   6.495   3.588
13196TIP3   OH239528   8.059   2.612   0.961
13196TIP3    H139529   8.058   2.697   0.917
13196TIP3    H239530   8.113   2.626   1.039
13197TIP3   OH239531   6.634   7.922   2.879
13197TIP3    H139532   6.640   7.918   2.975
13197TIP3    H239533   6.657   7.834   2.849
13198TIP3   OH239534   7.702   4.238   0.280
13198TIP3    H139535   7.650   4.308   0.320
13198TIP3    H239536   7.662   4.224   0.195
13199TIP3   OH239537   5.400   5.697   2.806
13199TIP3    H139538   5.334   5.631   2.827
13199TIP3    H239539   5.475   5.646   2.773
13200TIP3   OH239540   3.643   3.281   6.731
13200TIP3    H139541   3.566   3.226   6.723
13200TIP3    H239542   3.624   3.357   6.676
13201TIP3   OH239543   1.869   5.462   1.345
13201TIP3    H139544   1.949   5.410   1.355
13201TIP3    H239545   1.801   5.407   1.384
13202TIP3   OH239546   5.428   0.546   4.364
13202TIP3    H139547   5.437   0.475   4.301
13202TIP3    H239548   5.352   0.522   4.417
13203TIP3   OH239549   1.946   2.341   3.091
13203TIP3    H139550   2.004   2.286   3.038
13203TIP3    H239551   1.873   2.284   3.114
13204TIP3   OH239552   2.774   2.955   6.612
13204TIP3    H139553   2.696   2.899   6.605
13204TIP3    H239554   2.776   3.004   6.530
13205TIP3   OH239555   4.696   6.013   4.499
13205TIP3    H139556   4.644   5.939   4.530
13205TIP3    H239557   4.692   6.077   4.569
13206TIP3   OH239558   5.001   0.319   3.232
13206TIP3    H139559   5.073   0.314   3.169
13206TIP3    H239560   4.969   0.409   3.225
13207TIP3   OH239561   4.872   0.031   4.315
13207TIP3    H139562   4.803   0.063   4.257
13207TIP3    H239563   4.832  -0.041   4.363
13208TIP3   OH239564   2.728   4.918   5.139
13208TIP3    H139565   2.793   4.886   5.202
13208TIP3    H239566   2.685   4.839   5.107
13209TIP3   OH239567   6.382   2.501   3.610
13209TIP3    H139568   6.304   2.449   3.594
13209TIP3    H239569   6.385   2.562   3.536
13210TIP3   OH239570   7.897   5.058   6.723
13210TIP3    H139571   7.951   5.112   6.781
13210TIP3    H239572   7.834   5.017   6.782
13211TIP3   OH239573   8.249   0.080   2.425
13211TIP3    H139574   8.313   0.082   2.353
13211TIP3    H239575   8.297   0.117   2.500
13212TIP3   OH239576   5.402   6.768   4.406
13212TIP3    H139577   5.401   6.683   4.362
13212TIP3    H239578   5.424   6.748   4.497
13213TIP3   OH239579   0.009   4.465   0.248
13213TIP3    H139580  -0.029   4.405   0.312
13213TIP3    H239581   0.091   4.424   0.222
13214TIP3   OH239582   2.246   0.265   4.756
13214TIP3    H139583   2.303   0.335   4.787
13214TIP3    H239584   2.263   0.192   4.816
13215TIP3   OH239585   0.171   3.220   4.772
13215TIP3    H139586   0.085   3.261   4.767
13215TIP3    H239587   0.187   3.209   4.866
13216TIP3   OH239588   0.101   6.179   2.280
13216TIP3    H139589   0.172   6.240   2.263
13216TIP3    H239590   0.031   6.234   2.316
13217TIP3   OH239591   0.885   1.041   4.695
13217TIP3    H139592   0.933   1.104   4.748
13217TIP3    H239593   0.951   0.977   4.667
13218TIP3   OH239594   2.337   6.543   5.804
13218TIP3    H139595   2.312   6.474   5.866
13218TIP3    H239596   2.424   6.517   5.774
13219TIP3   OH239597   4.740   0.454   6.340
13219TIP3    H139598   4.736   0.370   6.386
13219TIP3    H239599   4.719   0.519   6.408
13220TIP3   OH239600   3.109   5.599   6.374
13220TIP3    H139601   3.160   5.680   6.380
13220TIP3    H239602   3.096   5.585   6.280
13221TIP3   OH239603   6.360   6.979   5.044
13221TIP3    H139604   6.384   7.072   5.046
13221TIP3    H239605   6.269   6.979   5.015
13222TIP3   OH239606   6.538   7.204   3.073
13222TIP3    H139607   6.605   7.138   3.056
13222TIP3    H239608   6.492   7.214   2.989
13223TIP3   OH239609   7.513   5.830   3.423
13223TIP3    H139610   7.516   5.882   3.503
13223TIP3    H239611   7.447   5.873   3.368
13224TIP3   OH239612   6.600   1.907   1.055
13224TIP3    H139613   6.654   1.969   1.006
13224TIP3    H239614   6.520   1.899   1.003
13225TIP3   OH239615   2.787   1.488   4.992
13225TIP3    H139616   2.807   1.509   4.901
13225TIP3    H239617   2.816   1.397   5.003
13226TIP3   OH239618   8.075   4.134   0.143
13226TIP3    H139619   8.124   4.093   0.213
13226TIP3    H239620   7.984   4.115   0.162
13227TIP3   OH239621   5.117   2.380   1.121
13227TIP3    H139622   5.080   2.375   1.033
13227TIP3    H239623   5.060   2.441   1.168
13228TIP3   OH239624   6.037   0.660   4.033
13228TIP3    H139625   5.960   0.707   4.001
13228TIP3    H239626   6.022   0.569   4.007
13229TIP3   OH239627   7.863   4.910   2.923
13229TIP3    H139628   7.814   4.847   2.870
13229TIP3    H239629   7.887   4.861   3.002
13230TIP3   OH239630   1.369   1.945   4.771
13230TIP3    H139631   1.430   1.910   4.707
13230TIP3    H239632   1.410   1.928   4.856
13231TIP3   OH239633   8.426   3.333   2.790
13231TIP3    H139634   8.480   3.371   2.721
13231TIP3    H239635   8.336   3.349   2.762
13232TIP3   OH239636   6.133   4.926   4.230
13232TIP3    H139637   6.217   4.940   4.186
13232TIP3    H239638   6.138   4.979   4.309
13233TIP3   OH239639   4.352   3.179   5.097
13233TIP3    H139640   4.353   3.157   5.190
13233TIP3    H239641   4.430   3.136   5.061
13234TIP3   OH239642   2.478   2.538   0.053
13234TIP3    H139643   2.383   2.535   0.060
13234TIP3    H239644   2.500   2.632   0.056
13235TIP3   OH239645   5.590   0.614   4.001
13235TIP3    H139646   5.612   0.534   4.050
13235TIP3    H239647   5.531   0.662   4.059
13236TIP3   OH239648   0.246   3.587   6.182
13236TIP3    H139649   0.156   3.573   6.154
13236TIP3    H239650   0.285   3.642   6.114
13237TIP3   OH239651   6.190   1.122   6.449
13237TIP3    H139652   6.202   1.113   6.543
13237TIP3    H239653   6.099   1.097   6.434
13238TIP3   OH239654   8.303   2.262   4.731
13238TIP3    H139655   8.259   2.276   4.815
13238TIP3    H239656   8.391   2.233   4.755
13239TIP3   OH239657   2.233   3.891   0.176
13239TIP3    H139658   2.173   3.961   0.150
13239TIP3    H239659   2.177   3.826   0.217
13240TIP3   OH239660   3.948   3.103   4.067
13240TIP3    H139661   3.936   3.197   4.052
13240TIP3    H239662   3.922   3.062   3.984
13241TIP3   OH239663   7.875   1.619   6.469
13241TIP3    H139664   7.945   1.590   6.411
13241TIP3    H239665   7.848   1.704   6.433
13242TIP3   OH239666   3.979   2.140   0.879
13242TIP3    H139667   4.000   2.210   0.817
13242TIP3    H239668   3.886   2.148   0.895
13243TIP3   OH239669   4.098   4.081   1.416
13243TIP3    H139670   4.147   4.144   1.362
13243TIP3    H239671   4.037   4.135   1.465
13244TIP3   OH239672   2.628   5.578   1.799
13244TIP3    H139673   2.701   5.576   1.861
13244TIP3    H239674   2.611   5.671   1.786
13245TIP3   OH239675   7.508   5.750   4.612
13245TIP3    H139676   7.513   5.831   4.663
13245TIP3    H239677   7.546   5.772   4.527
13246TIP3   OH239678   3.882   5.977   6.034
13246TIP3    H139679   3.913   5.967   5.944
13246TIP3    H239680   3.939   5.919   6.085
13247TIP3   OH239681   1.781   2.391   2.289
13247TIP3    H139682   1.731   2.376   2.369
13247TIP3    H239683   1.855   2.331   2.295
13248TIP3   OH239684   5.611   2.050   2.555
13248TIP3    H139685   5.626   2.016   2.467
13248TIP3    H239686   5.673   2.123   2.564
13249TIP3   OH239687   0.078   2.125   4.198
13249TIP3    H139688   0.110   2.067   4.267
13249TIP3    H239689   0.023   2.068   4.143
13250TIP3   OH239690   1.313   1.658   1.568
13250TIP3    H139691   1.325   1.722   1.637
13250TIP3    H239692   1.221   1.633   1.574
13251TIP3   OH239693   7.106   1.051   1.024
13251TIP3    H139694   7.116   0.967   0.981
13251TIP3    H239695   7.011   1.064   1.029
13252TIP3   OH239696   1.857   6.517   5.074
13252TIP3    H139697   1.927   6.572   5.110
13252TIP3    H239698   1.902   6.459   5.012
13253TIP3   OH239699   8.270   6.851   5.384
13253TIP3    H139700   8.307   6.769   5.415
13253TIP3    H239701   8.268   6.842   5.288
13254TIP3   OH239702   0.370   2.491   6.817
13254TIP3    H139703   0.420   2.424   6.770
13254TIP3    H239704   0.406   2.574   6.786
13255TIP3   OH239705   0.784   3.704   3.695
13255TIP3    H139706   0.709   3.695   3.636
13255TIP3    H239707   0.746   3.701   3.783
13256TIP3   OH239708   3.240   3.013   4.144
13256TIP3    H139709   3.303   2.952   4.183
13256TIP3    H239710   3.292   3.090   4.122
13257TIP3   OH239711   7.868   2.486   3.284
13257TIP3    H139712   7.868   2.575   3.248
13257TIP3    H239713   7.892   2.496   3.376
13258TIP3   OH239714   7.369   0.905   5.441
13258TIP3    H139715   7.456   0.871   5.420
13258TIP3    H239716   7.349   0.967   5.370
13259TIP3   OH239717   0.771   4.881   2.445
13259TIP3    H139718   0.799   4.857   2.534
13259TIP3    H239719   0.844   4.854   2.389
13260TIP3   OH239720   3.322   4.277   1.645
13260TIP3    H139721   3.392   4.317   1.593
13260TIP3    H239722   3.242   4.319   1.614
13261TIP3   OH239723   2.774   1.453   0.521
13261TIP3    H139724   2.740   1.542   0.527
13261TIP3    H239725   2.728   1.414   0.447
13262TIP3   OH239726   3.792   6.427   2.103
13262TIP3    H139727   3.887   6.437   2.114
13262TIP3    H239728   3.768   6.497   2.041
13263TIP3   OH239729   5.277   5.208   3.961
13263TIP3    H139730   5.285   5.251   4.046
13263TIP3    H239731   5.343   5.251   3.906
13264TIP3   OH239732   6.959   2.232   6.317
13264TIP3    H139733   7.031   2.245   6.379
13264TIP3    H239734   6.915   2.153   6.348
13265TIP3   OH239735   4.710   7.588   1.830
13265TIP3    H139736   4.718   7.533   1.752
13265TIP3    H239737   4.638   7.647   1.811
13266TIP3   OH239738   5.621   6.100   3.362
13266TIP3    H139739   5.638   6.185   3.320
13266TIP3    H239740   5.653   6.111   3.451
13267TIP3   OH239741   6.487   7.920   1.193
13267TIP3    H139742   6.493   7.825   1.182
13267TIP3    H239743   6.453   7.932   1.282
13268TIP3   OH239744   7.519   6.624   2.116
13268TIP3    H139745   7.534   6.699   2.174
13268TIP3    H239746   7.487   6.663   2.035
13269TIP3   OH239747   6.284   0.421   2.879
13269TIP3    H139748   6.265   0.446   2.969
13269TIP3    H239749   6.204   0.442   2.831
13270TIP3   OH239750   5.909   7.204   4.770
13270TIP3    H139751   5.847   7.132   4.756
13270TIP3    H239752   5.954   7.181   4.851
13271TIP3   OH239753   7.627   3.014   0.804
13271TIP3    H139754   7.617   3.071   0.727
13271TIP3    H239755   7.683   2.943   0.774
13272TIP3   OH239756   3.039   1.147   6.795
13272TIP3    H139757   3.076   1.059   6.788
13272TIP3    H239758   3.076   1.182   6.876
13273TIP3   OH239759   2.100   1.115   4.877
13273TIP3    H139760   2.070   1.025   4.879
13273TIP3    H239761   2.027   1.166   4.912
13274TIP3   OH239762   0.295   7.640   0.238
13274TIP3    H139763   0.373   7.680   0.198
13274TIP3    H239764   0.222   7.694   0.208
13275TIP3   OH239765   1.754   0.997   4.128
13275TIP3    H139766   1.817   0.993   4.199
13275TIP3    H239767   1.802   0.964   4.052
13276TIP3   OH239768   4.596   5.516   3.367
13276TIP3    H139769   4.603   5.452   3.297
13276TIP3    H239770   4.503   5.539   3.369
13277TIP3   OH239771   1.540   6.227   0.414
13277TIP3    H139772   1.505   6.217   0.326
13277TIP3    H239773   1.628   6.190   0.410
13278TIP3   OH239774   5.815   1.320   3.571
13278TIP3    H139775   5.752   1.341   3.502
13278TIP3    H239776   5.833   1.403   3.614
13279TIP3   OH239777   1.046   2.646   4.246
13279TIP3    H139778   1.046   2.561   4.289
13279TIP3    H239779   1.051   2.626   4.153
13280TIP3   OH239780   4.615   5.497   0.062
13280TIP3    H139781   4.616   5.459  -0.026
13280TIP3    H239782   4.567   5.579   0.052
13281TIP3   OH239783   1.859   5.879   2.046
13281TIP3    H139784   1.812   5.962   2.050
13281TIP3    H239785   1.804   5.824   1.990
13282TIP3   OH239786   0.128   3.238   0.261
13282TIP3    H139787   0.211   3.245   0.215
13282TIP3    H239788   0.150   3.193   0.343
13283TIP3   OH239789   8.144   0.023   4.054
13283TIP3    H139790   8.194   0.031   3.973
13283TIP3    H239791   8.056  -0.002   4.026
13284TIP3   OH239792   1.052   0.100   4.764
13284TIP3    H139793   1.133   0.053   4.746
13284TIP3    H239794   1.011   0.050   4.835
13285TIP3   OH239795   3.538   4.687   3.431
13285TIP3    H139796   3.479   4.615   3.454
13285TIP3    H239797   3.491   4.736   3.363
13286TIP3   OH239798   5.975   6.338   1.329
13286TIP3    H139799   5.890   6.327   1.287
13286TIP3    H239800   6.016   6.252   1.323
13287TIP3   OH239801   1.401   3.212   1.667
13287TIP3    H139802   1.434   3.197   1.755
13287TIP3    H239803   1.345   3.137   1.649
13288TIP3   OH239804   0.265   2.416   4.015
13288TIP3    H139805   0.260   2.340   4.072
13288TIP3    H239806   0.267   2.491   4.075
13289TIP3   OH239807   2.950   5.138   3.114
13289TIP3    H139808   2.991   5.222   3.093
13289TIP3    H239809   2.879   5.161   3.174
13290TIP3   OH239810   1.085   1.580   3.431
13290TIP3    H139811   1.171   1.576   3.389
13290TIP3    H239812   1.083   1.665   3.475
13291TIP3   OH239813   7.821   0.488   2.925
13291TIP3    H139814   7.915   0.499   2.941
13291TIP3    H239815   7.812   0.485   2.830
13292TIP3   OH239816   6.306   3.257   2.358
13292TIP3    H139817   6.286   3.311   2.434
13292TIP3    H239818   6.376   3.199   2.388
13293TIP3   OH239819   7.033   4.383   6.218
13293TIP3    H139820   7.036   4.315   6.151
13293TIP3    H239821   7.002   4.461   6.173
13294TIP3   OH239822   6.249   4.024   5.531
13294TIP3    H139823   6.240   4.107   5.577
13294TIP3    H239824   6.293   3.966   5.593
13295TIP3   OH239825   6.928   5.208   0.831
13295TIP3    H139826   6.866   5.251   0.889
13295TIP3    H239827   6.886   5.210   0.745
13296TIP3   OH239828   3.341   4.051   2.923
13296TIP3    H139829   3.400   3.991   2.878
13296TIP3    H239830   3.264   4.055   2.866
13297TIP3   OH239831   0.805   4.552   5.857
13297TIP3    H139832   0.879   4.575   5.801
13297TIP3    H239833   0.838   4.560   5.946
13298TIP3   OH239834   4.909   4.033   6.658
13298TIP3    H139835   4.916   3.945   6.621
13298TIP3    H239836   4.928   4.022   6.751
13299TIP3   OH239837   5.945   3.667   6.390
13299TIP3    H139838   5.999   3.635   6.462
13299TIP3    H239839   5.855   3.649   6.418
13300TIP3   OH239840   5.765   0.273   6.737
13300TIP3    H139841   5.692   0.248   6.793
13300TIP3    H239842   5.742   0.361   6.705
13301TIP3   OH239843   8.183   5.193   0.986
13301TIP3    H139844   8.273   5.225   0.977
13301TIP3    H239845   8.137   5.229   0.911
13302TIP3   OH239846   8.262   4.263   1.298
13302TIP3    H139847   8.206   4.330   1.338
13302TIP3    H239848   8.201   4.198   1.264
13303TIP3   OH239849   6.547   0.312   1.193
13303TIP3    H139850   6.483   0.263   1.245
13303TIP3    H239851   6.584   0.375   1.254
13304TIP3   OH239852   2.852   2.312   4.904
13304TIP3    H139853   2.794   2.353   4.968
13304TIP3    H239854   2.817   2.223   4.894
13305TIP3   OH239855   3.100   3.532   5.327
13305TIP3    H139856   3.048   3.588   5.270
13305TIP3    H239857   3.070   3.443   5.308
13306TIP3   OH239858   5.227   0.873   6.039
13306TIP3    H139859   5.244   0.957   5.996
13306TIP3    H239860   5.298   0.862   6.101
13307TIP3   OH239861   0.751   4.789   6.331
13307TIP3    H139862   0.718   4.853   6.394
13307TIP3    H239863   0.841   4.815   6.315
13308TIP3   OH239864   7.689   1.315   5.212
13308TIP3    H139865   7.694   1.323   5.307
13308TIP3    H239866   7.703   1.404   5.180
13309TIP3   OH239867   6.249   3.692   3.703
13309TIP3    H139868   6.220   3.602   3.691
13309TIP3    H239869   6.334   3.696   3.659
13310TIP3   OH239870   1.975   4.468   2.973
13310TIP3    H139871   2.013   4.555   2.973
13310TIP3    H239872   1.933   4.460   2.887
13311TIP3   OH239873   3.820   7.243   2.622
13311TIP3    H139874   3.817   7.281   2.710
13311TIP3    H239875   3.898   7.187   2.623
13312TIP3   OH239876   0.552   4.015   2.146
13312TIP3    H139877   0.531   3.922   2.152
13312TIP3    H239878   0.627   4.027   2.204
13313TIP3   OH239879   8.278   2.781   6.527
13313TIP3    H139880   8.260   2.870   6.495
13313TIP3    H239881   8.231   2.724   6.465
13314TIP3   OH239882   5.187   6.350   5.559
13314TIP3    H139883   5.213   6.307   5.477
13314TIP3    H239884   5.152   6.279   5.613
13315TIP3   OH239885   3.496   4.832   6.554
13315TIP3    H139886   3.460   4.869   6.634
13315TIP3    H239887   3.582   4.874   6.544
13316TIP3   OH239888   6.858   4.877   0.615
13316TIP3    H139889   6.807   4.799   0.594
13316TIP3    H239890   6.949   4.852   0.595
13317TIP3   OH239891   0.064   2.709   2.383
13317TIP3    H139892   0.144   2.752   2.411
13317TIP3    H239893   0.031   2.666   2.461
13318TIP3   OH239894   0.504   5.771   5.053
13318TIP3    H139895   0.462   5.799   4.971
13318TIP3    H239896   0.588   5.816   5.054
13319TIP3   OH239897   5.208   0.813   3.275
13319TIP3    H139898   5.249   0.728   3.293
13319TIP3    H239899   5.244   0.840   3.190
13320TIP3   OH239900   6.524   6.696   1.136
13320TIP3    H139901   6.491   6.784   1.116
13320TIP3    H239902   6.562   6.705   1.223
13321TIP3   OH239903   1.765   4.939   3.665
13321TIP3    H139904   1.707   5.001   3.709
13321TIP3    H239905   1.711   4.860   3.655
13322TIP3   OH239906   2.421   3.377   0.524
13322TIP3    H139907   2.511   3.380   0.492
13322TIP3    H239908   2.420   3.302   0.585
13323TIP3   OH239909   8.166   0.482   2.969
13323TIP3    H139910   8.246   0.505   2.922
13323TIP3    H239911   8.196   0.452   3.055
13324TIP3   OH239912   4.008   0.286   2.015
13324TIP3    H139913   4.048   0.273   2.101
13324TIP3    H239914   3.921   0.322   2.034
13325TIP3   OH239915   1.455   6.812   1.277
13325TIP3    H139916   1.374   6.859   1.296
13325TIP3    H239917   1.459   6.743   1.344
13326TIP3   OH239918   2.669   5.886   2.094
13326TIP3    H139919   2.641   5.848   2.177
13326TIP3    H239920   2.588   5.895   2.043
13327TIP3   OH239921   7.740   0.571   6.079
13327TIP3    H139922   7.738   0.478   6.104
13327TIP3    H239923   7.799   0.575   6.004
13328TIP3   OH239924   1.076   6.705   6.717
13328TIP3    H139925   1.043   6.794   6.735
13328TIP3    H239926   1.136   6.687   6.789
13329TIP3   OH239927   3.769   0.678   4.558
13329TIP3    H139928   3.737   0.753   4.608
13329TIP3    H239929   3.759   0.604   4.618
13330TIP3   OH239930   5.211   3.186   4.198
13330TIP3    H139931   5.184   3.162   4.109
13330TIP3    H239932   5.131   3.180   4.250
13331TIP3   OH239933   7.012   1.862   0.764
13331TIP3    H139934   7.073   1.879   0.836
13331TIP3    H239935   6.965   1.783   0.790
13332TIP3   OH239936   2.287   1.498   6.409
13332TIP3    H139937   2.257   1.537   6.491
13332TIP3    H239938   2.256   1.559   6.342
13333TIP3   OH239939   4.019   3.571   2.287
13333TIP3    H139940   3.924   3.568   2.281
13333TIP3    H239941   4.037   3.637   2.354
13334TIP3   OH239942   7.748   0.376   1.761
13334TIP3    H139943   7.794   0.341   1.838
13334TIP3    H239944   7.802   0.349   1.687
13335TIP3   OH239945   1.217   6.490   1.076
13335TIP3    H139946   1.284   6.492   1.007
13335TIP3    H239947   1.259   6.443   1.148
13336TIP3   OH239948   3.923   4.958   4.373
13336TIP3    H139949   3.874   4.978   4.453
13336TIP3    H239950   3.958   5.042   4.345
13337TIP3   OH239951   5.285   3.838   2.100
13337TIP3    H139952   5.314   3.767   2.157
13337TIP3    H239953   5.325   3.917   2.137
13338TIP3   OH239954   8.063   5.931   1.726
13338TIP3    H139955   8.022   5.885   1.653
13338TIP3    H239956   8.016   5.900   1.803
13339TIP3   OH239957   3.872   4.223   5.545
13339TIP3    H139958   3.870   4.189   5.634
13339TIP3    H239959   3.784   4.258   5.530
13340TIP3   OH239960   6.777   2.589   3.011
13340TIP3    H139961   6.741   2.635   2.935
13340TIP3    H239962   6.715   2.607   3.081
13341TIP3   OH239963   5.534   0.906   4.575
13341TIP3    H139964   5.453   0.856   4.583
13341TIP3    H239965   5.510   0.983   4.523
13342TIP3   OH239966   5.955   4.765   5.628
13342TIP3    H139967   5.959   4.672   5.608
13342TIP3    H239968   6.021   4.779   5.696
13343TIP3   OH239969   0.790   2.029   6.594
13343TIP3    H139970   0.838   2.104   6.631
13343TIP3    H239971   0.748   1.987   6.669
13344TIP3   OH239972   5.382   4.931   5.968
13344TIP3    H139973   5.448   4.876   5.925
13344TIP3    H239974   5.430   5.010   5.994
13345TIP3   OH239975   6.275   0.981   1.443
13345TIP3    H139976   6.236   1.056   1.396
13345TIP3    H239977   6.329   1.021   1.511
13346TIP3   OH239978   8.130   4.620   3.364
13346TIP3    H139979   8.037   4.607   3.348
13346TIP3    H239980   8.148   4.569   3.443
13347TIP3   OH239981   3.077   6.757   2.421
13347TIP3    H139982   3.060   6.837   2.472
13347TIP3    H239983   3.108   6.694   2.485
13348TIP3   OH239984   2.565   6.856   2.834
13348TIP3    H139985   2.569   6.888   2.924
13348TIP3    H239986   2.492   6.794   2.834
13349TIP3   OH239987   0.245   6.527   1.152
13349TIP3    H139988   0.330   6.563   1.127
13349TIP3    H239989   0.186   6.603   1.153
13350TIP3   OH239990   1.722   4.248   4.528
13350TIP3    H139991   1.675   4.170   4.500
13350TIP3    H239992   1.678   4.276   4.607
13351TIP3   OH239993   8.094   1.760   2.835
13351TIP3    H139994   8.163   1.804   2.784
13351TIP3    H239995   8.040   1.832   2.869
13352TIP3   OH239996   8.097   0.052   4.944
13352TIP3    H139997   8.156   0.126   4.927
13352TIP3    H239998   8.009   0.087   4.928
13353TIP3   OH239999   5.873   3.546   1.092
13353TIP3    H140000   5.890   3.457   1.060
13353TIP3    H240001   5.958   3.589   1.088
13354TIP3   OH240002   2.403   3.594   3.090
13354TIP3    H140003   2.431   3.595   3.182
13354TIP3    H240004   2.331   3.531   3.088
13355TIP3   OH240005   1.793   4.327   1.347
13355TIP3    H140006   1.710   4.283   1.368
13355TIP3    H240007   1.805   4.390   1.418
13356TIP3   OH240008   7.095   5.386   0.544
13356TIP3    H140009   7.043   5.432   0.477
13356TIP3    H240010   7.042   5.394   0.624
13357TIP3   OH240011   3.390   7.676   5.124
13357TIP3    H140012   3.420   7.620   5.053
13357TIP3    H240013   3.356   7.754   5.080
13358TIP3   OH240014   4.952   6.229   5.371
13358TIP3    H140015   5.007   6.158   5.402
13358TIP3    H240016   4.974   6.304   5.426
13359TIP3   OH240017   2.510   4.141   3.386
13359TIP3    H140018   2.487   4.052   3.358
13359TIP3    H240019   2.606   4.140   3.390
13360TIP3   OH240020   7.292   6.603   3.544
13360TIP3    H140021   7.249   6.650   3.616
13360TIP3    H240022   7.313   6.518   3.581
13361TIP3   OH240023   2.862   5.037   3.769
13361TIP3    H140024   2.950   5.001   3.763
13361TIP3    H240025   2.850   5.056   3.862
13362TIP3   OH240026   7.127   4.457   5.813
13362TIP3    H140027   7.083   4.382   5.854
13362TIP3    H240028   7.220   4.435   5.817
13363TIP3   OH240029   5.752   7.939   5.184
13363TIP3    H140030   5.818   7.869   5.183
13363TIP3    H240031   5.671   7.895   5.211
13364TIP3   OH240032   2.484   7.683   1.877
13364TIP3    H140033   2.462   7.623   1.948
13364TIP3    H240034   2.523   7.627   1.810
13365TIP3   OH240035   6.757   5.496   5.173
13365TIP3    H140036   6.693   5.434   5.137
13365TIP3    H240037   6.718   5.582   5.156
13366TIP3   OH240038   4.072   2.365   5.564
13366TIP3    H140039   4.053   2.272   5.567
13366TIP3    H240040   4.034   2.395   5.482
13367TIP3   OH240041   7.633   2.248   3.306
13367TIP3    H140042   7.710   2.251   3.363
13367TIP3    H240043   7.669   2.235   3.218
13368TIP3   OH240044   7.253   3.774   5.519
13368TIP3    H140045   7.222   3.741   5.603
13368TIP3    H240046   7.207   3.856   5.506
13369TIP3   OH240047   8.151   4.934   2.895
13369TIP3    H140048   8.167   5.020   2.935
13369TIP3    H240049   8.056   4.927   2.890
13370TIP3   OH240050   5.363   0.324   2.967
13370TIP3    H140051   5.391   0.411   2.997
13370TIP3    H240052   5.268   0.330   2.960
13371TIP3   OH240053   0.518   1.496   5.066
13371TIP3    H140054   0.499   1.403   5.055
13371TIP3    H240055   0.532   1.528   4.977
13372TIP3   OH240056   2.162   5.006   0.800
13372TIP3    H140057   2.174   4.918   0.764
13372TIP3    H240058   2.244   5.052   0.778
13373TIP3   OH240059   5.769   6.774   3.031
13373TIP3    H140060   5.723   6.746   3.110
13373TIP3    H240061   5.802   6.692   2.993
13374TIP3   OH240062   6.331   1.926   6.594
13374TIP3    H140063   6.411   1.969   6.624
13374TIP3    H240064   6.307   1.973   6.514
13375TIP3   OH240065   0.079   1.443   1.832
13375TIP3    H140066   0.159   1.459   1.881
13375TIP3    H240067   0.083   1.506   1.760
13376TIP3   OH240068   3.542   5.216   2.916
13376TIP3    H140069   3.622   5.242   2.963
13376TIP3    H240070   3.506   5.145   2.969
13377TIP3   OH240071   2.404   2.453   5.541
13377TIP3    H140072   2.471   2.468   5.607
13377TIP3    H240073   2.325   2.432   5.591
13378TIP3   OH240074   7.521   6.474   1.169
13378TIP3    H140075   7.456   6.420   1.123
13378TIP3    H240076   7.520   6.557   1.122
13379TIP3   OH240077   5.462   7.731   1.160
13379TIP3    H140078   5.510   7.687   1.230
13379TIP3    H240079   5.489   7.686   1.080
13380TIP3   OH240080   0.636   0.173   5.685
13380TIP3    H140081   0.604   0.113   5.618
13380TIP3    H240082   0.562   0.233   5.700
13381TIP3   OH240083   1.953   2.505   1.812
13381TIP3    H140084   2.013   2.577   1.792
13381TIP3    H240085   1.915   2.481   1.727
13382TIP3   OH240086   7.587   4.874   3.255
13382TIP3    H140087   7.546   4.790   3.236
13382TIP3    H240088   7.582   4.923   3.173
13383TIP3   OH240089   3.998   2.763   6.728
13383TIP3    H140090   4.064   2.702   6.760
13383TIP3    H240091   3.928   2.707   6.693
13384TIP3   OH240092   7.724   3.412   0.114
13384TIP3    H140093   7.724   3.316   0.118
13384TIP3    H240094   7.773   3.432   0.034
13385TIP3   OH240095   8.089   0.975   2.207
13385TIP3    H140096   8.044   0.926   2.138
13385TIP3    H240097   8.046   1.060   2.207
13386TIP3   OH240098   0.372   7.589   6.701
13386TIP3    H140099   0.456   7.634   6.689
13386TIP3    H240100   0.309   7.659   6.717
13387TIP3   OH240101   3.041   5.735   5.045
13387TIP3    H140102   3.034   5.769   4.956
13387TIP3    H240103   3.111   5.786   5.085
13388TIP3   OH240104   0.137   2.817   3.370
13388TIP3    H140105   0.227   2.785   3.381
13388TIP3    H240106   0.108   2.781   3.287
13389TIP3   OH240107   5.950   1.995   0.758
13389TIP3    H140108   6.034   1.955   0.738
13389TIP3    H240109   5.944   2.070   0.698
13390TIP3   OH240110   5.637   0.484   2.263
13390TIP3    H140111   5.715   0.439   2.295
13390TIP3    H240112   5.579   0.490   2.338
13391TIP3   OH240113   3.567   3.011   5.016
13391TIP3    H140114   3.591   3.104   5.023
13391TIP3    H240115   3.517   3.005   4.935
13392TIP3   OH240116   5.752   2.747   6.229
13392TIP3    H140117   5.766   2.715   6.318
13392TIP3    H240118   5.800   2.685   6.174
13393TIP3   OH240119   2.238   0.000   6.334
13393TIP3    H140120   2.277   0.047   6.408
13393TIP3    H240121   2.200   0.069   6.280
13394TIP3   OH240122   6.488   4.510   3.182
13394TIP3    H140123   6.452   4.598   3.190
13394TIP3    H240124   6.510   4.485   3.272
13395TIP3   OH240125   3.374   6.360   5.222
13395TIP3    H140126   3.398   6.450   5.247
13395TIP3    H240127   3.376   6.361   5.126
13396TIP3   OH240128   4.462   7.652   3.462
13396TIP3    H140129   4.488   7.715   3.529
13396TIP3    H240130   4.543   7.626   3.420
13397TIP3   OH240131   0.298   4.679   1.241
13397TIP3    H140132   0.289   4.641   1.328
13397TIP3    H240133   0.330   4.767   1.256
13398TIP3   OH240134   1.073   5.067   0.469
13398TIP3    H140135   1.050   5.009   0.541
13398TIP3    H240136   1.166   5.087   0.483
13399TIP3   OH240137   5.700   3.495   0.702
13399TIP3    H140138   5.641   3.540   0.763
13399TIP3    H240139   5.705   3.553   0.626
13400TIP3   OH240140   8.135   7.612   1.701
13400TIP3    H140141   8.181   7.651   1.775
13400TIP3    H240142   8.204   7.577   1.646
13401TIP3   OH240143   2.929   7.240   4.401
13401TIP3    H140144   2.986   7.206   4.470
13401TIP3    H240145   2.879   7.309   4.443
13402TIP3   OH240146   3.793   2.990   0.042
13402TIP3    H140147   3.845   3.013  -0.035
13402TIP3    H240148   3.852   2.937   0.095
13403TIP3   OH240149   5.397   4.536   3.516
13403TIP3    H140150   5.435   4.485   3.588
13403TIP3    H240151   5.456   4.610   3.505
13404TIP3   OH240152   5.566   1.620   2.484
13404TIP3    H140153   5.612   1.665   2.555
13404TIP3    H240154   5.474   1.639   2.500
13405TIP3   OH240155   2.559   2.144   2.476
13405TIP3    H140156   2.505   2.079   2.522
13405TIP3    H240157   2.639   2.097   2.454
13406TIP3   OH240158   3.361   3.244   5.903
13406TIP3    H140159   3.415   3.233   5.982
13406TIP3    H240160   3.274   3.266   5.937
13407TIP3   OH240161   1.917   0.921   5.966
13407TIP3    H140162   1.885   0.894   5.880
13407TIP3    H240163   1.839   0.948   6.014
13408TIP3   OH240164   3.817   1.108   5.460
13408TIP3    H140165   3.865   1.154   5.392
13408TIP3    H240166   3.811   1.171   5.532
13409TIP3   OH240167   7.840   1.963   6.742
13409TIP3    H140168   7.775   2.026   6.774
13409TIP3    H240169   7.798   1.921   6.667
13410TIP3   OH240170   7.599   4.111   5.754
13410TIP3    H140171   7.514   4.068   5.756
13410TIP3    H240172   7.658   4.051   5.800
13411TIP3   OH240173   5.708   6.547   1.792
13411TIP3    H140174   5.749   6.572   1.709
13411TIP3    H240175   5.654   6.471   1.771
13412TIP3   OH240176   7.511   1.072   1.524
13412TIP3    H140177   7.430   1.074   1.472
13412TIP3    H240178   7.481   1.071   1.615
13413TIP3   OH240179   3.391   4.516   6.162
13413TIP3    H140180   3.351   4.543   6.245
13413TIP3    H240181   3.326   4.459   6.122
13414TIP3   OH240182   1.435   6.300   4.359
13414TIP3    H140183   1.349   6.260   4.367
13414TIP3    H240184   1.484   6.267   4.434
13415TIP3   OH240185   6.923   0.857   4.030
13415TIP3    H140186   6.967   0.781   4.069
13415TIP3    H240187   6.946   0.854   3.937
13416TIP3   OH240188   7.739   0.303   6.409
13416TIP3    H140189   7.723   0.360   6.485
13416TIP3    H240190   7.802   0.239   6.441
13417TIP3   OH240191   3.245   3.031   2.283
13417TIP3    H140192   3.284   3.053   2.198
13417TIP3    H240193   3.161   2.991   2.261
13418TIP3   OH240194   4.069   7.604   4.706
13418TIP3    H140195   4.165   7.602   4.709
13418TIP3    H240196   4.048   7.670   4.640
13419TIP3   OH240197   3.895   5.773   1.778
13419TIP3    H140198   3.810   5.764   1.820
13419TIP3    H240199   3.883   5.845   1.716
13420TIP3   OH240200   7.724   2.373   3.047
13420TIP3    H140201   7.767   2.409   3.125
13420TIP3    H240202   7.796   2.354   2.987
13421TIP3   OH240203   4.300   4.320   2.193
13421TIP3    H140204   4.355   4.388   2.154
13421TIP3    H240205   4.356   4.277   2.257
13422TIP3   OH240206   6.840   4.560   0.740
13422TIP3    H140207   6.929   4.569   0.774
13422TIP3    H240208   6.785   4.549   0.818
13423TIP3   OH240209   4.745   2.456   5.257
13423TIP3    H140210   4.666   2.490   5.299
13423TIP3    H240211   4.746   2.363   5.279
13424TIP3   OH240212   1.032   3.022   4.058
13424TIP3    H140213   1.055   3.063   4.141
13424TIP3    H240214   1.054   2.929   4.070
13425TIP3   OH240215   7.844   5.360   2.236
13425TIP3    H140216   7.905   5.434   2.246
13425TIP3    H240217   7.893   5.284   2.270
13426TIP3   OH240218   7.553   3.857   4.256
13426TIP3    H140219   7.503   3.938   4.267
13426TIP3    H240220   7.488   3.787   4.259
13427TIP3   OH240221   2.548   3.797   3.940
13427TIP3    H140222   2.543   3.852   4.018
13427TIP3    H240223   2.636   3.760   3.942
13428TIP3   OH240224   2.804   0.415   2.125
13428TIP3    H140225   2.799   0.358   2.048
13428TIP3    H240226   2.781   0.358   2.198
13429TIP3   OH240227   7.821   1.423   1.510
13429TIP3    H140228   7.760   1.377   1.452
13429TIP3    H240229   7.857   1.494   1.457
13430TIP3   OH240230   1.431   0.217   5.545
13430TIP3    H140231   1.452   0.273   5.620
13430TIP3    H240232   1.479   0.136   5.562
13431TIP3   OH240233   4.339   1.367   0.172
13431TIP3    H140234   4.318   1.441   0.229
13431TIP3    H240235   4.344   1.292   0.231
13432TIP3   OH240236   7.000   1.454   4.073
13432TIP3    H140237   6.983   1.528   4.016
13432TIP3    H240238   7.063   1.400   4.024
13433TIP3   OH240239   5.451   3.930   5.037
13433TIP3    H140240   5.507   4.007   5.030
13433TIP3    H240241   5.511   3.855   5.032
13434TIP3   OH240242   1.485   2.858   1.365
13434TIP3    H140243   1.533   2.775   1.373
13434TIP3    H240244   1.549   2.925   1.385
13435TIP3   OH240245   6.621   7.808   1.896
13435TIP3    H140246   6.538   7.853   1.910
13435TIP3    H240247   6.622   7.787   1.803
13436TIP3   OH240248   3.830   0.955   1.144
13436TIP3    H140249   3.779   0.987   1.218
13436TIP3    H240250   3.773   0.890   1.102
13437TIP3   OH240251   5.095   4.295   4.020
13437TIP3    H140252   5.172   4.285   3.964
13437TIP3    H240253   5.058   4.380   3.997
13438TIP3   OH240254   1.026   5.965   3.432
13438TIP3    H140255   1.046   5.989   3.341
13438TIP3    H240256   1.110   5.975   3.478
13439TIP3   OH240257   0.492   1.335   6.275
13439TIP3    H140258   0.579   1.296   6.280
13439TIP3    H240259   0.433   1.260   6.265
13440TIP3   OH240260   1.532   3.949   3.853
13440TIP3    H140261   1.483   3.932   3.934
13440TIP3    H240262   1.585   4.026   3.873
13441TIP3   OH240263   1.284   7.729   3.082
13441TIP3    H140264   1.331   7.649   3.060
13441TIP3    H240265   1.292   7.736   3.177
13442TIP3   OH240266   1.711   5.599   4.525
13442TIP3    H140267   1.803   5.612   4.505
13442TIP3    H240268   1.688   5.670   4.584
13443TIP3   OH240269   1.723   1.390   4.484
13443TIP3    H140270   1.803   1.339   4.490
13443TIP3    H240271   1.668   1.342   4.422
13444TIP3   OH240272   0.778   5.682   3.907
13444TIP3    H140273   0.749   5.748   3.843
13444TIP3    H240274   0.714   5.612   3.900
13445TIP3   OH240275   2.124   1.795   2.955
13445TIP3    H140276   2.200   1.780   2.899
13445TIP3    H240277   2.050   1.759   2.906
13446TIP3   OH240278   2.425   1.200   3.116
13446TIP3    H140279   2.385   1.131   3.170
13446TIP3    H240280   2.422   1.164   3.027
13447TIP3   OH240281   4.928   5.474   3.491
13447TIP3    H140282   4.883   5.392   3.511
13447TIP3    H240283   5.015   5.447   3.463
13448TIP3   OH240284   5.109   6.690   1.248
13448TIP3    H140285   5.185   6.672   1.303
13448TIP3    H240286   5.098   6.785   1.253
13449TIP3   OH240287   0.596   0.687   0.537
13449TIP3    H140288   0.530   0.697   0.606
13449TIP3    H240289   0.578   0.759   0.476
13450TIP3   OH240290   3.572   3.931   2.502
13450TIP3    H140291   3.623   3.926   2.421
13450TIP3    H240292   3.486   3.962   2.475
13451TIP3   OH240293   3.994   6.729   1.843
13451TIP3    H140294   4.042   6.735   1.760
13451TIP3    H240295   3.991   6.819   1.875
13452TIP3   OH240296   6.832   2.936   4.007
13452TIP3    H140297   6.849   2.843   4.020
13452TIP3    H240298   6.912   2.980   4.036
13453TIP3   OH240299   0.964   1.024   1.503
13453TIP3    H140300   0.874   1.023   1.473
13453TIP3    H240301   0.966   1.089   1.572
13454TIP3   OH240302   7.943   5.677   0.804
13454TIP3    H140303   7.889   5.659   0.727
13454TIP3    H240304   7.962   5.771   0.798
13455TIP3   OH240305   7.450   7.637   4.067
13455TIP3    H140306   7.381   7.695   4.035
13455TIP3    H240307   7.406   7.577   4.126
13456TIP3   OH240308   2.784   4.915   4.795
13456TIP3    H140309   2.731   4.890   4.720
13456TIP3    H240310   2.799   5.009   4.784
13457TIP3   OH240311   4.797   1.585   5.083
13457TIP3    H140312   4.839   1.561   5.001
13457TIP3    H240313   4.784   1.680   5.077
13458TIP3   OH240314   6.714   1.148   6.375
13458TIP3    H140315   6.710   1.241   6.398
13458TIP3    H240316   6.624   1.117   6.388
13459TIP3   OH240317   6.898   3.328   0.354
13459TIP3    H140318   6.921   3.239   0.381
13459TIP3    H240319   6.824   3.316   0.294
13460TIP3   OH240320   7.282   7.846   2.948
13460TIP3    H140321   7.265   7.752   2.943
13460TIP3    H240322   7.303   7.862   3.040
13461TIP3   OH240323   3.567   7.863  -0.010
13461TIP3    H140324   3.598   7.951  -0.030
13461TIP3    H240325   3.529   7.870   0.077
13462TIP3   OH240326   0.565   2.695   4.694
13462TIP3    H140327   0.628   2.743   4.748
13462TIP3    H240328   0.529   2.760   4.634
13463TIP3   OH240329   3.026   7.640   5.528
13463TIP3    H140330   2.945   7.689   5.513
13463TIP3    H240331   3.069   7.638   5.442
13464TIP3   OH240332   0.739   7.118   4.976
13464TIP3    H140333   0.769   7.204   5.004
13464TIP3    H240334   0.750   7.062   5.053
13465TIP3   OH240335   3.330   4.437   0.539
13465TIP3    H140336   3.244   4.412   0.505
13465TIP3    H240337   3.381   4.459   0.461
13466TIP3   OH240338   5.599   6.708   1.269
13466TIP3    H140339   5.539   6.777   1.297
13466TIP3    H240340   5.554   6.663   1.198
13467TIP3   OH240341   2.751   2.382   3.347
13467TIP3    H140342   2.798   2.301   3.329
13467TIP3    H240343   2.809   2.452   3.317
13468TIP3   OH240344   1.539   3.937   5.054
13468TIP3    H140345   1.467   3.939   4.991
13468TIP3    H240346   1.563   3.844   5.060
13469TIP3   OH240347   0.692   6.307   6.802
13469TIP3    H140348   0.773   6.279   6.759
13469TIP3    H240349   0.714   6.312   6.895
13470TIP3   OH240350   0.737   6.699   5.642
13470TIP3    H140351   0.651   6.737   5.626
13470TIP3    H240352   0.749   6.704   5.737
13471TIP3   OH240353   0.917   1.478   0.809
13471TIP3    H140354   0.991   1.417   0.800
13471TIP3    H240355   0.934   1.524   0.891
13472TIP3   OH240356   4.817   7.014   1.019
13472TIP3    H140357   4.822   6.920   1.003
13472TIP3    H240358   4.845   7.054   0.937
13473TIP3   OH240359   1.336   6.833   4.782
13473TIP3    H140360   1.252   6.861   4.747
13473TIP3    H240361   1.398   6.851   4.711
13474TIP3   OH240362   3.691   2.350   2.892
13474TIP3    H140363   3.668   2.261   2.919
13474TIP3    H240364   3.709   2.342   2.798
13475TIP3   OH240365   6.778   2.376   1.439
13475TIP3    H140366   6.856   2.413   1.481
13475TIP3    H240367   6.812   2.328   1.364
13476TIP3   OH240368   7.047   3.900   3.396
13476TIP3    H140369   7.083   3.985   3.372
13476TIP3    H240370   6.963   3.920   3.436
13477TIP3   OH240371   6.768   3.569   0.545
13477TIP3    H140372   6.768   3.486   0.593
13477TIP3    H240373   6.860   3.598   0.547
13478TIP3   OH240374   6.780   5.014   2.620
13478TIP3    H140375   6.746   4.929   2.591
13478TIP3    H240376   6.801   5.060   2.539
13479TIP3   OH240377   0.226   5.291   2.037
13479TIP3    H140378   0.230   5.203   2.074
13479TIP3    H240379   0.280   5.286   1.958
13480TIP3   OH240380   5.191   3.451   0.495
13480TIP3    H140381   5.230   3.421   0.412
13480TIP3    H240382   5.100   3.422   0.489
13481TIP3   OH240383   0.685   3.688   3.984
13481TIP3    H140384   0.597   3.704   4.016
13481TIP3    H240385   0.742   3.741   4.040
13482TIP3   OH240386   3.739   5.600   4.076
13482TIP3    H140387   3.660   5.547   4.086
13482TIP3    H240388   3.810   5.536   4.070
13483TIP3   OH240389   5.601   0.921   2.083
13483TIP3    H140390   5.655   0.897   2.008
13483TIP3    H240391   5.562   0.839   2.112
13484TIP3   OH240392   0.739   2.371   3.120
13484TIP3    H140393   0.787   2.450   3.145
13484TIP3    H240394   0.769   2.352   3.031
13485TIP3   OH240395   0.273   4.045   3.666
13485TIP3    H140396   0.194   4.098   3.679
13485TIP3    H240397   0.251   3.987   3.593
13486TIP3   OH240398   4.324   1.348   1.373
13486TIP3    H140399   4.379   1.377   1.446
13486TIP3    H240400   4.297   1.429   1.329
13487TIP3   OH240401   0.664   0.098   3.926
13487TIP3    H140402   0.574   0.094   3.956
13487TIP3    H240403   0.708   0.025   3.969
13488TIP3   OH240404   4.438   2.321   0.428
13488TIP3    H140405   4.380   2.397   0.430
13488TIP3    H240406   4.407   2.265   0.499
13489TIP3   OH240407   1.892   6.258   6.125
13489TIP3    H140408   1.878   6.230   6.034
13489TIP3    H240409   1.890   6.354   6.120
13490TIP3   OH240410   0.538   1.820   6.420
13490TIP3    H140411   0.564   1.795   6.508
13490TIP3    H240412   0.536   1.915   6.421
13491TIP3   OH240413   0.922   7.765   5.488
13491TIP3    H140414   0.845   7.731   5.442
13491TIP3    H240415   0.941   7.847   5.444
13492TIP3   OH240416   4.915   5.928   0.918
13492TIP3    H140417   4.925   5.929   0.823
13492TIP3    H240418   4.974   5.998   0.949
13493TIP3   OH240419   5.113   1.365   5.122
13493TIP3    H140420   5.127   1.412   5.204
13493TIP3    H240421   5.199   1.366   5.079
13494TIP3   OH240422   6.976   3.832   2.749
13494TIP3    H140423   6.983   3.902   2.814
13494TIP3    H240424   7.008   3.872   2.668
13495TIP3   OH240425   4.981   3.043   3.707
13495TIP3    H140426   4.926   2.965   3.704
13495TIP3    H240427   5.057   3.020   3.655
13496TIP3   OH240428   0.808   1.634   0.172
13496TIP3    H140429   0.839   1.704   0.116
13496TIP3    H240430   0.725   1.666   0.207
13497TIP3   OH240431   5.365   3.905   0.521
13497TIP3    H140432   5.304   3.836   0.492
13497TIP3    H240433   5.333   3.984   0.478
13498TIP3   OH240434   7.491   4.222   1.059
13498TIP3    H140435   7.529   4.137   1.084
13498TIP3    H240436   7.410   4.227   1.109
13499TIP3   OH240437   5.487   1.994   3.164
13499TIP3    H140438   5.485   2.057   3.236
13499TIP3    H240439   5.406   2.011   3.115
13500TIP3   OH240440   0.564   4.210   2.604
13500TIP3    H140441   0.565   4.260   2.523
13500TIP3    H240442   0.622   4.259   2.663
13501TIP3   OH240443   6.935   4.544   4.025
13501TIP3    H140444   7.028   4.561   4.013
13501TIP3    H240445   6.928   4.516   4.116
13502TIP3   OH240446   5.149   5.013   4.096
13502TIP3    H140447   5.187   5.072   4.031
13502TIP3    H240448   5.073   5.060   4.131
13503TIP3   OH240449   6.019   2.405   5.691
13503TIP3    H140450   6.101   2.454   5.682
13503TIP3    H240451   6.023   2.367   5.779
13504TIP3   OH240452   5.603   6.177   1.498
13504TIP3    H140453   5.566   6.221   1.574
13504TIP3    H240454   5.541   6.193   1.427
13505TIP3   OH240455   7.784   5.165   4.997
13505TIP3    H140456   7.870   5.199   4.971
13505TIP3    H240457   7.760   5.217   5.074
13506TIP3   OH240458   7.200   3.499   4.102
13506TIP3    H140459   7.114   3.526   4.068
13506TIP3    H240460   7.179   3.439   4.173
13507TIP3   OH240461   6.306   2.204   3.042
13507TIP3    H140462   6.402   2.203   3.038
13507TIP3    H240463   6.286   2.238   3.128
13508TIP3   OH240464   6.116   2.943   2.645
13508TIP3    H140465   6.187   2.931   2.581
13508TIP3    H240466   6.044   2.979   2.594
13509TIP3   OH240467   5.235   3.196   4.914
13509TIP3    H140468   5.216   3.132   4.983
13509TIP3    H240469   5.319   3.169   4.878
13510TIP3   OH240470   5.597   0.113   3.546
13510TIP3    H140471   5.532   0.046   3.525
13510TIP3    H240472   5.659   0.069   3.605
13511TIP3   OH240473   4.353   6.534   2.106
13511TIP3    H140474   4.377   6.452   2.149
13511TIP3    H240475   4.298   6.508   2.033
13512TIP3   OH240476   3.476   5.478   6.074
13512TIP3    H140477   3.521   5.394   6.063
13512TIP3    H240478   3.543   5.538   6.105
13513TIP3   OH240479   5.948   4.803   6.425
13513TIP3    H140480   5.941   4.778   6.518
13513TIP3    H240481   6.041   4.819   6.412
13514TIP3   OH240482   2.406   0.327   4.018
13514TIP3    H140483   2.487   0.280   4.038
13514TIP3    H240484   2.343   0.293   4.081
13515TIP3   OH240485   1.783   2.703   6.759
13515TIP3    H140486   1.857   2.751   6.795
13515TIP3    H240487   1.811   2.611   6.762
13516TIP3   OH240488   1.215   4.183   2.607
13516TIP3    H140489   1.256   4.128   2.541
13516TIP3    H240490   1.121   4.165   2.599
13517TIP3   OH240491   0.899   7.146   5.423
13517TIP3    H140492   0.824   7.128   5.366
13517TIP3    H240493   0.924   7.061   5.458
13518TIP3   OH240494   4.118   4.958   5.655
13518TIP3    H140495   4.182   4.933   5.722
13518TIP3    H240496   4.119   5.053   5.654
13519TIP3   OH240497   6.488   3.504   2.301
13519TIP3    H140498   6.580   3.496   2.277
13519TIP3    H240499   6.443   3.441   2.245
13520TIP3   OH240500   5.252   2.665   5.468
13520TIP3    H140501   5.319   2.618   5.518
13520TIP3    H240502   5.287   2.754   5.460
13521TIP3   OH240503   4.862   3.560   0.699
13521TIP3    H140504   4.788   3.513   0.660
13521TIP3    H240505   4.848   3.552   0.793
13522TIP3   OH240506   6.624   4.732   4.577
13522TIP3    H140507   6.679   4.809   4.571
13522TIP3    H240508   6.656   4.685   4.654
13523TIP3   OH240509   2.124   7.537   0.170
13523TIP3    H140510   2.123   7.449   0.132
13523TIP3    H240511   2.065   7.531   0.245
13524TIP3   OH240512   5.397   7.045   5.654
13524TIP3    H140513   5.326   7.109   5.653
13524TIP3    H240514   5.414   7.027   5.561
13525TIP3   OH240515   2.344   3.027   1.239
13525TIP3    H140516   2.430   2.984   1.239
13525TIP3    H240517   2.342   3.078   1.158
13526TIP3   OH240518   3.426   7.532   1.488
13526TIP3    H140519   3.421   7.452   1.540
13526TIP3    H240520   3.437   7.602   1.553
13527TIP3   OH240521   0.922   0.400   4.210
13527TIP3    H140522   0.906   0.454   4.288
13527TIP3    H240523   0.984   0.334   4.239
13528TIP3   OH240524   7.634   1.799   6.602
13528TIP3    H140525   7.658   1.752   6.682
13528TIP3    H240526   7.575   1.739   6.556
13529TIP3   OH240527   0.174   1.363   6.099
13529TIP3    H140528   0.196   1.294   6.162
13529TIP3    H240529   0.103   1.412   6.141
13530TIP3   OH240530   7.724   0.066   5.185
13530TIP3    H140531   7.743   0.138   5.125
13530TIP3    H240532   7.795   0.003   5.170
13531TIP3   OH240533   5.635   0.253   5.137
13531TIP3    H140534   5.726   0.233   5.158
13531TIP3    H240535   5.588   0.171   5.152
13532TIP3   OH240536   7.158   3.826   3.025
13532TIP3    H140537   7.187   3.754   2.969
13532TIP3    H240538   7.065   3.808   3.040
13533TIP3   OH240539   8.053   1.729   5.377
13533TIP3    H140540   7.998   1.787   5.323
13533TIP3    H240541   8.046   1.644   5.335
13534TIP3   OH240542   5.724   1.304   5.856
13534TIP3    H140543   5.662   1.256   5.910
13534TIP3    H240544   5.729   1.391   5.896
13535TIP3   OH240545   8.217   4.185   6.403
13535TIP3    H140546   8.270   4.252   6.446
13535TIP3    H240547   8.261   4.102   6.423
13536TIP3   OH240548   4.153   1.244   0.011
13536TIP3    H140549   4.206   1.282   0.082
13536TIP3    H240550   4.166   1.149   0.019
13537TIP3   OH240551   5.248   7.681   4.708
13537TIP3    H140552   5.198   7.632   4.773
13537TIP3    H240553   5.266   7.618   4.638
13538TIP3   OH240554   1.054   3.560   3.450
13538TIP3    H140555   0.993   3.487   3.442
13538TIP3    H240556   1.106   3.540   3.528
13539TIP3   OH240557   4.838   3.949   0.462
13539TIP3    H140558   4.869   3.929   0.374
13539TIP3    H240559   4.760   4.003   0.449
13540TIP3   OH240560   6.229   1.382   6.653
13540TIP3    H140561   6.241   1.291   6.679
13540TIP3    H240562   6.317   1.415   6.637
13541TIP3   OH240563   1.952   0.592   3.048
13541TIP3    H140564   1.930   0.543   2.969
13541TIP3    H240565   2.017   0.539   3.093
13542TIP3   OH240566   5.449   2.609   4.081
13542TIP3    H140567   5.441   2.571   4.169
13542TIP3    H240568   5.482   2.698   4.096
13543TIP3   OH240569   4.483   3.733   4.918
13543TIP3    H140570   4.434   3.651   4.928
13543TIP3    H240571   4.536   3.720   4.840
13544TIP3   OH240572   6.746   2.270   5.780
13544TIP3    H140573   6.712   2.253   5.692
13544TIP3    H240574   6.837   2.241   5.776
13545TIP3   OH240575   5.018   0.261   4.422
13545TIP3    H140576   4.992   0.264   4.514
13545TIP3    H240577   4.989   0.175   4.392
13546TIP3   OH240578   6.166   6.788   0.423
13546TIP3    H140579   6.130   6.707   0.458
13546TIP3    H240580   6.235   6.760   0.363
13547TIP3   OH240581   3.702   7.510   6.699
13547TIP3    H140582   3.741   7.574   6.639
13547TIP3    H240583   3.702   7.428   6.651
13548TIP3   OH240584   4.877   7.622   5.044
13548TIP3    H140585   4.801   7.601   4.989
13548TIP3    H240586   4.839   7.638   5.130
13549TIP3   OH240587   7.795   5.099   0.730
13549TIP3    H140588   7.744   5.178   0.710
13549TIP3    H240589   7.737   5.026   0.708
13550TIP3   OH240590   0.052   4.368   1.958
13550TIP3    H140591   0.124   4.305   1.952
13550TIP3    H240592  -0.006   4.346   1.885
13551TIP3   OH240593   5.470   5.256   2.507
13551TIP3    H140594   5.390   5.304   2.485
13551TIP3    H240595   5.507   5.304   2.581
13552TIP3   OH240596   2.520   6.315   6.409
13552TIP3    H140597   2.579   6.311   6.484
13552TIP3    H240598   2.542   6.396   6.364
13553TIP3   OH240599   2.362   0.638   2.356
13553TIP3    H140600   2.317   0.572   2.409
13553TIP3    H240601   2.439   0.593   2.321
13554TIP3   OH240602   5.030   0.812   0.330
13554TIP3    H140603   5.087   0.775   0.398
13554TIP3    H240604   5.052   0.762   0.251
13555TIP3   OH240605   2.873   1.169   3.683
13555TIP3    H140606   2.948   1.148   3.738
13555TIP3    H240607   2.802   1.115   3.717
13556TIP3   OH240608   2.330   0.989   3.227
13556TIP3    H140609   2.284   0.906   3.214
13556TIP3    H240610   2.338   0.998   3.322
13557TIP3   OH240611   7.106   2.394   3.953
13557TIP3    H140612   7.021   2.369   3.917
13557TIP3    H240613   7.131   2.320   4.009
13558TIP3   OH240614   3.166   6.652   1.658
13558TIP3    H140615   3.082   6.668   1.614
13558TIP3    H240616   3.161   6.707   1.737
13559TIP3   OH240617   0.366   6.855   2.178
13559TIP3    H140618   0.450   6.867   2.222
13559TIP3    H240619   0.312   6.808   2.241
13560TIP3   OH240620   7.589   1.305   2.908
13560TIP3    H140621   7.555   1.384   2.866
13560TIP3    H240622   7.530   1.289   2.981
13561TIP3   OH240623   4.679   6.199   4.698
13561TIP3    H140624   4.612   6.266   4.712
13561TIP3    H240625   4.723   6.192   4.783
13562TIP3   OH240626   0.322   1.879   2.323
13562TIP3    H140627   0.284   1.931   2.253
13562TIP3    H240628   0.262   1.889   2.397
13563TIP3   OH240629   2.240   1.239   5.718
13563TIP3    H140630   2.207   1.327   5.741
13563TIP3    H240631   2.168   1.198   5.671
13564TIP3   OH240632   5.655   4.021   6.168
13564TIP3    H140633   5.664   4.006   6.074
13564TIP3    H240634   5.595   3.952   6.197
13565TIP3   OH240635   3.494   2.456   4.589
13565TIP3    H140636   3.482   2.361   4.582
13565TIP3    H240637   3.562   2.467   4.655
13566TIP3   OH240638   1.548   1.813   2.707
13566TIP3    H140639   1.571   1.778   2.794
13566TIP3    H240640   1.469   1.766   2.682
13567TIP3   OH240641   4.162   5.200   6.106
13567TIP3    H140642   4.233   5.136   6.114
13567TIP3    H240643   4.138   5.221   6.196
13568TIP3   OH240644   7.480   0.449   0.663
13568TIP3    H140645   7.570   0.470   0.638
13568TIP3    H240646   7.481   0.354   0.676
13569TIP3   OH240647   3.800   0.942   0.328
13569TIP3    H140648   3.848   0.875   0.278
13569TIP3    H240649   3.720   0.956   0.278
13570TIP3   OH240650   7.910   1.927   2.911
13570TIP3    H140651   7.842   1.947   2.847
13570TIP3    H240652   7.863   1.899   2.989
13571TIP3   OH240653   4.285   2.213   3.456
13571TIP3    H140654   4.199   2.254   3.446
13571TIP3    H240655   4.279   2.133   3.404
13572TIP3   OH240656   1.831   6.701   5.342
13572TIP3    H140657   1.842   6.609   5.366
13572TIP3    H240658   1.919   6.739   5.348
13573TIP3   OH240659   4.563   4.293   5.584
13573TIP3    H140660   4.549   4.309   5.678
13573TIP3    H240661   4.537   4.202   5.571
13574TIP3   OH240662   7.693   0.432   6.669
13574TIP3    H140663   7.772   0.483   6.686
13574TIP3    H240664   7.631   0.496   6.632
13575TIP3   OH240665   5.870   7.480   2.168
13575TIP3    H140666   5.892   7.569   2.141
13575TIP3    H240667   5.775   7.481   2.181
13576TIP3   OH240668   2.809   6.186   5.648
13576TIP3    H140669   2.723   6.226   5.642
13576TIP3    H240670   2.798   6.099   5.608
13577TIP3   OH240671   5.165   4.154   1.535
13577TIP3    H140672   5.204   4.082   1.585
13577TIP3    H240673   5.071   4.142   1.546
13578TIP3   OH240674   0.382   0.199   2.007
13578TIP3    H140675   0.356   0.282   2.046
13578TIP3    H240676   0.306   0.170   1.957
13579TIP3   OH240677   2.488   2.620   2.156
13579TIP3    H140678   2.463   2.673   2.232
13579TIP3    H240679   2.407   2.612   2.105
13580TIP3   OH240680   8.276   1.112   2.724
13580TIP3    H140681   8.249   1.121   2.816
13580TIP3    H240682   8.295   1.019   2.714
13581TIP3   OH240683   1.525   4.274   3.305
13581TIP3    H140684   1.574   4.259   3.224
13581TIP3    H240685   1.438   4.238   3.287
13582TIP3   OH240686   4.555   7.846   1.977
13582TIP3    H140687   4.553   7.857   1.882
13582TIP3    H240688   4.598   7.925   2.009
13583TIP3   OH240689   3.841   6.572   6.421
13583TIP3    H140690   3.866   6.522   6.498
13583TIP3    H240691   3.790   6.510   6.368
13584TIP3   OH240692   1.919   2.617   2.195
13584TIP3    H140693   1.892   2.688   2.137
13584TIP3    H240694   1.870   2.541   2.164
13585TIP3   OH240695   4.524   0.246   6.820
13585TIP3    H140696   4.476   0.276   6.743
13585TIP3    H240697   4.465   0.263   6.894
13586TIP3   OH240698   7.554   1.494   3.351
13586TIP3    H140699   7.624   1.454   3.403
13586TIP3    H240700   7.476   1.445   3.375
13587TIP3   OH240701   3.645   1.435   4.420
13587TIP3    H140702   3.687   1.356   4.385
13587TIP3    H240703   3.618   1.484   4.342
13588TIP3   OH240704   6.335   4.950   4.027
13588TIP3    H140705   6.356   5.031   3.981
13588TIP3    H240706   6.373   4.881   3.973
13589TIP3   OH240707   3.710   1.922   0.711
13589TIP3    H140708   3.678   1.835   0.735
13589TIP3    H240709   3.800   1.924   0.743
13590TIP3   OH240710   6.919   2.070   2.293
13590TIP3    H140711   6.823   2.072   2.287
13590TIP3    H240712   6.944   2.162   2.302
13591TIP3   OH240713   0.460   3.653   3.783
13591TIP3    H140714   0.451   3.666   3.877
13591TIP3    H240715   0.469   3.558   3.773
13592TIP3   OH240716   3.502   1.381   0.379
13592TIP3    H140717   3.476   1.377   0.471
13592TIP3    H240718   3.513   1.474   0.360
13593TIP3   OH240719   2.069   2.771   4.635
13593TIP3    H140720   2.024   2.712   4.574
13593TIP3    H240721   2.005   2.789   4.703
13594TIP3   OH240722   6.846   5.811   4.642
13594TIP3    H140723   6.789   5.825   4.566
13594TIP3    H240724   6.865   5.898   4.674
13595TIP3   OH240725   3.266   7.324   2.326
13595TIP3    H140726   3.176   7.332   2.295
13595TIP3    H240727   3.258   7.301   2.419
13596TIP3   OH240728   7.992   7.808   4.603
13596TIP3    H140729   8.087   7.818   4.607
13596TIP3    H240730   7.968   7.776   4.690
13597TIP3   OH240731   6.995   3.606   1.858
13597TIP3    H140732   6.949   3.534   1.901
13597TIP3    H240733   6.940   3.629   1.783
13598TIP3   OH240734   7.582   2.703   5.092
13598TIP3    H140735   7.639   2.779   5.080
13598TIP3    H240736   7.533   2.723   5.172
13599TIP3   OH240737   3.427   6.001   3.096
13599TIP3    H140738   3.370   5.965   3.163
13599TIP3    H240739   3.481   5.927   3.068
13600TIP3   OH240740   0.408   6.407   4.391
13600TIP3    H140741   0.336   6.469   4.406
13600TIP3    H240742   0.487   6.457   4.411
13601TIP3   OH240743   5.352   6.354   0.880
13601TIP3    H140744   5.259   6.345   0.858
13601TIP3    H240745   5.396   6.354   0.795
13602TIP3   OH240746   1.789   4.200   4.227
13602TIP3    H140747   1.882   4.224   4.228
13602TIP3    H240748   1.774   4.160   4.313
13603TIP3   OH240749   7.648   0.558   4.749
13603TIP3    H140750   7.641   0.648   4.781
13603TIP3    H240751   7.559   0.523   4.752
13604TIP3   OH240752   6.455   4.959   4.426
13604TIP3    H140753   6.469   4.928   4.337
13604TIP3    H240754   6.380   5.018   4.420
13605TIP3   OH240755   7.994   1.220   2.270
13605TIP3    H140756   7.972   1.283   2.202
13605TIP3    H240757   8.023   1.274   2.344
13606TIP3   OH240758   4.999   7.861   2.051
13606TIP3    H140759   4.963   7.941   2.090
13606TIP3    H240760   5.083   7.849   2.095
13607TIP3   OH240761   0.410   7.277   3.742
13607TIP3    H140762   0.475   7.219   3.782
13607TIP3    H240763   0.326   7.242   3.769
13608TIP3   OH240764   7.752   0.827   2.507
13608TIP3    H140765   7.671   0.780   2.528
13608TIP3    H240766   7.736   0.916   2.536
13609TIP3   OH240767   0.843   2.657   2.318
13609TIP3    H140768   0.751   2.632   2.319
13609TIP3    H240769   0.868   2.661   2.411
13610TIP3   OH240770   1.463   2.683   1.096
13610TIP3    H140771   1.444   2.745   1.166
13610TIP3    H240772   1.558   2.691   1.082
13611TIP3   OH240773   2.147   4.181   5.442
13611TIP3    H140774   2.086   4.253   5.429
13611TIP3    H240775   2.172   4.154   5.353
13612TIP3   OH240776   2.331   2.708   0.968
13612TIP3    H140777   2.327   2.620   0.933
13612TIP3    H240778   2.292   2.763   0.900
13613TIP3   OH240779   1.332   4.032   2.821
13613TIP3    H140780   1.428   4.030   2.820
13613TIP3    H240781   1.308   4.080   2.742
13614TIP3   OH240782   2.222   4.100   5.980
13614TIP3    H140783   2.278   4.114   5.903
13614TIP3    H240784   2.190   4.187   6.002
13615TIP3   OH240785   5.436   7.208   3.292
13615TIP3    H140786   5.524   7.217   3.328
13615TIP3    H240787   5.427   7.115   3.271
13616TIP3   OH240788   5.402   7.295   4.144
13616TIP3    H140789   5.458   7.229   4.186
13616TIP3    H240790   5.328   7.244   4.109
13617TIP3   OH240791   0.511   5.252   0.561
13617TIP3    H140792   0.499   5.338   0.519
13617TIP3    H240793   0.439   5.246   0.623
13618TIP3   OH240794   1.935   1.823   5.150
13618TIP3    H140795   1.992   1.762   5.196
13618TIP3    H240796   1.963   1.818   5.059
13619TIP3   OH240797   3.896   4.746   4.672
13619TIP3    H140798   3.834   4.817   4.653
13619TIP3    H240799   3.941   4.730   4.589
13620TIP3   OH240800   3.173   2.715   5.238
13620TIP3    H140801   3.240   2.718   5.306
13620TIP3    H240802   3.092   2.738   5.283
13621TIP3   OH240803   6.075   5.548   3.420
13621TIP3    H140804   6.021   5.473   3.394
13621TIP3    H240805   6.085   5.539   3.514
13622TIP3   OH240806   2.446   1.832   5.242
13622TIP3    H140807   2.490   1.762   5.194
13622TIP3    H240808   2.510   1.903   5.243
13623TIP3   OH240809   3.051   4.736   2.789
13623TIP3    H140810   3.026   4.806   2.849
13623TIP3    H240811   3.110   4.680   2.840
13624TIP3   OH240812   4.878   6.067   5.156
13624TIP3    H140813   4.959   6.100   5.117
13624TIP3    H240814   4.868   5.979   5.119
13625TIP3   OH240815   3.159   6.800   3.887
13625TIP3    H140816   3.165   6.716   3.932
13625TIP3    H240817   3.097   6.851   3.940
13626TIP3   OH240818   2.950   4.763   5.700
13626TIP3    H140819   3.028   4.809   5.731
13626TIP3    H240820   2.897   4.832   5.659
13627TIP3   OH240821   1.959   0.431   5.885
13627TIP3    H140822   2.018   0.380   5.830
13627TIP3    H240823   1.915   0.367   5.940
13628TIP3   OH240824   2.643   4.374   1.777
13628TIP3    H140825   2.650   4.307   1.709
13628TIP3    H240826   2.708   4.349   1.842
13629TIP3   OH240827   2.700   7.101   3.444
13629TIP3    H140828   2.648   7.171   3.484
13629TIP3    H240829   2.790   7.120   3.471
13630TIP3   OH240830   3.245   2.557   4.631
13630TIP3    H140831   3.335   2.557   4.601
13630TIP3    H240832   3.234   2.641   4.676
13631TIP3   OH240833   1.819   7.134   2.241
13631TIP3    H140834   1.741   7.161   2.288
13631TIP3    H240835   1.788   7.065   2.182
13632TIP3   OH240836   2.900   5.813   2.411
13632TIP3    H140837   2.859   5.736   2.373
13632TIP3    H240838   2.932   5.863   2.336
13633TIP3   OH240839   8.075   4.502   5.398
13633TIP3    H140840   8.034   4.571   5.346
13633TIP3    H240841   8.160   4.537   5.422
13634TIP3   OH240842   3.570   0.753   2.928
13634TIP3    H140843   3.488   0.706   2.943
13634TIP3    H240844   3.626   0.728   3.001
13635TIP3   OH240845   6.860   7.788   1.265
13635TIP3    H140846   6.878   7.697   1.245
13635TIP3    H240847   6.797   7.815   1.199
13636TIP3   OH240848   2.004   5.045   3.705
13636TIP3    H140849   1.916   5.017   3.681
13636TIP3    H240850   1.991   5.114   3.770
13637TIP3   OH240851   3.324   3.095   1.460
13637TIP3    H140852   3.349   3.166   1.401
13637TIP3    H240853   3.403   3.074   1.509
13638TIP3   OH240854   5.734   0.379   4.140
13638TIP3    H140855   5.773   0.346   4.059
13638TIP3    H240856   5.807   0.384   4.201
13639TIP3   OH240857   5.957   5.791   0.726
13639TIP3    H140858   5.883   5.806   0.666
13639TIP3    H240859   5.929   5.833   0.808
13640TIP3   OH240860   3.147   5.692   6.718
13640TIP3    H140861   3.055   5.669   6.705
13640TIP3    H240862   3.196   5.614   6.691
13641TIP3   OH240863   0.200   0.621   3.069
13641TIP3    H140864   0.233   0.700   3.112
13641TIP3    H240865   0.190   0.647   2.977
13642TIP3   OH240866   6.651   1.397   6.275
13642TIP3    H140867   6.708   1.474   6.267
13642TIP3    H240868   6.682   1.337   6.208
13643TIP3   OH240869   1.141   3.182   6.583
13643TIP3    H140870   1.171   3.097   6.550
13643TIP3    H240871   1.139   3.171   6.678
13644TIP3   OH240872   4.741   5.247   4.371
13644TIP3    H140873   4.648   5.225   4.377
13644TIP3    H240874   4.776   5.229   4.458
13645TIP3   OH240875   4.664   4.123   3.351
13645TIP3    H140876   4.570   4.112   3.357
13645TIP3    H240877   4.700   4.038   3.375
13646TIP3   OH240878   4.317   2.580   6.553
13646TIP3    H140879   4.333   2.490   6.525
13646TIP3    H240880   4.257   2.573   6.627
13647TIP3   OH240881   7.612   6.647   2.756
13647TIP3    H140882   7.558   6.676   2.682
13647TIP3    H240883   7.548   6.630   2.825
13648TIP3   OH240884   8.124   7.728   2.589
13648TIP3    H140885   8.090   7.769   2.509
13648TIP3    H240886   8.051   7.732   2.650
13649TIP3   OH240887   1.811   2.618   2.546
13649TIP3    H140888   1.787   2.529   2.520
13649TIP3    H240889   1.728   2.660   2.568
13650TIP3   OH240890   6.025   3.426   2.590
13650TIP3    H140891   5.933   3.417   2.614
13650TIP3    H240892   6.024   3.446   2.496
13651TIP3   OH240893   0.764   1.600   1.772
13651TIP3    H140894   0.702   1.544   1.819
13651TIP3    H240895   0.710   1.657   1.718
13652TIP3   OH240896   4.989   4.707   6.529
13652TIP3    H140897   4.919   4.643   6.522
13652TIP3    H240898   4.973   4.768   6.457
13653TIP3   OH240899   5.393   1.454   0.789
13653TIP3    H140900   5.401   1.418   0.701
13653TIP3    H240901   5.339   1.532   0.778
13654TIP3   OH240902   6.304   1.636   4.022
13654TIP3    H140903   6.295   1.543   4.003
13654TIP3    H240904   6.253   1.680   3.954
13655TIP3   OH240905   8.328   0.000   5.424
13655TIP3    H140906   8.276   0.080   5.415
13655TIP3    H240907   8.370   0.010   5.510
13656TIP3   OH240908   5.547   4.965   4.286
13656TIP3    H140909   5.464   4.924   4.309
13656TIP3    H240910   5.611   4.894   4.292
13657TIP3   OH240911   2.580   7.252   5.295
13657TIP3    H140912   2.522   7.307   5.243
13657TIP3    H240913   2.661   7.248   5.243
13658TIP3   OH240914   6.621   1.961   1.326
13658TIP3    H140915   6.686   1.946   1.395
13658TIP3    H240916   6.654   1.910   1.252
13659TIP3   OH240917   7.711   6.282   4.585
13659TIP3    H140918   7.686   6.356   4.529
13659TIP3    H240919   7.632   6.228   4.589
13660TIP3   OH240920   1.147   1.326   0.756
13660TIP3    H140921   1.083   1.290   0.696
13660TIP3    H240922   1.185   1.401   0.709
13661TIP3   OH240923   4.735   0.157   3.906
13661TIP3    H140924   4.704   0.192   3.990
13661TIP3    H240925   4.796   0.088   3.930
13662TIP3   OH240926   6.964   7.693   4.241
13662TIP3    H140927   6.877   7.685   4.202
13662TIP3    H240928   7.013   7.619   4.203
13663TIP3   OH240929   2.213   0.465   2.522
13663TIP3    H140930   2.184   0.402   2.589
13663TIP3    H240931   2.135   0.517   2.502
13664TIP3   OH240932   3.933   4.317   3.859
13664TIP3    H140933   3.860   4.266   3.893
13664TIP3    H240934   3.989   4.252   3.816
13665TIP3   OH240935   5.773   7.713   1.647
13665TIP3    H140936   5.838   7.773   1.610
13665TIP3    H240937   5.823   7.658   1.707
13666TIP3   OH240938   2.524   7.176   3.232
13666TIP3    H140939   2.602   7.202   3.281
13666TIP3    H240940   2.454   7.172   3.298
13667TIP3   OH240941   6.321   7.388   6.107
13667TIP3    H140942   6.237   7.346   6.089
13667TIP3    H240943   6.312   7.422   6.196
13668TIP3   OH240944   5.865   5.901   5.116
13668TIP3    H140945   5.797   5.846   5.077
13668TIP3    H240946   5.834   5.990   5.104
13669TIP3   OH240947   4.847   6.459   0.054
13669TIP3    H140948   4.842   6.534   0.113
13669TIP3    H240949   4.899   6.489  -0.021
13670TIP3   OH240950   3.123   6.040   0.837
13670TIP3    H140951   3.072   6.011   0.761
13670TIP3    H240952   3.076   6.117   0.870
13671TIP3   OH240953   2.891   2.357   2.385
13671TIP3    H140954   2.871   2.425   2.448
13671TIP3    H240955   2.820   2.361   2.321
13672TIP3   OH240956   5.463   2.288   0.788
13672TIP3    H140957   5.515   2.270   0.710
13672TIP3    H240958   5.525   2.325   0.850
13673TIP3   OH240959   7.055   5.210   5.662
13673TIP3    H140960   7.039   5.121   5.630
13673TIP3    H240961   7.060   5.263   5.583
13674TIP3   OH240962   1.469   6.653   5.748
13674TIP3    H140963   1.436   6.564   5.742
13674TIP3    H240964   1.447   6.681   5.837
13675TIP3   OH240965   8.260   2.832   3.989
13675TIP3    H140966   8.322   2.903   4.008
13675TIP3    H240967   8.290   2.798   3.905
13676TIP3   OH240968   2.206   1.917   0.726
13676TIP3    H140969   2.232   1.920   0.634
13676TIP3    H240970   2.288   1.904   0.774
13677TIP3   OH240971   4.334   3.035   1.566
13677TIP3    H140972   4.252   2.986   1.564
13677TIP3    H240973   4.322   3.099   1.637
13678TIP3   OH240974   2.496   1.934   0.724
13678TIP3    H140975   2.514   2.023   0.693
13678TIP3    H240976   2.450   1.892   0.652
13679TIP3   OH240977   5.147   1.071   2.745
13679TIP3    H140978   5.192   1.021   2.677
13679TIP3    H240979   5.187   1.157   2.743
13680TIP3   OH240980   2.243   2.040   4.251
13680TIP3    H140981   2.184   1.965   4.244
13680TIP3    H240982   2.327   2.003   4.276
13681TIP3   OH240983   5.057   5.859   1.288
13681TIP3    H140984   5.104   5.783   1.255
13681TIP3    H240985   5.078   5.861   1.382
13682TIP3   OH240986   6.536   7.209   0.649
13682TIP3    H140987   6.546   7.255   0.565
13682TIP3    H240988   6.462   7.151   0.636
13683TIP3   OH240989   4.389   5.937   2.579
13683TIP3    H140990   4.308   5.950   2.629
13683TIP3    H240991   4.424   5.854   2.611
13684TIP3   OH240992   7.317   5.510   5.453
13684TIP3    H140993   7.331   5.416   5.438
13684TIP3    H240994   7.283   5.515   5.543
13685TIP3   OH240995   2.217   5.721   1.756
13685TIP3    H140996   2.166   5.667   1.817
13685TIP3    H240997   2.223   5.667   1.677
13686TIP3   OH240998   7.214   3.329   1.047
13686TIP3    H140999   7.221   3.234   1.058
13686TIP3    H241000   7.211   3.342   0.952
13687TIP3   OH241001   7.799   7.887   3.495
13687TIP3    H141002   7.895   7.891   3.501
13687TIP3    H241003   7.774   7.818   3.557
13688TIP3   OH241004   3.455   7.001   0.426
13688TIP3    H141005   3.550   7.008   0.411
13688TIP3    H241006   3.420   7.083   0.393
13689TIP3   OH241007   5.876   2.146   6.077
13689TIP3    H141008   5.892   2.085   6.005
13689TIP3    H241009   5.848   2.227   6.034
13690TIP3   OH241010   5.735   3.124   0.385
13690TIP3    H141011   5.780   3.191   0.436
13690TIP3    H241012   5.740   3.155   0.294
13691TIP3   OH241013   4.915   7.052   3.477
13691TIP3    H141014   4.944   7.071   3.388
13691TIP3    H241015   4.986   7.000   3.514
13692TIP3   OH241016   3.661   4.642   1.472
13692TIP3    H141017   3.577   4.678   1.502
13692TIP3    H241018   3.661   4.657   1.378
13693TIP3   OH241019   1.576   7.339   1.045
13693TIP3    H141020   1.533   7.261   1.080
13693TIP3    H241021   1.603   7.388   1.123
13694TIP3   OH241022   8.015   3.211   3.936
13694TIP3    H141023   8.111   3.212   3.944
13694TIP3    H241024   7.984   3.240   4.022
13695TIP3   OH241025   2.831   0.485   4.004
13695TIP3    H141026   2.769   0.419   4.035
13695TIP3    H241027   2.821   0.558   4.066
13696TIP3   OH241028   0.146   1.830   4.927
13696TIP3    H141029   0.065   1.818   4.876
13696TIP3    H241030   0.118   1.874   5.007
13697TIP3   OH241031   0.672   3.601   2.255
13697TIP3    H141032   0.681   3.634   2.345
13697TIP3    H241033   0.708   3.671   2.201
13698TIP3   OH241034   6.988   5.750   2.607
13698TIP3    H141035   6.985   5.844   2.624
13698TIP3    H241036   7.033   5.713   2.683
13699TIP3   OH241037   2.614   1.238   4.760
13699TIP3    H141038   2.681   1.256   4.695
13699TIP3    H241039   2.538   1.211   4.709
13700TIP3   OH241040   0.610   1.702   3.279
13700TIP3    H141041   0.537   1.696   3.216
13700TIP3    H241042   0.687   1.718   3.224
13701TIP3   OH241043   7.033   1.435   2.002
13701TIP3    H141044   7.110   1.489   1.983
13701TIP3    H241045   7.040   1.361   1.942
13702TIP3   OH241046   4.243   5.803   0.669
13702TIP3    H141047   4.271   5.836   0.754
13702TIP3    H241048   4.191   5.725   0.689
13703TIP3   OH241049   7.918   6.501   3.636
13703TIP3    H141050   7.954   6.511   3.547
13703TIP3    H241051   7.971   6.431   3.675
13704TIP3   OH241052   1.982   1.763   4.878
13704TIP3    H141053   1.957   1.686   4.827
13704TIP3    H241054   2.026   1.820   4.816
13705TIP3   OH241055   7.155   1.495   1.561
13705TIP3    H141056   7.074   1.444   1.566
13705TIP3    H241057   7.130   1.575   1.514
13706TIP3   OH241058   7.443   5.112   1.966
13706TIP3    H141059   7.523   5.161   1.984
13706TIP3    H241060   7.393   5.168   1.907
13707TIP3   OH241061   1.878   3.840   2.047
13707TIP3    H141062   1.866   3.810   1.957
13707TIP3    H241063   1.825   3.920   2.053
13708TIP3   OH241064   0.046   3.510   3.517
13708TIP3    H141065  -0.043   3.477   3.507
13708TIP3    H241066   0.042   3.602   3.491
13709TIP3   OH241067   5.359   7.072   1.769
13709TIP3    H141068   5.433   7.023   1.731
13709TIP3    H241069   5.374   7.162   1.742
13710TIP3   OH241070   4.414   5.961   4.217
13710TIP3    H141071   4.358   5.921   4.150
13710TIP3    H241072   4.353   5.991   4.285
13711TIP3   OH241073   2.655   1.742   6.758
13711TIP3    H141074   2.732   1.790   6.789
13711TIP3    H241075   2.599   1.733   6.836
13712TIP3   OH241076   6.664   3.243   3.703
13712TIP3    H141077   6.677   3.337   3.713
13712TIP3    H241078   6.729   3.217   3.637
13713TIP3   OH241079   0.995   1.731   3.884
13713TIP3    H141080   0.973   1.770   3.968
13713TIP3    H241081   0.953   1.789   3.820
13714TIP3   OH241082   8.225   5.290   4.138
13714TIP3    H141083   8.196   5.369   4.092
13714TIP3    H241084   8.224   5.222   4.071
13715TIP3   OH241085   0.834   3.260   2.187
13715TIP3    H141086   0.801   3.335   2.138
13715TIP3    H241087   0.815   3.185   2.131
13716TIP3   OH241088   8.192   3.768   6.128
13716TIP3    H141089   8.227   3.790   6.214
13716TIP3    H241090   8.171   3.674   6.134
13717TIP3   OH241091   1.012   5.921   1.568
13717TIP3    H141092   0.970   5.961   1.644
13717TIP3    H241093   1.086   5.873   1.605
13718TIP3   OH241094   5.044   6.032   6.850
13718TIP3    H141095   4.976   6.093   6.880
13718TIP3    H241096   5.008   5.994   6.769
13719TIP3   OH241097   2.658   7.002   6.732
13719TIP3    H141098   2.580   7.019   6.785
13719TIP3    H241099   2.731   7.010   6.793
13720TIP3   OH241100   5.013   7.573   0.498
13720TIP3    H141101   5.075   7.640   0.467
13720TIP3    H241102   4.927   7.612   0.483
13721TIP3   OH241103   2.021   3.618   4.891
13721TIP3    H141104   1.975   3.535   4.899
13721TIP3    H241105   2.094   3.599   4.833
13722TIP3   OH241106   7.507   6.556   1.586
13722TIP3    H141107   7.572   6.501   1.543
13722TIP3    H241108   7.549   6.641   1.594
13723TIP3   OH241109   6.686   6.325   1.642
13723TIP3    H141110   6.620   6.347   1.576
13723TIP3    H241111   6.638   6.276   1.709
13724TIP3   OH241112   6.702   5.152   2.032
13724TIP3    H141113   6.750   5.153   2.115
13724TIP3    H241114   6.755   5.096   1.974
13725TIP3   OH241115   2.128   0.439   0.610
13725TIP3    H141116   2.129   0.424   0.705
13725TIP3    H241117   2.035   0.456   0.590
13726TIP3   OH241118   0.071   6.237   4.255
13726TIP3    H141119   0.158   6.261   4.224
13726TIP3    H241120   0.012   6.264   4.184
13727TIP3   OH241121   5.844   1.985   1.528
13727TIP3    H141122   5.898   2.064   1.527
13727TIP3    H241123   5.763   2.012   1.572
13728TIP3   OH241124   6.626   4.604   3.742
13728TIP3    H141125   6.546   4.585   3.694
13728TIP3    H241126   6.652   4.519   3.779
13729TIP3   OH241127   8.001   3.092   2.039
13729TIP3    H141128   8.065   3.092   1.968
13729TIP3    H241129   8.045   3.138   2.111
13730TIP3   OH241130   6.386   7.086   0.391
13730TIP3    H141131   6.359   7.169   0.429
13730TIP3    H241132   6.372   7.097   0.297
13731TIP3   OH241133   2.481   7.600   3.899
13731TIP3    H141134   2.550   7.571   3.959
13731TIP3    H241135   2.511   7.685   3.867
13732TIP3   OH241136   7.008   5.616   5.148
13732TIP3    H141137   6.928   5.569   5.121
13732TIP3    H241138   7.038   5.659   5.068
13733TIP3   OH241139   0.510   4.014   4.323
13733TIP3    H141140   0.541   3.968   4.245
13733TIP3    H241141   0.522   3.950   4.394
13734TIP3   OH241142   3.634   7.072   4.789
13734TIP3    H141143   3.713   7.121   4.766
13734TIP3    H241144   3.586   7.131   4.848
13735TIP3   OH241145   7.003   4.330   2.095
13735TIP3    H141146   7.012   4.322   2.190
13735TIP3    H241147   7.024   4.422   2.076
13736TIP3   OH241148   8.324   5.442   2.792
13736TIP3    H141149   8.260   5.398   2.737
13736TIP3    H241150   8.295   5.425   2.882
13737TIP3   OH241151   6.455   6.897   3.126
13737TIP3    H141152   6.460   6.974   3.183
13737TIP3    H241153   6.399   6.925   3.053
13738TIP3   OH241154   2.278   2.050   1.096
13738TIP3    H141155   2.335   2.120   1.128
13738TIP3    H241156   2.190   2.075   1.122
13739TIP3   OH241157   5.391   6.651   1.086
13739TIP3    H141158   5.437   6.718   1.035
13739TIP3    H241159   5.299   6.666   1.067
13740TIP3   OH241160   1.226   2.013   4.102
13740TIP3    H141161   1.285   1.958   4.153
13740TIP3    H241162   1.138   1.986   4.129
13741TIP3   OH241163   8.196   4.345   2.284
13741TIP3    H141164   8.214   4.309   2.371
13741TIP3    H241165   8.101   4.342   2.276
13742TIP3   OH241166   7.993   5.308   4.873
13742TIP3    H141167   8.057   5.240   4.892
13742TIP3    H241168   8.045   5.380   4.838
13743TIP3   OH241169   1.785   7.437   0.630
13743TIP3    H141170   1.820   7.442   0.541
13743TIP3    H241171   1.726   7.512   0.636
13744TIP3   OH241172   2.119   0.166   2.333
13744TIP3    H141173   2.179   0.204   2.269
13744TIP3    H241174   2.124   0.072   2.317
13745TIP3   OH241175   5.507   5.791   4.272
13745TIP3    H141176   5.586   5.794   4.218
13745TIP3    H241177   5.490   5.698   4.284
13746TIP3   OH241178   0.535   5.756   2.492
13746TIP3    H141179   0.535   5.709   2.575
13746TIP3    H241180   0.570   5.693   2.429
13747TIP3   OH241181   0.265   2.604   4.237
13747TIP3    H141182   0.190   2.655   4.207
13747TIP3    H241183   0.245   2.585   4.329
13748TIP3   OH241184   4.251   6.957   0.277
13748TIP3    H141185   4.225   7.035   0.229
13748TIP3    H241186   4.347   6.962   0.282
13749TIP3   OH241187   5.527   0.133   5.443
13749TIP3    H141188   5.478   0.100   5.518
13749TIP3    H241189   5.562   0.217   5.472
13750TIP3   OH241190   5.276   1.636   1.644
13750TIP3    H141191   5.334   1.560   1.641
13750TIP3    H241192   5.192   1.601   1.675
13751TIP3   OH241193   5.940   2.583   2.305
13751TIP3    H141194   5.903   2.636   2.234
13751TIP3    H241195   5.873   2.518   2.324
13752TIP3   OH241196   1.947   2.781   1.487
13752TIP3    H141197   2.032   2.820   1.467
13752TIP3    H241198   1.948   2.697   1.442
13753TIP3   OH241199   7.639   2.328   0.662
13753TIP3    H141200   7.726   2.364   0.643
13753TIP3    H241201   7.601   2.311   0.576
13754TIP3   OH241202   6.518   3.177   3.930
13754TIP3    H141203   6.464   3.255   3.943
13754TIP3    H241204   6.549   3.184   3.840
13755TIP3   OH241205   2.626   1.847   0.125
13755TIP3    H141206   2.536   1.814   0.127
13755TIP3    H241207   2.680   1.769   0.121
13756TIP3   OH241208   0.606   2.651   3.594
13756TIP3    H141209   0.599   2.740   3.630
13756TIP3    H241210   0.698   2.642   3.570
13757TIP3   OH241211   0.952   1.167   3.118
13757TIP3    H141212   0.998   1.235   3.070
13757TIP3    H241213   0.860   1.186   3.105
13758TIP3   OH241214   8.230   5.604   3.755
13758TIP3    H141215   8.211   5.518   3.792
13758TIP3    H241216   8.151   5.627   3.706
13759TIP3   OH241217   1.408   2.743   4.131
13759TIP3    H141218   1.426   2.651   4.111
13759TIP3    H241219   1.324   2.761   4.088
13760TIP3   OH241220   2.823   5.796   5.232
13760TIP3    H141221   2.846   5.816   5.142
13760TIP3    H241222   2.736   5.757   5.227
13761TIP3   OH241223   5.827   0.804   3.945
13761TIP3    H141224   5.759   0.749   3.983
13761TIP3    H241225   5.812   0.799   3.850
13762TIP3   OH241226   0.284   7.482   4.161
13762TIP3    H141227   0.317   7.463   4.073
13762TIP3    H241228   0.238   7.402   4.187
13763TIP3   OH241229   6.294   3.529   6.262
13763TIP3    H141230   6.387   3.526   6.283
13763TIP3    H241231   6.249   3.512   6.345
13764TIP3   OH241232   1.082   3.599   5.156
13764TIP3    H141233   1.057   3.554   5.236
13764TIP3    H241234   1.026   3.676   5.153
13765TIP3   OH241235   6.063   1.734   2.673
13765TIP3    H141236   6.023   1.791   2.739
13765TIP3    H241237   6.016   1.756   2.592
13766TIP3   OH241238   0.884   7.341   5.116
13766TIP3    H141239   0.968   7.298   5.104
13766TIP3    H241240   0.880   7.360   5.210
13767TIP3   OH241241   6.337   7.865   4.655
13767TIP3    H141242   6.418   7.846   4.703
13767TIP3    H241243   6.290   7.927   4.711
13768TIP3   OH241244   3.836   6.683   1.042
13768TIP3    H141245   3.796   6.734   1.113
13768TIP3    H241246   3.785   6.602   1.040
13769TIP3   OH241247   4.366   6.048   5.304
13769TIP3    H141248   4.308   6.074   5.375
13769TIP3    H241249   4.309   6.003   5.242
13770TIP3   OH241250   3.227   4.798   5.174
13770TIP3    H141251   3.266   4.767   5.256
13770TIP3    H241252   3.132   4.786   5.187
13771TIP3   OH241253   0.704   3.781   6.242
13771TIP3    H141254   0.734   3.866   6.273
13771TIP3    H241255   0.701   3.727   6.321
13772TIP3   OH241256   3.646   3.805   0.323
13772TIP3    H141257   3.638   3.713   0.295
13772TIP3    H241258   3.740   3.822   0.323
13773TIP3   OH241259   0.649   5.314   2.729
13773TIP3    H141260   0.663   5.227   2.767
13773TIP3    H241261   0.600   5.362   2.796
13774TIP3   OH241262   2.716   7.644   5.213
13774TIP3    H141263   2.808   7.623   5.229
13774TIP3    H241264   2.668   7.597   5.280
13775TIP3   OH241265   0.652   5.367   0.231
13775TIP3    H141266   0.587   5.427   0.193
13775TIP3    H241267   0.735   5.395   0.194
13776TIP3   OH241268   0.077   5.585   5.763
13776TIP3    H141269   0.008   5.557   5.703
13776TIP3    H241270   0.035   5.648   5.821
13777TIP3   OH241271   0.268   2.680   1.182
13777TIP3    H141272   0.355   2.690   1.220
13777TIP3    H241273   0.280   2.700   1.089
13778TIP3   OH241274   4.110   5.297   6.784
13778TIP3    H141275   4.090   5.345   6.704
13778TIP3    H241276   4.074   5.351   6.854
13779TIP3   OH241277   1.882   0.220   2.204
13779TIP3    H141278   1.864   0.174   2.122
13779TIP3    H241279   1.970   0.192   2.229
13780TIP3   OH241280   8.328   2.491   2.053
13780TIP3    H141281   8.289   2.505   2.139
13780TIP3    H241282   8.253   2.476   1.995
13781TIP3   OH241283   6.811   5.954   1.158
13781TIP3    H141284   6.861   5.992   1.229
13781TIP3    H241285   6.875   5.940   1.088
13782TIP3   OH241286   1.526   2.247   0.369
13782TIP3    H141287   1.495   2.210   0.452
13782TIP3    H241288   1.552   2.171   0.317
13783TIP3   OH241289   0.396   1.504   6.551
13783TIP3    H141290   0.411   1.597   6.564
13783TIP3    H241291   0.421   1.488   6.460
13784TIP3   OH241292   7.905   7.036   6.762
13784TIP3    H141293   7.924   6.975   6.691
13784TIP3    H241294   7.966   7.012   6.832
13785TIP3   OH241295   4.799   6.257   2.579
13785TIP3    H141296   4.807   6.208   2.497
13785TIP3    H241297   4.729   6.212   2.627
13786TIP3   OH241298   7.192   1.019   5.250
13786TIP3    H141299   7.138   0.966   5.308
13786TIP3    H241300   7.170   0.987   5.162
13787TIP3   OH241301   4.648   5.741   4.267
13787TIP3    H141302   4.636   5.666   4.209
13787TIP3    H241303   4.724   5.787   4.231
13788TIP3   OH241304   2.494   5.541   4.256
13788TIP3    H141305   2.558   5.507   4.195
13788TIP3    H241306   2.520   5.633   4.269
13789TIP3   OH241307   1.786   0.251   3.245
13789TIP3    H141308   1.786   0.334   3.292
13789TIP3    H241309   1.872   0.213   3.263
13790TIP3   OH241310   2.922   1.858   6.044
13790TIP3    H141311   2.853   1.861   5.978
13790TIP3    H241312   2.948   1.949   6.058
13791TIP3   OH241313   4.369   5.349   1.553
13791TIP3    H141314   4.439   5.388   1.606
13791TIP3    H241315   4.406   5.267   1.521
13792TIP3   OH241316   1.788   0.565   5.711
13792TIP3    H141317   1.832   0.485   5.740
13792TIP3    H241318   1.850   0.635   5.732
13793TIP3   OH241319   1.265   6.400   2.430
13793TIP3    H141320   1.273   6.369   2.521
13793TIP3    H241321   1.350   6.441   2.411
13794TIP3   OH241322   5.121   6.933   3.596
13794TIP3    H141323   5.214   6.950   3.579
13794TIP3    H241324   5.117   6.917   3.690
13795TIP3   OH241325   2.603   7.898   0.775
13795TIP3    H141326   2.545   7.836   0.730
13795TIP3    H241327   2.544   7.953   0.826
13796TIP3   OH241328   0.214   5.542   4.450
13796TIP3    H141329   0.230   5.450   4.471
13796TIP3    H241330   0.125   5.543   4.414
13797TIP3   OH241331   3.477   2.665   6.595
13797TIP3    H141332   3.400   2.705   6.636
13797TIP3    H241333   3.441   2.599   6.536
13798TIP3   OH241334   5.942   3.198   4.372
13798TIP3    H141335   6.027   3.217   4.414
13798TIP3    H241336   5.880   3.253   4.420
13799TIP3   OH241337   8.303   4.963   1.164
13799TIP3    H141338   8.354   5.010   1.098
13799TIP3    H241339   8.274   4.884   1.120
13800TIP3   OH241340   0.308   4.895   4.768
13800TIP3    H141341   0.390   4.942   4.756
13800TIP3    H241342   0.333   4.803   4.778
13801TIP3   OH241343   8.271   3.381   1.825
13801TIP3    H141344   8.197   3.352   1.772
13801TIP3    H241345   8.337   3.408   1.761
13802TIP3   OH241346   4.341   1.358   3.213
13802TIP3    H141347   4.322   1.313   3.130
13802TIP3    H241348   4.429   1.327   3.236
13803TIP3   OH241349   4.407   2.548   6.213
13803TIP3    H141350   4.338   2.614   6.207
13803TIP3    H241351   4.362   2.464   6.217
13804TIP3   OH241352   4.225   5.935   3.684
13804TIP3    H141353   4.150   5.914   3.741
13804TIP3    H241354   4.291   5.969   3.744
13805TIP3   OH241355   0.167   3.970   1.541
13805TIP3    H141356   0.098   4.003   1.483
13805TIP3    H241357   0.227   4.044   1.552
13806TIP3   OH241358   5.131   4.791   5.933
13806TIP3    H141359   5.188   4.850   5.982
13806TIP3    H241360   5.190   4.721   5.903
13807TIP3   OH241361   0.798   1.999   2.639
13807TIP3    H141362   0.860   2.066   2.611
13807TIP3    H241363   0.716   2.046   2.654
13808TIP3   OH241364   2.661   5.186   0.906
13808TIP3    H141365   2.724   5.255   0.928
13808TIP3    H241366   2.646   5.197   0.812
13809TIP3   OH241367   4.016   3.269   3.685
13809TIP3    H141368   3.932   3.236   3.717
13809TIP3    H241369   3.995   3.307   3.599
13810TIP3   OH241370   5.349   4.487   2.894
13810TIP3    H141371   5.305   4.572   2.905
13810TIP3    H241372   5.284   4.423   2.924
13811TIP3   OH241373   6.784   1.574   3.522
13811TIP3    H141374   6.824   1.515   3.586
13811TIP3    H241375   6.834   1.559   3.442
13812TIP3   OH241376   6.235   7.175   2.220
13812TIP3    H141377   6.149   7.183   2.179
13812TIP3    H241378   6.280   7.257   2.198
13813TIP3   OH241379   7.138   0.678   0.362
13813TIP3    H141380   7.075   0.749   0.374
13813TIP3    H241381   7.211   0.699   0.421
13814TIP3   OH241382   5.773   7.399   3.570
13814TIP3    H141383   5.828   7.414   3.646
13814TIP3    H241384   5.714   7.475   3.568
13815TIP3   OH241385   6.566   4.780   2.918
13815TIP3    H141386   6.639   4.829   2.956
13815TIP3    H241387   6.567   4.696   2.963
13816TIP3   OH241388   3.161   6.662   4.338
13816TIP3    H141389   3.071   6.689   4.357
13816TIP3    H241390   3.209   6.745   4.327
13817TIP3   OH241391   3.711   1.000   1.390
13817TIP3    H141392   3.677   1.089   1.384
13817TIP3    H241393   3.731   0.987   1.483
13818TIP3   OH241394   7.950   4.881   0.085
13818TIP3    H141395   7.939   4.889  -0.010
13818TIP3    H241396   8.044   4.867   0.097
13819TIP3   OH241397   4.932   5.368   6.837
13819TIP3    H141398   4.907   5.450   6.795
13819TIP3    H241399   4.984   5.322   6.771
13820TIP3   OH241400   3.218   3.428   1.022
13820TIP3    H141401   3.314   3.421   1.017
13820TIP3    H241402   3.195   3.488   0.951
13821TIP3   OH241403   6.633   6.959   5.683
13821TIP3    H141404   6.690   7.035   5.696
13821TIP3    H241405   6.572   6.986   5.615
13822TIP3   OH241406   0.957   4.819   1.622
13822TIP3    H141407   0.896   4.745   1.619
13822TIP3    H241408   0.923   4.881   1.557
13823TIP3   OH241409   4.312   1.209   0.406
13823TIP3    H141410   4.389   1.259   0.434
13823TIP3    H241411   4.280   1.168   0.486
13824TIP3   OH241412   5.596   1.793   1.979
13824TIP3    H141413   5.631   1.751   2.058
13824TIP3    H241414   5.595   1.723   1.914
13825TIP3   OH241415   7.088   0.219   5.745
13825TIP3    H141416   7.019   0.241   5.682
13825TIP3    H241417   7.064   0.266   5.824
13826TIP3   OH241418   6.042   5.597   5.778
13826TIP3    H141419   5.959   5.581   5.733
13826TIP3    H241420   6.062   5.689   5.757
13827TIP3   OH241421   8.106   4.162   6.085
13827TIP3    H141422   8.124   4.105   6.010
13827TIP3    H241423   8.192   4.192   6.114
13828TIP3   OH241424   5.614   2.451   0.948
13828TIP3    H141425   5.655   2.462   1.034
13828TIP3    H241426   5.685   2.424   0.891
13829TIP3   OH241427   7.215   6.107   5.651
13829TIP3    H141428   7.304   6.071   5.653
13829TIP3    H241429   7.166   6.046   5.595
13830TIP3   OH241430   3.421   7.110   3.994
13830TIP3    H141431   3.492   7.067   3.946
13830TIP3    H241432   3.401   7.189   3.943
13831TIP3   OH241433   3.355   6.610   5.307
13831TIP3    H141434   3.397   6.670   5.245
13831TIP3    H241435   3.262   6.631   5.302
13832TIP3   OH241436   7.508   2.215   6.569
13832TIP3    H141437   7.578   2.156   6.599
13832TIP3    H241438   7.438   2.156   6.541
13833TIP3   OH241439   0.790   3.374   2.860
13833TIP3    H141440   0.701   3.386   2.892
13833TIP3    H241441   0.820   3.463   2.839
13834TIP3   OH241442   2.692   0.140   4.764
13834TIP3    H141443   2.667   0.113   4.853
13834TIP3    H241444   2.660   0.230   4.757
13835TIP3   OH241445   2.486   2.364   5.971
13835TIP3    H141446   2.453   2.276   5.954
13835TIP3    H241447   2.511   2.397   5.884
13836TIP3   OH241448   2.618   2.676   5.306
13836TIP3    H141449   2.676   2.752   5.306
13836TIP3    H241450   2.576   2.677   5.220
13837TIP3   OH241451   7.202   7.008   0.093
13837TIP3    H141452   7.151   6.930   0.072
13837TIP3    H241453   7.291   6.987   0.066
13838TIP3   OH241454   5.918   7.188   5.677
13838TIP3    H141455   5.933   7.255   5.610
13838TIP3    H241456   5.919   7.105   5.630
13839TIP3   OH241457   2.181   1.550   2.265
13839TIP3    H141458   2.200   1.577   2.175
13839TIP3    H241459   2.113   1.611   2.294
13840TIP3   OH241460   7.663   3.244   4.012
13840TIP3    H141461   7.572   3.247   3.982
13840TIP3    H241462   7.700   3.329   3.985
13841TIP3   OH241463   5.658   3.450   1.381
13841TIP3    H141464   5.682   3.490   1.465
13841TIP3    H241465   5.721   3.378   1.370
13842TIP3   OH241466   1.559   6.877   0.531
13842TIP3    H141467   1.521   6.823   0.600
13842TIP3    H241468   1.616   6.939   0.577
13843TIP3   OH241469   1.447   6.761   2.637
13843TIP3    H141470   1.454   6.795   2.726
13843TIP3    H241471   1.380   6.815   2.595
13844TIP3   OH241472   6.398   3.001   1.815
13844TIP3    H141473   6.441   2.969   1.736
13844TIP3    H241474   6.457   3.068   1.850
13845TIP3   OH241475   7.465   4.012   1.547
13845TIP3    H141476   7.497   4.090   1.501
13845TIP3    H241477   7.543   3.975   1.588
13846TIP3   OH241478   2.649   7.090   4.425
13846TIP3    H141479   2.626   7.177   4.392
13846TIP3    H241480   2.708   7.108   4.499
13847TIP3   OH241481   3.639   2.982   6.680
13847TIP3    H141482   3.688   2.940   6.610
13847TIP3    H241483   3.696   2.976   6.757
13848TIP3   OH241484   7.030   7.707   2.244
13848TIP3    H141485   6.943   7.733   2.273
13848TIP3    H241486   7.084   7.707   2.323
13849TIP3   OH241487   0.789   0.625   4.030
13849TIP3    H141488   0.820   0.552   4.084
13849TIP3    H241489   0.824   0.607   3.943
13850TIP3   OH241490   0.438   1.232   5.019
13850TIP3    H141491   0.384   1.222   4.940
13850TIP3    H241492   0.394   1.177   5.084
13851TIP3   OH241493   6.242   1.987   2.153
13851TIP3    H141494   6.245   1.933   2.232
13851TIP3    H241495   6.228   1.925   2.082
13852TIP3   OH241496   0.934   6.401   1.830
13852TIP3    H141497   0.969   6.483   1.865
13852TIP3    H241498   0.906   6.352   1.907
13853TIP3   OH241499   1.804   1.649   5.930
13853TIP3    H141500   1.781   1.599   5.852
13853TIP3    H241501   1.894   1.623   5.949
13854TIP3   OH241502   3.237   4.721   3.720
13854TIP3    H141503   3.325   4.694   3.748
13854TIP3    H241504   3.235   4.702   3.626
13855TIP3   OH241505   4.142   4.833   0.694
13855TIP3    H141506   4.108   4.910   0.647
13855TIP3    H241507   4.106   4.840   0.782
13856TIP3   OH241508   0.396   3.401   6.777
13856TIP3    H141509   0.396   3.309   6.750
13856TIP3    H241510   0.374   3.399   6.870
13857TIP3   OH241511   2.540   3.905   6.808
13857TIP3    H141512   2.520   3.887   6.716
13857TIP3    H241513   2.594   3.984   6.805
13858TIP3   OH241514   4.191   6.535   1.875
13858TIP3    H141515   4.113   6.586   1.853
13858TIP3    H241516   4.234   6.520   1.791
13859TIP3   OH241517   0.687   0.940   6.668
13859TIP3    H141518   0.776   0.910   6.652
13859TIP3    H241519   0.685   0.962   6.761
13860TIP3   OH241520   6.706   2.349   0.077
13860TIP3    H141521   6.800   2.344   0.059
13860TIP3    H241522   6.665   2.334  -0.008
13861TIP3   OH241523   5.525   7.483   3.375
13861TIP3    H141524   5.601   7.426   3.362
13861TIP3    H241525   5.542   7.558   3.317
13862TIP3   OH241526   1.985   0.653   2.453
13862TIP3    H141527   1.955   0.717   2.518
13862TIP3    H241528   1.904   0.618   2.416
13863TIP3   OH241529   0.885   1.559   5.265
13863TIP3    H141530   0.849   1.471   5.272
13863TIP3    H241531   0.809   1.615   5.250
13864TIP3   OH241532   5.800   4.053   0.304
13864TIP3    H141533   5.750   3.987   0.353
13864TIP3    H241534   5.866   4.084   0.366
13865TIP3   OH241535   7.448   3.157   2.457
13865TIP3    H141536   7.492   3.121   2.381
13865TIP3    H241537   7.379   3.094   2.478
13866TIP3   OH241538   7.184   2.153   2.788
13866TIP3    H141539   7.277   2.132   2.786
13866TIP3    H241540   7.154   2.141   2.698
13867TIP3   OH241541   2.526   3.358   6.246
13867TIP3    H141542   2.474   3.368   6.326
13867TIP3    H241543   2.605   3.408   6.263
13868TIP3   OH241544   6.972   3.647   3.643
13868TIP3    H141545   6.965   3.724   3.700
13868TIP3    H241546   6.963   3.572   3.703
13869TIP3   OH241547   4.114   6.344   3.805
13869TIP3    H141548   4.148   6.275   3.863
13869TIP3    H241549   4.191   6.373   3.756
13870TIP3   OH241550   3.212   1.872   1.551
13870TIP3    H141551   3.267   1.811   1.600
13870TIP3    H241552   3.159   1.817   1.494
13871TIP3   OH241553   2.877   2.764   6.128
13871TIP3    H141554   2.855   2.755   6.221
13871TIP3    H241555   2.823   2.698   6.085
13872TIP3   OH241556   4.034   5.261   5.690
13872TIP3    H141557   4.099   5.292   5.753
13872TIP3    H241558   3.953   5.306   5.715
13873TIP3   OH241559   6.113   4.994   3.240
13873TIP3    H141560   6.112   4.984   3.145
13873TIP3    H241561   6.092   5.086   3.255
13874TIP3   OH241562   7.680   3.378   3.613
13874TIP3    H141563   7.701   3.393   3.706
13874TIP3    H241564   7.592   3.341   3.614
13875TIP3   OH241565   5.312   1.649   1.040
13875TIP3    H141566   5.386   1.710   1.050
13875TIP3    H241567   5.283   1.663   0.950
13876TIP3   OH241568   6.096   2.861   6.686
13876TIP3    H141569   6.110   2.778   6.640
13876TIP3    H241570   6.184   2.896   6.701
13877TIP3   OH241571   7.236   1.712   3.502
13877TIP3    H141572   7.178   1.743   3.571
13877TIP3    H241573   7.266   1.627   3.532
13878TIP3   OH241574   2.316   3.647   3.896
13878TIP3    H141575   2.331   3.579   3.962
13878TIP3    H241576   2.400   3.693   3.891
13879TIP3   OH241577   3.921   5.596   5.612
13879TIP3    H141578   4.007   5.621   5.647
13879TIP3    H241579   3.861   5.610   5.685
13880TIP3   OH241580   7.372   2.356   5.302
13880TIP3    H141581   7.349   2.413   5.375
13880TIP3    H241582   7.316   2.279   5.313
13881TIP3   OH241583   3.137   3.032   4.400
13881TIP3    H141584   3.158   3.007   4.311
13881TIP3    H241585   3.087   2.958   4.435
13882TIP3   OH241586   7.869   4.692   1.797
13882TIP3    H141587   7.954   4.688   1.754
13882TIP3    H241588   7.877   4.631   1.871
13883TIP3   OH241589   3.998   5.116   4.687
13883TIP3    H141590   4.074   5.065   4.659
13883TIP3    H241591   3.975   5.079   4.773
13884TIP3   OH241592   5.232   0.480   4.090
13884TIP3    H141593   5.327   0.478   4.090
13884TIP3    H241594   5.205   0.388   4.087
13885TIP3   OH241595   0.256   3.103   2.354
13885TIP3    H141596   0.259   3.023   2.301
13885TIP3    H241597   0.201   3.163   2.304
13886TIP3   OH241598   1.488   4.465   5.024
13886TIP3    H141599   1.468   4.372   5.032
13886TIP3    H241600   1.584   4.469   5.030
13887TIP3   OH241601   1.589   3.399   2.172
13887TIP3    H141602   1.660   3.334   2.167
13887TIP3    H241603   1.560   3.395   2.263
13888TIP3   OH241604   3.486   0.336   4.327
13888TIP3    H141605   3.427   0.297   4.262
13888TIP3    H241606   3.469   0.430   4.321
13889TIP3   OH241607   7.352   5.248   1.339
13889TIP3    H141608   7.332   5.341   1.352
13889TIP3    H241609   7.405   5.247   1.259
13890TIP3   OH241610   6.438   7.396   3.268
13890TIP3    H141611   6.408   7.367   3.182
13890TIP3    H241612   6.504   7.463   3.249
13891TIP3   OH241613   7.484   4.222   6.415
13891TIP3    H141614   7.432   4.143   6.400
13891TIP3    H241615   7.425   4.281   6.463
13892TIP3   OH241616   0.246   2.932   6.478
13892TIP3    H141617   0.296   2.863   6.523
13892TIP3    H241618   0.157   2.922   6.512
13893TIP3   OH241619   7.659   6.390   6.466
13893TIP3    H141620   7.591   6.329   6.440
13893TIP3    H241621   7.633   6.420   6.553
13894TIP3   OH241622   2.450   7.275   5.529
13894TIP3    H141623   2.422   7.365   5.514
13894TIP3    H241624   2.509   7.256   5.456
13895TIP3   OH241625   6.115   4.504   6.802
13895TIP3    H141626   6.049   4.495   6.872
13895TIP3    H241627   6.100   4.427   6.746
13896TIP3   OH241628   7.646   4.922   5.902
13896TIP3    H141629   7.555   4.893   5.910
13896TIP3    H241630   7.689   4.888   5.981
13897TIP3   OH241631   2.541   2.108   3.472
13897TIP3    H141632   2.632   2.096   3.498
13897TIP3    H241633   2.547   2.160   3.391
13898TIP3   OH241634   5.732   3.605   3.618
13898TIP3    H141635   5.751   3.530   3.562
13898TIP3    H241636   5.775   3.679   3.576
13899TIP3   OH241637   0.774   7.323   5.638
13899TIP3    H141638   0.827   7.284   5.708
13899TIP3    H241639   0.815   7.294   5.557
13900TIP3   OH241640   5.632   1.597   1.698
13900TIP3    H141641   5.609   1.651   1.622
13900TIP3    H241642   5.594   1.512   1.680
13901TIP3   OH241643   0.017   3.880   6.307
13901TIP3    H141644   0.038   3.799   6.353
13901TIP3    H241645   0.053   3.868   6.219
13902TIP3   OH241646   7.423   4.347   2.497
13902TIP3    H141647   7.349   4.405   2.511
13902TIP3    H241648   7.438   4.305   2.582
13903TIP3   OH241649   0.377   3.222   0.108
13903TIP3    H141650   0.427   3.173   0.043
13903TIP3    H241651   0.404   3.186   0.192
13904TIP3   OH241652   7.870   3.395   0.793
13904TIP3    H141653   7.861   3.303   0.819
13904TIP3    H241654   7.813   3.404   0.717
13905TIP3   OH241655   2.308   7.372   1.747
13905TIP3    H141656   2.215   7.382   1.725
13905TIP3    H241657   2.310   7.370   1.843
13906TIP3   OH241658   7.038   5.046   1.483
13906TIP3    H141659   6.994   5.059   1.567
13906TIP3    H241660   7.130   5.032   1.506
13907TIP3   OH241661   7.782   3.004   1.507
13907TIP3    H141662   7.712   2.974   1.449
13907TIP3    H241663   7.849   2.936   1.499
13908TIP3   OH241664   1.759   2.113   6.131
13908TIP3    H141665   1.742   2.142   6.221
13908TIP3    H241666   1.723   2.183   6.076
13909TIP3   OH241667   4.351   6.435   3.698
13909TIP3    H141668   4.313   6.518   3.667
13909TIP3    H241669   4.403   6.460   3.774
13910TIP3   OH241670   0.317   0.237   1.115
13910TIP3    H141671   0.332   0.142   1.112
13910TIP3    H241672   0.332   0.261   1.206
13911TIP3   OH241673   7.364   6.585   2.359
13911TIP3    H141674   7.444   6.547   2.322
13911TIP3    H241675   7.394   6.632   2.437
13912TIP3   OH241676   0.923   5.749   4.510
13912TIP3    H141677   0.939   5.670   4.458
13912TIP3    H241678   0.839   5.782   4.477
13913TIP3   OH241679   4.346   2.139   1.890
13913TIP3    H141680   4.289   2.206   1.926
13913TIP3    H241681   4.338   2.149   1.795
13914TIP3   OH241682   1.727   1.058   1.428
13914TIP3    H141683   1.643   1.022   1.456
13914TIP3    H241684   1.728   1.147   1.464
13915TIP3   OH241685   5.443   2.729   4.358
13915TIP3    H141686   5.473   2.804   4.306
13915TIP3    H241687   5.421   2.766   4.443
13916TIP3   OH241688   2.945   1.147   6.245
13916TIP3    H141689   2.976   1.232   6.215
13916TIP3    H241690   2.850   1.152   6.238
13917TIP3   OH241691   0.228   5.261   5.260
13917TIP3    H141692   0.197   5.200   5.193
13917TIP3    H241693   0.291   5.210   5.312
13918TIP3   OH241694   0.511   0.411   4.252
13918TIP3    H141695   0.431   0.432   4.300
13918TIP3    H241696   0.572   0.382   4.319
13919TIP3   OH241697   5.973   0.724   0.048
13919TIP3    H141698   5.918   0.686   0.116
13919TIP3    H241699   5.951   0.817   0.048
13920TIP3   OH241700   5.133   0.300   1.420
13920TIP3    H141701   5.082   0.224   1.391
13920TIP3    H241702   5.115   0.306   1.514
13921TIP3   OH241703   0.469   0.202   2.785
13921TIP3    H141704   0.459   0.143   2.710
13921TIP3    H241705   0.552   0.175   2.825
13922TIP3   OH241706   0.963   1.432   3.924
13922TIP3    H141707   0.943   1.518   3.886
13922TIP3    H241708   1.018   1.451   3.999
13923TIP3   OH241709   2.579   3.862   4.441
13923TIP3    H141710   2.537   3.821   4.516
13923TIP3    H241711   2.516   3.929   4.412
13924TIP3   OH241712   4.423   7.160   2.181
13924TIP3    H141713   4.414   7.099   2.254
13924TIP3    H241714   4.416   7.246   2.221
13925TIP3   OH241715   6.591   3.554   1.642
13925TIP3    H141716   6.564   3.616   1.576
13925TIP3    H241717   6.536   3.574   1.718
13926TIP3   OH241718   6.472   2.365   5.754
13926TIP3    H141719   6.507   2.276   5.761
13926TIP3    H241720   6.526   2.406   5.686
13927TIP3   OH241721   4.385   6.645   1.659
13927TIP3    H141722   4.408   6.682   1.744
13927TIP3    H241723   4.463   6.595   1.632
13928TIP3   OH241724   5.522   0.561   1.500
13928TIP3    H141725   5.502   0.569   1.593
13928TIP3    H241726   5.599   0.617   1.487
13929TIP3   OH241727   7.384   6.696   2.599
13929TIP3    H141728   7.341   6.615   2.628
13929TIP3    H241729   7.316   6.762   2.605
13930TIP3   OH241730   5.580   7.205   0.527
13930TIP3    H141731   5.512   7.142   0.507
13930TIP3    H241732   5.601   7.245   0.442
13931TIP3   OH241733   7.563   2.619   0.600
13931TIP3    H141734   7.480   2.624   0.552
13931TIP3    H241735   7.549   2.550   0.664
13932TIP3   OH241736   2.602   2.843   5.917
13932TIP3    H141737   2.636   2.769   5.967
13932TIP3    H241738   2.507   2.832   5.921
13933TIP3   OH241739   3.193   4.768   5.462
13933TIP3    H141740   3.268   4.763   5.521
13933TIP3    H241741   3.143   4.689   5.480
13934TIP3   OH241742   0.052   1.679   1.198
13934TIP3    H141743   0.100   1.716   1.272
13934TIP3    H241744  -0.029   1.644   1.237
13935TIP3   OH241745   4.720   6.545   3.067
13935TIP3    H141746   4.765   6.595   3.135
13935TIP3    H241747   4.791   6.499   3.021
13936TIP3   OH241748   3.192   4.009   0.526
13936TIP3    H141749   3.213   4.036   0.615
13936TIP3    H241750   3.277   3.997   0.484
13937TIP3   OH241751   7.463   7.332   5.376
13937TIP3    H141752   7.450   7.306   5.285
13937TIP3    H241753   7.471   7.250   5.424
13938TIP3   OH241754   8.270   3.612   0.571
13938TIP3    H141755   8.190   3.560   0.569
13938TIP3    H241756   8.332   3.559   0.622
13939TIP3   OH241757   5.583   1.912   1.257
13939TIP3    H141758   5.672   1.898   1.222
13939TIP3    H241759   5.569   2.006   1.247
13940TIP3   OH241760   6.426   2.121   1.212
13940TIP3    H141761   6.492   2.052   1.220
13940TIP3    H241762   6.431   2.169   1.294
13941TIP3   OH241763   4.787   2.261   3.184
13941TIP3    H141764   4.824   2.312   3.256
13941TIP3    H241765   4.817   2.305   3.104
13942TIP3   OH241766   1.926   0.701   4.250
13942TIP3    H141767   1.890   0.613   4.259
13942TIP3    H241768   1.884   0.752   4.319
13943TIP3   OH241769   0.570   3.005   1.781
13943TIP3    H141770   0.609   3.069   1.722
13943TIP3    H241771   0.612   2.922   1.758
13944TIP3   OH241772   5.943   2.234   0.618
13944TIP3    H141773   6.032   2.260   0.642
13944TIP3    H241774   5.907   2.310   0.572
13945TIP3   OH241775   6.051   4.026   3.716
13945TIP3    H141776   6.119   3.967   3.750
13945TIP3    H241777   5.974   4.007   3.769
13946TIP3   OH241778   5.023   0.471   5.335
13946TIP3    H141779   5.086   0.400   5.328
13946TIP3    H241780   5.062   0.531   5.399
13947TIP3   OH241781   4.615   5.868   0.614
13947TIP3    H141782   4.573   5.949   0.585
13947TIP3    H241783   4.544   5.804   0.614
13948TIP3   OH241784   3.319   4.093   1.238
13948TIP3    H141785   3.314   4.064   1.329
13948TIP3    H241786   3.240   4.058   1.196
13949TIP3   OH241787   7.180   5.293   4.737
13949TIP3    H141788   7.217   5.212   4.700
13949TIP3    H241789   7.230   5.363   4.696
13950TIP3   OH241790   3.863   6.763   3.034
13950TIP3    H141791   3.878   6.779   3.127
13950TIP3    H241792   3.775   6.797   3.017
13951TIP3   OH241793   7.254   3.323   3.043
13951TIP3    H141794   7.215   3.294   3.126
13951TIP3    H241795   7.317   3.255   3.021
13952TIP3   OH241796   3.390   2.010   2.090
13952TIP3    H141797   3.401   1.917   2.108
13952TIP3    H241798   3.324   2.014   2.021
13953TIP3   OH241799   8.178   0.709   5.745
13953TIP3    H141800   8.117   0.773   5.782
13953TIP3    H241801   8.174   0.726   5.650
13954TIP3   OH241802   2.132   0.275   0.301
13954TIP3    H141803   2.055   0.332   0.291
13954TIP3    H241804   2.202   0.321   0.255
13955TIP3   OH241805   6.607   4.871   4.168
13955TIP3    H141806   6.632   4.964   4.168
13955TIP3    H241807   6.588   4.852   4.076
13956TIP3   OH241808   1.373   2.811   5.420
13956TIP3    H141809   1.384   2.807   5.325
13956TIP3    H241810   1.341   2.724   5.444
13957TIP3   OH241811   7.399   2.734   2.437
13957TIP3    H141812   7.477   2.727   2.491
13957TIP3    H241813   7.360   2.818   2.460
13958TIP3   OH241814   4.512   2.116   5.413
13958TIP3    H141815   4.606   2.135   5.402
13958TIP3    H241816   4.475   2.198   5.446
13959TIP3   OH241817   2.093   3.851   5.190
13959TIP3    H141818   2.138   3.807   5.262
13959TIP3    H241819   2.066   3.781   5.131
13960TIP3   OH241820   7.943   4.081   6.772
13960TIP3    H141821   7.993   4.160   6.750
13960TIP3    H241822   7.852   4.103   6.752
13961TIP3   OH241823   0.956   4.931   3.799
13961TIP3    H141824   0.976   5.020   3.828
13961TIP3    H241825   0.864   4.934   3.772
13962TIP3   OH241826   0.936   4.921   1.885
13962TIP3    H141827   0.969   4.885   1.803
13962TIP3    H241828   0.863   4.977   1.859
13963TIP3   OH241829   1.287   5.980   3.848
13963TIP3    H141830   1.285   6.076   3.854
13963TIP3    H241831   1.360   5.954   3.904
13964TIP3   OH241832   8.000   6.798   2.169
13964TIP3    H141833   7.927   6.752   2.127
13964TIP3    H241834   7.958   6.862   2.226
13965TIP3   OH241835   7.371   3.332   1.971
13965TIP3    H141836   7.399   3.246   1.940
13965TIP3    H241837   7.437   3.358   2.035
13966TIP3   OH241838   1.422   2.038   2.045
13966TIP3    H141839   1.469   2.117   2.072
13966TIP3    H241840   1.452   1.970   2.104
13967TIP3   OH241841   6.342   1.591   4.968
13967TIP3    H141842   6.422   1.564   4.923
13967TIP3    H241843   6.335   1.530   5.041
13968TIP3   OH241844   6.088   0.645   5.097
13968TIP3    H141845   5.994   0.653   5.115
13968TIP3    H241846   6.122   0.734   5.106
13969TIP3   OH241847   7.842   6.046   4.591
13969TIP3    H141848   7.802   6.129   4.564
13969TIP3    H241849   7.936   6.064   4.593
13970TIP3   OH241850   1.159   1.406   2.210
13970TIP3    H141851   1.139   1.492   2.247
13970TIP3    H241852   1.074   1.364   2.200
13971TIP3   OH241853   6.644   4.513   2.955
13971TIP3    H141854   6.624   4.424   2.926
13971TIP3    H241855   6.614   4.516   3.045
13972TIP3   OH241856   1.609   2.052   4.195
13972TIP3    H141857   1.569   1.973   4.233
13972TIP3    H241858   1.605   2.037   4.100
13973TIP3   OH241859   0.827   7.565   4.253
13973TIP3    H141860   0.811   7.578   4.346
13973TIP3    H241861   0.798   7.646   4.211
13974TIP3   OH241862   6.169   6.415   0.761
13974TIP3    H141863   6.095   6.416   0.822
13974TIP3    H241864   6.179   6.324   0.736
13975TIP3   OH241865   2.009   1.994   2.363
13975TIP3    H141866   1.990   2.044   2.283
13975TIP3    H241867   2.072   2.048   2.410
13976TIP3   OH241868   5.284   6.651   3.355
13976TIP3    H141869   5.290   6.556   3.343
13976TIP3    H241870   5.196   6.664   3.391
13977TIP3   OH241871   4.020   0.804   3.307
13977TIP3    H141872   3.995   0.889   3.271
13977TIP3    H241873   4.018   0.816   3.402
13978TIP3   OH241874   8.259   6.928   0.942
13978TIP3    H141875   8.218   6.933   0.855
13978TIP3    H241876   8.207   6.863   0.989
13979TIP3   OH241877   0.325   2.679   0.865
13979TIP3    H141878   0.290   2.660   0.778
13979TIP3    H241879   0.409   2.721   0.849
13980TIP3   OH241880   2.726   7.040   2.451
13980TIP3    H141881   2.732   6.968   2.389
13980TIP3    H241882   2.655   7.094   2.418
13981TIP3   OH241883   3.514   1.749   2.850
13981TIP3    H141884   3.515   1.798   2.933
13981TIP3    H241885   3.436   1.782   2.805
13982TIP3   OH241886   6.107   7.365   1.611
13982TIP3    H141887   6.141   7.453   1.596
13982TIP3    H241888   6.166   7.326   1.675
13983TIP3   OH241889   3.521   0.146   1.850
13983TIP3    H141890   3.569   0.229   1.846
13983TIP3    H241891   3.430   0.172   1.835
13984TIP3   OH241892   8.332   5.914   4.017
13984TIP3    H141893   8.417   5.957   4.007
13984TIP3    H241894   8.320   5.908   4.112
13985TIP3   OH241895   0.394   7.485   4.408
13985TIP3    H141896   0.376   7.391   4.408
13985TIP3    H241897   0.385   7.512   4.316
13986TIP3   OH241898   1.554   3.465   0.068
13986TIP3    H141899   1.549   3.518  -0.012
13986TIP3    H241900   1.475   3.488   0.117
13987TIP3   OH241901   3.755   5.538   4.459
13987TIP3    H141902   3.846   5.545   4.430
13987TIP3    H241903   3.738   5.444   4.465
13988TIP3   OH241904   4.561   0.741   4.945
13988TIP3    H141905   4.494   0.701   4.889
13988TIP3    H241906   4.555   0.693   5.028
13989TIP3   OH241907   3.424   5.419   1.532
13989TIP3    H141908   3.377   5.380   1.606
13989TIP3    H241909   3.370   5.495   1.507
13990TIP3   OH241910   4.627   7.616   4.459
13990TIP3    H141911   4.635   7.550   4.529
13990TIP3    H241912   4.661   7.572   4.381
13991TIP3   OH241913   7.496   5.321   6.327
13991TIP3    H141914   7.515   5.229   6.348
13991TIP3    H241915   7.415   5.317   6.276
13992TIP3   OH241916   6.132   7.795   0.630
13992TIP3    H141917   6.164   7.795   0.720
13992TIP3    H241918   6.168   7.875   0.592
13993TIP3   OH241919   2.548   5.169   3.051
13993TIP3    H141920   2.588   5.244   3.095
13993TIP3    H241921   2.614   5.140   2.988
13994TIP3   OH241922   3.463   6.546   3.190
13994TIP3    H141923   3.507   6.623   3.225
13994TIP3    H241924   3.486   6.546   3.097
13995TIP3   OH241925   7.828   2.180   5.813
13995TIP3    H141926   7.763   2.249   5.803
13995TIP3    H241927   7.777   2.100   5.829
13996TIP3   OH241928   6.455   6.125   4.333
13996TIP3    H141929   6.427   6.194   4.394
13996TIP3    H241930   6.540   6.154   4.302
13997TIP3   OH241931   4.303   4.236   1.324
13997TIP3    H141932   4.390   4.226   1.285
13997TIP3    H241933   4.314   4.306   1.389
13998TIP3   OH241934   0.282   7.442   4.972
13998TIP3    H141935   0.355   7.452   5.033
13998TIP3    H241936   0.257   7.531   4.948
13999TIP3   OH241937   3.794   3.369   2.185
13999TIP3    H141938   3.872   3.314   2.174
13999TIP3    H241939   3.797   3.396   2.277
14000TIP3   OH241940   6.464   7.381   0.854
14000TIP3    H141941   6.371   7.369   0.839
14000TIP3    H241942   6.507   7.333   0.783
14001TIP3   OH241943   0.198   5.420   3.173
14001TIP3    H141944   0.260   5.434   3.244
14001TIP3    H241945   0.246   5.369   3.108
14002TIP3   OH241946   7.617   4.900   5.527
14002TIP3    H141947   7.691   4.911   5.586
14002TIP3    H241948   7.656   4.888   5.441
14003TIP3   OH241949   7.450   4.723   1.171
14003TIP3    H141950   7.424   4.662   1.102
14003TIP3    H241951   7.387   4.795   1.165
14004TIP3   OH241952   8.093   0.143   2.057
14004TIP3    H141953   8.027   0.132   1.988
14004TIP3    H241954   8.108   0.238   2.060
14005TIP3   OH241955   7.369   3.033   4.654
14005TIP3    H141956   7.447   2.996   4.694
14005TIP3    H241957   7.313   2.957   4.634
14006TIP3   OH241958   0.808   5.860   5.787
14006TIP3    H141959   0.755   5.792   5.746
14006TIP3    H241960   0.749   5.935   5.794
14007TIP3   OH241961   2.671   1.280   3.384
14007TIP3    H141962   2.718   1.276   3.301
14007TIP3    H241963   2.612   1.204   3.382
14008TIP3   OH241964   3.694   0.245   3.667
14008TIP3    H141965   3.649   0.200   3.596
14008TIP3    H241966   3.625   0.289   3.716
14009TIP3   OH241967   5.525   2.225   5.465
14009TIP3    H141968   5.455   2.250   5.405
14009TIP3    H241969   5.605   2.231   5.412
14010TIP3   OH241970   2.238   4.100   4.576
14010TIP3    H141971   2.157   4.061   4.541
14010TIP3    H241972   2.209   4.180   4.619
14011TIP3   OH241973   2.984   2.040   3.063
14011TIP3    H141974   3.000   1.954   3.100
14011TIP3    H241975   2.999   2.029   2.969
14012TIP3   OH241976   7.368   0.464   4.547
14012TIP3    H141977   7.305   0.398   4.517
14012TIP3    H241978   7.412   0.424   4.622
14013TIP3   OH241979   0.325   7.055   3.334
14013TIP3    H141980   0.341   7.149   3.326
14013TIP3    H241981   0.237   7.049   3.370
14014TIP3   OH241982   3.067   3.463   2.066
14014TIP3    H141983   3.023   3.398   2.010
14014TIP3    H241984   3.104   3.526   2.005
14015TIP3   OH241985   6.435   6.704   0.561
14015TIP3    H141986   6.402   6.620   0.592
14015TIP3    H241987   6.428   6.699   0.465
14016TIP3   OH241988   0.191   3.096   4.996
14016TIP3    H141989   0.250   3.020   4.994
14016TIP3    H241990   0.189   3.122   5.088
14017TIP3   OH241991   6.502   3.873   6.320
14017TIP3    H141992   6.552   3.791   6.322
14017TIP3    H241993   6.445   3.864   6.243
14018TIP3   OH241994   0.025   0.439   1.394
14018TIP3    H141995  -0.050   0.380   1.404
14018TIP3    H241996   0.099   0.391   1.432
14019TIP3   OH241997   1.555   1.246   6.347
14019TIP3    H141998   1.553   1.151   6.363
14019TIP3    H241999   1.519   1.256   6.259
14020TIP3   OH242000   3.528   7.683   3.834
14020TIP3    H142001   3.480   7.764   3.852
14020TIP3    H242002   3.603   7.686   3.894
14021TIP3   OH242003   3.792   7.633   1.248
14021TIP3    H142004   3.759   7.708   1.297
14021TIP3    H242005   3.866   7.602   1.298
14022TIP3   OH242006   5.364   1.753   0.148
14022TIP3    H142007   5.368   1.676   0.091
14022TIP3    H242008   5.387   1.720   0.234
14023TIP3   OH242009   3.179   7.873   5.641
14023TIP3    H142010   3.159   7.910   5.554
14023TIP3    H242011   3.149   7.782   5.635
14024TIP3   OH242012   7.622   6.881   4.070
14024TIP3    H142013   7.547   6.862   4.127
14024TIP3    H242014   7.692   6.825   4.104
14025TIP3   OH242015   2.457   6.631   2.510
14025TIP3    H142016   2.468   6.582   2.429
14025TIP3    H242017   2.417   6.569   2.571
14026TIP3   OH242018   7.170   7.421   5.533
14026TIP3    H142019   7.167   7.349   5.469
14026TIP3    H242020   7.166   7.377   5.618
14027TIP3   OH242021   7.851   6.959   0.424
14027TIP3    H142022   7.767   7.005   0.426
14027TIP3    H242023   7.827   6.866   0.425
14028TIP3   OH242024   8.200   4.397   5.110
14028TIP3    H142025   8.167   4.472   5.160
14028TIP3    H242026   8.239   4.436   5.032
14029TIP3   OH242027   0.767   0.964   3.694
14029TIP3    H142028   0.787   0.998   3.781
14029TIP3    H242029   0.671   0.957   3.693
14030TIP3   OH242030   3.388   0.855   2.154
14030TIP3    H142031   3.468   0.880   2.108
14030TIP3    H242032   3.373   0.926   2.216
14031TIP3   OH242033   0.411   7.747   3.954
14031TIP3    H142034   0.346   7.772   3.889
14031TIP3    H242035   0.405   7.651   3.959
14032TIP3   OH242036   1.871   6.284   3.714
14032TIP3    H142037   1.793   6.267   3.766
14032TIP3    H242038   1.943   6.281   3.777
14033TIP3   OH242039   3.324   6.123   4.924
14033TIP3    H142040   3.235   6.090   4.909
14033TIP3    H242041   3.380   6.056   4.885
14034TIP3   OH242042   0.513   6.460   6.479
14034TIP3    H142043   0.520   6.533   6.541
14034TIP3    H242044   0.425   6.467   6.443
14035TIP3   OH242045   5.745   3.984   4.465
14035TIP3    H142046   5.830   4.001   4.506
14035TIP3    H242047   5.685   3.975   4.539
14036TIP3   OH242048   8.295   0.564   3.740
14036TIP3    H142049   8.347   0.629   3.693
14036TIP3    H242050   8.240   0.615   3.799
14037TIP3   OH242051   3.447   5.081   5.473
14037TIP3    H142052   3.370   5.137   5.480
14037TIP3    H242053   3.454   5.060   5.380
14038TIP3   OH242054   7.406   1.807   1.731
14038TIP3    H142055   7.477   1.749   1.761
14038TIP3    H242056   7.433   1.832   1.643
14039TIP3   OH242057   6.504   6.385   6.031
14039TIP3    H142058   6.520   6.294   6.056
14039TIP3    H242059   6.591   6.425   6.028
14040TIP3   OH242060   7.873   4.150   3.709
14040TIP3    H142061   7.966   4.132   3.703
14040TIP3    H242062   7.831   4.065   3.692
14041TIP3   OH242063   5.156   6.297   2.131
14041TIP3    H142064   5.113   6.369   2.084
14041TIP3    H242065   5.172   6.332   2.219
14042TIP3   OH242066   1.297   5.154   4.654
14042TIP3    H142067   1.289   5.223   4.720
14042TIP3    H242068   1.227   5.092   4.675
14043TIP3   OH242069   7.488   2.426   1.389
14043TIP3    H142070   7.550   2.354   1.377
14043TIP3    H242071   7.533   2.503   1.354
14044TIP3   OH242072   6.776   3.144   6.079
14044TIP3    H142073   6.699   3.097   6.111
14044TIP3    H242074   6.830   3.157   6.157
14045TIP3   OH242075   3.419   5.390   2.714
14045TIP3    H142076   3.350   5.456   2.708
14045TIP3    H242077   3.446   5.391   2.806
14046TIP3   OH242078   0.823   1.882   2.211
14046TIP3    H142079   0.739   1.867   2.254
14046TIP3    H242080   0.867   1.797   2.213
14047TIP3   OH242081   7.995   1.152   0.639
14047TIP3    H142082   8.079   1.178   0.677
14047TIP3    H242083   8.011   1.153   0.544
14048TIP3   OH242084   0.324   6.337   2.208
14048TIP3    H142085   0.400   6.379   2.248
14048TIP3    H242086   0.342   6.339   2.114
14049TIP3   OH242087   2.839   5.407   1.892
14049TIP3    H142088   2.827   5.360   1.974
14049TIP3    H242089   2.870   5.341   1.830
14050TIP3   OH242090   6.304   1.873   4.823
14050TIP3    H142091   6.315   1.935   4.751
14050TIP3    H242092   6.349   1.794   4.793
14051TIP3   OH242093   2.799   4.810   0.485
14051TIP3    H142094   2.869   4.810   0.551
14051TIP3    H242095   2.844   4.797   0.402
14052TIP3   OH242096   6.621   0.326   2.958
14052TIP3    H142097   6.583   0.277   2.885
14052TIP3    H242098   6.553   0.329   3.024
14053TIP3   OH242099   0.440   6.089   2.033
14053TIP3    H142100   0.504   6.111   2.100
14053TIP3    H242101   0.440   6.164   1.974
14054TIP3   OH242102   3.069   7.620   2.898
14054TIP3    H142103   3.030   7.690   2.951
14054TIP3    H242104   3.161   7.619   2.924
14055TIP3   OH242105   6.801   4.266   0.782
14055TIP3    H142106   6.834   4.189   0.827
14055TIP3    H242107   6.880   4.315   0.757
14056TIP3   OH242108   5.266   6.750   5.640
14056TIP3    H142109   5.186   6.769   5.592
14056TIP3    H242110   5.310   6.834   5.647
14057TIP3   OH242111   5.569   2.408   6.369
14057TIP3    H142112   5.546   2.415   6.276
14057TIP3    H242113   5.486   2.387   6.412
14058TIP3   OH242114   6.481   4.987   2.653
14058TIP3    H142115   6.431   4.907   2.671
14058TIP3    H242116   6.568   4.968   2.686
14059TIP3   OH242117   7.609   7.901   1.884
14059TIP3    H142118   7.681   7.841   1.864
14059TIP3    H242119   7.569   7.920   1.799
14060TIP3   OH242120   2.821   0.569   4.782
14060TIP3    H142121   2.797   0.476   4.782
14060TIP3    H242122   2.742   0.613   4.751
14061TIP3   OH242123   3.269   5.152   5.995
14061TIP3    H142124   3.255   5.239   5.959
14061TIP3    H242125   3.282   5.096   5.918
14062TIP3   OH242126   4.516   5.828   2.884
14062TIP3    H142127   4.557   5.801   2.967
14062TIP3    H242128   4.452   5.894   2.910
14063TIP3   OH242129   2.910   7.473   2.402
14063TIP3    H142130   2.934   7.564   2.381
14063TIP3    H242131   2.901   7.472   2.497
14064TIP3   OH242132   0.568   0.264   2.501
14064TIP3    H142133   0.551   0.302   2.587
14064TIP3    H242134   0.511   0.314   2.442
14065TIP3   OH242135   4.783   6.193   0.190
14065TIP3    H142136   4.689   6.201   0.207
14065TIP3    H242137   4.807   6.274   0.146
14066TIP3   OH242138   0.101   0.189   2.289
14066TIP3    H142139   0.107   0.229   2.203
14066TIP3    H242140   0.107   0.262   2.350
14067TIP3   OH242141   6.063   2.570   1.943
14067TIP3    H142142   5.995   2.521   1.991
14067TIP3    H242143   6.126   2.594   2.011
14068TIP3   OH242144   3.081   1.766   5.162
14068TIP3    H142145   3.081   1.711   5.083
14068TIP3    H242146   3.173   1.789   5.175
14069TIP3   OH242147   2.395   7.049   2.690
14069TIP3    H142148   2.456   7.122   2.688
14069TIP3    H242149   2.439   6.982   2.743
14070TIP3   OH242150   8.333   4.277   6.781
14070TIP3    H142151   8.242   4.263   6.804
14070TIP3    H242152   8.335   4.268   6.685
14071TIP3   OH242153   2.661   4.981   1.084
14071TIP3    H142154   2.678   5.045   1.015
14071TIP3    H242155   2.623   5.033   1.155
14072TIP3   OH242156   3.775   0.079   1.676
14072TIP3    H142157   3.791   0.125   1.594
14072TIP3    H242158   3.691   0.114   1.707
14073TIP3   OH242159   3.773   7.669   2.819
14073TIP3    H142160   3.717   7.695   2.746
14073TIP3    H242161   3.775   7.746   2.876
14074TIP3   OH242162   5.149   4.264   4.308
14074TIP3    H142163   5.207   4.331   4.345
14074TIP3    H242164   5.159   4.274   4.213
14075TIP3   OH242165   6.960   4.532   1.846
14075TIP3    H142166   6.974   4.441   1.872
14075TIP3    H242167   6.913   4.571   1.920
14076TIP3   OH242168   4.885   4.373   6.897
14076TIP3    H142169   4.974   4.386   6.865
14076TIP3    H242170   4.838   4.452   6.870
14077TIP3   OH242171   6.162   7.230   4.014
14077TIP3    H142172   6.250   7.267   4.013
14077TIP3    H242173   6.142   7.217   4.107
14078TIP3   OH242174   1.406   7.187   1.736
14078TIP3    H142175   1.341   7.179   1.805
14078TIP3    H242176   1.355   7.183   1.655
14079TIP3   OH242177   3.237   1.440   3.502
14079TIP3    H142178   3.170   1.506   3.481
14079TIP3    H242179   3.315   1.491   3.524
14080TIP3   OH242180   0.350   6.306   1.275
14080TIP3    H142181   0.314   6.356   1.202
14080TIP3    H242182   0.282   6.308   1.342
14081TIP3   OH242183   0.592   5.298   6.498
14081TIP3    H142184   0.673   5.297   6.549
14081TIP3    H242185   0.524   5.276   6.561
14082TIP3   OH242186   5.144   3.795   0.383
14082TIP3    H142187   5.097   3.821   0.304
14082TIP3    H242188   5.188   3.713   0.358
14083TIP3   OH242189   5.890   3.419   1.582
14083TIP3    H142190   5.918   3.510   1.595
14083TIP3    H242191   5.970   3.367   1.594
14084TIP3   OH242192   8.064   1.717   0.348
14084TIP3    H142193   7.976   1.752   0.364
14084TIP3    H242194   8.050   1.623   0.335
14085TIP3   OH242195   7.991   6.772   6.661
14085TIP3    H142196   7.956   6.794   6.575
14085TIP3    H242197   7.948   6.689   6.684
14086TIP3   OH242198   3.645   6.677   6.729
14086TIP3    H142199   3.651   6.705   6.821
14086TIP3    H242200   3.728   6.704   6.690
14087TIP3   OH242201   2.335   6.715   6.031
14087TIP3    H142202   2.284   6.658   6.089
14087TIP3    H242203   2.338   6.668   5.947
14088TIP3   OH242204   3.028   4.501   1.210
14088TIP3    H142205   2.979   4.445   1.271
14088TIP3    H242206   2.962   4.535   1.150
14089TIP3   OH242207   6.836   4.124   5.775
14089TIP3    H142208   6.835   4.196   5.712
14089TIP3    H242209   6.907   4.067   5.745
14090TIP3   OH242210   5.537   3.677   4.656
14090TIP3    H142211   5.519   3.596   4.705
14090TIP3    H242212   5.452   3.705   4.623
14091TIP3   OH242213   7.045   4.296   3.716
14091TIP3    H142214   7.139   4.291   3.699
14091TIP3    H242215   7.036   4.277   3.809
14092TIP3   OH242216   0.709   0.885   0.009
14092TIP3    H142217   0.795   0.924  -0.007
14092TIP3    H242218   0.704   0.878   0.105
14093TIP3   OH242219   5.608   4.562   2.983
14093TIP3    H142220   5.610   4.481   3.034
14093TIP3    H242221   5.518   4.568   2.951
14094TIP3   OH242222   6.244   0.220   4.610
14094TIP3    H142223   6.240   0.231   4.515
14094TIP3    H242224   6.302   0.290   4.640
14095TIP3   OH242225   3.722   3.216   4.280
14095TIP3    H142226   3.765   3.297   4.306
14095TIP3    H242227   3.792   3.163   4.242
14096TIP3   OH242228   7.853   4.938   0.344
14096TIP3    H142229   7.940   4.939   0.382
14096TIP3    H242230   7.868   4.942   0.249
14097TIP3   OH242231   2.886   1.187   2.164
14097TIP3    H142232   2.841   1.271   2.159
14097TIP3    H242233   2.826   1.131   2.213
14098TIP3   OH242234   6.720   5.205   3.919
14098TIP3    H142235   6.777   5.218   3.995
14098TIP3    H242236   6.631   5.203   3.955
14099TIP3   OH242237   4.980   7.808   4.355
14099TIP3    H142238   5.058   7.810   4.409
14099TIP3    H242239   4.928   7.735   4.390
14100TIP3   OH242240   7.890   7.378   4.534
14100TIP3    H142241   7.980   7.404   4.512
14100TIP3    H242242   7.882   7.289   4.501
14101TIP3   OH242243   6.668   1.162   3.161
14101TIP3    H142244   6.757   1.188   3.186
14101TIP3    H242245   6.648   1.215   3.084
14102TIP3   OH242246   8.368   3.647   2.497
14102TIP3    H142247   8.278   3.644   2.531
14102TIP3    H242248   8.385   3.741   2.486
14103TIP3   OH242249   3.106   1.809   4.201
14103TIP3    H142250   3.123   1.783   4.292
14103TIP3    H242251   3.036   1.750   4.173
14104TIP3   OH242252   0.762   1.402   4.207
14104TIP3    H142253   0.735   1.311   4.199
14104TIP3    H242254   0.729   1.443   4.127
14105TIP3   OH242255   1.508   1.308   1.752
14105TIP3    H142256   1.418   1.327   1.777
14105TIP3    H242257   1.544   1.256   1.824
14106TIP3   OH242258   2.780   6.657   4.783
14106TIP3    H142259   2.769   6.742   4.741
14106TIP3    H242260   2.841   6.674   4.856
14107TIP3   OH242261   2.390   1.075   6.052
14107TIP3    H142262   2.317   1.052   5.994
14107TIP3    H242263   2.357   1.060   6.140
14108TIP3   OH242264   2.098   5.212   1.991
14108TIP3    H142265   2.163   5.275   2.021
14108TIP3    H242266   2.149   5.135   1.966
14109TIP3   OH242267   3.281   0.603   5.984
14109TIP3    H142268   3.300   0.511   6.005
14109TIP3    H242269   3.364   0.638   5.952
14110TIP3   OH242270   8.172   3.070   3.454
14110TIP3    H142271   8.260   3.074   3.491
14110TIP3    H242272   8.157   3.156   3.416
14111TIP3   OH242273   7.732   1.809   6.055
14111TIP3    H142274   7.793   1.868   6.099
14111TIP3    H242275   7.663   1.867   6.022
14112TIP3   OH242276   6.835   6.293   2.034
14112TIP3    H142277   6.878   6.354   1.974
14112TIP3    H242278   6.906   6.238   2.068
14113TIP3   OH242279   5.813   2.516   3.561
14113TIP3    H142280   5.722   2.524   3.530
14113TIP3    H242281   5.866   2.541   3.485
14114TIP3   OH242282   1.241   3.492   2.639
14114TIP3    H142283   1.236   3.397   2.635
14114TIP3    H242284   1.154   3.521   2.611
14115TIP3   OH242285   6.378   4.074   0.498
14115TIP3    H142286   6.456   4.105   0.452
14115TIP3    H242287   6.375   3.980   0.480
14116TIP3   OH242288   6.330   2.393   5.396
14116TIP3    H142289   6.380   2.448   5.336
14116TIP3    H242290   6.357   2.421   5.483
14117TIP3   OH242291   4.973   2.485   4.003
14117TIP3    H142292   4.973   2.576   3.974
14117TIP3    H242293   4.945   2.489   4.094
14118TIP3   OH242294   6.666   0.660   3.980
14118TIP3    H142295   6.699   0.653   4.070
14118TIP3    H242296   6.590   0.603   3.977
14119TIP3   OH242297   3.671   7.746   4.982
14119TIP3    H142298   3.686   7.831   5.023
14119TIP3    H242299   3.576   7.737   4.980
14120TIP3   OH242300   1.446   7.089   3.445
14120TIP3    H142301   1.367   7.073   3.393
14120TIP3    H242302   1.413   7.121   3.529
14121TIP3   OH242303   2.675   5.213   3.471
14121TIP3    H142304   2.583   5.189   3.488
14121TIP3    H242305   2.703   5.258   3.550
14122TIP3   OH242306   4.083   6.766   2.852
14122TIP3    H142307   4.012   6.747   2.913
14122TIP3    H242308   4.154   6.708   2.879
14123TIP3   OH242309   3.843   4.931   1.265
14123TIP3    H142310   3.829   5.008   1.321
14123TIP3    H242311   3.861   4.968   1.179
14124TIP3   OH242312   4.158   7.127   3.623
14124TIP3    H142313   4.135   7.211   3.664
14124TIP3    H242314   4.237   7.147   3.572
14125TIP3   OH242315   7.736   5.626   0.197
14125TIP3    H142316   7.659   5.619   0.253
14125TIP3    H242317   7.727   5.712   0.155
14126TIP3   OH242318   4.987   2.078   6.038
14126TIP3    H142319   4.976   1.984   6.051
14126TIP3    H242320   5.040   2.107   6.112
14127TIP3   OH242321   7.763   5.860   6.545
14127TIP3    H142322   7.788   5.828   6.458
14127TIP3    H242323   7.811   5.803   6.605
14128TIP3   OH242324   5.908   5.714   4.812
14128TIP3    H142325   5.960   5.757   4.880
14128TIP3    H242326   5.920   5.768   4.734
14129TIP3   OH242327   6.856   0.254   5.595
14129TIP3    H142328   6.804   0.175   5.583
14129TIP3    H242329   6.792   0.323   5.615
14130TIP3   OH242330   8.207   4.577   6.075
14130TIP3    H142331   8.173   4.661   6.105
14130TIP3    H242332   8.196   4.579   5.980
14131TIP3   OH242333   4.538   0.559   0.549
14131TIP3    H142334   4.625   0.598   0.538
14131TIP3    H242335   4.489   0.587   0.472
14132TIP3   OH242336   3.195   3.078   4.994
14132TIP3    H142337   3.199   3.077   4.898
14132TIP3    H242338   3.121   3.135   5.014
14133TIP3   OH242339   3.462   5.737   6.251
14133TIP3    H142340   3.538   5.791   6.230
14133TIP3    H242341   3.401   5.750   6.178
14134TIP3   OH242342   1.608   1.708   2.950
14134TIP3    H142343   1.543   1.666   3.006
14134TIP3    H242344   1.688   1.659   2.964
14135TIP3   OH242345   1.776   4.541   5.491
14135TIP3    H142346   1.687   4.572   5.471
14135TIP3    H242347   1.777   4.450   5.463
14136TIP3   OH242348   7.413   1.005   1.993
14136TIP3    H142349   7.366   0.922   1.995
14136TIP3    H242350   7.394   1.042   1.907
14137TIP3   OH242351   2.253   4.278   5.756
14137TIP3    H142352   2.216   4.366   5.768
14137TIP3    H242353   2.265   4.270   5.662
14138TIP3   OH242354   1.358   2.428   2.816
14138TIP3    H142355   1.356   2.458   2.725
14138TIP3    H242356   1.447   2.444   2.845
14139TIP3   OH242357   6.019   2.930   1.012
14139TIP3    H142358   6.012   2.853   1.068
14139TIP3    H242359   5.986   2.900   0.927
14140TIP3   OH242360   1.347   3.899   1.633
14140TIP3    H142361   1.260   3.890   1.595
14140TIP3    H242362   1.334   3.886   1.727
14141TIP3   OH242363   6.058   7.276   6.063
14141TIP3    H142364   6.025   7.359   6.029
14141TIP3    H242365   6.022   7.210   6.004
14142TIP3   OH242366   0.239   4.327   0.162
14142TIP3    H142367   0.264   4.379   0.085
14142TIP3    H242368   0.302   4.351   0.229
14143TIP3   OH242369   3.141   3.351   3.259
14143TIP3    H142370   3.078   3.414   3.225
14143TIP3    H242371   3.089   3.293   3.315
14144TIP3   OH242372   6.130   6.575   5.945
14144TIP3    H142373   6.150   6.639   5.876
14144TIP3    H242374   6.070   6.513   5.903
14145TIP3   OH242375   3.263   5.293   0.415
14145TIP3    H142376   3.246   5.382   0.446
14145TIP3    H242377   3.341   5.302   0.360
14146TIP3   OH242378   7.913   7.456   0.758
14146TIP3    H142379   7.909   7.368   0.797
14146TIP3    H242380   7.896   7.515   0.832
14147TIP3   OH242381   5.313   4.221   0.023
14147TIP3    H142382   5.326   4.258   0.110
14147TIP3    H242383   5.333   4.128   0.034
14148TIP3   OH242384   5.687   5.483   3.695
14148TIP3    H142385   5.627   5.415   3.724
14148TIP3    H242386   5.774   5.451   3.721
14149TIP3   OH242387   5.589   1.612   4.265
14149TIP3    H142388   5.579   1.557   4.188
14149TIP3    H242389   5.671   1.582   4.305
14150TIP3   OH242390   5.691   2.511   2.246
14150TIP3    H142391   5.635   2.581   2.213
14150TIP3    H242392   5.654   2.431   2.209
14151TIP3   OH242393   1.207   0.493   3.708
14151TIP3    H142394   1.165   0.490   3.794
14151TIP3    H242395   1.260   0.573   3.710
14152TIP3   OH242396   6.774   6.133   3.643
14152TIP3    H142397   6.852   6.119   3.696
14152TIP3    H242398   6.758   6.049   3.601
14153TIP3   OH242399   2.048   5.481   2.558
14153TIP3    H142400   2.113   5.457   2.492
14153TIP3    H242401   2.075   5.568   2.587
14154TIP3   OH242402   6.951   0.756   2.116
14154TIP3    H142403   6.944   0.682   2.176
14154TIP3    H242404   7.000   0.723   2.042
14155TIP3   OH242405   5.373   3.006   4.329
14155TIP3    H142406   5.363   3.028   4.421
14155TIP3    H242407   5.321   3.072   4.283
14156TIP3   OH242408   5.119   7.461   4.070
14156TIP3    H142409   5.106   7.428   3.981
14156TIP3    H242410   5.067   7.404   4.125
14157TIP3   OH242411   2.087   4.601   2.333
14157TIP3    H142412   2.140   4.525   2.356
14157TIP3    H242413   2.146   4.655   2.280
14158TIP3   OH242414   6.903   7.260   6.509
14158TIP3    H142415   6.946   7.344   6.491
14158TIP3    H242416   6.821   7.284   6.551
14159TIP3   OH242417   5.244   2.262   0.173
14159TIP3    H142418   5.228   2.171   0.198
14159TIP3    H242419   5.172   2.284   0.114
14160TIP3   OH242420   3.353   0.294   1.173
14160TIP3    H142421   3.383   0.214   1.217
14160TIP3    H242422   3.270   0.270   1.132
14161TIP3   OH242423   6.435   7.112   3.296
14161TIP3    H142424   6.375   7.173   3.339
14161TIP3    H242425   6.481   7.167   3.231
14162TIP3   OH242426   1.184   4.484   1.542
14162TIP3    H142427   1.220   4.558   1.591
14162TIP3    H242428   1.210   4.407   1.593
14163TIP3   OH242429   0.330   0.757   1.909
14163TIP3    H142430   0.282   0.689   1.862
14163TIP3    H242431   0.284   0.767   1.992
14164TIP3   OH242432   4.454   6.252   5.601
14164TIP3    H142433   4.361   6.230   5.608
14164TIP3    H242434   4.467   6.320   5.668
14165TIP3   OH242435   0.762   4.939   5.686
14165TIP3    H142436   0.706   4.973   5.756
14165TIP3    H242437   0.711   4.867   5.648
14166TIP3   OH242438   6.424   0.634   5.315
14166TIP3    H142439   6.342   0.588   5.295
14166TIP3    H242440   6.490   0.565   5.319
14167TIP3   OH242441   7.975   5.084   2.253
14167TIP3    H142442   8.063   5.113   2.229
14167TIP3    H242443   7.981   5.066   2.347
14168TIP3   OH242444   3.685   3.551   2.882
14168TIP3    H142445   3.666   3.472   2.932
14168TIP3    H242446   3.749   3.599   2.935
14169TIP3   OH242447   7.196   3.735   5.774
14169TIP3    H142448   7.262   3.716   5.840
14169TIP3    H242449   7.119   3.684   5.801
14170TIP3   OH242450   0.484   2.145   2.200
14170TIP3    H142451   0.490   2.136   2.296
14170TIP3    H242452   0.481   2.239   2.185
14171TIP3   OH242453   6.337   1.475   4.561
14171TIP3    H142454   6.256   1.497   4.607
14171TIP3    H242455   6.319   1.390   4.520
14172TIP3   OH242456   5.917   0.537   6.524
14172TIP3    H142457   5.954   0.560   6.439
14172TIP3    H242458   5.837   0.588   6.529
14173TIP3   OH242459   5.579   5.745   1.579
14173TIP3    H142460   5.675   5.742   1.571
14173TIP3    H242461   5.555   5.661   1.619
14174TIP3   OH242462   3.105   6.032   5.131
14174TIP3    H142463   3.195   6.059   5.148
14174TIP3    H242464   3.064   6.028   5.218
14175TIP3   OH242465   2.272   6.751   1.080
14175TIP3    H142466   2.258   6.819   1.014
14175TIP3    H242467   2.217   6.679   1.051
14176TIP3   OH242468   5.061   2.654   2.477
14176TIP3    H142469   5.057   2.743   2.513
14176TIP3    H242470   5.132   2.611   2.525
14177TIP3   OH242471   5.827   7.781   2.732
14177TIP3    H142472   5.854   7.823   2.814
14177TIP3    H242473   5.767   7.711   2.759
14178TIP3   OH242474   4.053   3.393   1.620
14178TIP3    H142475   4.006   3.339   1.684
14178TIP3    H242476   3.985   3.423   1.560
14179TIP3   OH242477   3.104   4.169   5.174
14179TIP3    H142478   3.025   4.115   5.178
14179TIP3    H242479   3.136   4.157   5.084
14180TIP3   OH242480   3.899   5.362   4.091
14180TIP3    H142481   3.989   5.381   4.066
14180TIP3    H242482   3.869   5.299   4.025
14181TIP3   OH242483   4.774   5.682   6.684
14181TIP3    H142484   4.847   5.711   6.740
14181TIP3    H242485   4.722   5.626   6.740
14182TIP3   OH242486   3.868   3.438   0.272
14182TIP3    H142487   3.917   3.415   0.351
14182TIP3    H242488   3.837   3.354   0.238
14183TIP3   OH242489   7.525   5.578   3.706
14183TIP3    H142490   7.563   5.666   3.709
14183TIP3    H242491   7.510   5.562   3.612
14184TIP3   OH242492   5.160   7.795   1.760
14184TIP3    H142493   5.179   7.887   1.779
14184TIP3    H242494   5.214   7.774   1.684
14185TIP3   OH242495   2.515   3.416   0.221
14185TIP3    H142496   2.564   3.364   0.284
14185TIP3    H242497   2.555   3.503   0.224
14186TIP3   OH242498   8.188   1.323   6.842
14186TIP3    H142499   8.135   1.387   6.794
14186TIP3    H242500   8.247   1.376   6.895
14187TIP3   OH242501   6.032   6.974   1.684
14187TIP3    H142502   6.029   6.926   1.767
14187TIP3    H242503   6.097   7.043   1.698
14188TIP3   OH242504   5.002   0.221   5.859
14188TIP3    H142505   5.090   0.184   5.869
14188TIP3    H242506   4.985   0.218   5.765
14189TIP3   OH242507   0.511   2.112   6.549
14189TIP3    H142508   0.605   2.108   6.567
14189TIP3    H242509   0.483   2.197   6.584
14190TIP3   OH242510   3.124   4.339   3.977
14190TIP3    H142511   3.210   4.365   3.942
14190TIP3    H242512   3.063   4.401   3.938
14191TIP3   OH242513   6.426   0.468   4.377
14191TIP3    H142514   6.483   0.413   4.323
14191TIP3    H242515   6.461   0.556   4.366
14192TIP3   OH242516   1.609   0.330   3.564
14192TIP3    H142517   1.611   0.425   3.567
14192TIP3    H242518   1.695   0.306   3.528
14193TIP3   OH242519   4.681   2.520   3.615
14193TIP3    H142520   4.730   2.479   3.686
14193TIP3    H242521   4.594   2.479   3.618
14194TIP3   OH242522   4.033   4.330   6.383
14194TIP3    H142523   4.069   4.295   6.465
14194TIP3    H242524   3.987   4.257   6.343
14195TIP3   OH242525   2.180   1.410   3.006
14195TIP3    H142526   2.120   1.451   3.068
14195TIP3    H242527   2.150   1.319   3.000
14196TIP3   OH242528   7.276   6.347   2.033
14196TIP3    H142529   7.262   6.424   2.087
14196TIP3    H242530   7.369   6.327   2.044
14197TIP3   OH242531   7.010   0.647   4.584
14197TIP3    H142532   7.032   0.554   4.587
14197TIP3    H242533   7.053   0.680   4.505
14198TIP3   OH242534   7.558   3.019   2.200
14198TIP3    H142535   7.492   2.953   2.179
14198TIP3    H242536   7.632   2.996   2.143
14199TIP3   OH242537   7.031   5.517   1.244
14199TIP3    H142538   7.044   5.609   1.268
14199TIP3    H242539   7.007   5.474   1.327
14200TIP3   OH242540   2.162   4.813   6.437
14200TIP3    H142541   2.245   4.774   6.464
14200TIP3    H242542   2.171   4.826   6.343
14201TIP3   OH242543   7.857   6.615   0.857
14201TIP3    H142544   7.866   6.520   0.849
14201TIP3    H242545   7.924   6.650   0.798
14202TIP3   OH242546   8.006   0.122   5.813
14202TIP3    H142547   8.097   0.139   5.788
14202TIP3    H242548   7.956   0.133   5.732
14203TIP3   OH242549   7.298   2.800   4.499
14203TIP3    H142550   7.377   2.755   4.530
14203TIP3    H242551   7.312   2.809   4.405
14204TIP3   OH242552   1.324   3.105   3.506
14204TIP3    H142553   1.406   3.150   3.486
14204TIP3    H242554   1.348   3.013   3.516
14205TIP3   OH242555   0.777   4.401   3.441
14205TIP3    H142556   0.735   4.390   3.526
14205TIP3    H242557   0.859   4.353   3.448
14206TIP3   OH242558   0.498   0.606   2.961
14206TIP3    H142559   0.531   0.536   3.017
14206TIP3    H242560   0.552   0.682   2.983
14207TIP3   OH242561   4.611   0.665   1.206
14207TIP3    H142562   4.571   0.727   1.267
14207TIP3    H242563   4.540   0.602   1.186
14208TIP3   OH242564   8.372   4.408   2.709
14208TIP3    H142565   8.408   4.496   2.716
14208TIP3    H242566   8.320   4.397   2.789
14209TIP3   OH242567   3.834   3.484   1.485
14209TIP3    H142568   3.860   3.540   1.412
14209TIP3    H242569   3.759   3.529   1.524
14210TIP3   OH242570   4.714   3.318   3.109
14210TIP3    H142571   4.632   3.274   3.086
14210TIP3    H242572   4.708   3.405   3.068
14211TIP3   OH242573   7.844   4.625   0.193
14211TIP3    H142574   7.933   4.605   0.166
14211TIP3    H242575   7.823   4.707   0.148
14212TIP3   OH242576   7.767   7.157   2.151
14212TIP3    H142577   7.687   7.111   2.175
14212TIP3    H242578   7.755   7.177   2.058
14213TIP3   OH242579   3.114   7.506   5.081
14213TIP3    H142580   3.066   7.560   5.018
14213TIP3    H242581   3.077   7.531   5.166
14214TIP3   OH242582   1.963   0.476   3.700
14214TIP3    H142583   2.035   0.465   3.762
14214TIP3    H242584   1.895   0.521   3.750
14215TIP3   OH242585   6.756   4.159   1.721
14215TIP3    H142586   6.673   4.121   1.693
14215TIP3    H242587   6.754   4.154   1.817
14216TIP3   OH242588   2.091   0.337   1.159
14216TIP3    H142589   2.028   0.270   1.186
14216TIP3    H242590   2.088   0.402   1.229
14217TIP3   OH242591   5.876   0.922   4.392
14217TIP3    H142592   5.955   0.887   4.434
14217TIP3    H242593   5.850   0.855   4.329
14218TIP3   OH242594   2.957   2.096   6.537
14218TIP3    H142595   2.880   2.128   6.583
14218TIP3    H242596   2.935   2.006   6.511
14219TIP3   OH242597   4.631   7.138   2.790
14219TIP3    H142598   4.726   7.135   2.797
14219TIP3    H242599   4.614   7.210   2.730
14220TIP3   OH242600   2.775   0.496   0.093
14220TIP3    H142601   2.698   0.483   0.037
14220TIP3    H242602   2.829   0.558   0.044
14221TIP3   OH242603   4.333   0.476   5.972
14221TIP3    H142604   4.305   0.483   6.063
14221TIP3    H242605   4.263   0.427   5.929
14222TIP3   OH242606   2.982   6.477   0.145
14222TIP3    H142607   2.978   6.571   0.129
14222TIP3    H242608   3.067   6.450   0.110
14223TIP3   OH242609   4.812   2.555   6.258
14223TIP3    H142610   4.728   2.560   6.302
14223TIP3    H242611   4.806   2.478   6.202
14224TIP3   OH242612   5.090   5.848   3.189
14224TIP3    H142613   5.068   5.765   3.231
14224TIP3    H242614   5.016   5.866   3.131
14225TIP3   OH242615   6.649   5.969   6.713
14225TIP3    H142616   6.656   6.052   6.665
14225TIP3    H242617   6.738   5.935   6.716
14226TIP3   OH242618   2.560   3.377   1.616
14226TIP3    H142619   2.553   3.472   1.616
14226TIP3    H242620   2.498   3.348   1.682
14227TIP3   OH242621   7.353   3.730   0.923
14227TIP3    H142622   7.273   3.678   0.936
14227TIP3    H242623   7.358   3.743   0.828
14228TIP3   OH242624   6.621   3.626   5.585
14228TIP3    H142625   6.673   3.587   5.655
14228TIP3    H242626   6.647   3.718   5.585
14229TIP3   OH242627   4.010   4.138   4.230
14229TIP3    H142628   3.984   4.054   4.266
14229TIP3    H242629   4.102   4.147   4.252
14230TIP3   OH242630   5.454   6.362   3.398
14230TIP3    H142631   5.524   6.390   3.458
14230TIP3    H242632   5.482   6.393   3.312
14231TIP3   OH242633   0.595   0.421   1.185
14231TIP3    H142634   0.611   0.360   1.114
14231TIP3    H242635   0.500   0.434   1.184
14232TIP3   OH242636   4.358   5.816   0.943
14232TIP3    H142637   4.397   5.731   0.962
14232TIP3    H242638   4.279   5.819   0.997
14233TIP3   OH242639   1.025   2.793   6.329
14233TIP3    H142640   1.010   2.703   6.302
14233TIP3    H242641   0.939   2.825   6.358
14234TIP3   OH242642   2.759   2.646   3.520
14234TIP3    H142643   2.675   2.690   3.538
14234TIP3    H242644   2.735   2.556   3.499
14235TIP3   OH242645   2.284   5.386   0.293
14235TIP3    H142646   2.215   5.427   0.345
14235TIP3    H242647   2.364   5.434   0.315
14236TIP3   OH242648   7.776   7.153   3.686
14236TIP3    H142649   7.817   7.122   3.767
14236TIP3    H242650   7.807   7.093   3.619
14237TIP3   OH242651   3.478   7.187   1.907
14237TIP3    H142652   3.421   7.251   1.950
14237TIP3    H242653   3.447   7.102   1.940
14238TIP3   OH242654   7.944   1.132   3.993
14238TIP3    H142655   8.020   1.105   3.941
14238TIP3    H242656   7.871   1.130   3.931
14239TIP3   OH242657   1.388   7.194   3.729
14239TIP3    H142658   1.308   7.142   3.738
14239TIP3    H242659   1.459   7.131   3.737
14240TIP3   OH242660   0.508   1.367   4.714
14240TIP3    H142661   0.553   1.410   4.641
14240TIP3    H242662   0.416   1.392   4.703
14241TIP3   OH242663   4.301   5.220   6.370
14241TIP3    H142664   4.384   5.225   6.323
14241TIP3    H242665   4.305   5.138   6.418
14242TIP3   OH242666   8.374   6.620   5.535
14242TIP3    H142667   8.354   6.531   5.506
14242TIP3    H242668   8.401   6.609   5.627
14243TIP3   OH242669   0.427   2.312   3.796
14243TIP3    H142670   0.342   2.268   3.798
14243TIP3    H242671   0.440   2.342   3.886
14244TIP3   OH242672   5.723   2.420   5.788
14244TIP3    H142673   5.672   2.474   5.728
14244TIP3    H242674   5.669   2.342   5.803
14245TIP3   OH242675   7.667   0.670   2.042
14245TIP3    H142676   7.680   0.671   2.136
14245TIP3    H242677   7.677   0.761   2.014
14246TIP3   OH242678   7.403   1.769   5.635
14246TIP3    H142679   7.393   1.747   5.727
14246TIP3    H242680   7.465   1.704   5.601
14247TIP3   OH242681   6.029   0.264   1.187
14247TIP3    H142682   6.025   0.324   1.112
14247TIP3    H242683   5.992   0.182   1.154
14248TIP3   OH242684   3.838   1.147   6.178
14248TIP3    H142685   3.814   1.214   6.242
14248TIP3    H242686   3.859   1.070   6.231
14249TIP3   OH242687   7.242   3.678   5.027
14249TIP3    H142688   7.254   3.770   5.003
14249TIP3    H242689   7.175   3.646   4.968
14250TIP3   OH242690   7.748   3.293   4.487
14250TIP3    H142691   7.725   3.249   4.406
14250TIP3    H242692   7.748   3.386   4.464
14251TIP3   OH242693   5.758   2.762  -0.014
14251TIP3    H142694   5.679   2.710   0.002
14251TIP3    H242695   5.819   2.735   0.055
14252TIP3   OH242696   8.411   1.973   5.183
14252TIP3    H142697   8.317   1.968   5.166
14252TIP3    H242698   8.433   1.888   5.221
14253TIP3   OH242699   2.458   6.865   4.470
14253TIP3    H142700   2.452   6.806   4.395
14253TIP3    H242701   2.519   6.934   4.442
14254TIP3   OH242702   5.135   5.046   5.251
14254TIP3    H142703   5.156   5.035   5.158
14254TIP3    H242704   5.039   5.041   5.255
14255TIP3   OH242705   3.160   2.466   3.064
14255TIP3    H142706   3.205   2.550   3.075
14255TIP3    H242707   3.100   2.479   2.991
14256TIP3   OH242708   7.527   4.407   3.756
14256TIP3    H142709   7.537   4.461   3.834
14256TIP3    H242710   7.524   4.469   3.683
14257TIP3   OH242711   0.554   0.805   4.490
14257TIP3    H142712   0.641   0.780   4.520
14257TIP3    H242713   0.494   0.752   4.541
14258TIP3   OH242714   4.664   7.855   4.641
14258TIP3    H142715   4.672   7.785   4.706
14258TIP3    H242716   4.642   7.810   4.559
14259TIP3   OH242717   1.330   2.055   0.475
14259TIP3    H142718   1.331   2.029   0.383
14259TIP3    H242719   1.357   1.977   0.523
14260TIP3   OH242720   2.486   5.516   4.749
14260TIP3    H142721   2.519   5.600   4.716
14260TIP3    H242722   2.456   5.470   4.670
14261TIP3   OH242723   0.657   4.382   5.376
14261TIP3    H142724   0.613   4.457   5.415
14261TIP3    H242725   0.598   4.308   5.391
14262TIP3   OH242726   0.080   5.218   5.576
14262TIP3    H142727   0.049   5.267   5.500
14262TIP3    H242728   0.146   5.158   5.541
14263TIP3   OH242729   6.512   0.885   1.701
14263TIP3    H142730   6.593   0.845   1.671
14263TIP3    H242731   6.519   0.977   1.674
14264TIP3   OH242732  -0.004   1.001   3.722
14264TIP3    H142733   0.037   0.915   3.712
14264TIP3    H242734   0.036   1.054   3.654
14265TIP3   OH242735   6.442   5.827   4.696
14265TIP3    H142736   6.466   5.770   4.622
14265TIP3    H242737   6.497   5.904   4.685
14266TIP3   OH242738   3.251   2.239   4.092
14266TIP3    H142739   3.197   2.198   4.025
14266TIP3    H242740   3.188   2.289   4.145
14267TIP3   OH242741   4.838   6.423   5.606
14267TIP3    H142742   4.867   6.332   5.607
14267TIP3    H242743   4.805   6.439   5.694
14268TIP3   OH242744   1.988   6.616   6.549
14268TIP3    H142745   2.005   6.532   6.506
14268TIP3    H242746   1.909   6.650   6.507
14269TIP3   OH242747   7.543   4.644   2.854
14269TIP3    H142748   7.578   4.660   2.766
14269TIP3    H242749   7.594   4.570   2.887
14270TIP3   OH242750   5.794   2.290   4.404
14270TIP3    H142751   5.805   2.304   4.310
14270TIP3    H242752   5.734   2.359   4.431
14271TIP3   OH242753   6.337   6.225   6.749
14271TIP3    H142754   6.270   6.284   6.784
14271TIP3    H242755   6.392   6.204   6.825
14272TIP3   OH242756   8.088   4.173   0.587
14272TIP3    H142757   8.159   4.151   0.526
14272TIP3    H242758   8.102   4.115   0.662
14273TIP3   OH242759   7.394   7.540   5.672
14273TIP3    H142760   7.337   7.576   5.740
14273TIP3    H242761   7.335   7.492   5.614
14274TIP3   OH242762   3.753   3.014   2.627
14274TIP3    H142763   3.726   3.052   2.544
14274TIP3    H242764   3.690   2.944   2.644
14275TIP3   OH242765   3.515   6.517   3.756
14275TIP3    H142766   3.430   6.510   3.800
14275TIP3    H242767   3.512   6.452   3.686
14276TIP3   OH242768   2.578   0.080   2.453
14276TIP3    H142769   2.640   0.055   2.522
14276TIP3    H242770   2.522   0.146   2.493
14277TIP3   OH242771   1.321   6.781   1.745
14277TIP3    H142772   1.311   6.685   1.739
14277TIP3    H242773   1.328   6.809   1.653
14278TIP3   OH242774   1.434   1.021   5.300
14278TIP3    H142775   1.488   0.977   5.366
14278TIP3    H242776   1.346   1.021   5.338
14279TIP3   OH242777   6.936   3.916   0.009
14279TIP3    H142778   6.917   3.991   0.066
14279TIP3    H242779   7.013   3.874   0.049
14280TIP3   OH242780   2.344   5.715   0.043
14280TIP3    H142781   2.317   5.797   0.003
14280TIP3    H242782   2.430   5.696   0.006
14281TIP3   OH242783   5.854   0.054   3.752
14281TIP3    H142784   5.860  -0.010   3.823
14281TIP3    H242785   5.808   0.128   3.791
14282TIP3   OH242786   6.361   4.054   2.028
14282TIP3    H142787   6.308   4.098   2.095
14282TIP3    H242788   6.360   4.114   1.954
14283TIP3   OH242789   7.894   4.457   4.231
14283TIP3    H142790   7.935   4.374   4.207
14283TIP3    H242791   7.872   4.447   4.323
14284TIP3   OH242792   7.283   0.213   4.924
14284TIP3    H142793   7.218   0.272   4.964
14284TIP3    H242794   7.264   0.127   4.961
14285TIP3   OH242795   4.390   0.318   6.579
14285TIP3    H142796   4.413   0.400   6.536
14285TIP3    H242797   4.299   0.331   6.608
14286TIP3   OH242798   0.942   1.032   3.499
14286TIP3    H142799   0.868   0.995   3.547
14286TIP3    H242800   0.936   1.126   3.514
14287TIP3   OH242801   5.370   0.185   1.734
14287TIP3    H142802   5.388   0.227   1.818
14287TIP3    H242803   5.347   0.256   1.675
14288TIP3   OH242804   1.791   7.500   4.226
14288TIP3    H142805   1.836   7.420   4.253
14288TIP3    H242806   1.815   7.565   4.293
14289TIP3   OH242807   2.441   3.676   1.839
14289TIP3    H142808   2.371   3.740   1.854
14289TIP3    H242809   2.425   3.643   1.751
14290TIP3   OH242810   0.694   7.587   4.504
14290TIP3    H142811   0.667   7.675   4.479
14290TIP3    H242812   0.636   7.528   4.456
14291TIP3   OH242813   5.276   5.542   4.848
14291TIP3    H142814   5.198   5.488   4.859
14291TIP3    H242815   5.345   5.497   4.897
14292TIP3   OH242816   1.429   2.487   4.075
14292TIP3    H142817   1.388   2.421   4.019
14292TIP3    H242818   1.468   2.436   4.147
14293TIP3   OH242819   5.670   1.730   0.269
14293TIP3    H142820   5.637   1.642   0.249
14293TIP3    H242821   5.764   1.724   0.253
14294TIP3   OH242822   3.354   0.203   4.531
14294TIP3    H142823   3.334   0.270   4.596
14294TIP3    H242824   3.400   0.251   4.462
14295TIP3   OH242825   4.239   3.949   4.285
14295TIP3    H142826   4.320   3.897   4.280
14295TIP3    H242827   4.177   3.902   4.229
14296TIP3   OH242828   6.752   3.234   5.215
14296TIP3    H142829   6.728   3.243   5.307
14296TIP3    H242830   6.843   3.202   5.218
14297TIP3   OH242831   3.758   0.487   4.313
14297TIP3    H142832   3.664   0.486   4.299
14297TIP3    H242833   3.770   0.535   4.395
14298TIP3   OH242834   5.878   4.261   6.436
14298TIP3    H142835   5.784   4.261   6.422
14298TIP3    H242836   5.911   4.189   6.383
14299TIP3   OH242837   7.277   4.122   6.110
14299TIP3    H142838   7.343   4.080   6.055
14299TIP3    H242839   7.303   4.098   6.199
14300TIP3   OH242840   1.811   3.294   4.672
14300TIP3    H142841   1.880   3.289   4.738
14300TIP3    H242842   1.803   3.205   4.639
14301TIP3   OH242843   0.522   2.196   2.474
14301TIP3    H142844   0.531   2.179   2.568
14301TIP3    H242845   0.460   2.269   2.469
14302TIP3   OH242846   0.455   5.124   0.300
14302TIP3    H142847   0.517   5.191   0.327
14302TIP3    H242848   0.380   5.136   0.358
14303TIP3   OH242849   1.885   0.982   0.708
14303TIP3    H142850   1.978   1.002   0.722
14303TIP3    H242851   1.865   1.017   0.621
14304TIP3   OH242852   1.426   7.899   3.736
14304TIP3    H142853   1.415   7.847   3.816
14304TIP3    H242854   1.389   7.984   3.757
14305TIP3   OH242855   7.055   5.415   2.430
14305TIP3    H142856   7.151   5.412   2.424
14305TIP3    H242857   7.032   5.337   2.481
14306TIP3   OH242858   5.635   7.061   3.859
14306TIP3    H142859   5.678   7.103   3.933
14306TIP3    H242860   5.603   6.978   3.894
14307TIP3   OH242861   5.103   5.705   4.963
14307TIP3    H142862   5.163   5.631   4.960
14307TIP3    H242863   5.159   5.781   4.982
14308TIP3   OH242864   4.629   0.419   2.981
14308TIP3    H142865   4.687   0.475   2.931
14308TIP3    H242866   4.560   0.394   2.920
14309TIP3   OH242867   6.354   1.715   4.386
14309TIP3    H142868   6.430   1.773   4.383
14309TIP3    H242869   6.383   1.641   4.439
14310TIP3   OH242870   3.142   7.214   1.403
14310TIP3    H142871   3.230   7.228   1.436
14310TIP3    H242872   3.120   7.125   1.431
14311TIP3   OH242873   1.055   6.667   5.828
14311TIP3    H142874   0.963   6.654   5.852
14311TIP3    H242875   1.098   6.585   5.853
14312TIP3   OH242876   5.812   3.312   6.676
14312TIP3    H142877   5.855   3.250   6.735
14312TIP3    H242878   5.780   3.382   6.734
14313TIP3   OH242879   3.659   1.622   1.414
14313TIP3    H142880   3.692   1.631   1.503
14313TIP3    H242881   3.647   1.712   1.384
14314TIP3   OH242882   4.550   6.301   6.051
14314TIP3    H142883   4.577   6.219   6.091
14314TIP3    H242884   4.456   6.291   6.036
14315TIP3   OH242885   3.031   3.817   4.985
14315TIP3    H142886   2.999   3.825   4.894
14315TIP3    H242887   3.020   3.724   5.005
14316TIP3   OH242888   0.987   6.543   3.573
14316TIP3    H142889   1.017   6.582   3.491
14316TIP3    H242890   1.039   6.586   3.641
14317TIP3   OH242891   5.725   0.955   1.093
14317TIP3    H142892   5.773   0.958   1.011
14317TIP3    H242893   5.788   0.920   1.157
14318TIP3   OH242894   6.112   0.334   2.097
14318TIP3    H142895   6.192   0.286   2.080
14318TIP3    H242896   6.135   0.426   2.085
14319TIP3   OH242897   2.491   5.242   4.231
14319TIP3    H142898   2.559   5.227   4.297
14319TIP3    H242899   2.494   5.165   4.175
14320TIP3   OH242900   1.904   7.376   2.823
14320TIP3    H142901   1.928   7.388   2.915
14320TIP3    H242902   1.905   7.281   2.811
14321TIP3   OH242903   2.985   6.154   2.939
14321TIP3    H142904   2.899   6.122   2.911
14321TIP3    H242905   2.972   6.248   2.952
14322TIP3   OH242906   1.794   3.553   0.611
14322TIP3    H142907   1.759   3.560   0.522
14322TIP3    H242908   1.770   3.636   0.653
14323TIP3   OH242909   3.987   7.369   0.053
14323TIP3    H142910   3.970   7.401   0.141
14323TIP3    H242911   3.912   7.314   0.033
14324TIP3   OH242912   6.068   2.777   6.259
14324TIP3    H142913   5.996   2.834   6.286
14324TIP3    H242914   6.093   2.731   6.339
14325TIP3   OH242915   1.131   3.036   0.775
14325TIP3    H142916   1.075   2.978   0.828
14325TIP3    H242917   1.109   3.014   0.684
14326TIP3   OH242918   0.254   6.958   4.372
14326TIP3    H142919   0.284   6.921   4.455
14326TIP3    H242920   0.188   6.897   4.341
14327TIP3   OH242921   7.033   6.053   2.774
14327TIP3    H142922   7.077   6.091   2.850
14327TIP3    H242923   6.985   6.126   2.735
14328TIP3   OH242924   4.940   6.105   1.196
14328TIP3    H142925   4.889   6.132   1.272
14328TIP3    H242926   4.991   6.030   1.226
14329TIP3   OH242927   5.509   0.473   3.394
14329TIP3    H142928   5.573   0.414   3.355
14329TIP3    H242929   5.501   0.444   3.485
14330TIP3   OH242930   3.867   5.636   3.283
14330TIP3    H142931   3.856   5.730   3.264
14330TIP3    H242932   3.927   5.605   3.215
14331TIP3   OH242933   4.819   6.024   3.511
14331TIP3    H142934   4.802   5.942   3.463
14331TIP3    H242935   4.781   6.009   3.598
14332TIP3   OH242936   5.397   4.009   4.312
14332TIP3    H142937   5.417   4.069   4.384
14332TIP3    H242938   5.434   4.052   4.235
14333TIP3   OH242939   3.016   0.554   3.818
14333TIP3    H142940   2.941   0.521   3.866
14333TIP3    H242941   3.085   0.564   3.884
14334TIP3   OH242942   4.251   6.829   1.478
14334TIP3    H142943   4.242   6.912   1.524
14334TIP3    H242944   4.289   6.769   1.543
14335TIP3   OH242945   4.643   0.318   0.741
14335TIP3    H142946   4.586   0.341   0.668
14335TIP3    H242947   4.594   0.345   0.819
14336TIP3   OH242948   2.401   3.205   0.068
14336TIP3    H142949   2.450   3.269   0.121
14336TIP3    H242950   2.345   3.258   0.012
14337TIP3   OH242951   7.635   7.108   0.436
14337TIP3    H142952   7.572   7.173   0.405
14337TIP3    H242953   7.642   7.124   0.530
14338TIP3   OH242954   2.554   5.372   2.191
14338TIP3    H142955   2.547   5.367   2.286
14338TIP3    H242956   2.535   5.463   2.170
14339TIP3   OH242957   0.301   0.679   0.355
14339TIP3    H142958   0.237   0.622   0.313
14339TIP3    H242959   0.375   0.681   0.294
14340TIP3   OH242960   3.219   0.152   0.146
14340TIP3    H142961   3.242   0.062   0.121
14340TIP3    H242962   3.159   0.140   0.220
14341TIP3   OH242963   6.265   7.666   4.479
14341TIP3    H142964   6.171   7.684   4.471
14341TIP3    H242965   6.297   7.733   4.539
14342TIP3   OH242966   5.114   2.500   1.485
14342TIP3    H142967   5.127   2.544   1.401
14342TIP3    H242968   5.169   2.548   1.547
14343TIP3   OH242969   7.281   0.321   1.425
14343TIP3    H142970   7.302   0.236   1.387
14343TIP3    H242971   7.278   0.381   1.350
14344TIP3   OH242972   3.788   5.429   5.438
14344TIP3    H142973   3.823   5.507   5.481
14344TIP3    H242974   3.730   5.389   5.503
14345TIP3   OH242975   8.218   0.456   2.556
14345TIP3    H142976   8.162   0.384   2.529
14345TIP3    H242977   8.297   0.413   2.590
14346TIP3   OH242978   0.513   4.101   3.326
14346TIP3    H142979   0.481   4.188   3.305
14346TIP3    H242980   0.549   4.067   3.244
14347TIP3   OH242981   5.384   1.005   0.156
14347TIP3    H142982   5.393   0.910   0.160
14347TIP3    H242983   5.290   1.020   0.149
14348TIP3   OH242984   5.117   4.547   4.960
14348TIP3    H142985   5.129   4.487   4.886
14348TIP3    H242986   5.139   4.633   4.925
14349TIP3   OH242987   2.413   6.404   1.635
14349TIP3    H142988   2.452   6.386   1.549
14349TIP3    H242989   2.379   6.320   1.664
14350TIP3   OH242990   0.537   0.835   1.200
14350TIP3    H142991   0.632   0.822   1.199
14350TIP3    H242992   0.524   0.915   1.251
14351TIP3   OH242993   0.889   5.671   2.072
14351TIP3    H142994   0.934   5.591   2.096
14351TIP3    H242995   0.945   5.713   2.006
14352TIP3   OH242996   6.591   6.823   0.054
14352TIP3    H142997   6.505   6.781   0.060
14352TIP3    H242998   6.582   6.904   0.104
14353TIP3   OH242999   7.375   2.181   5.858
14353TIP3    H143000   7.329   2.203   5.939
14353TIP3    H243001   7.319   2.115   5.816
14354TIP3   OH243002   4.252   4.399   4.043
14354TIP3    H143003   4.326   4.411   3.984
14354TIP3    H243004   4.230   4.306   4.035
14355TIP3   OH243005   3.859   0.684   3.750
14355TIP3    H143006   3.883   0.657   3.839
14355TIP3    H243007   3.818   0.606   3.712
14356TIP3   OH243008   5.697   6.607   4.952
14356TIP3    H143009   5.790   6.616   4.975
14356TIP3    H243010   5.675   6.689   4.908
14357TIP3   OH243011   4.931   3.775   2.091
14357TIP3    H143012   4.956   3.814   2.008
14357TIP3    H243013   4.947   3.844   2.156
14358TIP3   OH243014   6.038   6.401   6.600
14358TIP3    H143015   6.088   6.472   6.560
14358TIP3    H243016   6.069   6.399   6.691
14359TIP3   OH243017   5.901   5.148   5.820
14359TIP3    H143018   5.832   5.209   5.846
14359TIP3    H243019   5.968   5.157   5.888
14360TIP3   OH243020   2.891   4.730   2.568
14360TIP3    H143021   2.807   4.736   2.612
14360TIP3    H243022   2.955   4.720   2.638
14361TIP3   OH243023   3.850   2.245   5.982
14361TIP3    H143024   3.796   2.178   5.941
14361TIP3    H243025   3.788   2.306   6.022
14362TIP3   OH243026   7.629   7.066   0.735
14362TIP3    H143027   7.629   6.988   0.680
14362TIP3    H243028   7.540   7.072   0.769
14363TIP3   OH243029   4.445   2.880   0.882
14363TIP3    H143030   4.538   2.891   0.902
14363TIP3    H243031   4.432   2.933   0.803
14364TIP3   OH243032   3.837   3.247   4.623
14364TIP3    H143033   3.858   3.211   4.709
14364TIP3    H243034   3.915   3.297   4.598
14365TIP3   OH243035   4.165   2.073   4.417
14365TIP3    H143036   4.080   2.045   4.453
14365TIP3    H243037   4.146   2.156   4.374
14366TIP3   OH243038   0.918   4.348   2.148
14366TIP3    H143039   0.932   4.438   2.117
14366TIP3    H243040   0.985   4.296   2.102
14367TIP3   OH243041   0.425   4.698   4.309
14367TIP3    H143042   0.457   4.663   4.225
14367TIP3    H243043   0.330   4.686   4.305
14368TIP3   OH243044   7.637   3.617   1.946
14368TIP3    H143045   7.587   3.675   2.003
14368TIP3    H243046   7.601   3.530   1.963
14369TIP3   OH243047   2.130   5.580   0.419
14369TIP3    H143048   2.219   5.615   0.418
14369TIP3    H243049   2.080   5.638   0.362
14370TIP3   OH243050   1.367   4.908   3.494
14370TIP3    H143051   1.371   4.812   3.495
14370TIP3    H243052   1.373   4.933   3.586
14371TIP3   OH243053   2.710   1.546   3.460
14371TIP3    H143054   2.686   1.456   3.437
14371TIP3    H243055   2.777   1.537   3.528
14372TIP3   OH243056   8.027   1.805   1.146
14372TIP3    H143057   8.040   1.805   1.241
14372TIP3    H243058   7.934   1.824   1.135
14373TIP3   OH243059   6.897   0.715   0.992
14373TIP3    H143060   6.990   0.732   1.004
14373TIP3    H243061   6.856   0.802   0.996
14374TIP3   OH243062   8.199   4.957   1.415
14374TIP3    H143063   8.180   5.048   1.439
14374TIP3    H243064   8.238   4.963   1.328
14375TIP3   OH243065   8.134   6.425   1.910
14375TIP3    H143066   8.178   6.409   1.827
14375TIP3    H243067   8.158   6.351   1.965
14376TIP3   OH243068   0.456   3.515   0.383
14376TIP3    H143069   0.509   3.594   0.382
14376TIP3    H243070   0.503   3.453   0.327
14377TIP3   OH243071   8.093   4.839   5.106
14377TIP3    H143072   8.026   4.817   5.170
14377TIP3    H243073   8.174   4.843   5.156
14378TIP3   OH243074   8.121   4.803   0.394
14378TIP3    H143075   8.080   4.720   0.420
14378TIP3    H243076   8.197   4.811   0.451
14379TIP3   OH243077   0.658   0.130   0.658
14379TIP3    H143078   0.735   0.176   0.690
14379TIP3    H243079   0.616   0.094   0.736
14380TIP3   OH243080   5.904   7.169   0.548
14380TIP3    H143081   5.964   7.172   0.622
14380TIP3    H243082   5.821   7.204   0.582
14381TIP3   OH243083   0.370   1.043   1.995
14381TIP3    H143084   0.327   0.984   2.058
14381TIP3    H243085   0.462   1.020   2.000
14382TIP3   OH243086   5.455   7.582   5.930
14382TIP3    H143087   5.457   7.492   5.898
14382TIP3    H243088   5.470   7.636   5.853
14383TIP3   OH243089   0.625   3.710   0.356
14383TIP3    H143090   0.659   3.784   0.406
14383TIP3    H243091   0.571   3.750   0.288
14384TIP3   OH243092   0.626   6.173   2.237
14384TIP3    H143093   0.579   6.096   2.270
14384TIP3    H243094   0.648   6.222   2.316
14385TIP3   OH243095   6.371   3.181   0.447
14385TIP3    H143096   6.326   3.232   0.514
14385TIP3    H243097   6.304   3.163   0.381
14386TIP3   OH243098   3.020   4.975   5.967
14386TIP3    H143099   3.066   5.054   5.992
14386TIP3    H243100   3.086   4.919   5.926
14387TIP3   OH243101   7.921   5.745   5.426
14387TIP3    H143102   7.926   5.652   5.448
14387TIP3    H243103   7.949   5.750   5.335
14388TIP3   OH243104   3.564   1.555   3.298
14388TIP3    H143105   3.507   1.629   3.279
14388TIP3    H243106   3.507   1.478   3.293
14389TIP3   OH243107   5.827   3.124   3.280
14389TIP3    H143108   5.754   3.063   3.290
14389TIP3    H243109   5.845   3.124   3.185
14390TIP3   OH243110   5.949   0.322   0.217
14390TIP3    H143111   5.947   0.253   0.150
14390TIP3    H243112   5.897   0.393   0.179
14391TIP3   OH243113   2.829   5.948   5.532
14391TIP3    H143114   2.822   5.883   5.462
14391TIP3    H243115   2.842   5.897   5.612
14392TIP3   OH243116   7.404   3.870   3.220
14392TIP3    H143117   7.416   3.806   3.289
14392TIP3    H243118   7.317   3.851   3.184
14393TIP3   OH243119   7.457   5.992   2.098
14393TIP3    H143120   7.476   6.085   2.111
14393TIP3    H243121   7.400   5.990   2.021
14394TIP3   OH243122   5.553   3.211   1.795
14394TIP3    H143123   5.489   3.281   1.806
14394TIP3    H243124   5.568   3.178   1.883
14395TIP3   OH243125   1.551   3.440   2.446
14395TIP3    H143126   1.557   3.419   2.539
14395TIP3    H243127   1.457   3.443   2.427
14396TIP3   OH243128   7.943   0.180   2.590
14396TIP3    H143129   7.897   0.097   2.606
14396TIP3    H243130   7.997   0.193   2.668
14397TIP3   OH243131   1.342   4.589   2.145
14397TIP3    H143132   1.398   4.598   2.222
14397TIP3    H243133   1.292   4.671   2.142
14398TIP3   OH243134   2.176   7.608   2.225
14398TIP3    H143135   2.194   7.584   2.316
14398TIP3    H243136   2.247   7.669   2.202
14399TIP3   OH243137   1.962   4.595   4.008
14399TIP3    H143138   1.878   4.556   3.985
14399TIP3    H243139   1.954   4.686   3.979
14400TIP3   OH243140   6.452   2.699   4.172
14400TIP3    H143141   6.476   2.759   4.102
14400TIP3    H243142   6.459   2.751   4.252
14401TIP3   OH243143   3.653   5.849   4.180
14401TIP3    H143144   3.692   5.774   4.137
14401TIP3    H243145   3.720   5.918   4.174
14402TIP3   OH243146   5.317   4.092   1.223
14402TIP3    H143147   5.258   4.094   1.299
14402TIP3    H243148   5.396   4.136   1.253
14403TIP3   OH243149   0.390   0.123   0.821
14403TIP3    H143150   0.415   0.195   0.762
14403TIP3    H243151   0.298   0.106   0.801
14404TIP3   OH243152   7.294   2.426   0.853
14404TIP3    H143153   7.351   2.403   0.927
14404TIP3    H243154   7.298   2.521   0.849
14405TIP3   OH243155   1.265   6.134   0.869
14405TIP3    H143156   1.334   6.095   0.923
14405TIP3    H243157   1.292   6.225   0.857
14406TIP3   OH243158   3.118   7.085   0.649
14406TIP3    H143159   3.202   7.119   0.681
14406TIP3    H243160   3.142   7.003   0.605
14407TIP3   OH243161   4.498   0.531   5.110
14407TIP3    H143162   4.489   0.470   5.037
14407TIP3    H243163   4.411   0.567   5.123
14408TIP3   OH243164   7.968   6.872   1.297
14408TIP3    H143165   7.891   6.879   1.241
14408TIP3    H243166   8.038   6.915   1.248
14409TIP3   OH243167   3.871   7.895   1.525
14409TIP3    H143168   3.921   7.893   1.443
14409TIP3    H243169   3.888   7.810   1.566
14410TIP3   OH243170   4.543   6.186   0.402
14410TIP3    H143171   4.498   6.102   0.409
14410TIP3    H243172   4.554   6.215   0.492
14411TIP3   OH243173   4.730   2.861   2.449
14411TIP3    H143174   4.667   2.925   2.480
14411TIP3    H243175   4.682   2.778   2.448
14412TIP3   OH243176   3.462   3.176   4.184
14412TIP3    H143177   3.527   3.154   4.251
14412TIP3    H243178   3.514   3.195   4.106
14413TIP3   OH243179   6.002   2.448   5.343
14413TIP3    H143180   6.026   2.541   5.338
14413TIP3    H243181   6.072   2.402   5.297
14414TIP3   OH243182   0.074   7.046   0.399
14414TIP3    H143183   0.125   6.971   0.370
14414TIP3    H243184   0.122   7.081   0.474
14415TIP3   OH243185   6.239   3.455   6.521
14415TIP3    H143186   6.316   3.490   6.565
14415TIP3    H243187   6.167   3.472   6.581
14416TIP3   OH243188   8.371   6.725   1.682
14416TIP3    H143189   8.370   6.710   1.587
14416TIP3    H243190   8.294   6.678   1.714
14417TIP3   OH243191   1.492   0.208   0.150
14417TIP3    H143192   1.529   0.266   0.084
14417TIP3    H243193   1.481   0.264   0.228
14418TIP3   OH243194   7.795   6.569   4.816
14418TIP3    H143195   7.833   6.556   4.729
14418TIP3    H243196   7.770   6.481   4.845
14419TIP3   OH243197   0.143   4.668   4.265
14419TIP3    H143198   0.117   4.740   4.207
14419TIP3    H243199   0.068   4.654   4.321
14420TIP3   OH243200   0.894   1.310   4.430
14420TIP3    H143201   0.872   1.364   4.354
14420TIP3    H243202   0.824   1.244   4.433
14421TIP3   OH243203   7.458   6.944  -0.022
14421TIP3    H143204   7.506   6.927   0.059
14421TIP3    H243205   7.499   6.886  -0.087
14422TIP3   OH243206   6.094   3.752   1.351
14422TIP3    H143207   6.111   3.735   1.259
14422TIP3    H243208   6.024   3.817   1.351
14423TIP3   OH243209   1.677   6.182   3.104
14423TIP3    H143210   1.730   6.124   3.049
14423TIP3    H243211   1.737   6.212   3.172
14424TIP3   OH243212   3.488   2.626   2.144
14424TIP3    H143213   3.557   2.597   2.205
14424TIP3    H243214   3.407   2.595   2.184
14425TIP3   OH243215   4.136   2.739   5.375
14425TIP3    H143216   4.145   2.655   5.330
14425TIP3    H243217   4.090   2.795   5.312
14426TIP3   OH243218   5.120   6.263   0.755
14426TIP3    H143219   5.144   6.276   0.663
14426TIP3    H243220   5.123   6.168   0.767
14427TIP3   OH243221   2.465   0.706   1.879
14427TIP3    H143222   2.440   0.623   1.918
14427TIP3    H243223   2.498   0.683   1.792
14428TIP3   OH243224   1.315   3.057   5.526
14428TIP3    H143225   1.311   3.140   5.480
14428TIP3    H243226   1.335   2.992   5.458
14429TIP3   OH243227   3.422   3.239   2.351
14429TIP3    H143228   3.381   3.306   2.295
14429TIP3    H243229   3.358   3.168   2.353
14430TIP3   OH243230   3.317   0.202   2.975
14430TIP3    H143231   3.370   0.215   3.054
14430TIP3    H243232   3.227   0.216   3.004
14431TIP3   OH243233   1.477   7.283   3.187
14431TIP3    H143234   1.534   7.251   3.257
14431TIP3    H243235   1.536   7.300   3.114
14432TIP3   OH243236   4.211   5.498   1.697
14432TIP3    H143237   4.209   5.430   1.764
14432TIP3    H243238   4.265   5.460   1.627
14433TIP3   OH243239   1.595   3.085   0.291
14433TIP3    H143240   1.553   3.138   0.358
14433TIP3    H243241   1.587   2.995   0.322
14434TIP3   OH243242   3.685   4.794   4.906
14434TIP3    H143243   3.763   4.784   4.852
14434TIP3    H243244   3.719   4.811   4.994
14435TIP3   OH243245   3.937   6.992   1.984
14435TIP3    H143246   3.895   7.039   1.912
14435TIP3    H243247   3.869   6.983   2.050
14436TIP3   OH243248   6.251   6.550   3.663
14436TIP3    H143249   6.212   6.614   3.603
14436TIP3    H243250   6.283   6.480   3.606
14437TIP3   OH243251   1.224   5.131   6.370
14437TIP3    H143252   1.235   5.142   6.276
14437TIP3    H243253   1.314   5.120   6.403
14438TIP3   OH243254   2.295   1.315   4.826
14438TIP3    H143255   2.213   1.353   4.857
14438TIP3    H243256   2.273   1.225   4.802
14439TIP3   OH243257   2.093   0.160   5.802
14439TIP3    H143258   2.026   0.129   5.862
14439TIP3    H243259   2.172   0.167   5.855
14440TIP3   OH243260   5.204   7.383   3.262
14440TIP3    H143261   5.293   7.392   3.296
14440TIP3    H243262   5.148   7.416   3.331
14441TIP3   OH243263   2.014   7.757   3.988
14441TIP3    H143264   1.937   7.737   3.934
14441TIP3    H243265   2.041   7.672   4.022
14442TIP3   OH243266   7.597   4.072   0.561
14442TIP3    H143267   7.528   4.111   0.615
14442TIP3    H243268   7.671   4.060   0.621
14443TIP3   OH243269   1.468   5.175   3.137
14443TIP3    H143270   1.467   5.081   3.155
14443TIP3    H243271   1.388   5.208   3.178
14444TIP3   OH243272   6.093   5.814   5.007
14444TIP3    H143273   6.116   5.892   4.957
14444TIP3    H243274   6.009   5.835   5.047
14445TIP3   OH243275   2.034   7.426   1.667
14445TIP3    H143276   2.052   7.508   1.713
14445TIP3    H243277   1.942   7.431   1.644
14446TIP3   OH243278   8.144   4.270   5.739
14446TIP3    H143279   8.129   4.176   5.744
14446TIP3    H243280   8.068   4.304   5.691
14447TIP3   OH243281   1.204   6.810   4.438
14447TIP3    H143282   1.109   6.811   4.428
14447TIP3    H243283   1.229   6.721   4.411
14448TIP3   OH243284   5.601   5.498   3.312
14448TIP3    H143285   5.657   5.506   3.389
14448TIP3    H243286   5.512   5.506   3.347
14449TIP3   OH243287   1.924   1.286   0.128
14449TIP3    H143288   1.977   1.307   0.052
14449TIP3    H243289   1.986   1.247   0.190
14450TIP3   OH243290   5.611   1.351   3.325
14450TIP3    H143291   5.590   1.437   3.290
14450TIP3    H243292   5.565   1.290   3.267
14451TIP3   OH243293   5.038   5.505   1.373
14451TIP3    H143294   4.982   5.430   1.393
14451TIP3    H243295   5.028   5.563   1.449
14452TIP3   OH243296   0.990   6.092   0.293
14452TIP3    H143297   0.932   6.168   0.289
14452TIP3    H243298   1.073   6.127   0.323
14453TIP3   OH243299   4.424   7.729   1.320
14453TIP3    H143300   4.361   7.702   1.386
14453TIP3    H243301   4.475   7.650   1.301
14454TIP3   OH243302   7.709   2.484   2.626
14454TIP3    H143303   7.793   2.480   2.672
14454TIP3    H243304   7.723   2.435   2.545
14455TIP3   OH243305   5.902   2.349   2.004
14455TIP3    H143306   5.858   2.330   2.087
14455TIP3    H243307   5.942   2.266   1.978
14456TIP3   OH243308   2.116   6.077   5.226
14456TIP3    H143309   2.118   6.149   5.290
14456TIP3    H243310   2.081   6.003   5.275
14457TIP3   OH243311   2.403   6.916   5.745
14457TIP3    H143312   2.370   6.905   5.835
14457TIP3    H243313   2.349   6.986   5.709
14458TIP3   OH243314   1.979   0.970   1.521
14458TIP3    H143315   1.906   1.016   1.478
14458TIP3    H243316   1.938   0.896   1.565
14459TIP3   OH243317   3.333   7.337   3.845
14459TIP3    H143318   3.375   7.373   3.767
14459TIP3    H243319   3.249   7.382   3.850
14460TIP3   OH243320   0.112   1.650   1.658
14460TIP3    H143321   0.084   1.585   1.594
14460TIP3    H243322   0.190   1.690   1.620
14461TIP3   OH243323   8.000   3.473   4.573
14461TIP3    H143324   8.091   3.460   4.549
14461TIP3    H243325   7.989   3.568   4.578
14462TIP3   OH243326   7.872   1.608   3.214
14462TIP3    H143327   7.837   1.530   3.171
14462TIP3    H243328   7.967   1.594   3.216
14463TIP3   OH243329   5.519   3.537   2.018
14463TIP3    H143330   5.517   3.560   2.111
14463TIP3    H243331   5.554   3.448   2.016
14464TIP3   OH243332   2.799   5.697   0.377
14464TIP3    H143333   2.818   5.784   0.342
14464TIP3    H243334   2.838   5.697   0.464
14465TIP3   OH243335   3.997   6.219   0.891
14465TIP3    H143336   4.089   6.194   0.901
14465TIP3    H243337   4.000   6.300   0.840
14466TIP3   OH243338   0.589   1.428   1.916
14466TIP3    H143339   0.662   1.370   1.938
14466TIP3    H243340   0.511   1.380   1.946
14467TIP3   OH243341   5.064   4.426   3.161
14467TIP3    H143342   4.984   4.385   3.193
14467TIP3    H243343   5.127   4.414   3.232
14468TIP3   OH243344   2.504   0.555   1.262
14468TIP3    H143345   2.430   0.548   1.201
14468TIP3    H243346   2.473   0.512   1.342
14469TIP3   OH243347   1.956   4.720   1.018
14469TIP3    H143348   1.951   4.803   1.065
14469TIP3    H243349   2.047   4.716   0.986
14470TIP3   OH243350   4.018   3.786   0.828
14470TIP3    H143351   3.962   3.713   0.802
14470TIP3    H243352   3.964   3.839   0.886
14471TIP3   OH243353   1.483   3.967   3.091
14471TIP3    H143354   1.427   4.033   3.049
14471TIP3    H243355   1.522   3.918   3.019
14472TIP3   OH243356   7.521   3.469   4.707
14472TIP3    H143357   7.503   3.527   4.781
14472TIP3    H243358   7.616   3.457   4.709
14473TIP3   OH243359   7.059   5.234   6.316
14473TIP3    H143360   7.030   5.217   6.227
14473TIP3    H243361   7.115   5.159   6.338
14474TIP3   OH243362   2.717   0.230   5.294
14474TIP3    H143363   2.626   0.222   5.268
14474TIP3    H243364   2.713   0.254   5.387
14475TIP3   OH243365   5.069   4.563   4.043
14475TIP3    H143366   5.147   4.602   4.082
14475TIP3    H243367   5.011   4.545   4.116
14476TIP3   OH243368   1.569   5.858   0.556
14476TIP3    H143369   1.622   5.780   0.535
14476TIP3    H243370   1.633   5.924   0.583
14477TIP3   OH243371   8.003   7.447   3.610
14477TIP3    H143372   8.011   7.535   3.646
14477TIP3    H243373   7.909   7.434   3.599
14478TIP3   OH243374   2.567   3.468   4.005
14478TIP3    H143375   2.567   3.383   4.048
14478TIP3    H243376   2.584   3.531   4.075
14479TIP3   OH243377   8.087   7.067   1.127
14479TIP3    H143378   8.137   7.139   1.167
14479TIP3    H243379   8.151   7.018   1.076
14480TIP3   OH243380   6.828   1.599   6.295
14480TIP3    H143381   6.916   1.592   6.260
14480TIP3    H243382   6.791   1.676   6.252
14481TIP3   OH243383   2.870   3.498   1.172
14481TIP3    H143384   2.896   3.514   1.082
14481TIP3    H243385   2.952   3.474   1.216
14482TIP3   OH243386   5.280   3.657   5.435
14482TIP3    H143387   5.208   3.625   5.381
14482TIP3    H243388   5.359   3.625   5.392
14483TIP3   OH243389  -0.006   3.231   6.219
14483TIP3    H143390   0.002   3.302   6.156
14483TIP3    H243391   0.074   3.179   6.209
14484TIP3   OH243392   1.961   7.598   0.803
14484TIP3    H143393   1.903   7.526   0.777
14484TIP3    H243394   2.047   7.572   0.772
14485TIP3   OH243395   6.204   4.442   2.446
14485TIP3    H143396   6.217   4.348   2.460
14485TIP3    H243397   6.281   4.483   2.485
14486TIP3   OH243398   6.131   6.192   4.428
14486TIP3    H143399   6.152   6.118   4.485
14486TIP3    H243400   6.212   6.242   4.423
14487TIP3   OH243401   3.268   1.796   5.453
14487TIP3    H143402   3.285   1.768   5.363
14487TIP3    H243403   3.335   1.861   5.471
14488TIP3   OH243404   6.839   1.057   1.083
14488TIP3    H143405   6.765   1.114   1.061
14488TIP3    H243406   6.834   1.046   1.177
14489TIP3   OH243407   4.697   7.807   0.233
14489TIP3    H143408   4.602   7.817   0.230
14489TIP3    H243409   4.729   7.887   0.275
14490TIP3   OH243410   5.734   6.404   5.678
14490TIP3    H143411   5.713   6.318   5.715
14490TIP3    H243412   5.697   6.467   5.740
14491TIP3   OH243413   3.431   6.310   0.653
14491TIP3    H143414   3.447   6.320   0.747
14491TIP3    H243415   3.428   6.400   0.619
14492TIP3   OH243416   5.785   5.042   0.528
14492TIP3    H143417   5.858   5.088   0.486
14492TIP3    H243418   5.734   5.111   0.570
14493TIP3   OH243419   4.491   0.705   2.739
14493TIP3    H143420   4.443   0.686   2.658
14493TIP3    H243421   4.422   0.721   2.804
14494TIP3   OH243422   6.954   6.602   4.258
14494TIP3    H143423   6.926   6.553   4.180
14494TIP3    H243424   6.877   6.603   4.315
14495TIP3   OH243425   4.108   0.870   5.758
14495TIP3    H143426   4.151   0.791   5.724
14495TIP3    H243427   4.071   0.844   5.842
14496TIP3   OH243428   3.757   2.796   5.500
14496TIP3    H143429   3.731   2.884   5.473
14496TIP3    H243430   3.720   2.738   5.433
14497TIP3   OH243431   6.329   1.845   0.366
14497TIP3    H143432   6.337   1.934   0.399
14497TIP3    H243433   6.420   1.814   0.359
14498TIP3   OH243434   0.450   0.310   6.423
14498TIP3    H143435   0.415   0.390   6.462
14498TIP3    H243436   0.541   0.330   6.402
14499TIP3   OH243437   0.547   1.435   0.326
14499TIP3    H143438   0.489   1.424   0.401
14499TIP3    H243439   0.531   1.524   0.295
14500TIP3   OH243440   1.906   7.326   0.152
14500TIP3    H143441   1.820   7.322   0.109
14500TIP3    H243442   1.896   7.268   0.228
14501TIP3   OH243443   2.660   0.601   2.929
14501TIP3    H143444   2.629   0.651   2.853
14501TIP3    H243445   2.606   0.632   3.002
14502TIP3   OH243446   5.267   0.424   3.648
14502TIP3    H143447   5.201   0.371   3.604
14502TIP3    H243448   5.217   0.487   3.699
14503TIP3   OH243449   0.475   7.779   0.073
14503TIP3    H143450   0.528   7.821   0.005
14503TIP3    H243451   0.389   7.768   0.033
14504TIP3   OH243452   0.238   2.050   3.892
14504TIP3    H143453   0.148   2.070   3.866
14504TIP3    H243454   0.268   1.987   3.827
14505TIP3   OH243455   2.171   0.917   2.904
14505TIP3    H143456   2.157   0.855   2.833
14505TIP3    H243457   2.194   0.863   2.979
14506TIP3   OH243458   6.391   2.237   6.018
14506TIP3    H143459   6.390   2.308   5.953
14506TIP3    H243460   6.363   2.159   5.969
14507TIP3   OH243461   5.672   0.695   0.764
14507TIP3    H143462   5.735   0.660   0.701
14507TIP3    H243463   5.715   0.684   0.849
14508TIP3   OH243464   2.774   0.643   4.414
14508TIP3    H143465   2.696   0.696   4.430
14508TIP3    H243466   2.838   0.704   4.379
14509TIP3   OH243467   3.248   4.592   2.604
14509TIP3    H143468   3.254   4.605   2.698
14509TIP3    H243469   3.336   4.613   2.571
14510TIP3   OH243470   5.892   4.475   2.586
14510TIP3    H143471   5.823   4.411   2.574
14510TIP3    H243472   5.951   4.436   2.650
14511TIP3   OH243473   0.679   5.212   5.548
14511TIP3    H143474   0.709   5.281   5.488
14511TIP3    H243475   0.752   5.151   5.553
14512TIP3   OH243476   8.073   6.141   0.491
14512TIP3    H143477   8.058   6.090   0.412
14512TIP3    H243478   8.080   6.075   0.561
14513TIP3   OH243479   8.278   3.338   0.836
14513TIP3    H143480   8.312   3.250   0.820
14513TIP3    H243481   8.230   3.360   0.756
14514TIP3   OH243482   8.201   4.774   3.858
14514TIP3    H143483   8.172   4.716   3.787
14514TIP3    H243484   8.297   4.767   3.856
14515TIP3   OH243485   0.257   3.044   1.125
14515TIP3    H143486   0.210   3.007   1.201
14515TIP3    H243487   0.190   3.093   1.078
14516TIP3   OH243488   5.265   4.289   5.968
14516TIP3    H143489   5.314   4.243   5.900
14516TIP3    H243490   5.264   4.380   5.938
14517TIP3   OH243491   0.929   0.359   4.782
14517TIP3    H143492   0.928   0.281   4.837
14517TIP3    H243493   0.843   0.399   4.795
14518TIP3   OH243494   8.096   3.793   0.168
14518TIP3    H143495   8.163   3.854   0.198
14518TIP3    H243496   8.137   3.747   0.094
14519TIP3   OH243497   4.079   1.072   6.471
14519TIP3    H143498   4.170   1.101   6.480
14519TIP3    H243499   4.029   1.153   6.460
14520TIP3   OH243500   5.608   3.505   4.265
14520TIP3    H143501   5.646   3.475   4.182
14520TIP3    H243502   5.590   3.424   4.314
14521TIP3   OH243503   4.735   1.998   0.334
14521TIP3    H143504   4.754   2.034   0.247
14521TIP3    H243505   4.672   1.928   0.318
14522TIP3   OH243506   0.560   5.355   5.225
14522TIP3    H143507   0.618   5.399   5.288
14522TIP3    H243508   0.495   5.311   5.279
14523TIP3   OH243509   1.782   3.876   4.154
14523TIP3    H143510   1.756   3.796   4.109
14523TIP3    H243511   1.760   3.946   4.092
14524TIP3   OH243512   2.642   1.489   4.221
14524TIP3    H143513   2.594   1.519   4.299
14524TIP3    H243514   2.646   1.567   4.165
14525TIP3   OH243515   2.011   2.518   5.161
14525TIP3    H143516   2.041   2.571   5.236
14525TIP3    H243517   1.950   2.576   5.115
14526TIP3   OH243518   8.165   5.476   4.751
14526TIP3    H143519   8.181   5.477   4.657
14526TIP3    H243520   8.250   5.454   4.790
14527TIP3   OH243521   5.144   6.310   0.222
14527TIP3    H143522   5.197   6.388   0.208
14527TIP3    H243523   5.070   6.320   0.163
14528TIP3   OH243524   0.203   4.234   6.244
14528TIP3    H143525   0.115   4.234   6.208
14528TIP3    H243526   0.256   4.282   6.180
14529TIP3   OH243527   5.016   1.525   1.052
14529TIP3    H143528   5.000   1.477   0.971
14529TIP3    H243529   5.111   1.533   1.058
14530TIP3   OH243530   4.021   1.160   4.052
14530TIP3    H143531   4.040   1.242   4.097
14530TIP3    H243532   4.100   1.142   4.001
14531TIP3   OH243533   2.658   0.234   4.103
14531TIP3    H143534   2.739   0.185   4.090
14531TIP3    H243535   2.598   0.170   4.143
14532TIP3   OH243536   1.210   4.071   6.192
14532TIP3    H143537   1.289   4.046   6.241
14532TIP3    H243538   1.208   4.167   6.198
14533TIP3   OH243539   7.596   1.014   3.736
14533TIP3    H143540   7.521   1.057   3.695
14533TIP3    H243541   7.672   1.062   3.703
14534TIP3   OH243542   4.856   6.867   4.292
14534TIP3    H143543   4.810   6.786   4.272
14534TIP3    H243544   4.935   6.864   4.239
14535TIP3   OH243545   1.968   0.988   1.850
14535TIP3    H143546   2.024   0.965   1.775
14535TIP3    H243547   1.994   0.926   1.919
14536TIP3   OH243548   5.202   5.504   2.864
14536TIP3    H143549   5.121   5.465   2.832
14536TIP3    H243550   5.270   5.442   2.839
14537TIP3   OH243551   7.257   1.596   1.997
14537TIP3    H143552   7.322   1.607   2.066
14537TIP3    H243553   7.206   1.677   1.998
14538TIP3   OH243554   3.848   1.412   6.475
14538TIP3    H143555   3.908   1.416   6.401
14538TIP3    H243556   3.815   1.322   6.475
14539TIP3   OH243557   1.531   1.713   6.368
14539TIP3    H143558   1.610   1.708   6.314
14539TIP3    H243559   1.460   1.724   6.305
14540TIP3   OH243560   8.224   5.196   2.172
14540TIP3    H143561   8.216   5.270   2.233
14540TIP3    H243562   8.210   5.235   2.086
14541TIP3   OH243563   0.503   2.209   1.895
14541TIP3    H143564   0.515   2.147   1.967
14541TIP3    H243565   0.428   2.176   1.847
14542TIP3   OH243566   4.129   7.810   0.767
14542TIP3    H143567   4.048   7.766   0.792
14542TIP3    H243568   4.122   7.821   0.673
14543TIP3   OH243569   4.079   3.903   1.684
14543TIP3    H143570   4.096   3.985   1.730
14543TIP3    H243571   4.119   3.915   1.598
14544TIP3   OH243572   5.324   2.552   0.016
14544TIP3    H143573   5.356   2.527   0.103
14544TIP3    H243574   5.231   2.571   0.029
14545TIP3   OH243575   5.961   4.092   0.529
14545TIP3    H143576   5.989   4.032   0.599
14545TIP3    H243577   5.942   4.174   0.575
14546TIP3   OH243578   3.267   5.019   5.038
14546TIP3    H143579   3.342   5.003   4.980
14546TIP3    H243580   3.256   4.938   5.087
14547TIP3   OH243581   3.905   6.361   2.773
14547TIP3    H143582   3.994   6.371   2.740
14547TIP3    H243583   3.908   6.395   2.863
14548TIP3   OH243584   5.921   0.175   5.150
14548TIP3    H143585   5.917   0.249   5.089
14548TIP3    H243586   5.903   0.098   5.096
14549TIP3   OH243587   3.278   6.381   4.940
14549TIP3    H143588   3.318   6.298   4.914
14549TIP3    H243589   3.216   6.400   4.870
14550TIP3   OH243590   0.539   6.436   2.695
14550TIP3    H143591   0.624   6.395   2.680
14550TIP3    H243592   0.528   6.435   2.790
14551TIP3   OH243593   2.894   6.647   6.406
14551TIP3    H143594   2.885   6.598   6.325
14551TIP3    H243595   2.838   6.724   6.394
14552TIP3   OH243596   7.284   6.879   2.841
14552TIP3    H143597   7.227   6.820   2.891
14552TIP3    H243598   7.240   6.888   2.757
14553TIP3   OH243599   4.423   7.863   0.242
14553TIP3    H143600   4.427   7.819   0.327
14553TIP3    H243601   4.341   7.834   0.203
14554TIP3   OH243602   4.771   1.019   0.837
14554TIP3    H143603   4.685   1.037   0.800
14554TIP3    H243604   4.760   0.935   0.881
14555TIP3   OH243605   2.014   0.250   5.568
14555TIP3    H143606   1.919   0.236   5.566
14555TIP3    H243607   2.044   0.201   5.644
14556TIP3   OH243608   0.356   5.466   5.684
14556TIP3    H143609   0.422   5.399   5.703
14556TIP3    H243610   0.280   5.440   5.735
14557TIP3   OH243611   4.551   5.997   0.843
14557TIP3    H143612   4.517   5.941   0.913
14557TIP3    H243613   4.597   5.937   0.784
14558TIP3   OH243614   5.032   5.661   0.588
14558TIP3    H143615   4.982   5.579   0.597
14558TIP3    H243616   4.970   5.730   0.611
14559TIP3   OH243617   0.525   2.440   6.079
14559TIP3    H143618   0.617   2.414   6.084
14559TIP3    H243619   0.514   2.503   6.151
14560TIP3   OH243620   1.319   0.060   2.994
14560TIP3    H143621   1.362   0.125   3.049
14560TIP3    H243622   1.283   0.111   2.921
14561TIP3   OH243623   8.177   0.547   0.792
14561TIP3    H143624   8.133   0.508   0.717
14561TIP3    H243625   8.232   0.616   0.755
14562TIP3   OH243626   5.059   2.658   4.791
14562TIP3    H143627   4.966   2.652   4.814
14562TIP3    H243628   5.083   2.569   4.764
14563TIP3   OH243629   7.138   6.934   2.319
14563TIP3    H143630   7.216   6.906   2.272
14563TIP3    H243631   7.138   7.029   2.310
14564TIP3   OH243632   6.137   4.966   0.274
14564TIP3    H143633   6.171   5.041   0.225
14564TIP3    H243634   6.124   4.898   0.207
14565TIP3   OH243635   7.639   5.946   3.081
14565TIP3    H143636   7.659   6.014   3.145
14565TIP3    H243637   7.720   5.897   3.072
14566TIP3   OH243638   1.970   6.045   3.573
14566TIP3    H143639   1.905   6.105   3.610
14566TIP3    H243640   2.054   6.086   3.592
14567TIP3   OH243641   7.791   7.049   4.896
14567TIP3    H143642   7.730   7.044   4.970
14567TIP3    H243643   7.765   6.977   4.839
14568TIP3   OH243644   2.145   3.413   0.157
14568TIP3    H143645   2.222   3.397   0.101
14568TIP3    H243646   2.084   3.459   0.100
14569TIP3   OH243647   3.473   1.967   4.494
14569TIP3    H143648   3.475   1.884   4.446
14569TIP3    H243649   3.504   2.032   4.431
14570TIP3   OH243650   4.378   2.329   5.905
14570TIP3    H143651   4.330   2.326   5.988
14570TIP3    H243652   4.359   2.245   5.863
14571TIP3   OH243653   7.270   4.247   5.640
14571TIP3    H143654   7.335   4.257   5.711
14571TIP3    H243655   7.302   4.304   5.570
14572TIP3   OH243656   1.252   0.122   1.762
14572TIP3    H143657   1.257   0.177   1.840
14572TIP3    H243658   1.219   0.038   1.795
14573TIP3   OH243659   1.060   5.973   5.859
14573TIP3    H143660   0.977   5.925   5.856
14573TIP3    H243661   1.118   5.917   5.910
14574TIP3   OH243662   7.459   7.155   3.750
14574TIP3    H143663   7.516   7.175   3.676
14574TIP3    H243664   7.389   7.220   3.744
14575TIP3   OH243665   6.347   0.727   1.364
14575TIP3    H143666   6.316   0.673   1.436
14575TIP3    H243667   6.317   0.816   1.386
14576TIP3   OH243668   4.065   0.155  -0.006
14576TIP3    H143669   4.111   0.191   0.070
14576TIP3    H243670   4.107   0.070  -0.021
14577TIP3   OH243671   2.338   2.963   3.425
14577TIP3    H143672   2.302   3.014   3.351
14577TIP3    H243673   2.348   2.875   3.390
14578TIP3   OH243674   4.411   1.955   2.422
14578TIP3    H143675   4.360   1.979   2.499
14578TIP3    H243676   4.398   2.027   2.361
14579TIP3   OH243677   7.601   5.702   6.098
14579TIP3    H143678   7.533   5.636   6.109
14579TIP3    H243679   7.620   5.702   6.004
14580TIP3   OH243680   1.317   1.911   2.452
14580TIP3    H143681   1.397   1.912   2.399
14580TIP3    H243682   1.294   2.003   2.462
14581TIP3   OH243683   2.061   1.445   3.461
14581TIP3    H143684   2.030   1.362   3.497
14581TIP3    H243685   2.128   1.475   3.523
14582TIP3   OH243686   0.017   1.275   3.155
14582TIP3    H143687   0.034   1.359   3.200
14582TIP3    H243688   0.072   1.212   3.202
14583TIP3   OH243689   0.925   5.406   1.279
14583TIP3    H143690   0.887   5.434   1.196
14583TIP3    H243691   0.913   5.480   1.338
14584TIP3   OH243692   7.415   3.121   2.922
14584TIP3    H143693   7.493   3.175   2.911
14584TIP3    H243694   7.447   3.039   2.959
14585TIP3   OH243695   1.342   3.541   3.321
14585TIP3    H143696   1.342   3.636   3.310
14585TIP3    H243697   1.395   3.508   3.249
14586TIP3   OH243698   2.228   6.723   4.890
14586TIP3    H143699   2.307   6.778   4.887
14586TIP3    H243700   2.166   6.768   4.833
14587TIP3   OH243701   3.296   5.810   6.027
14587TIP3    H143702   3.223   5.748   6.016
14587TIP3    H243703   3.369   5.770   5.981
14588TIP3   OH243704   5.400   7.710   5.014
14588TIP3    H143705   5.373   7.787   4.964
14588TIP3    H243706   5.356   7.720   5.099
14589TIP3   OH243707   6.413   5.115   3.705
14589TIP3    H143708   6.428   5.191   3.761
14589TIP3    H243709   6.491   5.061   3.716
14590TIP3   OH243710   2.514   1.158   1.005
14590TIP3    H143711   2.445   1.222   0.985
14590TIP3    H243712   2.539   1.178   1.095
14591TIP3   OH243713   3.572   6.727   4.337
14591TIP3    H143714   3.497   6.784   4.356
14591TIP3    H243715   3.648   6.783   4.351
14592TIP3   OH243716   4.511   0.985   4.262
14592TIP3    H143717   4.467   0.925   4.202
14592TIP3    H243718   4.601   0.955   4.264
14593TIP3   OH243719   6.138   2.822   4.397
14593TIP3    H143720   6.158   2.741   4.443
14593TIP3    H243721   6.044   2.816   4.378
14594TIP3   OH243722   7.426   0.688   1.696
14594TIP3    H143723   7.512   0.730   1.689
14594TIP3    H243724   7.439   0.603   1.654
14595TIP3   OH243725   4.213   6.215   0.321
14595TIP3    H143726   4.226   6.191   0.412
14595TIP3    H243727   4.127   6.256   0.319
14596TIP3   OH243728   2.075   2.539   3.871
14596TIP3    H143729   2.091   2.566   3.781
14596TIP3    H243730   1.986   2.504   3.871
14597TIP3   OH243731   3.891   4.203   6.105
14597TIP3    H143732   3.813   4.186   6.158
14597TIP3    H243733   3.870   4.283   6.057
14598TIP3   OH243734   6.542   2.170   6.239
14598TIP3    H143735   6.605   2.238   6.263
14598TIP3    H243736   6.503   2.201   6.158
14599TIP3   OH243737   6.622   1.530   2.296
14599TIP3    H143738   6.664   1.498   2.216
14599TIP3    H243739   6.683   1.508   2.366
14600TIP3   OH243740   4.866   2.489   2.596
14600TIP3    H143741   4.901   2.567   2.553
14600TIP3    H243742   4.940   2.452   2.644
14601TIP3   OH243743   5.235   0.433   1.068
14601TIP3    H143744   5.254   0.344   1.098
14601TIP3    H243745   5.299   0.487   1.113
14602TIP3   OH243746   1.235   4.731   3.934
14602TIP3    H143747   1.246   4.762   3.844
14602TIP3    H243748   1.318   4.751   3.976
14603TIP3   OH243749   2.799   3.449   6.303
14603TIP3    H143750   2.831   3.516   6.363
14603TIP3    H243751   2.761   3.382   6.359
14604TIP3   OH243752   3.750   1.418   2.357
14604TIP3    H143753   3.719   1.376   2.276
14604TIP3    H243754   3.836   1.452   2.335
14605TIP3   OH243755   2.202   5.150   2.546
14605TIP3    H143756   2.269   5.188   2.603
14605TIP3    H243757   2.187   5.062   2.581
14606TIP3   OH243758   4.739   5.634   3.576
14606TIP3    H143759   4.674   5.589   3.523
14606TIP3    H243760   4.821   5.587   3.560
14607TIP3   OH243761   2.039   0.054   3.675
14607TIP3    H143762   2.082   0.011   3.601
14607TIP3    H243763   2.111   0.092   3.726
14608TIP3   OH243764   0.367   3.445   3.236
14608TIP3    H143765   0.447   3.419   3.281
14608TIP3    H243766   0.299   3.389   3.274
14609TIP3   OH243767   6.487   2.357   2.862
14609TIP3    H143768   6.561   2.360   2.923
14609TIP3    H243769   6.446   2.443   2.871
14610TIP3   OH243770   1.027   0.660   4.811
14610TIP3    H143771   1.060   0.571   4.796
14610TIP3    H243772   1.106   0.713   4.823
14611TIP3   OH243773   1.550   6.236   3.882
14611TIP3    H143774   1.551   6.223   3.787
14611TIP3    H243775   1.457   6.238   3.905
14612TIP3   OH243776   4.233   7.429   4.490
14612TIP3    H143777   4.302   7.471   4.439
14612TIP3    H243778   4.278   7.365   4.544
14613TIP3   OH243779   4.787   0.141   5.640
14613TIP3    H143780   4.708   0.151   5.693
14613TIP3    H243781   4.779   0.210   5.574
14614TIP3   OH243782   3.750   4.143   3.099
14614TIP3    H143783   3.676   4.195   3.070
14614TIP3    H243784   3.813   4.208   3.133
14615TIP3   OH243785   4.847   3.783   6.551
14615TIP3    H143786   4.913   3.723   6.586
14615TIP3    H243787   4.851   3.769   6.456
14616TIP3   OH243788   5.331   0.510   6.722
14616TIP3    H143789   5.336   0.499   6.817
14616TIP3    H243790   5.315   0.603   6.709
14617TIP3   OH243791   6.805   2.876   5.131
14617TIP3    H143792   6.709   2.874   5.137
14617TIP3    H243793   6.835   2.884   5.221
14618TIP3   OH243794   1.793   4.726   5.192
14618TIP3    H143795   1.794   4.777   5.111
14618TIP3    H243796   1.754   4.785   5.257
14619TIP3   OH243797   5.001   4.217   3.485
14619TIP3    H143798   5.041   4.153   3.544
14619TIP3    H243799   4.977   4.291   3.542
14620TIP3   OH243800   5.797   4.454   4.685
14620TIP3    H143801   5.830   4.364   4.684
14620TIP3    H243802   5.753   4.464   4.600
14621TIP3   OH243803   6.904   2.062   3.253
14621TIP3    H143804   6.933   2.094   3.339
14621TIP3    H243805   6.821   2.018   3.270
14622TIP3   OH243806   1.938   1.657   1.192
14622TIP3    H143807   1.895   1.576   1.220
14622TIP3    H243808   2.010   1.669   1.254
14623TIP3   OH243809   6.419   5.261   3.401
14623TIP3    H143810   6.515   5.260   3.408
14623TIP3    H243811   6.389   5.226   3.485
14624TIP3   OH243812   5.035   0.743   6.712
14624TIP3    H143813   4.991   0.819   6.675
14624TIP3    H243814   5.076   0.701   6.636
14625TIP3   OH243815   8.059   2.262   5.675
14625TIP3    H143816   7.978   2.229   5.716
14625TIP3    H243817   8.114   2.184   5.665
14626TIP3   OH243818   0.827   0.785   6.005
14626TIP3    H143819   0.870   0.868   5.986
14626TIP3    H243820   0.814   0.785   6.099
14627TIP3   OH243821   7.662   5.128   3.504
14627TIP3    H143822   7.571   5.136   3.529
14627TIP3    H243823   7.697   5.059   3.560
14628TIP3   OH243824   6.002   0.742   4.801
14628TIP3    H143825   6.094   0.766   4.811
14628TIP3    H243826   5.955   0.798   4.863
14629TIP3   OH243827   5.337   4.474   1.933
14629TIP3    H143828   5.246   4.446   1.918
14629TIP3    H243829   5.386   4.392   1.941
14630TIP3   OH243830   2.460   2.702   0.604
14630TIP3    H143831   2.478   2.660   0.520
14630TIP3    H243832   2.371   2.737   0.595
14631TIP3   OH243833   8.221   6.543   4.308
14631TIP3    H143834   8.174   6.627   4.301
14631TIP3    H243835   8.200   6.511   4.396
14632TIP3   OH243836   5.411   5.789   5.998
14632TIP3    H143837   5.459   5.736   6.062
14632TIP3    H243838   5.446   5.877   6.010
14633TIP3   OH243839   7.738   2.792   3.415
14633TIP3    H143840   7.797   2.769   3.343
14633TIP3    H243841   7.761   2.733   3.486
14634TIP3   OH243842   6.852   6.805   0.508
14634TIP3    H143843   6.853   6.900   0.521
14634TIP3    H243844   6.809   6.771   0.586
14635TIP3   OH243845   4.703   7.827   1.319
14635TIP3    H143846   4.632   7.764   1.332
14635TIP3    H243847   4.659   7.910   1.303
14636TIP3   OH243848   2.113   2.765   1.786
14636TIP3    H143849   2.106   2.859   1.767
14636TIP3    H243850   2.119   2.724   1.700
14637TIP3   OH243851   2.608   0.939   2.952
14637TIP3    H143852   2.691   0.936   2.903
14637TIP3    H243853   2.549   0.990   2.897
14638TIP3   OH243854   7.162   1.007   3.433
14638TIP3    H143855   7.076   1.043   3.409
14638TIP3    H243856   7.186   0.952   3.359
14639TIP3   OH243857   7.789   3.250   6.199
14639TIP3    H143858   7.742   3.215   6.123
14639TIP3    H243859   7.882   3.240   6.177
14640TIP3   OH243860   5.561   4.791   0.908
14640TIP3    H143861   5.642   4.746   0.884
14640TIP3    H243862   5.571   4.879   0.872
14641TIP3   OH243863   2.997   4.422   6.367
14641TIP3    H143864   2.971   4.502   6.413
14641TIP3    H243865   3.012   4.451   6.277
14642TIP3   OH243866   8.226   0.851   5.506
14642TIP3    H143867   8.298   0.913   5.506
14642TIP3    H243868   8.174   0.873   5.429
14643TIP3   OH243869   7.850   3.079   2.339
14643TIP3    H143870   7.851   3.007   2.401
14643TIP3    H243871   7.765   3.120   2.351
14644TIP3   OH243872   1.985   3.576   6.430
14644TIP3    H143873   2.009   3.629   6.354
14644TIP3    H243874   2.062   3.522   6.447
14645TIP3   OH243875   0.749   4.749   3.126
14645TIP3    H143876   0.825   4.699   3.096
14645TIP3    H243877   0.693   4.684   3.169
14646TIP3   OH243878   0.619   1.938   5.427
14646TIP3    H143879   0.646   1.873   5.362
14646TIP3    H243880   0.541   1.979   5.389
14647TIP3   OH243881   0.911   7.154   5.826
14647TIP3    H143882   1.001   7.181   5.810
14647TIP3    H243883   0.876   7.220   5.886
14648TIP3   OH243884   1.471   2.340   0.105
14648TIP3    H143885   1.486   2.300   0.191
14648TIP3    H243886   1.521   2.422   0.108
14649TIP3   OH243887   8.343   1.774   2.991
14649TIP3    H143888   8.391   1.839   2.940
14649TIP3    H243889   8.259   1.817   3.011
14650TIP3   OH243890   8.117   6.313   3.001
14650TIP3    H143891   8.197   6.259   2.998
14650TIP3    H243892   8.148   6.401   2.982
14651TIP3   OH243893   5.407   2.648   3.593
14651TIP3    H143894   5.408   2.744   3.589
14651TIP3    H243895   5.367   2.628   3.678
14652TIP3   OH243896   1.494   1.807   2.179
14652TIP3    H143897   1.496   1.759   2.261
14652TIP3    H243898   1.503   1.740   2.111
14653TIP3   OH243899   2.076   3.535   3.796
14653TIP3    H143900   2.161   3.571   3.819
14653TIP3    H243901   2.093   3.480   3.719
14654TIP3   OH243902   1.708   1.954   5.210
14654TIP3    H143903   1.674   1.941   5.298
14654TIP3    H243904   1.785   1.897   5.205
14655TIP3   OH243905   5.397   0.756   2.602
14655TIP3    H143906   5.421   0.723   2.515
14655TIP3    H243907   5.350   0.837   2.584
14656TIP3   OH243908   7.053   0.651   6.611
14656TIP3    H143909   7.117   0.720   6.630
14656TIP3    H243910   6.968   0.694   6.617
14657TIP3   OH243911   7.659   7.555   3.905
14657TIP3    H143912   7.728   7.507   3.952
14657TIP3    H243913   7.595   7.578   3.972
14658TIP3   OH243914   2.649   5.227   2.783
14658TIP3    H143915   2.696   5.150   2.749
14658TIP3    H243916   2.717   5.295   2.788
14659TIP3   OH243917   2.931   4.070   2.653
14659TIP3    H143918   3.003   4.007   2.654
14659TIP3    H243919   2.968   4.149   2.692
14660TIP3   OH243920   0.343   0.035   2.311
14660TIP3    H143921   0.284   0.110   2.307
14660TIP3    H243922   0.414   0.063   2.368
14661TIP3   OH243923   2.589   0.931   1.958
14661TIP3    H143924   2.640   0.915   1.878
14661TIP3    H243925   2.547   0.847   1.976
14662TIP3   OH243926   4.999   3.540   3.599
14662TIP3    H143927   4.972   3.450   3.582
14662TIP3    H243928   5.032   3.538   3.689
14663TIP3   OH243929   2.134   0.371   6.489
14663TIP3    H143930   2.203   0.394   6.426
14663TIP3    H243931   2.167   0.404   6.573
14664TIP3   OH243932   5.299   2.460   2.141
14664TIP3    H143933   5.238   2.533   2.131
14664TIP3    H243934   5.254   2.385   2.102
14665TIP3   OH243935   3.527   3.562   1.392
14665TIP3    H143936   3.578   3.622   1.446
14665TIP3    H243937   3.473   3.513   1.453
14666TIP3   OH243938   3.317   4.572   4.999
14666TIP3    H143939   3.370   4.507   5.044
14666TIP3    H243940   3.301   4.640   5.065
14667TIP3   OH243941   7.750   3.586   1.656
14667TIP3    H143942   7.718   3.497   1.639
14667TIP3    H243943   7.722   3.636   1.579
14668TIP3   OH243944   0.695   3.870   1.836
14668TIP3    H143945   0.643   3.947   1.814
14668TIP3    H243946   0.696   3.818   1.756
14669TIP3   OH243947   0.549   6.540   3.842
14669TIP3    H143948   0.463   6.578   3.857
14669TIP3    H243949   0.532   6.460   3.792
14670TIP3   OH243950   3.288   5.439   6.662
14670TIP3    H143951   3.227   5.383   6.615
14670TIP3    H243952   3.295   5.400   6.749
14671TIP3   OH243953   5.006   0.141   0.193
14671TIP3    H143954   5.008   0.069   0.129
14671TIP3    H243955   4.957   0.106   0.267
14672TIP3   OH243956   6.699   4.076   6.237
14672TIP3    H143957   6.622   4.021   6.253
14672TIP3    H243958   6.692   4.101   6.145
14673TIP3   OH243959   6.281   3.292   5.747
14673TIP3    H143960   6.318   3.380   5.751
14673TIP3    H243961   6.337   3.245   5.684
14674TIP3   OH243962   4.074   4.253   4.527
14674TIP3    H143963   4.123   4.259   4.445
14674TIP3    H243964   3.982   4.253   4.499
14675TIP3   OH243965   5.117   3.174   6.824
14675TIP3    H143966   5.176   3.222   6.766
14675TIP3    H243967   5.050   3.239   6.848
14676TIP3   OH243968   4.034   4.420   2.191
14676TIP3    H143969   4.124   4.390   2.177
14676TIP3    H243970   4.036   4.462   2.277
14677TIP3   OH243971   7.995   3.371   5.485
14677TIP3    H143972   8.017   3.287   5.524
14677TIP3    H243973   7.905   3.388   5.513
14678TIP3   OH243974   0.306   2.291   4.266
14678TIP3    H143975   0.290   2.366   4.323
14678TIP3    H243976   0.220   2.251   4.253
14679TIP3   OH243977   8.385   1.806   4.673
14679TIP3    H143978   8.374   1.719   4.634
14679TIP3    H243979   8.297   1.843   4.675
14680TIP3   OH243980   6.456   1.069   6.320
14680TIP3    H143981   6.380   1.125   6.339
14680TIP3    H243982   6.463   1.070   6.225
14681TIP3   OH243983   6.616   1.096   1.492
14681TIP3    H143984   6.569   1.099   1.409
14681TIP3    H243985   6.581   1.170   1.542
14682TIP3   OH243986   7.413   0.249   4.328
14682TIP3    H143987   7.442   0.336   4.300
14682TIP3    H243988   7.493   0.197   4.332
14683TIP3   OH243989   7.779   5.597   6.285
14683TIP3    H143990   7.723   5.621   6.212
14683TIP3    H243991   7.863   5.640   6.266
14684TIP3   OH243992   6.469   4.917   0.591
14684TIP3    H143993   6.485   4.847   0.654
14684TIP3    H243994   6.531   4.985   0.615
14685TIP3   OH243995   4.554   1.150   4.791
14685TIP3    H143996   4.603   1.230   4.770
14685TIP3    H243997   4.592   1.119   4.873
14686TIP3   OH243998   3.972   6.109   2.821
14686TIP3    H143999   3.940   6.196   2.797
14686TIP3    H244000   3.963   6.106   2.916
14687TIP3   OH244001   6.805   0.494   4.405
14687TIP3    H144002   6.753   0.573   4.389
14687TIP3    H244003   6.859   0.486   4.326
14688TIP3   OH244004   6.983   3.664   4.883
14688TIP3    H144005   6.899   3.708   4.900
14688TIP3    H244006   6.959   3.582   4.839
14689TIP3   OH244007   1.853   5.109   2.046
14689TIP3    H144008   1.889   5.060   2.121
14689TIP3    H244009   1.929   5.156   2.010
14690TIP3   OH244010   2.246   5.834   6.673
14690TIP3    H144011   2.163   5.878   6.692
14690TIP3    H244012   2.257   5.772   6.745
14691TIP3   OH244013   3.581   1.274   0.850
14691TIP3    H144014   3.507   1.254   0.793
14691TIP3    H244015   3.638   1.197   0.844
14692TIP3   OH244016   3.705   3.349   5.850
14692TIP3    H144017   3.639   3.331   5.917
14692TIP3    H244018   3.784   3.370   5.900
14693TIP3   OH244019   1.518   5.753   3.209
14693TIP3    H144020   1.452   5.690   3.238
14693TIP3    H244021   1.469   5.833   3.189
14694TIP3   OH244022   2.961   0.973   5.795
14694TIP3    H144023   2.983   0.879   5.796
14694TIP3    H244024   3.045   1.017   5.799
14695TIP3   OH244025   7.436   4.087   2.081
14695TIP3    H144026   7.411   4.109   1.992
14695TIP3    H244027   7.353   4.085   2.129
14696TIP3   OH244028   4.687   4.358   3.725
14696TIP3    H144029   4.733   4.379   3.644
14696TIP3    H244030   4.720   4.421   3.789
14697TIP3   OH244031   6.496   6.188   2.765
14697TIP3    H144032   6.446   6.245   2.706
14697TIP3    H244033   6.432   6.123   2.795
14698TIP3   OH244034   0.217   5.671   1.238
14698TIP3    H144035   0.258   5.662   1.324
14698TIP3    H244036   0.224   5.764   1.217
14699TIP3   OH244037   6.569   6.065   2.454
14699TIP3    H144038   6.651   6.115   2.450
14699TIP3    H244039   6.504   6.129   2.482
14700TIP3   OH244040   7.537   0.669   2.511
14700TIP3    H144041   7.492   0.655   2.428
14700TIP3    H244042   7.563   0.582   2.539
14701TIP3   OH244043   2.185   4.843   5.061
14701TIP3    H144044   2.098   4.823   5.026
14701TIP3    H244045   2.171   4.851   5.155
14702TIP3   OH244046   3.459   3.803   2.158
14702TIP3    H144047   3.449   3.898   2.152
14702TIP3    H244048   3.548   3.790   2.189
14703TIP3   OH244049   3.827   3.644   5.363
14703TIP3    H144050   3.758   3.687   5.413
14703TIP3    H244051   3.875   3.591   5.427
14704TIP3   OH244052   7.375   7.303   1.440
14704TIP3    H144053   7.336   7.220   1.414
14704TIP3    H244054   7.309   7.369   1.417
14705TIP3   OH244055   3.090   7.057   5.724
14705TIP3    H144056   3.126   6.999   5.657
14705TIP3    H244057   3.150   7.131   5.727
14706TIP3   OH244058   3.736   1.655   5.826
14706TIP3    H144059   3.794   1.718   5.783
14706TIP3    H244060   3.717   1.590   5.758
14707TIP3   OH244061   5.183   7.109   5.857
14707TIP3    H144062   5.093   7.123   5.828
14707TIP3    H244063   5.188   7.015   5.873
14708TIP3   OH244064   7.116   6.546   0.486
14708TIP3    H144065   7.078   6.585   0.564
14708TIP3    H244066   7.043   6.541   0.424
14709TIP3   OH244067   8.215   2.226   4.466
14709TIP3    H144068   8.267   2.297   4.429
14709TIP3    H244069   8.231   2.231   4.560
14710TIP3   OH244070   5.617   6.894   4.689
14710TIP3    H144071   5.585   6.973   4.646
14710TIP3    H244072   5.551   6.828   4.670
14711TIP3   OH244073   1.738   7.134   6.322
14711TIP3    H144074   1.675   7.175   6.262
14711TIP3    H244075   1.691   7.125   6.404
14712TIP3   OH244076   4.818   0.359   0.018
14712TIP3    H144077   4.856   0.312  -0.057
14712TIP3    H244078   4.845   0.308   0.094
14713TIP3   OH244079   3.630   2.468   3.818
14713TIP3    H144080   3.719   2.479   3.851
14713TIP3    H244081   3.632   2.506   3.730
14714TIP3   OH244082   4.923   7.735   1.678
14714TIP3    H144083   5.004   7.760   1.723
14714TIP3    H244084   4.912   7.642   1.700
14715TIP3   OH244085   2.364   3.320   4.464
14715TIP3    H144086   2.406   3.250   4.415
14715TIP3    H244087   2.411   3.322   4.548
14716TIP3   OH244088   6.311   3.003   0.949
14716TIP3    H144089   6.329   2.921   0.903
14716TIP3    H244090   6.216   3.012   0.946
14717TIP3   OH244091   5.546   4.173   2.396
14717TIP3    H144092   5.582   4.084   2.395
14717TIP3    H244093   5.451   4.161   2.399
14718TIP3   OH244094   6.054   3.484   1.870
14718TIP3    H144095   5.982   3.436   1.910
14718TIP3    H244096   6.058   3.566   1.920
14719TIP3   OH244097   6.040   7.488   5.857
14719TIP3    H144098   6.061   7.406   5.812
14719TIP3    H244099   6.113   7.547   5.835
14720TIP3   OH244100   2.650   3.051   2.949
14720TIP3    H144101   2.574   3.097   2.983
14720TIP3    H244102   2.627   3.031   2.858
14721TIP3   OH244103   6.860   5.924   4.245
14721TIP3    H144104   6.946   5.891   4.222
14721TIP3    H244105   6.815   5.849   4.284
14722TIP3   OH244106   0.658   4.184   5.672
14722TIP3    H144107   0.640   4.232   5.591
14722TIP3    H244108   0.728   4.123   5.649
14723TIP3   OH244109   4.256   0.422   2.104
14723TIP3    H144110   4.172   0.466   2.112
14723TIP3    H244111   4.257   0.388   2.014
14724TIP3   OH244112   1.308   4.090   4.447
14724TIP3    H144113   1.281   4.181   4.432
14724TIP3    H244114   1.371   4.072   4.377
14725TIP3   OH244115   5.717   6.230   0.816
14725TIP3    H144116   5.657   6.168   0.855
14725TIP3    H244117   5.661   6.289   0.766
14726TIP3   OH244118   3.914   5.724   4.915
14726TIP3    H144119   3.861   5.692   4.842
14726TIP3    H244120   3.976   5.652   4.932
14727TIP3   OH244121   5.960   7.334   1.363
14727TIP3    H144122   5.985   7.248   1.329
14727TIP3    H244123   6.001   7.338   1.449
14728TIP3   OH244124   3.406   4.618   1.064
14728TIP3    H144125   3.496   4.607   1.097
14728TIP3    H244126   3.405   4.707   1.029
14729TIP3   OH244127   7.251   4.539   5.127
14729TIP3    H144128   7.231   4.604   5.059
14729TIP3    H244129   7.316   4.481   5.087
14730TIP3   OH244130   4.055   1.370   4.213
14730TIP3    H144131   3.984   1.422   4.252
14730TIP3    H244132   4.116   1.355   4.285
14731TIP3   OH244133   0.193   4.562   2.059
14731TIP3    H144134   0.153   4.484   2.019
14731TIP3    H244135   0.139   4.581   2.135
14732TIP3   OH244136   0.243   6.452   6.366
14732TIP3    H144137   0.174   6.519   6.370
14732TIP3    H244138   0.208   6.379   6.416
14733TIP3   OH244139   1.412   3.607   0.528
14733TIP3    H144140   1.381   3.698   0.532
14733TIP3    H244141   1.332   3.555   0.526
14734TIP3   OH244142   1.747   0.800   5.259
14734TIP3    H144143   1.674   0.738   5.270
14734TIP3    H244144   1.825   0.748   5.273
14735TIP3   OH244145   7.752   2.751   4.490
14735TIP3    H144146   7.779   2.659   4.497
14735TIP3    H244147   7.818   2.790   4.432
14736TIP3   OH244148   7.355   3.641   5.298
14736TIP3    H144149   7.318   3.679   5.378
14736TIP3    H244150   7.307   3.683   5.227
14737TIP3   OH244151   1.008   7.144   1.703
14737TIP3    H144152   0.966   7.087   1.639
14737TIP3    H244153   1.080   7.092   1.738
14738TIP3   OH244154   4.557   1.681   4.598
14738TIP3    H144155   4.639   1.728   4.579
14738TIP3    H244156   4.491   1.726   4.546
14739TIP3   OH244157   0.082   7.717   1.100
14739TIP3    H144158   0.007   7.686   1.151
14739TIP3    H244159   0.062   7.691   1.010
14740TIP3   OH244160   6.296   5.904   0.901
14740TIP3    H144161   6.227   5.914   0.966
14740TIP3    H244162   6.378   5.913   0.951
14741TIP3   OH244163   8.183   2.353   1.325
14741TIP3    H144164   8.208   2.371   1.235
14741TIP3    H244165   8.119   2.282   1.318
14742TIP3   OH244166   5.650   3.573   2.541
14742TIP3    H144167   5.679   3.639   2.603
14742TIP3    H244168   5.681   3.490   2.579
14743TIP3   OH244169   2.720   0.631   6.214
14743TIP3    H144170   2.793   0.593   6.165
14743TIP3    H244171   2.745   0.620   6.306
14744TIP3   OH244172   7.413   1.913   3.442
14744TIP3    H144173   7.396   1.931   3.350
14744TIP3    H244174   7.346   1.850   3.468
14745TIP3   OH244175  -0.004   6.711   5.829
14745TIP3    H144176  -0.010   6.788   5.772
14745TIP3    H244177   0.066   6.733   5.891
14746TIP3   OH244178   4.158   7.795   2.049
14746TIP3    H144179   4.128   7.714   2.092
14746TIP3    H244180   4.253   7.790   2.052
14747TIP3   OH244181   7.236   4.441   6.890
14747TIP3    H144182   7.158   4.480   6.849
14747TIP3    H244183   7.307   4.502   6.870
14748TIP3   OH244184   8.069   3.953   3.864
14748TIP3    H144185   8.037   4.033   3.904
14748TIP3    H244186   8.158   3.943   3.898
14749TIP3   OH244187   4.456   5.091   1.431
14749TIP3    H144188   4.482   5.022   1.492
14749TIP3    H244189   4.372   5.062   1.396
14750TIP3   OH244190   3.190   4.008   6.768
14750TIP3    H144191   3.152   3.960   6.842
14750TIP3    H244192   3.232   4.084   6.808
14751TIP3   OH244193   6.455   5.497   2.778
14751TIP3    H144194   6.368   5.537   2.777
14751TIP3    H244195   6.439   5.403   2.787
14752TIP3   OH244196   1.813   0.803   1.246
14752TIP3    H144197   1.754   0.876   1.228
14752TIP3    H244198   1.802   0.785   1.340
14753TIP3   OH244199   1.844   0.897   3.878
14753TIP3    H144200   1.779   0.923   3.812
14753TIP3    H244201   1.928   0.920   3.838
14754TIP3   OH244202   3.094   3.378   1.692
14754TIP3    H144203   3.136   3.292   1.699
14754TIP3    H244204   3.003   3.363   1.717
14755TIP3   OH244205   6.763   4.295   3.628
14755TIP3    H144206   6.705   4.261   3.696
14755TIP3    H244207   6.842   4.323   3.675
14756TIP3   OH244208   7.806   6.700   4.163
14756TIP3    H144209   7.897   6.689   4.137
14756TIP3    H244210   7.764   6.618   4.138
14757TIP3   OH244211   7.138   6.497   4.917
14757TIP3    H144212   7.064   6.550   4.947
14757TIP3    H244213   7.195   6.490   4.993
14758TIP3   OH244214   2.713   7.749   4.695
14758TIP3    H144215   2.702   7.730   4.788
14758TIP3    H244216   2.748   7.668   4.658
14759TIP3   OH244217   6.392   7.739   6.184
14759TIP3    H144218   6.454   7.703   6.120
14759TIP3    H244219   6.356   7.661   6.228
14760TIP3   OH244220   2.291   6.090   5.544
14760TIP3    H144221   2.213   6.059   5.499
14760TIP3    H244222   2.281   6.058   5.634
14761TIP3   OH244223   5.631   5.201   3.486
14761TIP3    H144224   5.641   5.167   3.397
14761TIP3    H244225   5.718   5.191   3.525
14762TIP3   OH244226   0.980   2.556   6.144
14762TIP3    H144227   1.072   2.580   6.131
14762TIP3    H244228   0.947   2.541   6.055
14763TIP3   OH244229   4.677   3.172   0.698
14763TIP3    H144230   4.692   3.083   0.729
14763TIP3    H244231   4.764   3.205   0.674
14764TIP3   OH244232   1.573   5.200   5.050
14764TIP3    H144233   1.657   5.243   5.031
14764TIP3    H244234   1.596   5.107   5.059
14765TIP3   OH244235   1.834   2.992   4.357
14765TIP3    H144236   1.818   3.008   4.450
14765TIP3    H244237   1.928   2.999   4.347
14766TIP3   OH244238   1.112   0.523   0.544
14766TIP3    H144239   1.032   0.555   0.586
14766TIP3    H244240   1.082   0.488   0.460
14767TIP3   OH244241   8.413   3.765   3.421
14767TIP3    H144242   8.321   3.749   3.400
14767TIP3    H244243   8.427   3.856   3.393
14768TIP3   OH244244   6.886   4.098   2.846
14768TIP3    H144245   6.844   4.155   2.781
14768TIP3    H244246   6.957   4.152   2.882
14769TIP3   OH244247   6.452   2.133   1.784
14769TIP3    H144248   6.492   2.143   1.870
14769TIP3    H244249   6.433   2.039   1.776
14770TIP3   OH244250   5.134   1.442   1.758
14770TIP3    H144251   5.070   1.485   1.816
14770TIP3    H244252   5.081   1.389   1.699
14771TIP3   OH244253   0.203   5.408   6.413
14771TIP3    H144254   0.244   5.334   6.369
14771TIP3    H244255   0.274   5.447   6.466
14772TIP3   OH244256   2.054   7.235   3.812
14772TIP3    H144257   2.037   7.276   3.727
14772TIP3    H244258   2.062   7.309   3.873
14773TIP3   OH244259   4.015   4.794   3.039
14773TIP3    H144260   4.046   4.750   2.960
14773TIP3    H244261   4.094   4.804   3.093
14774TIP3   OH244262   6.131   1.109   6.724
14774TIP3    H144263   6.063   1.083   6.786
14774TIP3    H244264   6.213   1.079   6.763
14775TIP3   OH244265   0.361   5.259   2.958
14775TIP3    H144266   0.423   5.331   2.952
14775TIP3    H244267   0.310   5.264   2.877
14776TIP3   OH244268   6.236   2.510   0.875
14776TIP3    H144269   6.248   2.418   0.852
14776TIP3    H244270   6.147   2.515   0.909
14777TIP3   OH244271   8.315   4.386   4.434
14777TIP3    H144272   8.278   4.376   4.521
14777TIP3    H244273   8.262   4.453   4.392
14778TIP3   OH244274   5.154   0.225   4.112
14778TIP3    H144275   5.203   0.187   4.186
14778TIP3    H244276   5.127   0.149   4.061
14779TIP3   OH244277   4.856   7.475   6.408
14779TIP3    H144278   4.878   7.563   6.439
14779TIP3    H244279   4.907   7.465   6.328
14780TIP3   OH244280   8.200   5.665   5.494
14780TIP3    H144281   8.122   5.701   5.453
14780TIP3    H244282   8.167   5.600   5.557
14781TIP3   OH244283   4.285   4.759   3.120
14781TIP3    H144284   4.360   4.755   3.180
14781TIP3    H244285   4.319   4.805   3.043
14782TIP3   OH244286   4.514   0.168   6.362
14782TIP3    H144287   4.610   0.177   6.365
14782TIP3    H244288   4.484   0.209   6.444
14783TIP3   OH244289   0.367   4.347   3.877
14783TIP3    H144290   0.431   4.305   3.819
14783TIP3    H244291   0.360   4.289   3.952
14784TIP3   OH244292   2.878   4.194   4.469
14784TIP3    H144293   2.862   4.110   4.426
14784TIP3    H244294   2.944   4.236   4.414
14785TIP3   OH244295   5.677   5.741   2.084
14785TIP3    H144296   5.586   5.710   2.082
14785TIP3    H244297   5.721   5.683   2.145
14786TIP3   OH244298   5.611   0.437   4.932
14786TIP3    H144299   5.651   0.395   5.009
14786TIP3    H244300   5.534   0.383   4.913
14787TIP3   OH244301   5.247   3.402   6.254
14787TIP3    H144302   5.306   3.329   6.234
14787TIP3    H244303   5.162   3.361   6.269
14788TIP3   OH244304   5.981   7.164   2.844
14788TIP3    H144305   6.025   7.241   2.809
14788TIP3    H244306   6.042   7.128   2.909
14789TIP3   OH244307   8.131   3.211   5.269
14789TIP3    H144308   8.060   3.250   5.319
14789TIP3    H244309   8.198   3.280   5.265
14790TIP3   OH244310   4.322   6.196   0.017
14790TIP3    H144311   4.289   6.242   0.094
14790TIP3    H244312   4.261   6.218  -0.052
14791TIP3   OH244313   4.147   5.291   0.291
14791TIP3    H144314   4.079   5.344   0.333
14791TIP3    H244315   4.209   5.354   0.255
14792TIP3   OH244316   3.607   7.008   1.291
14792TIP3    H144317   3.558   6.964   1.361
14792TIP3    H244318   3.669   6.942   1.261
14793TIP3   OH244319   6.413   4.916   2.393
14793TIP3    H144320   6.451   5.001   2.414
14793TIP3    H244321   6.478   4.852   2.420
14794TIP3   OH244322   7.668   4.316   5.965
14794TIP3    H144323   7.756   4.307   5.927
14794TIP3    H244324   7.670   4.260   6.044
14795TIP3   OH244325   0.541   7.541   3.402
14795TIP3    H144326   0.531   7.633   3.376
14795TIP3    H244327   0.538   7.543   3.498
14796TIP3   OH244328   6.962   3.409   3.787
14796TIP3    H144329   6.884   3.431   3.736
14796TIP3    H244330   6.933   3.412   3.878
14797TIP3   OH244331   6.521   6.190   0.462
14797TIP3    H144332   6.505   6.259   0.526
14797TIP3    H244333   6.536   6.112   0.515
14798TIP3   OH244334   4.551   0.712   3.066
14798TIP3    H144335   4.479   0.710   3.003
14798TIP3    H244336   4.556   0.622   3.099
14799TIP3   OH244337   8.178   2.208   4.961
14799TIP3    H144338   8.183   2.142   5.030
14799TIP3    H244339   8.100   2.183   4.911
14800TIP3   OH244340   3.069   6.136   6.677
14800TIP3    H144341   3.091   6.223   6.711
14800TIP3    H244342   2.976   6.142   6.654
14801TIP3   OH244343   1.754   5.652   0.502
14801TIP3    H144344   1.831   5.645   0.559
14801TIP3    H244345   1.781   5.610   0.421
14802TIP3   OH244346   1.277   4.559   6.158
14802TIP3    H144347   1.352   4.549   6.217
14802TIP3    H244348   1.267   4.654   6.148
14803TIP3   OH244349   7.726   6.842   4.731
14803TIP3    H144350   7.655   6.828   4.669
14803TIP3    H244351   7.719   6.770   4.793
14804TIP3   OH244352   5.664   4.132   4.945
14804TIP3    H144353   5.692   4.200   4.884
14804TIP3    H244354   5.687   4.165   5.031
14805TIP3   OH244355   1.573   1.807   0.755
14805TIP3    H144356   1.639   1.739   0.747
14805TIP3    H244357   1.576   1.832   0.848
14806TIP3   OH244358   1.454   0.595   1.183
14806TIP3    H144359   1.491   0.626   1.100
14806TIP3    H244360   1.512   0.524   1.209
14807TIP3   OH244361   7.759   1.174   1.768
14807TIP3    H144362   7.757   1.213   1.855
14807TIP3    H244363   7.852   1.166   1.747
14808TIP3   OH244364   2.823   0.800   4.054
14808TIP3    H144365   2.761   0.834   4.118
14808TIP3    H244366   2.800   0.844   3.972
14809TIP3   OH244367   4.324   4.817   0.447
14809TIP3    H144368   4.321   4.906   0.410
14809TIP3    H244369   4.264   4.820   0.521
14810TIP3   OH244370   2.049   7.598   0.458
14810TIP3    H144371   2.057   7.511   0.497
14810TIP3    H244372   2.111   7.652   0.507
14811TIP3   OH244373   5.587   0.913   5.941
14811TIP3    H144374   5.534   0.839   5.972
14811TIP3    H244375   5.605   0.894   5.849
14812TIP3   OH244376   3.743   6.011   0.400
14812TIP3    H144377   3.682   5.952   0.356
14812TIP3    H244378   3.819   5.957   0.422
14813TIP3   OH244379   7.050   0.563   1.840
14813TIP3    H144380   7.064   0.493   1.775
14813TIP3    H244381   6.986   0.621   1.799
14814TIP3   OH244382   8.104   0.507   3.495
14814TIP3    H144383   8.199   0.509   3.490
14814TIP3    H244384   8.082   0.559   3.572
14815TIP3   OH244385   1.528   6.268   1.518
14815TIP3    H144386   1.564   6.187   1.482
14815TIP3    H244387   1.543   6.260   1.613
14816TIP3   OH244388   5.998   2.748   5.652
14816TIP3    H144389   6.027   2.769   5.741
14816TIP3    H244390   6.031   2.660   5.636
14817TIP3   OH244391   2.886   6.680   4.040
14817TIP3    H144392   2.803   6.634   4.034
14817TIP3    H244393   2.885   6.741   3.966
14818TIP3   OH244394   5.286   6.807   0.259
14818TIP3    H144395   5.331   6.786   0.341
14818TIP3    H244396   5.354   6.843   0.202
14819TIP3   OH244397   2.623   2.650   2.860
14819TIP3    H144398   2.549   2.619   2.913
14819TIP3    H244399   2.664   2.718   2.913
14820TIP3   OH244400   0.096   7.141   6.427
14820TIP3    H144401   0.167   7.177   6.374
14820TIP3    H244402   0.089   7.200   6.502
14821TIP3   OH244403   3.358   6.913   5.138
14821TIP3    H144404   3.453   6.901   5.146
14821TIP3    H244405   3.335   6.864   5.058
14822TIP3   OH244406   5.721   0.086   2.749
14822TIP3    H144407   5.760   0.030   2.682
14822TIP3    H244408   5.759   0.172   2.734
14823TIP3   OH244409   2.508   5.744   2.372
14823TIP3    H144410   2.553   5.814   2.419
14823TIP3    H244411   2.470   5.689   2.440
14824TIP3   OH244412   6.805   1.952   1.551
14824TIP3    H144413   6.781   2.043   1.571
14824TIP3    H244414   6.810   1.910   1.637
14825TIP3   OH244415   6.826   0.524   6.282
14825TIP3    H144416   6.793   0.613   6.292
14825TIP3    H244417   6.921   0.532   6.290
14826TIP3   OH244418   1.449   0.352   5.789
14826TIP3    H144419   1.357   0.346   5.813
14826TIP3    H244420   1.492   0.388   5.866
14827TIP3   OH244421   8.330   7.236   0.256
14827TIP3    H144422   8.316   7.178   0.181
14827TIP3    H244423   8.393   7.190   0.312
14828TIP3   OH244424   4.718   0.889   2.779
14828TIP3    H144425   4.791   0.848   2.733
14828TIP3    H244426   4.649   0.823   2.778
14829TIP3   OH244427   6.711   0.974   3.854
14829TIP3    H144428   6.734   0.919   3.928
14829TIP3    H244429   6.618   0.991   3.864
14830TIP3   OH244430   5.394   5.428   6.239
14830TIP3    H144431   5.419   5.455   6.150
14830TIP3    H244432   5.375   5.510   6.284
14831TIP3   OH244433   6.356   4.576   0.550
14831TIP3    H144434   6.449   4.555   0.546
14831TIP3    H244435   6.353   4.672   0.543
14832TIP3   OH244436   6.718   3.578   6.716
14832TIP3    H144437   6.743   3.632   6.640
14832TIP3    H244438   6.780   3.506   6.716
14833TIP3   OH244439   6.752   7.437   0.090
14833TIP3    H144440   6.729   7.529   0.084
14833TIP3    H244441   6.848   7.437   0.093
14834TIP3   OH244442   1.776   1.055   6.363
14834TIP3    H144443   1.791   1.071   6.456
14834TIP3    H244444   1.860   1.075   6.321
14835TIP3   OH244445   5.619   5.873   2.912
14835TIP3    H144446   5.678   5.822   2.856
14835TIP3    H244447   5.667   5.883   2.995
14836TIP3   OH244448   0.744   7.545   3.957
14836TIP3    H144449   0.782   7.613   3.900
14836TIP3    H244450   0.813   7.525   4.020
14837TIP3   OH244451   2.183   7.425   5.162
14837TIP3    H144452   2.161   7.361   5.094
14837TIP3    H244453   2.156   7.384   5.244
14838TIP3   OH244454   1.471   4.297   5.651
14838TIP3    H144455   1.469   4.380   5.699
14838TIP3    H244456   1.490   4.231   5.718
14839TIP3   OH244457   3.068   6.103   5.758
14839TIP3    H144458   2.977   6.121   5.734
14839TIP3    H244459   3.120   6.140   5.687
14840TIP3   OH244460   4.138   1.967   3.382
14840TIP3    H144461   4.167   1.890   3.432
14840TIP3    H244462   4.125   1.935   3.293
14841TIP3   OH244463   4.245   1.832   5.255
14841TIP3    H144464   4.255   1.807   5.346
14841TIP3    H244465   4.333   1.856   5.226
14842TIP3   OH244466   3.917   0.306   4.705
14842TIP3    H144467   3.855   0.374   4.731
14842TIP3    H244468   3.923   0.315   4.610
14843TIP3   OH244469   5.308   0.730   4.689
14843TIP3    H144470   5.356   0.650   4.667
14843TIP3    H244471   5.250   0.705   4.761
14844TIP3   OH244472   6.967   4.884   3.845
14844TIP3    H144473   6.895   4.822   3.835
14844TIP3    H244474   6.936   4.946   3.911
14845TIP3   OH244475   0.789   4.049   0.996
14845TIP3    H144476   0.866   3.996   1.018
14845TIP3    H244477   0.718   3.986   0.986
14846TIP3   OH244478   7.935   0.267   6.177
14846TIP3    H144479   8.009   0.322   6.152
14846TIP3    H244480   7.922   0.284   6.270
14847TIP3   OH244481   5.353   3.429   1.777
14847TIP3    H144482   5.406   3.458   1.851
14847TIP3    H244483   5.382   3.484   1.704
14848TIP3   OH244484   3.118   7.600   6.132
14848TIP3    H144485   3.075   7.533   6.186
14848TIP3    H244486   3.078   7.682   6.160
14849TIP3   OH244487   1.484   7.046   2.177
14849TIP3    H144488   1.534   7.086   2.105
14849TIP3    H244489   1.395   7.079   2.165
14850TIP3   OH244490   0.420   4.703   5.979
14850TIP3    H144491   0.372   4.771   6.026
14850TIP3    H244492   0.509   4.708   6.016
14851TIP3   OH244493   2.591   2.219   0.654
14851TIP3    H144494   2.620   2.274   0.581
14851TIP3    H244495   2.668   2.209   0.710
14852TIP3   OH244496   4.065   2.135   2.961
14852TIP3    H144497   4.130   2.066   2.973
14852TIP3    H244498   4.034   2.124   2.871
14853TIP3   OH244499   2.448   4.814   5.260
14853TIP3    H144500   2.497   4.817   5.342
14853TIP3    H244501   2.494   4.750   5.206
14854TIP3   OH244502   7.558   7.547   0.867
14854TIP3    H144503   7.571   7.463   0.910
14854TIP3    H244504   7.506   7.527   0.790
14855TIP3   OH244505   4.399   4.482   1.101
14855TIP3    H144506   4.340   4.493   1.175
14855TIP3    H244507   4.486   4.503   1.136
14856TIP3   OH244508   1.299   2.034   6.781
14856TIP3    H144509   1.225   2.003   6.834
14856TIP3    H244510   1.279   2.126   6.764
14857TIP3   OH244511   7.559   3.422   6.275
14857TIP3    H144512   7.574   3.377   6.358
14857TIP3    H244513   7.644   3.418   6.230
14858TIP3   OH244514   7.388   0.807   2.702
14858TIP3    H144515   7.396   0.720   2.663
14858TIP3    H244516   7.427   0.866   2.637
14859TIP3   OH244517   2.782   6.655   0.410
14859TIP3    H144518   2.860   6.710   0.406
14859TIP3    H244519   2.809   6.573   0.369
14860TIP3   OH244520   6.995   4.046   4.822
14860TIP3    H144521   6.968   3.994   4.897
14860TIP3    H244522   7.015   4.133   4.858
14861TIP3   OH244523   3.430   4.835   2.560
14861TIP3    H144524   3.438   4.801   2.471
14861TIP3    H244525   3.515   4.876   2.577
14862TIP3   OH244526   6.677   7.031   5.345
14862TIP3    H144527   6.762   7.068   5.366
14862TIP3    H244528   6.660   7.058   5.255
14863TIP3   OH244529   1.810   0.750   1.546
14863TIP3    H144530   1.825   0.660   1.518
14863TIP3    H244531   1.761   0.742   1.628
14864TIP3   OH244532   1.629   2.628   3.553
14864TIP3    H144533   1.634   2.556   3.615
14864TIP3    H244534   1.610   2.705   3.606
14865TIP3   OH244535   2.533   4.511   1.136
14865TIP3    H144536   2.509   4.418   1.133
14865TIP3    H244537   2.486   4.546   1.211
14866TIP3   OH244538   4.173   2.662   4.904
14866TIP3    H144539   4.260   2.676   4.942
14866TIP3    H244540   4.169   2.567   4.889
14867TIP3   OH244541   6.214   0.443   5.257
14867TIP3    H144542   6.165   0.429   5.338
14867TIP3    H244543   6.160   0.505   5.207
14868TIP3   OH244544   4.531   7.388   3.628
14868TIP3    H144545   4.625   7.389   3.610
14868TIP3    H244546   4.522   7.433   3.712
14869TIP3   OH244547   3.884   6.412   1.715
14869TIP3    H144548   3.831   6.465   1.775
14869TIP3    H244549   3.862   6.445   1.628
14870TIP3   OH244550   7.501   3.220   0.332
14870TIP3    H144551   7.564   3.183   0.394
14870TIP3    H244552   7.432   3.258   0.387
14871TIP3   OH244553   8.312   4.658   5.412
14871TIP3    H144554   8.311   4.753   5.399
14871TIP3    H244555   8.340   4.646   5.503
14872TIP3   OH244556   2.198   2.879   2.492
14872TIP3    H144557   2.141   2.858   2.566
14872TIP3    H244558   2.214   2.795   2.449
14873TIP3   OH244559   4.763   4.564   1.904
14873TIP3    H144560   4.779   4.650   1.865
14873TIP3    H244561   4.709   4.582   1.981
14874TIP3   OH244562   1.391   4.903   4.533
14874TIP3    H144563   1.478   4.911   4.494
14874TIP3    H244564   1.336   4.963   4.484
14875TIP3   OH244565   7.007   1.158   2.793
14875TIP3    H144566   6.939   1.096   2.769
14875TIP3    H244567   7.088   1.107   2.790
14876TIP3   OH244568   3.097   7.419   2.053
14876TIP3    H144569   3.060   7.497   2.095
14876TIP3    H244570   3.040   7.403   1.978
14877TIP3   OH244571   0.728   2.765   4.268
14877TIP3    H144572   0.790   2.719   4.325
14877TIP3    H244573   0.684   2.694   4.220
14878TIP3   OH244574   6.643   2.100   2.460
14878TIP3    H144575   6.586   2.132   2.390
14878TIP3    H244576   6.585   2.050   2.517
14879TIP3   OH244577   4.233   1.842   5.992
14879TIP3    H144578   4.212   1.928   5.954
14879TIP3    H244579   4.171   1.782   5.951
14880TIP3   OH244580   7.018   3.056   5.911
14880TIP3    H144581   7.075   3.083   5.983
14880TIP3    H244582   6.936   3.030   5.953
14881TIP3   OH244583   5.265   0.110   5.934
14881TIP3    H144584   5.242   0.017   5.946
14881TIP3    H244585   5.289   0.140   6.022
14882TIP3   OH244586   4.186   7.358   4.951
14882TIP3    H144587   4.217   7.348   4.861
14882TIP3    H244588   4.265   7.349   5.005
14883TIP3   OH244589   7.439   1.728   1.423
14883TIP3    H144590   7.349   1.751   1.400
14883TIP3    H244591   7.441   1.632   1.416
14884TIP3   OH244592   5.701   0.160   3.002
14884TIP3    H144593   5.703   0.118   2.916
14884TIP3    H244594   5.635   0.111   3.051
14885TIP3   OH244595   7.930   7.114   4.352
14885TIP3    H144596   8.019   7.088   4.329
14885TIP3    H244597   7.896   7.040   4.402
14886TIP3   OH244598   6.778   1.147   2.451
14886TIP3    H144599   6.836   1.217   2.482
14886TIP3    H244600   6.836   1.086   2.405
14887TIP3   OH244601   0.251   3.906   1.855
14887TIP3    H144602   0.232   3.845   1.783
14887TIP3    H244603   0.197   3.875   1.928
14888TIP3   OH244604   1.254   0.834   4.831
14888TIP3    H144605   1.271   0.863   4.921
14888TIP3    H244606   1.332   0.785   4.806
14889TIP3   OH244607   0.903   4.575   6.119
14889TIP3    H144608   0.956   4.644   6.079
14889TIP3    H244609   0.954   4.546   6.194
14890TIP3   OH244610   1.667   5.328   3.574
14890TIP3    H144611   1.616   5.254   3.539
14890TIP3    H244612   1.647   5.400   3.514
14891TIP3   OH244613   2.895   3.115   5.809
14891TIP3    H144614   2.932   3.034   5.844
14891TIP3    H244615   2.943   3.184   5.854
14892TIP3   OH244616   7.713   6.499   1.387
14892TIP3    H144617   7.772   6.433   1.351
14892TIP3    H244618   7.661   6.529   1.312
14893TIP3   OH244619   6.234   5.364   5.197
14893TIP3    H144620   6.192   5.450   5.192
14893TIP3    H244621   6.296   5.371   5.269
14894TIP3   OH244622   5.831   6.264   6.500
14894TIP3    H144623   5.910   6.296   6.542
14894TIP3    H244624   5.763   6.269   6.568
14895TIP3   OH244625   1.517   0.118   0.740
14895TIP3    H144626   1.534   0.090   0.650
14895TIP3    H244627   1.559   0.204   0.747
14896TIP3   OH244628   1.111   4.358   1.066
14896TIP3    H144629   1.016   4.368   1.064
14896TIP3    H244630   1.128   4.311   1.148
14897TIP3   OH244631   2.227   1.654   4.746
14897TIP3    H144632   2.247   1.632   4.656
14897TIP3    H244633   2.157   1.594   4.771
14898TIP3   OH244634   7.532   6.385   6.718
14898TIP3    H144635   7.464   6.335   6.673
14898TIP3    H244636   7.484   6.447   6.772
14899TIP3   OH244637   2.207   4.634   3.190
14899TIP3    H144638   2.193   4.727   3.208
14899TIP3    H244639   2.180   4.590   3.270
14900TIP3   OH244640   1.523   5.860   2.656
14900TIP3    H144641   1.460   5.867   2.729
14900TIP3    H244642   1.553   5.770   2.659
14901TIP3   OH244643   7.035   7.671   5.521
14901TIP3    H144644   7.089   7.592   5.513
14901TIP3    H244645   6.996   7.682   5.434
14902TIP3   OH244646   2.063   3.025   1.711
14902TIP3    H144647   2.119   3.069   1.775
14902TIP3    H244648   2.114   3.028   1.630
14903TIP3   OH244649   5.225   5.265   1.348
14903TIP3    H144650   5.158   5.213   1.393
14903TIP3    H244651   5.268   5.203   1.290
14904TIP3   OH244652   2.962   5.153   1.087
14904TIP3    H144653   3.030   5.180   1.149
14904TIP3    H244654   2.990   5.067   1.056
14905TIP3   OH244655   8.047   5.969   3.422
14905TIP3    H144656   8.010   6.054   3.399
14905TIP3    H244657   8.118   5.956   3.360
14906TIP3   OH244658   0.800   3.107   0.138
14906TIP3    H144659   0.875   3.097   0.197
14906TIP3    H244660   0.740   3.037   0.163
14907TIP3   OH244661   4.498   1.479   6.316
14907TIP3    H144662   4.464   1.555   6.269
14907TIP3    H244663   4.421   1.441   6.359
14908TIP3   OH244664   7.648   7.543   0.289
14908TIP3    H144665   7.680   7.594   0.214
14908TIP3    H244666   7.721   7.541   0.350
14909TIP3   OH244667   5.094   0.208   2.164
14909TIP3    H144668   5.180   0.224   2.203
14909TIP3    H244669   5.032   0.235   2.232
14910TIP3   OH244670   7.348   4.001   3.927
14910TIP3    H144671   7.324   3.964   3.842
14910TIP3    H244672   7.280   3.971   3.987
14911TIP3   OH244673   6.984   4.246   0.402
14911TIP3    H144674   7.011   4.337   0.417
14911TIP3    H244675   7.042   4.195   0.459
14912TIP3   OH244676   8.182   4.550   3.712
14912TIP3    H144677   8.114   4.489   3.683
14912TIP3    H244678   8.201   4.524   3.802
14913TIP3   OH244679   6.580   5.175   0.540
14913TIP3    H144680   6.544   5.169   0.452
14913TIP3    H244681   6.528   5.242   0.584
14914TIP3   OH244682   6.652   1.702   1.574
14914TIP3    H144683   6.699   1.707   1.491
14914TIP3    H244684   6.577   1.645   1.556
14915TIP3   OH244685   2.630   1.576   0.103
14915TIP3    H144686   2.629   1.511   0.033
14915TIP3    H244687   2.538   1.600   0.115
14916TIP3   OH244688   0.032   0.047   5.665
14916TIP3    H144689   0.007   0.115   5.728
14916TIP3    H244690   0.128   0.047   5.666
14917TIP3   OH244691   6.970   4.513   0.492
14917TIP3    H144692   6.909   4.539   0.561
14917TIP3    H244693   6.955   4.576   0.421
14918TIP3   OH244694   2.631   3.822   1.179
14918TIP3    H144695   2.540   3.793   1.174
14918TIP3    H244696   2.641   3.851   1.270
14919TIP3   OH244697   3.124   5.192   0.034
14919TIP3    H144698   3.029   5.198   0.043
14919TIP3    H244699   3.139   5.105  -0.002
14920TIP3   OH244700   3.713   4.231   1.939
14920TIP3    H144701   3.744   4.168   1.874
14920TIP3    H244702   3.623   4.249   1.914
14921TIP3   OH244703   6.515   5.581   3.122
14921TIP3    H144704   6.577   5.510   3.108
14921TIP3    H244705   6.472   5.561   3.205
14922TIP3   OH244706   2.281   0.298   1.786
14922TIP3    H144707   2.214   0.270   1.847
14922TIP3    H244708   2.233   0.327   1.708
14923TIP3   OH244709   5.547   7.676   3.147
14923TIP3    H144710   5.524   7.591   3.110
14923TIP3    H244711   5.479   7.735   3.113
14924TIP3   OH244712   4.101   5.341   2.495
14924TIP3    H144713   4.051   5.345   2.414
14924TIP3    H244714   4.073   5.259   2.536
14925TIP3   OH244715   7.982   1.517   1.095
14925TIP3    H144716   7.956   1.606   1.117
14925TIP3    H244717   8.072   1.526   1.063
14926TIP3   OH244718   5.720   2.566   3.183
14926TIP3    H144719   5.666   2.532   3.255
14926TIP3    H244720   5.721   2.496   3.118
14927TIP3   OH244721   5.466   5.963   1.727
14927TIP3    H144722   5.496   5.877   1.695
14927TIP3    H244723   5.542   6.020   1.714
14928TIP3   OH244724   4.481   4.406   1.994
14928TIP3    H144725   4.524   4.320   1.994
14928TIP3    H244726   4.522   4.454   2.066
14929TIP3   OH244727   7.124   0.182   6.150
14929TIP3    H144728   7.089   0.262   6.111
14929TIP3    H244729   7.205   0.209   6.193
14930TIP3   OH244730   1.529   4.696   3.879
14930TIP3    H144731   1.610   4.645   3.877
14930TIP3    H244732   1.495   4.691   3.790
14931TIP3   OH244733   6.806   0.805   0.146
14931TIP3    H144734   6.893   0.838   0.169
14931TIP3    H244735   6.764   0.787   0.231
14932TIP3   OH244736   7.927   3.040   3.529
14932TIP3    H144737   8.015   3.057   3.497
14932TIP3    H244738   7.869   3.067   3.457
14933TIP3   OH244739   5.313   1.807   1.273
14933TIP3    H144740   5.388   1.864   1.257
14933TIP3    H244741   5.272   1.798   1.187
14934TIP3   OH244742   1.267   6.272   3.825
14934TIP3    H144743   1.181   6.270   3.783
14934TIP3    H244744   1.258   6.335   3.896
14935TIP3   OH244745   6.537   5.087   0.276
14935TIP3    H144746   6.505   5.007   0.320
14935TIP3    H244747   6.517   5.073   0.184
14936TIP3   OH244748   0.348   3.604   1.752
14936TIP3    H144749   0.407   3.533   1.775
14936TIP3    H244750   0.284   3.607   1.823
14937TIP3   OH244751   7.003   2.708   4.942
14937TIP3    H144752   7.054   2.700   4.862
14937TIP3    H244753   7.037   2.639   4.999
14938TIP3   OH244754   0.635   0.127   1.108
14938TIP3    H144755   0.612   0.199   1.049
14938TIP3    H244756   0.721   0.099   1.079
14939TIP3   OH244757   7.772   7.663   5.894
14939TIP3    H144758   7.677   7.653   5.902
14939TIP3    H244759   7.806   7.575   5.908
14940TIP3   OH244760   7.663   2.275   0.084
14940TIP3    H144761   7.705   2.329   0.018
14940TIP3    H244762   7.579   2.319   0.101
14941TIP3   OH244763   0.278   0.735   3.343
14941TIP3    H144764   0.285   0.822   3.305
14941TIP3    H244765   0.365   0.717   3.378
14942TIP3   OH244766   7.502   5.596   0.337
14942TIP3    H144767   7.484   5.510   0.300
14942TIP3    H244768   7.416   5.634   0.353
14943TIP3   OH244769   7.372   0.649   0.500
14943TIP3    H144770   7.404   0.578   0.555
14943TIP3    H244771   7.439   0.717   0.507
14944TIP3   OH244772   3.313   2.232   2.983
14944TIP3    H144773   3.278   2.318   3.007
14944TIP3    H244774   3.347   2.196   3.064
14945TIP3   OH244775   2.224   7.633   4.676
14945TIP3    H144776   2.169   7.655   4.751
14945TIP3    H244777   2.212   7.705   4.615
14946TIP3   OH244778   4.143   5.512   3.763
14946TIP3    H144779   4.231   5.492   3.731
14946TIP3    H244780   4.103   5.566   3.694
14947TIP3   OH244781   1.384   7.137   1.120
14947TIP3    H144782   1.437   7.124   1.199
14947TIP3    H244783   1.311   7.191   1.149
14948TIP3   OH244784   6.703   7.746   1.019
14948TIP3    H144785   6.624   7.723   0.971
14948TIP3    H244786   6.772   7.694   0.977
14949TIP3   OH244787   7.843   2.529   2.065
14949TIP3    H144788   7.880   2.580   1.993
14949TIP3    H244789   7.784   2.590   2.110
14950TIP3   OH244790   2.370   0.165   1.181
14950TIP3    H144791   2.348   0.165   1.274
14950TIP3    H244792   2.290   0.194   1.137
14951TIP3   OH244793   2.785   6.972   0.521
14951TIP3    H144794   2.787   7.067   0.519
14951TIP3    H244795   2.854   6.945   0.460
14952TIP3   OH244796   0.618   4.536   3.274
14952TIP3    H144797   0.595   4.582   3.355
14952TIP3    H244798   0.678   4.467   3.303
14953TIP3   OH244799   1.334   2.796   3.552
14953TIP3    H144800   1.278   2.834   3.620
14953TIP3    H244801   1.411   2.764   3.600
14954TIP3   OH244802   4.607   4.806   1.313
14954TIP3    H144803   4.676   4.869   1.332
14954TIP3    H244804   4.609   4.796   1.217
14955TIP3   OH244805   7.849   4.849   3.896
14955TIP3    H144806   7.896   4.835   3.978
14955TIP3    H244807   7.859   4.766   3.849
14956TIP3   OH244808   2.161   4.841   5.352
14956TIP3    H144809   2.125   4.779   5.416
14956TIP3    H244810   2.252   4.816   5.343
14957TIP3   OH244811   0.787   4.295   6.185
14957TIP3    H144812   0.811   4.383   6.155
14957TIP3    H244813   0.768   4.306   6.278
14958TIP3   OH244814   0.843   7.150   0.535
14958TIP3    H144815   0.938   7.147   0.531
14958TIP3    H244816   0.814   7.141   0.444
14959TIP3   OH244817   7.760   0.791   3.133
14959TIP3    H144818   7.711   0.745   3.201
14959TIP3    H244819   7.724   0.757   3.051
14960TIP3   OH244820   3.071   4.490   4.888
14960TIP3    H144821   3.165   4.505   4.897
14960TIP3    H244822   3.036   4.573   4.856
14961TIP3   OH244823   0.376   0.485   0.962
14961TIP3    H144824   0.349   0.417   1.025
14961TIP3    H244825   0.294   0.525   0.934
14962TIP3   OH244826   6.625   4.116   5.970
14962TIP3    H144827   6.696   4.137   5.910
14962TIP3    H244828   6.559   4.184   5.954
14963TIP3   OH244829   5.576   2.303   5.112
14963TIP3    H144830   5.646   2.361   5.141
14963TIP3    H244831   5.496   2.344   5.145
14964TIP3   OH244832   3.798   7.804   0.648
14964TIP3    H144833   3.752   7.787   0.566
14964TIP3    H244834   3.859   7.874   0.627
14965TIP3   OH244835   2.399   1.737   1.698
14965TIP3    H144836   2.494   1.722   1.700
14965TIP3    H244837   2.383   1.796   1.771
14966TIP3   OH244838   4.910   2.107   2.881
14966TIP3    H144839   4.912   2.143   2.792
14966TIP3    H244840   4.851   2.032   2.874
14967TIP3   OH244841   3.949   4.370   2.629
14967TIP3    H144842   3.915   4.352   2.541
14967TIP3    H244843   4.032   4.414   2.613
14968TIP3   OH244844   1.302   3.418   6.028
14968TIP3    H144845   1.315   3.505   6.066
14968TIP3    H244846   1.210   3.399   6.042
14969TIP3   OH244847   5.674   6.840   5.368
14969TIP3    H144848   5.656   6.762   5.421
14969TIP3    H244849   5.698   6.806   5.282
14970TIP3   OH244850   7.413   7.693   1.752
14970TIP3    H144851   7.453   7.771   1.713
14970TIP3    H244852   7.365   7.652   1.679
14971TIP3   OH244853   2.724   7.324   3.815
14971TIP3    H144854   2.815   7.296   3.806
14971TIP3    H244855   2.674   7.242   3.813
14972TIP3   OH244856   4.412   4.666   4.346
14972TIP3    H144857   4.320   4.672   4.320
14972TIP3    H244858   4.446   4.591   4.297
14973TIP3   OH244859   8.366   4.330   6.071
14973TIP3    H144860   8.418   4.364   5.999
14973TIP3    H244861   8.312   4.404   6.099
14974TIP3   OH244862   4.589   0.463   2.176
14974TIP3    H144863   4.514   0.406   2.192
14974TIP3    H244864   4.658   0.405   2.145
14975TIP3   OH244865   0.763   6.558   4.083
14975TIP3    H144866   0.757   6.462   4.074
14975TIP3    H244867   0.691   6.591   4.029
14976TIP3   OH244868   1.039   6.251   3.693
14976TIP3    H144869   0.978   6.321   3.718
14976TIP3    H244870   0.983   6.178   3.667
14977TIP3   OH244871   4.983   2.936   2.566
14977TIP3    H144872   4.976   3.029   2.545
14977TIP3    H244873   4.903   2.898   2.531
14978TIP3   OH244874   1.144   2.209   6.503
14978TIP3    H144875   1.124   2.116   6.518
14978TIP3    H244876   1.063   2.246   6.469
14979TIP3   OH244877   4.408   6.248   3.238
14979TIP3    H144878   4.409   6.217   3.329
14979TIP3    H244879   4.327   6.212   3.202
14980TIP3   OH244880   3.045   7.570   3.307
14980TIP3    H144881   3.053   7.654   3.262
14980TIP3    H244882   2.953   7.547   3.298
14981TIP3   OH244883   1.339   6.319   1.917
14981TIP3    H144884   1.426   6.280   1.913
14981TIP3    H244885   1.323   6.331   2.011
14982TIP3   OH244886   0.957   2.100   3.257
14982TIP3    H144887   1.043   2.065   3.236
14982TIP3    H244888   0.970   2.195   3.263
14983TIP3   OH244889   5.039   3.734   3.405
14983TIP3    H144890   5.003   3.674   3.339
14983TIP3    H244891   5.046   3.680   3.484
14984TIP3   OH244892   3.338   1.864   5.177
14984TIP3    H144893   3.399   1.863   5.103
14984TIP3    H244894   3.287   1.944   5.164
14985TIP3   OH244895   4.233   5.660   5.992
14985TIP3    H144896   4.264   5.731   6.048
14985TIP3    H244897   4.312   5.617   5.960
14986TIP3   OH244898   5.906   3.332   4.145
14986TIP3    H144899   5.895   3.267   4.214
14986TIP3    H244900   5.952   3.285   4.076
14987TIP3   OH244901   2.752   7.596   3.196
14987TIP3    H144902   2.720   7.671   3.145
14987TIP3    H244903   2.691   7.588   3.269
14988TIP3   OH244904   0.877   2.633   0.583
14988TIP3    H144905   0.935   2.559   0.567
14988TIP3    H244906   0.804   2.596   0.633
14989TIP3   OH244907   4.113   5.643   1.941
14989TIP3    H144908   4.194   5.692   1.956
14989TIP3    H244909   4.113   5.576   2.008
14990TIP3   OH244910   3.797   6.611   3.808
14990TIP3    H144911   3.710   6.638   3.776
14990TIP3    H244912   3.828   6.549   3.743
14991TIP3   OH244913   2.802   3.972   0.297
14991TIP3    H144914   2.734   4.026   0.259
14991TIP3    H244915   2.867   4.034   0.331
14992TIP3   OH244916   2.538   5.686   3.424
14992TIP3    H144917   2.489   5.760   3.460
14992TIP3    H244918   2.475   5.613   3.424
14993TIP3   OH244919   5.670   2.561   1.409
14993TIP3    H144920   5.664   2.491   1.474
14993TIP3    H244921   5.630   2.637   1.451
14994TIP3   OH244922   1.441   7.665   1.006
14994TIP3    H144923   1.411   7.604   1.073
14994TIP3    H244924   1.418   7.752   1.040
14995TIP3   OH244925   2.577   4.782   5.528
14995TIP3    H144926   2.564   4.819   5.615
14995TIP3    H244927   2.647   4.717   5.540
14996TIP3   OH244928   7.691   1.926   5.687
14996TIP3    H144929   7.727   1.978   5.615
14996TIP3    H244930   7.735   1.841   5.679
14997TIP3   OH244931   6.047   5.241   4.837
14997TIP3    H144932   6.045   5.257   4.932
14997TIP3    H244933   6.086   5.154   4.828
14998TIP3   OH244934   7.931   6.258   0.265
14998TIP3    H144935   7.972   6.274   0.350
14998TIP3    H244936   7.896   6.169   0.271
14999TIP3   OH244937   5.864   7.283   1.837
14999TIP3    H144938   5.869   7.231   1.757
14999TIP3    H244939   5.867   7.374   1.808
15000TIP3   OH244940   5.920   2.458   4.874
15000TIP3    H144941   5.887   2.371   4.853
15000TIP3    H244942   5.894   2.513   4.800
15001TIP3   OH244943   5.583   3.274   2.087
15001TIP3    H144944   5.589   3.179   2.091
15001TIP3    H244945   5.576   3.302   2.179
15002TIP3   OH244946   0.880   3.996   0.092
15002TIP3    H144947   0.823   3.934   0.046
15002TIP3    H244948   0.846   3.997   0.181
15003TIP3   OH244949   1.741   6.932   2.892
15003TIP3    H144950   1.818   6.986   2.908
15003TIP3    H244951   1.757   6.851   2.939
15004TIP3   OH244952   6.845   5.385   6.453
15004TIP3    H144953   6.773   5.324   6.433
15004TIP3    H244954   6.922   5.344   6.414
15005TIP3   OH244955   0.100   1.532   2.348
15005TIP3    H144956   0.009   1.550   2.324
15005TIP3    H244957   0.113   1.580   2.430
15006TIP3   OH244958   6.390   4.559   4.511
15006TIP3    H144959   6.476   4.578   4.547
15006TIP3    H244960   6.397   4.583   4.418
15007TIP3   OH244961   1.723   5.615   2.240
15007TIP3    H144962   1.715   5.548   2.308
15007TIP3    H244963   1.724   5.566   2.158
15008TIP3   OH244964   7.130   5.654   4.851
15008TIP3    H144965   7.109   5.732   4.902
15008TIP3    H244966   7.225   5.649   4.852
15009TIP3   OH244967   0.398   2.490   4.706
15009TIP3    H144968   0.458   2.565   4.714
15009TIP3    H244969   0.439   2.420   4.756
15010TIP3   OH244970   0.710   5.243   5.025
15010TIP3    H144971   0.657   5.279   5.097
15010TIP3    H244972   0.799   5.272   5.044
15011TIP3   OH244973   5.952   5.250   0.164
15011TIP3    H144974   5.866   5.253   0.207
15011TIP3    H244975   6.007   5.310   0.215
15012TIP3   OH244976   0.963   0.161   2.155
15012TIP3    H144977   1.054   0.134   2.158
15012TIP3    H244978   0.949   0.208   2.237
15013TIP3   OH244979   7.915   6.989   5.646
15013TIP3    H144980   7.905   7.084   5.646
15013TIP3    H244981   7.994   6.972   5.698
15014TIP3   OH244982   7.883   0.801   1.404
15014TIP3    H144983   7.813   0.773   1.463
15014TIP3    H244984   7.865   0.894   1.388
15015TIP3   OH244985   5.411   2.780   4.610
15015TIP3    H144986   5.412   2.695   4.653
15015TIP3    H244987   5.341   2.829   4.653
15016TIP3   OH244988   3.491   0.906   6.501
15016TIP3    H144989   3.531   0.917   6.414
15016TIP3    H244990   3.440   0.986   6.514
15017TIP3   OH244991   4.503   0.027   3.653
15017TIP3    H144992   4.501   0.116   3.687
15017TIP3    H244993   4.413  -0.004   3.659
15018TIP3   OH244994   8.404   2.032   2.828
15018TIP3    H144995   8.350   2.031   2.749
15018TIP3    H244996   8.488   2.068   2.799
15019TIP3   OH244997   0.859   2.946   2.553
15019TIP3    H144998   0.881   3.034   2.522
15019TIP3    H244999   0.777   2.958   2.601
15020TIP3   OH245000   1.658   7.143   0.151
15020TIP3    H145001   1.722   7.095   0.204
15020TIP3    H245002   1.607   7.192   0.215
15021TIP3   OH245003   1.899   5.084   5.923
15021TIP3    H145004   1.876   5.010   5.867
15021TIP3    H245005   1.830   5.148   5.907
15022TIP3   OH245006   6.177   0.896   0.939
15022TIP3    H145007   6.170   0.825   1.003
15022TIP3    H245008   6.110   0.877   0.874
15023TIP3   OH245009   2.809   1.627   6.230
15023TIP3    H145010   2.843   1.669   6.310
15023TIP3    H245011   2.808   1.698   6.165
15024TIP3   OH245012   7.518   7.177   6.129
15024TIP3    H145013   7.608   7.145   6.131
15024TIP3    H245014   7.467   7.108   6.172
15025TIP3   OH245015   6.419   7.657   5.039
15025TIP3    H145016   6.357   7.647   5.110
15025TIP3    H245017   6.494   7.604   5.066
15026TIP3   OH245018   7.519   5.961   0.720
15026TIP3    H145019   7.471   5.971   0.637
15026TIP3    H245020   7.454   5.927   0.781
15027TIP3   OH245021   8.022   3.551   1.307
15027TIP3    H145022   7.973   3.487   1.358
15027TIP3    H245023   8.017   3.521   1.217
15028TIP3   OH245024   5.706   3.988   3.300
15028TIP3    H145025   5.630   3.945   3.262
15028TIP3    H245026   5.670   4.056   3.356
15029TIP3   OH245027   5.250   1.025   6.579
15029TIP3    H145028   5.161   1.061   6.588
15029TIP3    H245029   5.307   1.097   6.604
15030TIP3   OH245030   6.086   0.314   3.726
15030TIP3    H145031   6.165   0.289   3.679
15030TIP3    H245032   6.050   0.387   3.676
15031TIP3   OH245033   7.361   0.126   2.446
15031TIP3    H145034   7.303   0.178   2.389
15031TIP3    H245035   7.400   0.190   2.505
15032TIP3   OH245036   2.430   0.280   0.924
15032TIP3    H145037   2.491   0.280   0.998
15032TIP3    H245038   2.469   0.340   0.861
15033TIP3   OH245039   1.298   1.677   2.706
15033TIP3    H145040   1.239   1.688   2.781
15033TIP3    H245041   1.261   1.731   2.637
15034TIP3   OH245042   5.036   6.415   1.125
15034TIP3    H145043   4.955   6.401   1.075
15034TIP3    H245044   5.050   6.332   1.171
15035TIP3   OH245045   4.420   6.005   0.206
15035TIP3    H145046   4.387   6.075   0.149
15035TIP3    H245047   4.358   6.002   0.279
15036TIP3   OH245048   0.339   5.351   3.785
15036TIP3    H145049   0.284   5.429   3.780
15036TIP3    H245050   0.307   5.295   3.713
15037TIP3   OH245051   6.402   3.529   5.722
15037TIP3    H145052   6.452   3.602   5.684
15037TIP3    H245053   6.406   3.546   5.817
15038TIP3   OH245054   6.513   7.839   6.405
15038TIP3    H145055   6.475   7.790   6.478
15038TIP3    H245056   6.456   7.817   6.330
15039TIP3   OH245057   7.936   4.338   5.928
15039TIP3    H145058   7.962   4.267   5.986
15039TIP3    H245059   8.001   4.337   5.857
15040TIP3   OH245060   7.203   1.985   0.925
15040TIP3    H145061   7.148   2.050   0.881
15040TIP3    H245062   7.288   2.028   0.935
15041TIP3   OH245063   3.591  -0.005   6.699
15041TIP3    H145064   3.546   0.079   6.713
15041TIP3    H245065   3.666   0.017   6.644
15042TIP3   OH245066   8.347   3.741   1.091
15042TIP3    H145067   8.326   3.697   1.008
15042TIP3    H245068   8.263   3.751   1.135
15043TIP3   OH245069   6.872   6.772   3.967
15043TIP3    H145070   6.934   6.715   4.014
15043TIP3    H245071   6.818   6.713   3.916
15044TIP3   OH245072   4.575   4.003   6.068
15044TIP3    H145073   4.565   3.942   5.995
15044TIP3    H245074   4.670   4.007   6.083
15045TIP3   OH245075   0.198   3.481   4.371
15045TIP3    H145076   0.144   3.410   4.338
15045TIP3    H245077   0.287   3.446   4.370
15046TIP3   OH245078   6.500   0.455   4.096
15046TIP3    H145079   6.564   0.401   4.142
15046TIP3    H245080   6.415   0.415   4.118
15047TIP3   OH245081   8.348   6.163   0.380
15047TIP3    H145082   8.262   6.187   0.414
15047TIP3    H245083   8.395   6.247   0.372
15048TIP3   OH245084   1.096   1.334   2.937
15048TIP3    H145085   1.048   1.377   2.866
15048TIP3    H245086   1.153   1.403   2.972
15049TIP3   OH245087   3.341   3.068   5.572
15049TIP3    H145088   3.297   2.983   5.563
15049TIP3    H245089   3.270   3.129   5.593
15050TIP3   OH245090   4.539   0.633   2.375
15050TIP3    H145091   4.445   0.651   2.377
15050TIP3    H245092   4.551   0.576   2.299
15051TIP3   OH245093   1.272   2.686   6.586
15051TIP3    H145094   1.208   2.731   6.530
15051TIP3    H245095   1.344   2.664   6.527
15052TIP3   OH245096   4.383   7.074   5.594
15052TIP3    H145097   4.395   7.080   5.499
15052TIP3    H245098   4.296   7.036   5.604
15053TIP3   OH245099   0.432   1.898   6.070
15053TIP3    H145100   0.466   1.855   6.148
15053TIP3    H245101   0.504   1.953   6.039
15054TIP3   OH245102   3.679   4.681   0.909
15054TIP3    H145103   3.656   4.609   0.851
15054TIP3    H245104   3.656   4.760   0.860
15055TIP3   OH245105   1.253   2.192   0.687
15055TIP3    H145106   1.253   2.127   0.617
15055TIP3    H245107   1.324   2.252   0.663
15056TIP3   OH245108   4.543   2.918   1.970
15056TIP3    H145109   4.510   2.916   1.879
15056TIP3    H245110   4.586   2.833   1.981
15057TIP3   OH245111   7.260   4.449   5.407
15057TIP3    H145112   7.294   4.525   5.453
15057TIP3    H245113   7.300   4.453   5.320
15058TIP3   OH245114   8.352   2.396   6.420
15058TIP3    H145115   8.403   2.377   6.341
15058TIP3    H245116   8.412   2.448   6.474
15059TIP3   OH245117   0.330   0.061   1.662
15059TIP3    H145118   0.307   0.145   1.622
15059TIP3    H245119   0.421   0.046   1.638
15060TIP3   OH245120   6.655   6.070   0.154
15060TIP3    H145121   6.715   6.124   0.205
15060TIP3    H245122   6.571   6.114   0.160
15061TIP3   OH245123   7.286   5.139   0.754
15061TIP3    H145124   7.235   5.165   0.830
15061TIP3    H245125   7.370   5.184   0.764
15062TIP3   OH245126   8.329   4.152   3.308
15062TIP3    H145127   8.259   4.178   3.369
15062TIP3    H245128   8.296   4.074   3.264
15063TIP3   OH245129   1.425   4.376   0.061
15063TIP3    H145130   1.470   4.442   0.113
15063TIP3    H245131   1.347   4.421   0.028
15064TIP3   OH245132   1.126   6.663   3.364
15064TIP3    H145133   1.081   6.744   3.339
15064TIP3    H245134   1.133   6.614   3.282
15065TIP3   OH245135   4.115   0.985   1.760
15065TIP3    H145136   4.049   0.989   1.829
15065TIP3    H245137   4.105   1.067   1.711
15066TIP3   OH245138   5.221   0.476   5.714
15066TIP3    H145139   5.283   0.406   5.735
15066TIP3    H245140   5.189   0.506   5.799
15067TIP3   OH245141   8.077   0.775   3.784
15067TIP3    H145142   8.005   0.750   3.726
15067TIP3    H245143   8.056   0.732   3.867
15068TIP3   OH245144   1.522   6.813   3.469
15068TIP3    H145145   1.499   6.906   3.469
15068TIP3    H245146   1.553   6.796   3.380
15069TIP3   OH245147   0.031   4.281   1.614
15069TIP3    H145148   0.119   4.271   1.578
15069TIP3    H245149   0.017   4.202   1.666
15070TIP3   OH245150   3.331   0.650   0.853
15070TIP3    H145151   3.383   0.723   0.817
15070TIP3    H245152   3.342   0.579   0.789
15071TIP3   OH245153   7.435   0.314   6.534
15071TIP3    H145154   7.449   0.289   6.625
15071TIP3    H245155   7.512   0.366   6.511
15072TIP3   OH245156   1.229   5.927   2.195
15072TIP3    H145157   1.227   5.833   2.176
15072TIP3    H245158   1.221   5.931   2.291
15073TIP3   OH245159   7.137   6.854   3.141
15073TIP3    H145160   7.212   6.854   3.201
15073TIP3    H245161   7.091   6.935   3.160
15074TIP3   OH245162   3.997   5.798   2.282
15074TIP3    H145163   3.967   5.723   2.232
15074TIP3    H245164   4.034   5.761   2.362
15075TIP3   OH245165   4.929   3.187   2.946
15075TIP3    H145166   4.881   3.261   2.984
15075TIP3    H245167   4.928   3.120   3.015
15076TIP3   OH245168   5.206   0.277   5.293
15076TIP3    H145169   5.271   0.343   5.269
15076TIP3    H245170   5.239   0.195   5.255
15077TIP3   OH245171   0.792   5.566   6.853
15077TIP3    H145172   0.791   5.516   6.772
15077TIP3    H245173   0.884   5.578   6.873
15078TIP3   OH245174   3.329   4.664   6.398
15078TIP3    H145175   3.270   4.640   6.470
15078TIP3    H245176   3.373   4.743   6.428
15079TIP3   OH245177   1.941   0.218   4.630
15079TIP3    H145178   1.896   0.136   4.611
15079TIP3    H245179   1.959   0.215   4.724
15080TIP3   OH245180   7.133   4.986   6.436
15080TIP3    H145181   7.168   4.897   6.444
15080TIP3    H245182   7.185   5.037   6.499
15081TIP3   OH245183   4.988   1.392   5.397
15081TIP3    H145184   4.913   1.378   5.340
15081TIP3    H245185   5.015   1.304   5.423
15082TIP3   OH245186   7.951   6.577   6.210
15082TIP3    H145187   8.028   6.597   6.155
15082TIP3    H245188   7.988   6.547   6.293
15083TIP3   OH245189   3.723   4.967   5.111
15083TIP3    H145190   3.658   5.036   5.122
15083TIP3    H245191   3.770   4.965   5.194
15084TIP3   OH245192   5.560   3.385   0.029
15084TIP3    H145193   5.581   3.478   0.023
15084TIP3    H245194   5.526   3.363  -0.057
15085TIP3   OH245195   8.224   6.227   0.820
15085TIP3    H145196   8.194   6.157   0.763
15085TIP3    H245197   8.161   6.228   0.893
15086TIP3   OH245198   8.206   5.501   6.843
15086TIP3    H145199   8.278   5.437   6.846
15086TIP3    H245200   8.157   5.478   6.765
15087TIP3   OH245201   0.144   5.631   2.758
15087TIP3    H145202   0.113   5.703   2.703
15087TIP3    H245203   0.072   5.568   2.758
15088TIP3   OH245204   6.009   4.258   6.702
15088TIP3    H145205   5.956   4.190   6.744
15088TIP3    H245206   6.015   4.230   6.611
15089TIP3   OH245207   8.255   6.722   2.694
15089TIP3    H145208   8.276   6.654   2.630
15089TIP3    H245209   8.162   6.737   2.683
15090TIP3   OH245210   0.777   4.081   4.432
15090TIP3    H145211   0.851   4.137   4.409
15090TIP3    H245212   0.706   4.111   4.376
15091TIP3   OH245213   3.629   1.993   1.608
15091TIP3    H145214   3.630   2.069   1.667
15091TIP3    H245215   3.671   2.024   1.528
15092TIP3   OH245216   0.769   6.983   0.974
15092TIP3    H145217   0.704   6.913   0.965
15092TIP3    H245218   0.825   6.974   0.897
15093TIP3   OH245219   7.645   2.701   6.107
15093TIP3    H145220   7.707   2.739   6.170
15093TIP3    H245221   7.650   2.607   6.123
15094TIP3   OH245222   3.935   6.004   3.785
15094TIP3    H145223   3.913   5.970   3.698
15094TIP3    H245224   3.941   5.926   3.840
15095TIP3   OH245225   1.670   5.726   4.948
15095TIP3    H145226   1.684   5.664   5.019
15095TIP3    H245227   1.620   5.798   4.987
15096TIP3   OH245228   1.802   6.567   0.705
15096TIP3    H145229   1.708   6.562   0.722
15096TIP3    H245230   1.812   6.530   0.617
15097TIP3   OH245231   1.127   7.783   2.458
15097TIP3    H145232   1.183   7.828   2.521
15097TIP3    H245233   1.108   7.850   2.392
15098TIP3   OH245234   6.710   4.642   4.308
15098TIP3    H145235   6.689   4.709   4.243
15098TIP3    H245236   6.679   4.679   4.391
15099TIP3   OH245237   4.978   0.189   1.669
15099TIP3    H145238   5.030   0.172   1.748
15099TIP3    H245239   4.896   0.225   1.701
15100TIP3   OH245240   6.330   6.906   6.394
15100TIP3    H145241   6.264   6.948   6.449
15100TIP3    H245242   6.409   6.907   6.447
15101TIP3   OH245243   8.318   5.370   5.398
15101TIP3    H145244   8.249   5.430   5.428
15101TIP3    H245245   8.392   5.426   5.378
15102TIP3   OH245246   0.919   6.789   3.794
15102TIP3    H145247   0.915   6.793   3.889
15102TIP3    H245248   1.002   6.746   3.775
15103TIP3   OH245249   2.024   2.618   4.114
15103TIP3    H145250   2.062   2.615   4.026
15103TIP3    H245251   2.096   2.642   4.171
15104TIP3   OH245252   1.215   2.757   1.372
15104TIP3    H145253   1.234   2.666   1.350
15104TIP3    H245254   1.300   2.801   1.368
15105TIP3   OH245255   4.865   3.193   5.511
15105TIP3    H145256   4.826   3.112   5.543
15105TIP3    H245257   4.807   3.223   5.442
15106TIP3   OH245258   4.394   7.666   3.065
15106TIP3    H145259   4.383   7.642   2.973
15106TIP3    H245260   4.320   7.624   3.110
15107TIP3   OH245261   2.970   3.695   0.658
15107TIP3    H145262   3.049   3.726   0.703
15107TIP3    H245263   2.907   3.766   0.667
15108TIP3   OH245264   2.614   1.234   1.827
15108TIP3    H145265   2.667   1.180   1.769
15108TIP3    H245266   2.526   1.195   1.822
15109TIP3   OH245267   2.346   6.897   6.824
15109TIP3    H145268   2.352   6.992   6.833
15109TIP3    H245269   2.269   6.882   6.770
15110TIP3   OH245270   2.539   6.510   4.813
15110TIP3    H145271   2.614   6.569   4.803
15110TIP3    H245272   2.463   6.567   4.815
15111TIP3   OH245273   0.260   0.819   5.375
15111TIP3    H145274   0.282   0.751   5.311
15111TIP3    H245275   0.322   0.890   5.358
15112TIP3   OH245276   7.211   5.646   0.346
15112TIP3    H145277   7.211   5.633   0.441
15112TIP3    H245278   7.123   5.680   0.327
15113TIP3   OH245279   5.681   6.716   5.922
15113TIP3    H145280   5.750   6.740   5.859
15113TIP3    H245281   5.624   6.793   5.925
15114TIP3   OH245282   4.091   6.861   6.181
15114TIP3    H145283   4.060   6.781   6.138
15114TIP3    H245284   4.180   6.873   6.149
15115TIP3   OH245285   4.161   1.772   2.224
15115TIP3    H145286   4.251   1.739   2.235
15115TIP3    H245287   4.172   1.856   2.180
15116TIP3   OH245288   1.393   2.785   1.657
15116TIP3    H145289   1.406   2.699   1.697
15116TIP3    H245290   1.423   2.774   1.567
15117TIP3   OH245291   0.369   4.949   0.573
15117TIP3    H145292   0.320   4.971   0.494
15117TIP3    H245293   0.381   4.854   0.569
15118TIP3   OH245294   7.658   5.464   1.375
15118TIP3    H145295   7.627   5.403   1.442
15118TIP3    H245296   7.647   5.417   1.292
15119TIP3   OH245297   1.859   1.286   5.402
15119TIP3    H145298   1.838   1.252   5.315
15119TIP3    H245299   1.774   1.311   5.439
15120TIP3   OH245300   0.563   2.242   6.307
15120TIP3    H145301   0.638   2.286   6.268
15120TIP3    H245302   0.575   2.251   6.401
15121TIP3   OH245303   0.628   7.281   3.535
15121TIP3    H145304   0.588   7.352   3.484
15121TIP3    H245305   0.566   7.266   3.607
15122TIP3   OH245306   6.085   2.726   5.387
15122TIP3    H145307   6.110   2.754   5.475
15122TIP3    H245308   6.139   2.780   5.329
15123TIP3   OH245309   4.458   4.823   0.756
15123TIP3    H145310   4.374   4.804   0.716
15123TIP3    H245311   4.523   4.788   0.695
15124TIP3   OH245312   3.978   0.957   5.164
15124TIP3    H145313   3.898   0.910   5.143
15124TIP3    H245314   3.982   1.027   5.099
15125TIP3   OH245315   2.525   3.198   3.456
15125TIP3    H145316   2.461   3.235   3.516
15125TIP3    H245317   2.495   3.109   3.440
15126TIP3   OH245318   3.310   2.655   6.071
15126TIP3    H145319   3.395   2.697   6.079
15126TIP3    H245320   3.259   2.689   6.144
15127TIP3   OH245321   4.910   7.137   0.781
15127TIP3    H145322   4.924   7.135   0.686
15127TIP3    H245323   4.862   7.219   0.796
15128TIP3   OH245324   3.253   3.240   3.935
15128TIP3    H145325   3.241   3.314   3.876
15128TIP3    H245326   3.257   3.279   4.022
15129TIP3   OH245327   7.914   0.025   4.595
15129TIP3    H145328   7.936  -0.045   4.657
15129TIP3    H245329   7.976   0.014   4.524
15130TIP3   OH245330   6.192   3.220   2.109
15130TIP3    H145331   6.220   3.227   2.200
15130TIP3    H245332   6.254   3.274   2.060
15131TIP3   OH245333   6.562   4.916   1.144
15131TIP3    H145334   6.657   4.908   1.140
15131TIP3    H245335   6.541   4.908   1.237
15132TIP3   OH245336   7.171   2.444   2.909
15132TIP3    H145337   7.193   2.418   2.998
15132TIP3    H245338   7.205   2.373   2.854
15133TIP3   OH245339   6.786   3.970   6.511
15133TIP3    H145340   6.778   3.967   6.416
15133TIP3    H245341   6.798   3.878   6.537
15134TIP3   OH245342   5.624   7.839   4.887
15134TIP3    H145343   5.589   7.851   4.800
15134TIP3    H245344   5.556   7.790   4.934
15135TIP3   OH245345   1.619   7.567   1.238
15135TIP3    H145346   1.687   7.565   1.305
15135TIP3    H245347   1.666   7.558   1.155
15136TIP3   OH245348   2.558   7.261   2.698
15136TIP3    H145349   2.631   7.281   2.640
15136TIP3    H245350   2.595   7.266   2.786
15137TIP3   OH245351   6.661   3.891   3.992
15137TIP3    H145352   6.584   3.935   4.029
15137TIP3    H245353   6.672   3.931   3.906
15138TIP3   OH245354   1.329   7.095   2.881
15138TIP3    H145355   1.304   7.009   2.848
15138TIP3    H245356   1.249   7.147   2.876
15139TIP3   OH245357   2.713   3.795   0.699
15139TIP3    H145358   2.652   3.808   0.771
15139TIP3    H245359   2.756   3.881   0.688
15140TIP3   OH245360   5.337   0.121   0.271
15140TIP3    H145361   5.372   0.062   0.204
15140TIP3    H245362   5.277   0.066   0.322
15141TIP3   OH245363   5.484   5.415   4.993
15141TIP3    H145364   5.498   5.496   5.043
15141TIP3    H245365   5.436   5.358   5.053
15142TIP3   OH245366   0.085   6.609   3.551
15142TIP3    H145367   0.094   6.515   3.537
15142TIP3    H245368  -0.010   6.624   3.555
15143TIP3   OH245369   7.224   1.258   5.041
15143TIP3    H145370   7.259   1.208   5.114
15143TIP3    H245371   7.142   1.295   5.073
15144TIP3   OH245372   3.661   3.174   0.870
15144TIP3    H145373   3.729   3.147   0.931
15144TIP3    H245374   3.599   3.225   0.922
15145TIP3   OH245375   4.956   0.745   3.267
15145TIP3    H145376   4.953   0.693   3.347
15145TIP3    H245377   5.047   0.773   3.259
15146TIP3   OH245378   2.130   4.490   1.130
15146TIP3    H145379   2.161   4.449   1.211
15146TIP3    H245380   2.187   4.566   1.118
15147TIP3   OH245381   0.763   3.493   2.025
15147TIP3    H145382   0.826   3.555   1.989
15147TIP3    H245383   0.738   3.530   2.110
15148TIP3   OH245384   2.100   4.098   6.585
15148TIP3    H145385   2.007   4.109   6.603
15148TIP3    H245386   2.143   4.111   6.669
15149TIP3   OH245387   5.769   7.807   3.262
15149TIP3    H145388   5.686   7.770   3.232
15149TIP3    H245389   5.773   7.783   3.355
15150TIP3   OH245390   8.117   3.771   3.669
15150TIP3    H145391   8.172   3.704   3.709
15150TIP3    H245392   8.094   3.830   3.741
15151TIP3   OH245393   4.402   2.423   4.482
15151TIP3    H145394   4.401   2.502   4.535
15151TIP3    H245395   4.311   2.395   4.477
15152TIP3   OH245396   3.957   5.260   4.356
15152TIP3    H145397   3.884   5.249   4.417
15152TIP3    H245398   3.915   5.285   4.273
15153TIP3   OH245399   3.645   0.099   0.628
15153TIP3    H145400   3.681   0.062   0.709
15153TIP3    H245401   3.660   0.030   0.563
15154TIP3   OH245402   7.117   5.482   6.756
15154TIP3    H145403   7.134   5.388   6.762
15154TIP3    H245404   7.095   5.507   6.846
15155TIP3   OH245405   7.183   3.061   5.508
15155TIP3    H145406   7.106   3.093   5.556
15155TIP3    H245407   7.208   2.981   5.553
15156TIP3   OH245408   5.332   7.355   1.893
15156TIP3    H145409   5.297   7.442   1.911
15156TIP3    H245410   5.260   7.309   1.850
15157TIP3   OH245411   7.012   0.182   5.029
15157TIP3    H145412   6.925   0.210   5.059
15157TIP3    H245413   7.071   0.250   5.062
15158TIP3   OH245414   5.884   0.789   0.404
15158TIP3    H145415   5.908   0.730   0.476
15158TIP3    H245416   5.924   0.749   0.326
15159TIP3   OH245417   2.951   3.707   5.850
15159TIP3    H145418   2.939   3.639   5.916
15159TIP3    H245419   3.043   3.733   5.860
15160TIP3   OH245420   7.024   3.078   1.343
15160TIP3    H145421   7.083   3.071   1.268
15160TIP3    H245422   7.061   3.018   1.408
15161TIP3   OH245423   2.447   1.324   4.513
15161TIP3    H145424   2.365   1.374   4.514
15161TIP3    H245425   2.515   1.391   4.522
15162TIP3   OH245426   5.971   0.936   1.466
15162TIP3    H145427   5.993   1.012   1.411
15162TIP3    H245428   5.899   0.965   1.521
15163TIP3   OH245429   1.944   4.758   4.337
15163TIP3    H145430   1.923   4.730   4.426
15163TIP3    H245431   1.971   4.678   4.292
15164TIP3   OH245432   5.105   4.679   0.587
15164TIP3    H145433   5.108   4.584   0.597
15164TIP3    H245434   5.017   4.698   0.555
15165TIP3   OH245435   7.227   4.484   3.325
15165TIP3    H145436   7.231   4.558   3.386
15165TIP3    H245437   7.313   4.484   3.282
15166TIP3   OH245438   7.360   7.588   4.708
15166TIP3    H145439   7.370   7.615   4.617
15166TIP3    H245440   7.441   7.615   4.750
15167TIP3   OH245441   6.252   3.820   2.884
15167TIP3    H145442   6.321   3.830   2.819
15167TIP3    H245443   6.179   3.783   2.836
15168TIP3   OH245444   7.379   1.749   4.560
15168TIP3    H145445   7.462   1.791   4.586
15168TIP3    H245446   7.382   1.748   4.464
15169TIP3   OH245447   4.794   4.326   3.004
15169TIP3    H145448   4.803   4.412   2.963
15169TIP3    H245449   4.833   4.335   3.091
15170TIP3   OH245450   0.050   7.572   2.463
15170TIP3    H145451  -0.040   7.553   2.437
15170TIP3    H245452   0.089   7.485   2.477
15171TIP3   OH245453   8.238   7.556   1.303
15171TIP3    H145454   8.304   7.545   1.371
15171TIP3    H245455   8.165   7.501   1.330
15172TIP3   OH245456   5.998   5.811   6.346
15172TIP3    H145457   6.062   5.847   6.284
15172TIP3    H245458   5.948   5.887   6.375
15173TIP3   OH245459   2.350   6.769   0.702
15173TIP3    H145460   2.323   6.678   0.686
15173TIP3    H245461   2.441   6.772   0.671
15174TIP3   OH245462   7.662   4.869   0.665
15174TIP3    H145463   7.681   4.816   0.743
15174TIP3    H245464   7.688   4.813   0.592
15175TIP3   OH245465   1.220   4.168   3.643
15175TIP3    H145466   1.248   4.254   3.674
15175TIP3    H245467   1.302   4.120   3.628
15176TIP3   OH245468   7.452   0.104   5.969
15176TIP3    H145469   7.393   0.044   6.014
15176TIP3    H245470   7.497   0.151   6.039
15177TIP3   OH245471   0.636   2.532   2.442
15177TIP3    H145472   0.668   2.594   2.508
15177TIP3    H245473   0.674   2.448   2.468
15178TIP3   OH245474   3.181   3.283   5.664
15178TIP3    H145475   3.135   3.364   5.642
15178TIP3    H245476   3.157   3.266   5.755
15179TIP3   OH245477   6.055   5.377   0.671
15179TIP3    H145478   5.991   5.386   0.741
15179TIP3    H245479   6.127   5.436   0.697
15180TIP3   OH245480   2.041   7.149   5.929
15180TIP3    H145481   2.072   7.240   5.935
15180TIP3    H245482   2.120   7.096   5.940
15181TIP3   OH245483   4.255   1.157   3.900
15181TIP3    H145484   4.223   1.238   3.862
15181TIP3    H245485   4.283   1.181   3.989
15182TIP3   OH245486   7.339   6.883   1.047
15182TIP3    H145487   7.406   6.826   1.085
15182TIP3    H245488   7.347   6.870   0.952
15183TIP3   OH245489   3.019   0.125   3.675
15183TIP3    H145490   2.992   0.085   3.593
15183TIP3    H245491   2.941   0.121   3.731
15184TIP3   OH245492   7.114   5.667   4.577
15184TIP3    H145493   7.194   5.647   4.626
15184TIP3    H245494   7.058   5.712   4.641
15185TIP3   OH245495   4.327   4.178   0.477
15185TIP3    H145496   4.234   4.186   0.498
15185TIP3    H245497   4.368   4.152   0.560
15186TIP3   OH245498   4.904   4.579   2.898
15186TIP3    H145499   4.852   4.646   2.853
15186TIP3    H245500   4.954   4.536   2.829
15187TIP3   OH245501   2.183   2.650   1.548
15187TIP3    H145502   2.269   2.689   1.533
15187TIP3    H245503   2.189   2.563   1.509
15188TIP3   OH245504   6.574   1.149   5.697
15188TIP3    H145505   6.486   1.127   5.728
15188TIP3    H245506   6.613   1.065   5.672
15189TIP3   OH245507   1.894   2.484   4.591
15189TIP3    H145508   1.955   2.475   4.517
15189TIP3    H245509   1.890   2.397   4.630
15190TIP3   OH245510   5.927   5.209   6.406
15190TIP3    H145511   5.951   5.163   6.487
15190TIP3    H245512   5.986   5.284   6.403
15191TIP3   OH245513   6.295   4.334   3.424
15191TIP3    H145514   6.340   4.282   3.357
15191TIP3    H245515   6.207   4.297   3.428
15192TIP3   OH245516   4.594   2.922   5.850
15192TIP3    H145517   4.514   2.974   5.860
15192TIP3    H245518   4.586   2.854   5.917
15193TIP3   OH245519   0.398   1.745   3.100
15193TIP3    H145520   0.359   1.795   3.171
15193TIP3    H245521   0.324   1.701   3.058
15194TIP3   OH245522   3.489   0.597   4.684
15194TIP3    H145523   3.433   0.600   4.607
15194TIP3    H245524   3.546   0.674   4.675
15195TIP3   OH245525   8.084   3.426   0.604
15195TIP3    H145526   8.084   3.364   0.531
15195TIP3    H245527   8.033   3.383   0.673
15196TIP3   OH245528   2.546   7.583   2.813
15196TIP3    H145529   2.470   7.554   2.763
15196TIP3    H245530   2.550   7.523   2.887
15197TIP3   OH245531   4.088   4.489   6.646
15197TIP3    H145532   4.162   4.493   6.586
15197TIP3    H245533   4.118   4.535   6.725
15198TIP3   OH245534   7.968   3.753   6.685
15198TIP3    H145535   7.900   3.816   6.662
15198TIP3    H245536   7.940   3.671   6.645
15199TIP3   OH245537   7.242   4.083   2.286
15199TIP3    H145538   7.186   4.015   2.250
15199TIP3    H245539   7.186   4.160   2.294
15200TIP3   OH245540   0.948   0.125   5.241
15200TIP3    H145541   0.883   0.174   5.190
15200TIP3    H245542   0.903   0.047   5.271
15201TIP3   OH245543   2.714   0.069   1.455
15201TIP3    H145544   2.745   0.157   1.474
15201TIP3    H245545   2.791   0.013   1.465
15202TIP3   OH245546   7.499   5.525   2.932
15202TIP3    H145547   7.543   5.523   3.018
15202TIP3    H245548   7.426   5.586   2.944
15203TIP3   OH245549   6.475   6.454   6.642
15203TIP3    H145550   6.441   6.365   6.645
15203TIP3    H245551   6.398   6.510   6.639
15204TIP3   OH245552   0.329   0.373   6.056
15204TIP3    H145553   0.410   0.422   6.072
15204TIP3    H245554   0.358   0.284   6.039
15205TIP3   OH245555   5.152   1.371   2.467
15205TIP3    H145556   5.172   1.312   2.541
15205TIP3    H245557   5.117   1.450   2.508
15206TIP3   OH245558   7.995   1.021   2.505
15206TIP3    H145559   8.007   0.972   2.423
15206TIP3    H245560   8.066   1.085   2.506
15207TIP3   OH245561   6.412   7.306   6.756
15207TIP3    H145562   6.384   7.396   6.735
15207TIP3    H245563   6.502   7.302   6.724
15208TIP3   OH245564   6.825   6.463   2.277
15208TIP3    H145565   6.755   6.526   2.262
15208TIP3    H245566   6.817   6.400   2.205
15209TIP3   OH245567   1.473   7.729   5.077
15209TIP3    H145568   1.444   7.758   4.990
15209TIP3    H245569   1.427   7.786   5.138
15210TIP3   OH245570   3.191   1.362   4.764
15210TIP3    H145571   3.182   1.267   4.767
15210TIP3    H245572   3.283   1.377   4.739
15211TIP3   OH245573   3.399   0.659   3.986
15211TIP3    H145574   3.330   0.724   3.975
15211TIP3    H245575   3.466   0.685   3.922
15212TIP3   OH245576   0.936   4.575   3.037
15212TIP3    H145577   0.989   4.497   3.054
15212TIP3    H245578   0.862   4.543   2.986
15213TIP3   OH245579   0.497   1.318   1.472
15213TIP3    H145580   0.519   1.408   1.495
15213TIP3    H245581   0.462   1.281   1.553
15214TIP3   OH245582   1.915   4.804   1.737
15214TIP3    H145583   1.960   4.873   1.787
15214TIP3    H245584   1.888   4.740   1.802
15215TIP3   OH245585   5.079   1.563   3.306
15215TIP3    H145586   5.066   1.468   3.314
15215TIP3    H245587   5.142   1.584   3.375
15216TIP3   OH245588   1.605   4.980   0.472
15216TIP3    H145589   1.531   4.986   0.532
15216TIP3    H245590   1.638   4.891   0.484
15217TIP3   OH245591   6.998   2.751   6.077
15217TIP3    H145592   7.029   2.668   6.113
15217TIP3    H245593   7.018   2.816   6.145
15218TIP3   OH245594   3.392   6.093   3.445
15218TIP3    H145595   3.363   6.173   3.401
15218TIP3    H245596   3.481   6.080   3.414
15219TIP3   OH245597   4.067   5.355   2.885
15219TIP3    H145598   4.100   5.273   2.922
15219TIP3    H245599   4.140   5.389   2.834
15220TIP3   OH245600   0.137   2.022   2.534
15220TIP3    H145601   0.208   2.045   2.593
15220TIP3    H245602   0.102   2.107   2.506
15221TIP3   OH245603   3.959   4.925   0.498
15221TIP3    H145604   3.989   4.908   0.409
15221TIP3    H245605   3.869   4.956   0.487
15222TIP3   OH245606   6.656   3.339   5.449
15222TIP3    H145607   6.660   3.430   5.476
15222TIP3    H245608   6.586   3.301   5.503
15223TIP3   OH245609   2.505   5.921   0.502
15223TIP3    H145610   2.586   5.902   0.550
15223TIP3    H245611   2.516   6.010   0.470
15224TIP3   OH245612   7.559   5.213   4.003
15224TIP3    H145613   7.635   5.240   3.952
15224TIP3    H245614   7.595   5.158   4.073
15225TIP3   OH245615   2.035   4.073   2.139
15225TIP3    H145616   1.946   4.091   2.169
15225TIP3    H245617   2.063   3.998   2.191
15226TIP3   OH245618   2.154   3.344   6.514
15226TIP3    H145619   2.168   3.260   6.557
15226TIP3    H245620   2.185   3.332   6.425
15227TIP3   OH245621   3.578   0.372   1.338
15227TIP3    H145622   3.640   0.363   1.266
15227TIP3    H245623   3.492   0.366   1.297
15228TIP3   OH245624   1.713   2.391   1.838
15228TIP3    H145625   1.785   2.453   1.843
15228TIP3    H245626   1.752   2.306   1.859
15229TIP3   OH245627   4.424   3.602   2.848
15229TIP3    H145628   4.463   3.516   2.829
15229TIP3    H245629   4.494   3.664   2.832
15230TIP3   OH245630   7.542   0.142   0.456
15230TIP3    H145631   7.518   0.164   0.366
15230TIP3    H245632   7.634   0.168   0.464
15231TIP3   OH245633   1.569   1.251   2.694
15231TIP3    H145634   1.570   1.160   2.722
15231TIP3    H245635   1.480   1.266   2.663
15232TIP3   OH245636   1.578   2.576   0.219
15232TIP3    H145637   1.588   2.580   0.124
15232TIP3    H245638   1.611   2.661   0.250
15233TIP3   OH245639   1.545   2.931   4.262
15233TIP3    H145640   1.484   2.863   4.235
15233TIP3    H245641   1.608   2.885   4.318
15234TIP3   OH245642   1.551   2.660   0.579
15234TIP3    H145643   1.496   2.582   0.581
15234TIP3    H245644   1.577   2.673   0.671
15235TIP3   OH245645   1.331   0.225   4.637
15235TIP3    H145646   1.331   0.321   4.629
15235TIP3    H245647   1.245   0.203   4.671
15236TIP3   OH245648   4.307   5.702   1.283
15236TIP3    H145649   4.232   5.760   1.266
15236TIP3    H245650   4.316   5.651   1.202
15237TIP3   OH245651   2.979   2.027   2.792
15237TIP3    H145652   2.919   2.090   2.753
15237TIP3    H245653   3.025   1.988   2.718
15238TIP3   OH245654   3.046   6.837   5.883
15238TIP3    H145655   3.102   6.812   5.957
15238TIP3    H245656   3.087   6.917   5.848
15239TIP3   OH245657   5.338   1.731   2.886
15239TIP3    H145658   5.425   1.752   2.921
15239TIP3    H245659   5.353   1.658   2.827
15240TIP3   OH245660   0.549   1.616   2.102
15240TIP3    H145661   0.457   1.592   2.113
15240TIP3    H245662   0.580   1.562   2.029
15241TIP3   OH245663   3.908   2.979   0.432
15241TIP3    H145664   3.880   2.889   0.418
15241TIP3    H245665   3.855   3.010   0.505
15242TIP3   OH245666   5.660   2.066   1.956
15242TIP3    H145667   5.672   1.975   1.984
15242TIP3    H245668   5.590   2.099   2.013
15243TIP3   OH245669   5.902   7.778   3.702
15243TIP3    H145670   5.829   7.723   3.674
15243TIP3    H245671   5.881   7.802   3.792
15244TIP3   OH245672   4.570   1.158   0.598
15244TIP3    H145673   4.607   1.241   0.566
15244TIP3    H245674   4.577   1.099   0.523
15245TIP3   OH245675   3.251   2.080   1.346
15245TIP3    H145676   3.231   2.033   1.427
15245TIP3    H245677   3.219   2.022   1.276
15246TIP3   OH245678   1.000   2.191   2.564
15246TIP3    H145679   1.061   2.153   2.502
15246TIP3    H245680   1.056   2.230   2.632
15247TIP3   OH245681   1.296   3.393   6.451
15247TIP3    H145682   1.268   3.479   6.483
15247TIP3    H245683   1.235   3.332   6.492
15248TIP3   OH245684   2.925   1.533   2.126
15248TIP3    H145685   2.980   1.604   2.093
15248TIP3    H245686   2.880   1.499   2.048
15249TIP3   OH245687   1.855   6.654   1.280
15249TIP3    H145688   1.950   6.649   1.294
15249TIP3    H245689   1.818   6.591   1.341
15250TIP3   OH245690   0.910   3.897   0.743
15250TIP3    H145691   0.901   3.810   0.705
15250TIP3    H245692   0.988   3.891   0.798
15251TIP3   OH245693   2.493   3.815   5.558
15251TIP3    H145694   2.512   3.803   5.651
15251TIP3    H245695   2.464   3.729   5.528
15252TIP3   OH245696   7.758   4.242   1.460
15252TIP3    H145697   7.812   4.321   1.457
15252TIP3    H245698   7.736   4.225   1.369
15253TIP3   OH245699   0.696   0.531   2.772
15253TIP3    H145700   0.623   0.565   2.823
15253TIP3    H245701   0.756   0.496   2.837
15254TIP3   OH245702   4.579   6.673   3.408
15254TIP3    H145703   4.570   6.761   3.371
15254TIP3    H245704   4.588   6.687   3.502
15255TIP3   OH245705   6.601   4.377   1.891
15255TIP3    H145706   6.518   4.331   1.880
15255TIP3    H245707   6.661   4.311   1.926
15256TIP3   OH245708   5.191   2.819   4.156
15256TIP3    H145709   5.267   2.863   4.194
15256TIP3    H245710   5.194   2.842   4.063
15257TIP3   OH245711   2.369   3.601   0.997
15257TIP3    H145712   2.336   3.625   0.911
15257TIP3    H245713   2.434   3.533   0.979
15258TIP3   OH245714   5.209   7.089   0.793
15258TIP3    H145715   5.113   7.084   0.797
15258TIP3    H245716   5.226   7.138   0.712
15259TIP3   OH245717   4.538   5.796   4.830
15259TIP3    H145718   4.618   5.769   4.875
15259TIP3    H245719   4.471   5.797   4.899
15260TIP3   OH245720   2.804   2.064   2.027
15260TIP3    H145721   2.755   1.988   1.995
15260TIP3    H245722   2.888   2.028   2.056
15261TIP3   OH245723   3.046   6.785   2.124
15261TIP3    H145724   2.995   6.865   2.107
15261TIP3    H245725   3.037   6.771   2.219
15262TIP3   OH245726   1.159   6.944   3.089
15262TIP3    H145727   1.105   6.918   3.164
15262TIP3    H245728   1.228   6.999   3.127
15263TIP3   OH245729   4.898   4.317   0.528
15263TIP3    H145730   4.922   4.230   0.559
15263TIP3    H245731   4.805   4.311   0.508
15264TIP3   OH245732   0.168   2.158   1.291
15264TIP3    H145733   0.250   2.202   1.312
15264TIP3    H245734   0.114   2.170   1.369
15265TIP3   OH245735   5.554   7.699   5.691
15265TIP3    H145736   5.638   7.664   5.721
15265TIP3    H245737   5.568   7.793   5.685
15266TIP3   OH245738   2.232   2.629   1.996
15266TIP3    H145739   2.167   2.571   2.035
15266TIP3    H245740   2.188   2.667   1.920
15267TIP3   OH245741   4.752   6.417   4.877
15267TIP3    H145742   4.840   6.394   4.847
15267TIP3    H245743   4.750   6.512   4.874
15268TIP3   OH245744   2.666   5.032   0.401
15268TIP3    H145745   2.584   4.986   0.381
15268TIP3    H245746   2.727   4.962   0.426
15269TIP3   OH245747   7.759   4.693   6.519
15269TIP3    H145748   7.727   4.618   6.468
15269TIP3    H245749   7.790   4.755   6.452
15270TIP3   OH245750   3.759   7.691   0.407
15270TIP3    H145751   3.691   7.720   0.348
15270TIP3    H245752   3.841   7.704   0.359
15271TIP3   OH245753   2.427   7.456   4.764
15271TIP3    H145754   2.347   7.404   4.766
15271TIP3    H245755   2.397   7.545   4.743
15272TIP3   OH245756   0.374   7.768   4.424
15272TIP3    H145757   0.380   7.806   4.512
15272TIP3    H245758   0.383   7.674   4.438
15273TIP3   OH245759   4.086   5.482   4.947
15273TIP3    H145760   4.035   5.427   4.888
15273TIP3    H245761   4.152   5.523   4.891
15274TIP3   OH245762   6.527   0.192   2.719
15274TIP3    H145763   6.434   0.191   2.695
15274TIP3    H245764   6.573   0.209   2.636
15275TIP3   OH245765   1.984   2.541   1.340
15275TIP3    H145766   2.049   2.573   1.277
15275TIP3    H245767   1.905   2.528   1.288
15276TIP3   OH245768   2.333   7.814   2.149
15276TIP3    H145769   2.348   7.891   2.203
15276TIP3    H245770   2.400   7.818   2.081
15277TIP3   OH245771   2.333   6.323   5.955
15277TIP3    H145772   2.417   6.301   5.916
15277TIP3    H245773   2.305   6.243   6.000
15278TIP3   OH245774   3.516   2.119   0.754
15278TIP3    H145775   3.566   2.037   0.753
15278TIP3    H245776   3.537   2.162   0.672
15279TIP3   OH245777   5.220   7.445   0.334
15279TIP3    H145778   5.137   7.411   0.302
15279TIP3    H245779   5.218   7.538   0.314
15280TIP3   OH245780   0.135   3.122   1.707
15280TIP3    H145781   0.138   3.190   1.773
15280TIP3    H245782   0.050   3.134   1.664
15281TIP3   OH245783   7.546   1.292   1.078
15281TIP3    H145784   7.604   1.345   1.023
15281TIP3    H245785   7.460   1.300   1.036
15282TIP3   OH245786   6.564   4.998   5.817
15282TIP3    H145787   6.655   4.977   5.798
15282TIP3    H245788   6.550   4.967   5.906
15283TIP3   OH245789   7.596   2.610   2.995
15283TIP3    H145790   7.652   2.535   3.013
15283TIP3    H245791   7.596   2.661   3.076
15284TIP3   OH245792   3.589   2.203   6.233
15284TIP3    H145793   3.613   2.294   6.247
15284TIP3    H245794   3.670   2.154   6.249
15285TIP3   OH245795   6.888   5.889   0.089
15285TIP3    H145796   6.836   5.960   0.126
15285TIP3    H245797   6.915   5.836   0.164
15286TIP3   OH245798   3.911   4.524   5.684
15286TIP3    H145799   3.994   4.558   5.649
15286TIP3    H245800   3.883   4.460   5.619
15287TIP3   OH245801   2.958   7.135   3.547
15287TIP3    H145802   3.007   7.172   3.473
15287TIP3    H245803   3.017   7.144   3.622
15288TIP3   OH245804   0.005   3.671   4.382
15288TIP3    H145805   0.068   3.599   4.382
15288TIP3    H245806   0.056   3.747   4.354
15289TIP3   OH245807   5.629   3.729   3.850
15289TIP3    H145808   5.646   3.666   3.920
15289TIP3    H245809   5.684   3.699   3.777
15290TIP3   OH245810   5.491   4.329   3.698
15290TIP3    H145811   5.530   4.262   3.642
15290TIP3    H245812   5.560   4.352   3.761
15291TIP3   OH245813   0.520   3.295   2.983
15291TIP3    H145814   0.525   3.205   2.951
15291TIP3    H245815   0.427   3.318   2.974
15292TIP3   OH245816   7.137   2.272   6.544
15292TIP3    H145817   7.179   2.357   6.559
15292TIP3    H245818   7.139   2.229   6.629
15293TIP3   OH245819   5.395   6.399   2.781
15293TIP3    H145820   5.353   6.385   2.866
15293TIP3    H245821   5.481   6.359   2.789
15294TIP3   OH245822   0.314   3.308   5.677
15294TIP3    H145823   0.389   3.282   5.730
15294TIP3    H245824   0.240   3.303   5.736
15295TIP3   OH245825   3.668   6.781   5.359
15295TIP3    H145826   3.622   6.850   5.407
15295TIP3    H245827   3.651   6.800   5.267
15296TIP3   OH245828   0.837   6.473   2.894
15296TIP3    H145829   0.888   6.511   2.822
15296TIP3    H245830   0.826   6.381   2.869
15297TIP3   OH245831   3.243   2.531   2.025
15297TIP3    H145832   3.332   2.500   2.014
15297TIP3    H245833   3.188   2.460   1.993
15298TIP3   OH245834   0.621   6.027   4.249
15298TIP3    H145835   0.710   6.019   4.215
15298TIP3    H245836   0.565   6.014   4.173
15299TIP3   OH245837   5.656   5.077   4.770
15299TIP3    H145838   5.697   5.107   4.851
15299TIP3    H245839   5.725   5.029   4.724
15300TIP3   OH245840   4.070   2.815   3.238
15300TIP3    H145841   4.109   2.876   3.300
15300TIP3    H245842   4.144   2.780   3.189
15301TIP3   OH245843   8.264   7.351   6.624
15301TIP3    H145844   8.315   7.389   6.553
15301TIP3    H245845   8.173   7.373   6.602
15302TIP3   OH245846   1.743   2.797   6.487
15302TIP3    H145847   1.674   2.860   6.509
15302TIP3    H245848   1.734   2.728   6.552
15303TIP3   OH245849   2.267   7.070   4.525
15303TIP3    H145850   2.181   7.064   4.566
15303TIP3    H245851   2.289   6.980   4.501
15304TIP3   OH245852   1.051   4.211   5.848
15304TIP3    H145853   1.045   4.253   5.762
15304TIP3    H245854   1.078   4.281   5.908
15305TIP3   OH245855   3.367   2.222   3.257
15305TIP3    H145856   3.401   2.232   3.346
15305TIP3    H245857   3.272   2.228   3.267
15306TIP3   OH245858   2.497   7.206   4.697
15306TIP3    H145859   2.497   7.301   4.706
15306TIP3    H245860   2.418   7.187   4.646
15307TIP3   OH245861   2.903   6.113   6.137
15307TIP3    H145862   2.921   6.036   6.191
15307TIP3    H245863   2.981   6.124   6.083
15308TIP3   OH245864   3.507   2.346   2.242
15308TIP3    H145865   3.551   2.281   2.298
15308TIP3    H245866   3.445   2.390   2.300
15309TIP3   OH245867   3.377   3.275   5.203
15309TIP3    H145868   3.399   3.303   5.291
15309TIP3    H245869   3.338   3.188   5.214
15310TIP3   OH245870   4.108   3.983   0.343
15310TIP3    H145871   4.057   4.047   0.394
15310TIP3    H245872   4.118   4.024   0.257
15311TIP3   OH245873   1.385   0.754   5.626
15311TIP3    H145874   1.305   0.785   5.584
15311TIP3    H245875   1.455   0.808   5.588
15312TIP3   OH245876   0.483   0.936   3.659
15312TIP3    H145877   0.456   0.945   3.568
15312TIP3    H245878   0.433   0.862   3.692
15313TIP3   OH245879   5.141   4.353   4.751
15313TIP3    H145880   5.231   4.328   4.772
15313TIP3    H245881   5.094   4.270   4.742
15314TIP3   OH245882   5.156   4.349   2.311
15314TIP3    H145883   5.204   4.319   2.388
15314TIP3    H245884   5.065   4.321   2.327
15315TIP3   OH245885   3.567   1.429   1.275
15315TIP3    H145886   3.558   1.350   1.330
15315TIP3    H245887   3.599   1.496   1.335
15316TIP3   OH245888   0.201   6.860   5.421
15316TIP3    H145889   0.198   6.800   5.347
15316TIP3    H245890   0.191   6.947   5.381
15317TIP3   OH245891   6.469   0.842   5.143
15317TIP3    H145892   6.481   0.777   5.212
15317TIP3    H245893   6.418   0.796   5.076
15318TIP3   OH245894   2.137   7.157   0.021
15318TIP3    H145895   2.150   7.174   0.114
15318TIP3    H245896   2.223   7.130  -0.011
15319TIP3   OH245897   7.791   1.391   1.960
15319TIP3    H145898   7.755   1.477   1.980
15319TIP3    H245899   7.725   1.329   1.992
15320TIP3   OH245900   2.052   7.610   2.691
15320TIP3    H145901   2.013   7.535   2.736
15320TIP3    H245902   1.979   7.672   2.681
15321TIP3   OH245903   6.113   1.541   4.747
15321TIP3    H145904   6.039   1.484   4.769
15321TIP3    H245905   6.155   1.559   4.831
15322TIP3   OH245906   2.304   7.243   3.694
15322TIP3    H145907   2.225   7.238   3.748
15322TIP3    H245908   2.328   7.336   3.696
15323TIP3   OH245909   5.864   1.800   0.537
15323TIP3    H145910   5.847   1.890   0.565
15323TIP3    H245911   5.918   1.809   0.459
15324TIP3   OH245912   7.073   5.129   2.486
15324TIP3    H145913   7.010   5.127   2.414
15324TIP3    H245914   7.157   5.108   2.446
15325TIP3   OH245915   1.975   4.474   4.853
15325TIP3    H145916   1.899   4.485   4.909
15325TIP3    H245917   1.941   4.486   4.764
15326TIP3   OH245918   2.716   4.626   3.805
15326TIP3    H145919   2.637   4.680   3.800
15326TIP3    H245920   2.774   4.662   3.738
15327TIP3   OH245921   2.260   7.845   6.136
15327TIP3    H145922   2.331   7.844   6.200
15327TIP3    H245923   2.228   7.755   6.134
15328TIP3   OH245924   4.036   4.151   1.844
15328TIP3    H145925   4.021   4.246   1.846
15328TIP3    H245926   4.075   4.131   1.929
15329TIP3   OH245927   4.078   2.132   6.245
15329TIP3    H145928   3.989   2.103   6.262
15329TIP3    H245929   4.087   2.130   6.150
15330TIP3   OH245930   1.375   7.682   4.430
15330TIP3    H145931   1.367   7.703   4.337
15330TIP3    H245932   1.286   7.660   4.458
15331TIP3   OH245933   0.662   6.318   4.320
15331TIP3    H145934   0.664   6.228   4.286
15331TIP3    H245935   0.570   6.342   4.318
15332TIP3   OH245936   3.041   1.638   3.427
15332TIP3    H145937   3.007   1.682   3.349
15332TIP3    H245938   2.982   1.666   3.498
15333TIP3   OH245939   5.391   6.715   4.662
15333TIP3    H145940   5.401   6.710   4.757
15333TIP3    H245941   5.307   6.671   4.645
15334TIP3   OH245942   3.870   1.491   3.804
15334TIP3    H145943   3.895   1.412   3.757
15334TIP3    H245944   3.952   1.540   3.812
15335TIP3   OH245945   4.456   0.048   5.614
15335TIP3    H145946   4.374   0.076   5.653
15335TIP3    H245947   4.468   0.104   5.538
15336TIP3   OH245948   0.845   1.353   2.332
15336TIP3    H145949   0.827   1.261   2.316
15336TIP3    H245950   0.918   1.353   2.394
15337TIP3   OH245951   7.876   0.958   2.918
15337TIP3    H145952   7.860   0.898   2.991
15337TIP3    H245953   7.791   0.968   2.876
15338TIP3   OH245954   4.215   2.238   4.695
15338TIP3    H145955   4.304   2.207   4.682
15338TIP3    H245956   4.186   2.265   4.608
15339TIP3   OH245957   3.755   3.829   6.646
15339TIP3    H145958   3.819   3.888   6.687
15339TIP3    H245959   3.703   3.886   6.590
15340TIP3   OH245960   0.792   2.484   4.474
15340TIP3    H145961   0.708   2.452   4.440
15340TIP3    H245962   0.856   2.460   4.407
15341TIP3   OH245963   6.782   0.981   4.733
15341TIP3    H145964   6.740   0.956   4.815
15341TIP3    H245965   6.865   1.021   4.760
15342TIP3   OH245966   2.838   3.912   4.381
15342TIP3    H145967   2.875   3.825   4.395
15342TIP3    H245968   2.749   3.906   4.417
15343TIP3   OH245969   8.419   6.243   6.721
15343TIP3    H145970   8.400   6.211   6.809
15343TIP3    H245971   8.343   6.215   6.669
15344TIP3   OH245972   7.095   7.630   3.472
15344TIP3    H145973   7.188   7.640   3.491
15344TIP3    H245974   7.073   7.707   3.418
15345TIP3   OH245975   1.749   2.618   3.275
15345TIP3    H145976   1.753   2.555   3.347
15345TIP3    H245977   1.685   2.683   3.303
15346TIP3   OH245978   5.414   2.458   0.268
15346TIP3    H145979   5.373   2.526   0.322
15346TIP3    H245980   5.351   2.386   0.268
15347TIP3   OH245981   4.947   2.553   1.228
15347TIP3    H145982   4.927   2.613   1.299
15347TIP3    H245983   4.880   2.570   1.162
15348TIP3   OH245984   5.549   2.663   6.699
15348TIP3    H145985   5.575   2.669   6.791
15348TIP3    H245986   5.513   2.749   6.678
15349TIP3   OH245987   0.454   7.562   2.902
15349TIP3    H145988   0.448   7.650   2.865
15349TIP3    H245989   0.543   7.556   2.935
15350TIP3   OH245990   1.135   3.066   5.148
15350TIP3    H145991   1.079   3.076   5.225
15350TIP3    H245992   1.139   2.971   5.135
15351TIP3   OH245993   5.757   6.558   2.839
15351TIP3    H145994   5.748   6.553   2.744
15351TIP3    H245995   5.744   6.469   2.870
15352TIP3   OH245996   0.658   2.867   0.168
15352TIP3    H145997   0.603   2.789   0.178
15352TIP3    H245998   0.616   2.917   0.098
15353TIP3   OH245999   8.260   1.329   6.521
15353TIP3    H146000   8.205   1.384   6.466
15353TIP3    H246001   8.199   1.270   6.564
15354TIP3   OH246002   0.183   7.277   1.128
15354TIP3    H146003   0.122   7.250   1.059
15354TIP3    H246004   0.268   7.280   1.084
15355TIP3   OH246005   3.204   6.975   3.175
15355TIP3    H146006   3.257   7.052   3.197
15355TIP3    H246007   3.187   6.933   3.259
15356TIP3   OH246008   6.002   1.241   6.150
15356TIP3    H146009   5.951   1.216   6.227
15356TIP3    H246010   6.071   1.174   6.144
15357TIP3   OH246011   5.696   5.260   0.334
15357TIP3    H146012   5.634   5.203   0.379
15357TIP3    H246013   5.736   5.313   0.404
15358TIP3   OH246014   3.591   1.970   1.050
15358TIP3    H146015   3.647   1.903   1.010
15358TIP3    H246016   3.508   1.964   1.002
15359TIP3   OH246017   0.314   5.543   4.885
15359TIP3    H146018   0.276   5.573   4.968
15359TIP3    H246019   0.372   5.471   4.909
15360TIP3   OH246020   5.113   3.418   5.259
15360TIP3    H146021   5.046   3.480   5.287
15360TIP3    H246022   5.143   3.377   5.340
15361TIP3   OH246023   7.572   3.108   4.376
15361TIP3    H146024   7.495   3.105   4.432
15361TIP3    H246025   7.562   3.033   4.317
15362TIP3   OH246026   5.981   4.402   1.769
15362TIP3    H146027   6.025   4.351   1.838
15362TIP3    H246028   6.003   4.493   1.788
15363TIP3   OH246029   4.616   7.333   6.382
15363TIP3    H146030   4.584   7.378   6.460
15363TIP3    H246031   4.710   7.351   6.381
15364TIP3   OH246032   4.653   1.160   1.809
15364TIP3    H146033   4.572   1.113   1.828
15364TIP3    H246034   4.682   1.126   1.725
15365TIP3   OH246035   1.029   5.287   4.287
15365TIP3    H146036   0.969   5.223   4.325
15365TIP3    H246037   1.107   5.283   4.342
15366TIP3   OH246038   7.600   6.997   2.776
15366TIP3    H146039   7.532   7.047   2.819
15366TIP3    H246040   7.658   6.968   2.847
15367TIP3   OH246041   3.632   3.876   1.835
15367TIP3    H146042   3.641   3.805   1.771
15367TIP3    H246043   3.683   3.948   1.798
15368TIP3   OH246044   3.667   1.176   3.226
15368TIP3    H146045   3.747   1.175   3.278
15368TIP3    H246046   3.696   1.166   3.135
15369TIP3   OH246047   0.592   6.817   6.450
15369TIP3    H146048   0.558   6.789   6.535
15369TIP3    H246049   0.682   6.846   6.468
15370TIP3   OH246050   5.025   6.323   4.808
15370TIP3    H146051   5.110   6.343   4.847
15370TIP3    H246052   5.031   6.356   4.718
15371TIP3   OH246053   1.770   5.103   4.533
15371TIP3    H146054   1.724   5.030   4.493
15371TIP3    H246055   1.709   5.137   4.599
   8.39216   7.91220   6.85217   0.00000   0.00000  -2.79739   0.00000  -2.79739  -3.95610
