Title t= 259.00000 step= 129500
29212
    1ASP      N    1   2.435   1.374   2.759
    1ASP    HT1    2   2.517   1.433   2.785
    1ASP    HT2    3   2.449   1.276   2.789
    1ASP    HT3    4   2.352   1.415   2.807
    1ASP     CA    5   2.423   1.381   2.609
    1ASP     HA    6   2.419   1.483   2.573
    1ASP     CB    7   2.540   1.311   2.532
    1ASP    HB1    8   2.521   1.331   2.424
    1ASP    HB2    9   2.545   1.201   2.537
    1ASP     CG   10   2.677   1.358   2.565
    1ASP    OD1   11   2.681   1.463   2.635
    1ASP    OD2   12   2.786   1.295   2.539
    1ASP      C   13   2.287   1.350   2.554
    1ASP      O   14   2.196   1.431   2.549
    2GLY      N   15   2.268   1.224   2.510
    2GLY     HN   16   2.347   1.164   2.515
    2GLY     CA   17   2.136   1.170   2.471
    2GLY    HA1   18   2.074   1.164   2.560
    2GLY    HA2   19   2.167   1.082   2.418
    2GLY      C   20   2.061   1.241   2.359
    2GLY      O   21   2.118   1.301   2.271
    3ASP      N   22   1.930   1.233   2.363
    3ASP     HN   23   1.898   1.179   2.441
    3ASP     CA   24   1.826   1.285   2.275
    3ASP     HA   25   1.827   1.231   2.182
    3ASP     CB   26   1.683   1.255   2.333
    3ASP    HB1   27   1.608   1.329   2.298
    3ASP    HB2   28   1.688   1.269   2.443
    3ASP     CG   29   1.637   1.114   2.298
    3ASP    OD1   30   1.534   1.065   2.357
    3ASP    OD2   31   1.697   1.047   2.211
    3ASP      C   32   1.846   1.435   2.253
    3ASP      O   33   1.902   1.502   2.338
    4GLY      N   34   1.791   1.490   2.143
    4GLY     HN   35   1.741   1.439   2.073
    4GLY     CA   36   1.801   1.632   2.113
    4GLY    HA1   37   1.748   1.635   2.019
    4GLY    HA2   38   1.907   1.650   2.122
    4GLY      C   39   1.714   1.720   2.201
    4GLY      O   40   1.630   1.665   2.275
    5PRO      N   41   1.713   1.847   2.188
    5PRO     CD   42   1.771   1.915   2.078
    5PRO    HD1   43   1.734   1.880   1.980
    5PRO    HD2   44   1.881   1.903   2.087
    5PRO     CA   45   1.624   1.934   2.263
    5PRO     HA   46   1.650   1.911   2.365
    5PRO     CB   47   1.646   2.073   2.219
    5PRO    HB1   48   1.694   2.127   2.304
    5PRO    HB2   49   1.555   2.129   2.188
    5PRO     CG   50   1.735   2.063   2.097
    5PRO    HG1   51   1.674   2.105   2.014
    5PRO    HG2   52   1.831   2.119   2.103
    5PRO      C   53   1.474   1.907   2.272
    5PRO      O   54   1.410   1.865   2.172
    6GLY      N   55   1.405   1.933   2.385
    6GLY     HN   56   1.460   1.977   2.455
    6GLY     CA   57   1.262   1.951   2.383
    6GLY    HA1   58   1.217   1.881   2.452
    6GLY    HA2   59   1.225   1.937   2.283
    6GLY      C   60   1.227   2.088   2.443
    6GLY      O   61   1.309   2.182   2.464
    7ASP      N   62   1.097   2.102   2.475
    7ASP     HN   63   1.023   2.044   2.441
    7ASP     CA   64   1.040   2.208   2.561
    7ASP     HA   65   1.075   2.299   2.515
    7ASP     CB   66   0.882   2.195   2.565
    7ASP    HB1   67   0.842   2.278   2.626
    7ASP    HB2   68   0.862   2.099   2.618
    7ASP     CG   69   0.799   2.200   2.442
    7ASP    OD1   70   0.673   2.204   2.452
    7ASP    OD2   71   0.855   2.212   2.331
    7ASP      C   72   1.095   2.210   2.699
    7ASP      O   73   1.136   2.113   2.758
    8PRO      N   74   1.094   2.332   2.761
    8PRO     CD   75   1.071   2.466   2.703
    8PRO    HD1   76   0.966   2.493   2.682
    8PRO    HD2   77   1.125   2.474   2.606
    8PRO     CA   78   1.137   2.342   2.903
    8PRO     HA   79   1.239   2.308   2.903
    8PRO     CB   80   1.118   2.491   2.938
    8PRO    HB1   81   1.192   2.515   3.017
    8PRO    HB2   82   1.015   2.514   2.972
    8PRO     CG   83   1.134   2.556   2.801
    8PRO    HG1   84   1.092   2.659   2.796
    8PRO    HG2   85   1.242   2.568   2.780
    8PRO      C   86   1.052   2.259   3.000
    8PRO      O   87   0.927   2.265   2.995
    9GLY      N   88   1.118   2.172   3.082
    9GLY     HN   89   1.218   2.167   3.074
    9GLY     CA   90   1.058   2.082   3.175
    9GLY    HA1   91   1.123   2.001   3.206
    9GLY    HA2   92   0.959   2.051   3.146
    9GLY      C   93   1.040   2.159   3.305
    9GLY      O   94   1.050   2.277   3.320
   10ASP      N   95   1.004   2.083   3.407
   10ASP     HN   96   0.993   1.985   3.394
   10ASP     CA   97   0.953   2.144   3.528
   10ASP     HA   98   0.870   2.206   3.498
   10ASP     CB   99   0.913   2.036   3.625
   10ASP    HB1  100   0.874   2.083   3.718
   10ASP    HB2  101   0.999   1.972   3.653
   10ASP     CG  102   0.804   1.948   3.572
   10ASP    OD1  103   0.705   1.991   3.512
   10ASP    OD2  104   0.812   1.826   3.591
   10ASP      C  105   1.056   2.228   3.606
   10ASP      O  106   1.173   2.199   3.618
   11GLY      N  107   1.006   2.335   3.672
   11GLY     HN  108   0.910   2.355   3.655
   11GLY     CA  109   1.092   2.422   3.760
   11GLY    HA1  110   1.156   2.356   3.816
   11GLY    HA2  111   1.038   2.487   3.826
   11GLY      C  112   1.168   2.527   3.679
   11GLY    OT1  113   1.115   2.604   3.592
   11GLY    OT2  114   1.293   2.531   3.678
   12LIT    LIT  115   0.619   0.425   1.587
   13LIT    LIT  116   7.227   0.265   0.885
   14LIT    LIT  117   5.144   1.876   5.577
   15LIT    LIT  118   0.817   5.378   2.770
   16LIT    LIT  119   1.301   2.588   3.498
   17LIT    LIT  120   4.225   6.084   2.554
   18LIT    LIT  121   2.393   2.717   3.744
   19LIT    LIT  122   1.535   3.603   1.040
   20LIT    LIT  123   0.521   1.094   5.885
   21LIT    LIT  124   0.624   6.023   4.006
   22LIT    LIT  125   5.373   1.234   4.273
   23LIT    LIT  126   3.717   6.642   1.634
   24LIT    LIT  127   5.480   5.020   5.475
   25LIT    LIT  128   7.194   2.322   2.331
   26LIT    LIT  129   0.631   1.811   3.513
   27LIT    LIT  130   2.593   0.768   2.525
   28LIT    LIT  131   2.068   5.644   5.806
   29LIT    LIT  132   5.562   2.667   3.849
   30LIT    LIT  133   7.226   0.878   2.081
   31LIT    LIT  134   4.740   1.135   2.204
   32LIT    LIT  135   0.104   6.392   5.556
   33LIT    LIT  136   3.201   4.516   2.657
   34LIT    LIT  137   6.423   1.420   4.008
   35LIT    LIT  138   1.160   1.515   2.270
   36LIT    LIT  139   7.139   6.166   2.522
   37LIT    LIT  140   2.955   6.393   4.434
   38LIT    LIT  141   0.540   0.781   0.738
   39LIT    LIT  142   2.707   1.646   2.651
   40LIT    LIT  143   1.815   4.521   1.938
   41LIT    LIT  144   1.807   1.647   5.582
   42LIT    LIT  145   1.530   0.936   2.187
   43CLA    CLA  146   1.902   4.352   1.791
   44CLA    CLA  147   1.624   0.374   4.699
   45CLA    CLA  148   1.904   3.708   3.932
   46CLA    CLA  149   6.293   3.729   0.321
   47CLA    CLA  150   0.643   1.155   2.833
   48CLA    CLA  151   3.940   5.960   1.739
   49CLA    CLA  152   2.023   4.236   3.451
   50CLA    CLA  153   0.708   2.785   2.177
   51CLA    CLA  154   5.622   0.827   2.053
   52CLA    CLA  155   3.316   4.581   3.086
   53CLA    CLA  156   2.104   2.394   4.049
   54CLA    CLA  157   3.333   1.678   1.191
   55CLA    CLA  158   6.223   0.940   4.586
   56CLA    CLA  159   7.012   1.655   4.327
   57CLA    CLA  160   4.828   2.386   5.029
   58CLA    CLA  161   3.081   4.536   2.463
   59CLA    CLA  162   4.127   0.595   2.485
   60CLA    CLA  163   2.894   0.710   3.731
   61CLA    CLA  164   2.021   0.729   1.182
   62CLA    CLA  165   1.875   0.753   2.659
   63CLA    CLA  166   2.529   5.172   4.499
   64CLA    CLA  167   3.651   3.943   1.428
   65CLA    CLA  168   5.780   4.627   3.980
   66CLA    CLA  169   1.011   4.860   2.582
   67CLA    CLA  170   5.953   1.326   0.482
   68CLA    CLA  171   4.109   3.818   5.643
   69CLA    CLA  172   3.347   4.876   3.462
   70TIP3   OH2  173   3.597   4.540   0.592
   70TIP3    H1  174   3.577   4.453   0.556
   70TIP3    H2  175   3.566   4.601   0.525
   71TIP3   OH2  176   3.287   1.479   2.167
   71TIP3    H1  177   3.350   1.497   2.236
   71TIP3    H2  178   3.338   1.483   2.086
   72TIP3   OH2  179   1.989   5.548   3.553
   72TIP3    H1  180   1.986   5.471   3.496
   72TIP3    H2  181   1.940   5.523   3.630
   73TIP3   OH2  182   5.382   4.003   4.734
   73TIP3    H1  183   5.308   3.952   4.702
   73TIP3    H2  184   5.375   4.087   4.688
   74TIP3   OH2  185   2.956   5.272   5.563
   74TIP3    H1  186   3.020   5.303   5.627
   74TIP3    H2  187   2.921   5.353   5.524
   75TIP3   OH2  188   5.243   3.305   2.081
   75TIP3    H1  189   5.323   3.264   2.112
   75TIP3    H2  190   5.178   3.235   2.083
   76TIP3   OH2  191   2.307   5.950   5.101
   76TIP3    H1  192   2.227   5.963   5.050
   76TIP3    H2  193   2.292   5.996   5.184
   77TIP3   OH2  194   3.926   1.623   0.129
   77TIP3    H1  195   4.015   1.609   0.161
   77TIP3    H2  196   3.874   1.557   0.175
   78TIP3   OH2  197   1.896   3.586   3.300
   78TIP3    H1  198   1.951   3.664   3.291
   78TIP3    H2  199   1.839   3.604   3.375
   79TIP3   OH2  200   3.881   1.852   0.373
   79TIP3    H1  201   3.884   1.756   0.372
   79TIP3    H2  202   3.970   1.878   0.350
   80TIP3   OH2  203   5.497   3.879   1.163
   80TIP3    H1  204   5.421   3.937   1.157
   80TIP3    H2  205   5.477   3.819   1.235
   81TIP3   OH2  206   6.456   4.256   2.058
   81TIP3    H1  207   6.446   4.242   1.964
   81TIP3    H2  208   6.385   4.206   2.098
   82TIP3   OH2  209   2.966   4.975   4.784
   82TIP3    H1  210   3.010   4.912   4.727
   82TIP3    H2  211   2.878   4.984   4.747
   83TIP3   OH2  212   3.168   5.140   4.971
   83TIP3    H1  213   3.095   5.163   5.028
   83TIP3    H2  214   3.135   5.066   4.919
   84TIP3   OH2  215   4.400   2.197   3.867
   84TIP3    H1  216   4.438   2.241   3.792
   84TIP3    H2  217   4.309   2.180   3.842
   85TIP3   OH2  218  -0.069   1.766   2.441
   85TIP3    H1  219   0.001   1.796   2.499
   85TIP3    H2  220  -0.024   1.740   2.361
   86TIP3   OH2  221   1.333   1.081   0.174
   86TIP3    H1  222   1.243   1.051   0.160
   86TIP3    H2  223   1.331   1.173   0.147
   87TIP3   OH2  224   4.956   6.012   1.871
   87TIP3    H1  225   5.011   5.936   1.859
   87TIP3    H2  226   4.872   5.977   1.901
   88TIP3   OH2  227   2.809   5.618   4.503
   88TIP3    H1  228   2.720   5.584   4.515
   88TIP3    H2  229   2.805   5.664   4.419
   89TIP3   OH2  230   0.080   5.349   1.361
   89TIP3    H1  231   0.174   5.368   1.358
   89TIP3    H2  232   0.038   5.435   1.364
   90TIP3   OH2  233   4.274   2.940   2.223
   90TIP3    H1  234   4.243   2.938   2.132
   90TIP3    H2  235   4.196   2.921   2.275
   91TIP3   OH2  236   0.398   0.003   0.577
   91TIP3    H1  237   0.340   0.009   0.501
   91TIP3    H2  238   0.480   0.044   0.548
   92TIP3   OH2  239   1.750   6.815   0.882
   92TIP3    H1  240   1.813   6.767   0.936
   92TIP3    H2  241   1.744   6.764   0.801
   93TIP3   OH2  242   3.611   0.965   4.249
   93TIP3    H1  243   3.552   0.981   4.175
   93TIP3    H2  244   3.692   1.009   4.224
   94TIP3   OH2  245   6.793   2.145   5.709
   94TIP3    H1  246   6.839   2.063   5.729
   94TIP3    H2  247   6.812   2.161   5.617
   95TIP3   OH2  248   5.992   0.180   0.127
   95TIP3    H1  249   5.939   0.152   0.052
   95TIP3    H2  250   5.980   0.275   0.131
   96TIP3   OH2  251   6.987   4.402   3.464
   96TIP3    H1  252   7.073   4.361   3.471
   96TIP3    H2  253   7.001   4.477   3.406
   97TIP3   OH2  254   0.983   4.434   3.401
   97TIP3    H1  255   1.036   4.432   3.322
   97TIP3    H2  256   1.046   4.436   3.473
   98TIP3   OH2  257   0.268   3.114   1.299
   98TIP3    H1  258   0.181   3.139   1.269
   98TIP3    H2  259   0.302   3.057   1.229
   99TIP3   OH2  260   1.960   3.541   4.638
   99TIP3    H1  261   2.029   3.550   4.703
   99TIP3    H2  262   2.006   3.543   4.554
  100TIP3   OH2  263   0.417   0.383   0.361
  100TIP3    H1  264   0.361   0.322   0.409
  100TIP3    H2  265   0.362   0.418   0.292
  101TIP3   OH2  266   6.096   3.305   3.248
  101TIP3    H1  267   6.022   3.356   3.279
  101TIP3    H2  268   6.122   3.252   3.323
  102TIP3   OH2  269   0.168   2.353   0.172
  102TIP3    H1  270   0.129   2.436   0.201
  102TIP3    H2  271   0.247   2.379   0.124
  103TIP3   OH2  272   7.035   0.819   0.859
  103TIP3    H1  273   6.993   0.766   0.791
  103TIP3    H2  274   6.964   0.871   0.896
  104TIP3   OH2  275   6.845   2.082   4.441
  104TIP3    H1  276   6.936   2.106   4.422
  104TIP3    H2  277   6.852   1.995   4.482
  105TIP3   OH2  278   6.617   0.159   2.510
  105TIP3    H1  279   6.532   0.204   2.509
  105TIP3    H2  280   6.627   0.129   2.600
  106TIP3   OH2  281   4.752   6.754   4.429
  106TIP3    H1  282   4.680   6.773   4.488
  106TIP3    H2  283   4.710   6.719   4.350
  107TIP3   OH2  284   0.131   6.714   5.468
  107TIP3    H1  285   0.044   6.724   5.507
  107TIP3    H2  286   0.119   6.647   5.401
  108TIP3   OH2  287   3.121   5.259   1.423
  108TIP3    H1  288   3.084   5.329   1.370
  108TIP3    H2  289   3.078   5.269   1.508
  109TIP3   OH2  290   6.311   3.317   4.970
  109TIP3    H1  291   6.351   3.404   4.977
  109TIP3    H2  292   6.366   3.271   4.907
  110TIP3   OH2  293   6.315   6.220   3.623
  110TIP3    H1  294   6.223   6.245   3.620
  110TIP3    H2  295   6.314   6.129   3.655
  111TIP3   OH2  296   6.562   2.158   0.164
  111TIP3    H1  297   6.470   2.140   0.145
  111TIP3    H2  298   6.594   2.203   0.086
  112TIP3   OH2  299   4.714   5.890   1.728
  112TIP3    H1  300   4.648   5.829   1.697
  112TIP3    H2  301   4.773   5.902   1.653
  113TIP3   OH2  302   1.721   5.927   2.120
  113TIP3    H1  303   1.693   6.013   2.089
  113TIP3    H2  304   1.642   5.889   2.160
  114TIP3   OH2  305   1.740   2.234   5.489
  114TIP3    H1  306   1.678   2.172   5.450
  114TIP3    H2  307   1.826   2.199   5.465
  115TIP3   OH2  308   1.573   5.862   2.392
  115TIP3    H1  309   1.522   5.927   2.344
  115TIP3    H2  310   1.610   5.910   2.466
  116TIP3   OH2  311   1.291   0.208   5.371
  116TIP3    H1  312   1.363   0.270   5.377
  116TIP3    H2  313   1.301   0.168   5.285
  117TIP3   OH2  314   4.387   6.306   1.923
  117TIP3    H1  315   4.361   6.278   1.835
  117TIP3    H2  316   4.338   6.248   1.982
  118TIP3   OH2  317   6.191   1.502   0.114
  118TIP3    H1  318   6.145   1.529   0.193
  118TIP3    H2  319   6.272   1.462   0.146
  119TIP3   OH2  320   2.533   1.857   3.097
  119TIP3    H1  321   2.606   1.795   3.102
  119TIP3    H2  322   2.497   1.860   3.185
  120TIP3   OH2  323   1.888   4.026   1.708
  120TIP3    H1  324   1.948   3.977   1.765
  120TIP3    H2  325   1.903   4.117   1.731
  121TIP3   OH2  326   4.963   0.775   0.179
  121TIP3    H1  327   5.019   0.702   0.206
  121TIP3    H2  328   5.003   0.808   0.099
  122TIP3   OH2  329   4.141   3.597   2.785
  122TIP3    H1  330   4.077   3.553   2.840
  122TIP3    H2  331   4.226   3.574   2.824
  123TIP3   OH2  332   7.027   4.562   0.942
  123TIP3    H1  333   7.077   4.481   0.926
  123TIP3    H2  334   7.040   4.580   1.035
  124TIP3   OH2  335   4.549   6.167   0.926
  124TIP3    H1  336   4.611   6.177   0.854
  124TIP3    H2  337   4.602   6.179   1.005
  125TIP3   OH2  338   4.295   1.572   4.985
  125TIP3    H1  339   4.292   1.498   5.045
  125TIP3    H2  340   4.328   1.535   4.903
  126TIP3   OH2  341   1.551   5.068   1.917
  126TIP3    H1  342   1.520   5.027   1.837
  126TIP3    H2  343   1.511   5.017   1.988
  127TIP3   OH2  344   0.277   2.958   4.039
  127TIP3    H1  345   0.372   2.943   4.039
  127TIP3    H2  346   0.268   3.053   4.041
  128TIP3   OH2  347   4.129   5.596   0.428
  128TIP3    H1  348   4.060   5.558   0.481
  128TIP3    H2  349   4.136   5.686   0.458
  129TIP3   OH2  350   2.236   1.050   0.426
  129TIP3    H1  351   2.290   1.121   0.459
  129TIP3    H2  352   2.253   1.050   0.331
  130TIP3   OH2  353   5.010   6.561   2.404
  130TIP3    H1  354   4.942   6.592   2.464
  130TIP3    H2  355   5.077   6.629   2.405
  131TIP3   OH2  356   1.494   1.254   4.860
  131TIP3    H1  357   1.420   1.226   4.806
  131TIP3    H2  358   1.454   1.276   4.945
  132TIP3   OH2  359   4.948   2.212   3.189
  132TIP3    H1  360   4.859   2.247   3.196
  132TIP3    H2  361   5.000   2.271   3.243
  133TIP3   OH2  362   0.924   2.537   2.224
  133TIP3    H1  363   0.874   2.617   2.239
  133TIP3    H2  364   1.008   2.553   2.268
  134TIP3   OH2  365   4.358   3.954   5.807
  134TIP3    H1  366   4.434   3.896   5.799
  134TIP3    H2  367   4.290   3.913   5.755
  135TIP3   OH2  368   1.523   6.027   4.177
  135TIP3    H1  369   1.583   5.966   4.221
  135TIP3    H2  370   1.567   6.048   4.095
  136TIP3   OH2  371   2.321   4.206   3.426
  136TIP3    H1  372   2.226   4.208   3.413
  136TIP3    H2  373   2.357   4.236   3.342
  137TIP3   OH2  374   5.264   0.660   4.522
  137TIP3    H1  375   5.259   0.662   4.617
  137TIP3    H2  376   5.191   0.715   4.493
  138TIP3   OH2  377   5.114   1.307   1.300
  138TIP3    H1  378   5.167   1.349   1.368
  138TIP3    H2  379   5.074   1.231   1.344
  139TIP3   OH2  380   6.945   2.300   4.600
  139TIP3    H1  381   6.947   2.242   4.676
  139TIP3    H2  382   6.888   2.255   4.537
  140TIP3   OH2  383   2.331   4.181   3.894
  140TIP3    H1  384   2.387   4.182   3.816
  140TIP3    H2  385   2.349   4.265   3.937
  141TIP3   OH2  386   7.211   5.990   5.858
  141TIP3    H1  387   7.151   5.946   5.798
  141TIP3    H2  388   7.234   5.924   5.923
  142TIP3   OH2  389   0.949   5.247   1.919
  142TIP3    H1  390   0.981   5.326   1.963
  142TIP3    H2  391   0.939   5.272   1.827
  143TIP3   OH2  392   0.499   5.607   2.184
  143TIP3    H1  393   0.488   5.558   2.266
  143TIP3    H2  394   0.524   5.695   2.211
  144TIP3   OH2  395   2.079   3.379   4.341
  144TIP3    H1  396   2.082   3.313   4.272
  144TIP3    H2  397   2.021   3.447   4.307
  145TIP3   OH2  398   5.379   5.387   3.126
  145TIP3    H1  399   5.285   5.382   3.141
  145TIP3    H2  400   5.393   5.476   3.092
  146TIP3   OH2  401   6.508   5.720   0.084
  146TIP3    H1  402   6.513   5.814   0.070
  146TIP3    H2  403   6.539   5.681   0.003
  147TIP3   OH2  404   3.078   4.859   0.598
  147TIP3    H1  405   3.151   4.805   0.628
  147TIP3    H2  406   3.001   4.803   0.609
  148TIP3   OH2  407   4.838   2.044   2.395
  148TIP3    H1  408   4.906   1.993   2.438
  148TIP3    H2  409   4.804   1.985   2.328
  149TIP3   OH2  410   0.513   1.857   4.806
  149TIP3    H1  411   0.529   1.774   4.761
  149TIP3    H2  412   0.446   1.900   4.753
  150TIP3   OH2  413   1.446   4.293   2.908
  150TIP3    H1  414   1.425   4.222   2.846
  150TIP3    H2  415   1.469   4.248   2.989
  151TIP3   OH2  416   1.490   1.668   4.289
  151TIP3    H1  417   1.530   1.736   4.344
  151TIP3    H2  418   1.439   1.717   4.225
  152TIP3   OH2  419   3.882   1.391   5.763
  152TIP3    H1  420   3.962   1.350   5.794
  152TIP3    H2  421   3.819   1.319   5.757
  153TIP3   OH2  422   0.104   3.946   4.189
  153TIP3    H1  423   0.165   3.887   4.232
  153TIP3    H2  424   0.035   3.961   4.253
  154TIP3   OH2  425   1.208   5.000   5.169
  154TIP3    H1  426   1.113   5.000   5.162
  154TIP3    H2  427   1.239   5.006   5.078
  155TIP3   OH2  428   3.151   6.056   4.555
  155TIP3    H1  429   3.227   6.114   4.567
  155TIP3    H2  430   3.165   6.017   4.469
  156TIP3   OH2  431   0.711   4.946   4.946
  156TIP3    H1  432   0.621   4.938   4.913
  156TIP3    H2  433   0.766   4.930   4.869
  157TIP3   OH2  434   6.585   5.016   1.716
  157TIP3    H1  435   6.613   5.033   1.805
  157TIP3    H2  436   6.524   4.942   1.723
  158TIP3   OH2  437   1.706   6.045   0.918
  158TIP3    H1  438   1.749   6.110   0.863
  158TIP3    H2  439   1.709   6.082   1.006
  159TIP3   OH2  440   5.125   0.649   2.397
  159TIP3    H1  441   5.086   0.563   2.381
  159TIP3    H2  442   5.058   0.697   2.447
  160TIP3   OH2  443   5.686   0.416   5.753
  160TIP3    H1  444   5.747   0.345   5.770
  160TIP3    H2  445   5.676   0.460   5.838
  161TIP3   OH2  446   6.282   2.128   0.872
  161TIP3    H1  447   6.375   2.106   0.871
  161TIP3    H2  448   6.240   2.050   0.908
  162TIP3   OH2  449   2.251   6.492   4.129
  162TIP3    H1  450   2.220   6.428   4.065
  162TIP3    H2  451   2.292   6.560   4.076
  163TIP3   OH2  452   7.042   4.745   2.433
  163TIP3    H1  453   7.093   4.702   2.365
  163TIP3    H2  454   7.012   4.827   2.392
  164TIP3   OH2  455   4.437   5.817   1.625
  164TIP3    H1  456   4.400   5.861   1.549
  164TIP3    H2  457   4.372   5.830   1.694
  165TIP3   OH2  458   3.570   6.221   1.112
  165TIP3    H1  459   3.656   6.185   1.093
  165TIP3    H2  460   3.522   6.148   1.152
  166TIP3   OH2  461   0.331   0.256   4.531
  166TIP3    H1  462   0.329   0.281   4.623
  166TIP3    H2  463   0.262   0.190   4.522
  167TIP3   OH2  464   5.109   4.587   2.670
  167TIP3    H1  465   5.200   4.570   2.645
  167TIP3    H2  466   5.103   4.555   2.760
  168TIP3   OH2  467   4.785   5.050   3.127
  168TIP3    H1  468   4.816   4.974   3.078
  168TIP3    H2  469   4.735   5.101   3.063
  169TIP3   OH2  470   3.606   1.570   0.567
  169TIP3    H1  471   3.586   1.653   0.524
  169TIP3    H2  472   3.612   1.591   0.660
  170TIP3   OH2  473   4.800   0.535   2.914
  170TIP3    H1  474   4.770   0.613   2.868
  170TIP3    H2  475   4.722   0.480   2.922
  171TIP3   OH2  476   2.593   1.669   5.559
  171TIP3    H1  477   2.682   1.643   5.534
  171TIP3    H2  478   2.539   1.594   5.534
  172TIP3   OH2  479   4.760   2.314   5.359
  172TIP3    H1  480   4.795   2.339   5.274
  172TIP3    H2  481   4.742   2.397   5.403
  173TIP3   OH2  482   4.438   6.448   4.176
  173TIP3    H1  483   4.343   6.454   4.188
  173TIP3    H2  484   4.461   6.362   4.211
  174TIP3   OH2  485   5.501   4.052   1.421
  174TIP3    H1  486   5.585   4.020   1.390
  174TIP3    H2  487   5.458   4.086   1.343
  175TIP3   OH2  488   0.342   0.666   0.393
  175TIP3    H1  489   0.355   0.660   0.298
  175TIP3    H2  490   0.372   0.582   0.427
  176TIP3   OH2  491   4.941   5.726   1.039
  176TIP3    H1  492   5.019   5.763   1.080
  176TIP3    H2  493   4.882   5.707   1.112
  177TIP3   OH2  494   2.704   4.319   2.206
  177TIP3    H1  495   2.735   4.231   2.225
  177TIP3    H2  496   2.782   4.367   2.178
  178TIP3   OH2  497   2.884   5.574   2.563
  178TIP3    H1  498   2.796   5.541   2.544
  178TIP3    H2  499   2.899   5.551   2.655
  179TIP3   OH2  500   6.670   2.477   0.281
  179TIP3    H1  501   6.759   2.511   0.270
  179TIP3    H2  502   6.648   2.442   0.194
  180TIP3   OH2  503   2.382   1.512   2.305
  180TIP3    H1  504   2.413   1.521   2.215
  180TIP3    H2  505   2.303   1.458   2.298
  181TIP3   OH2  506   5.758   6.385   4.628
  181TIP3    H1  507   5.704   6.373   4.706
  181TIP3    H2  508   5.827   6.445   4.656
  182TIP3   OH2  509   6.288   6.406   2.335
  182TIP3    H1  510   6.228   6.386   2.407
  182TIP3    H2  511   6.231   6.428   2.262
  183TIP3   OH2  512   1.038   5.821   1.860
  183TIP3    H1  513   0.982   5.885   1.817
  183TIP3    H2  514   1.083   5.870   1.929
  184TIP3   OH2  515   5.740   5.131   2.251
  184TIP3    H1  516   5.690   5.187   2.310
  184TIP3    H2  517   5.763   5.187   2.177
  185TIP3   OH2  518   4.157   1.850   2.723
  185TIP3    H1  519   4.085   1.872   2.664
  185TIP3    H2  520   4.142   1.903   2.801
  186TIP3   OH2  521   2.992   1.391   2.690
  186TIP3    H1  522   2.903   1.384   2.657
  186TIP3    H2  523   2.989   1.349   2.776
  187TIP3   OH2  524   6.283   4.809   3.886
  187TIP3    H1  525   6.351   4.875   3.877
  187TIP3    H2  526   6.265   4.780   3.797
  188TIP3   OH2  527   2.526   1.396   5.741
  188TIP3    H1  528   2.562   1.315   5.703
  188TIP3    H2  529   2.470   1.432   5.672
  189TIP3   OH2  530   4.920   0.957   1.872
  189TIP3    H1  531   4.951   0.986   1.786
  189TIP3    H2  532   4.996   0.967   1.930
  190TIP3   OH2  533   2.097   1.339   5.074
  190TIP3    H1  534   2.119   1.391   4.997
  190TIP3    H2  535   2.080   1.251   5.039
  191TIP3   OH2  536   2.659   2.215   0.271
  191TIP3    H1  537   2.567   2.200   0.295
  191TIP3    H2  538   2.672   2.161   0.193
  192TIP3   OH2  539   3.871   2.969   5.686
  192TIP3    H1  540   3.888   3.049   5.637
  192TIP3    H2  541   3.841   2.906   5.621
  193TIP3   OH2  542   1.818   6.747   5.205
  193TIP3    H1  543   1.784   6.713   5.287
  193TIP3    H2  544   1.801   6.842   5.209
  194TIP3   OH2  545   1.730   5.842   0.375
  194TIP3    H1  546   1.673   5.917   0.359
  194TIP3    H2  547   1.804   5.878   0.424
  195TIP3   OH2  548   1.852   0.988   1.273
  195TIP3    H1  549   1.769   0.956   1.239
  195TIP3    H2  550   1.918   0.931   1.234
  196TIP3   OH2  551   2.028   3.629   1.211
  196TIP3    H1  552   2.002   3.715   1.180
  196TIP3    H2  553   2.092   3.645   1.280
  197TIP3   OH2  554   6.466   5.033   3.929
  197TIP3    H1  555   6.458   5.117   3.885
  197TIP3    H2  556   6.432   5.049   4.017
  198TIP3   OH2  557   1.883   5.278   3.559
  198TIP3    H1  558   1.918   5.260   3.646
  198TIP3    H2  559   1.858   5.192   3.525
  199TIP3   OH2  560   7.022   2.328   2.656
  199TIP3    H1  561   7.004   2.420   2.677
  199TIP3    H2  562   6.935   2.287   2.650
  200TIP3   OH2  563   3.455   1.590   5.053
  200TIP3    H1  564   3.464   1.671   5.103
  200TIP3    H2  565   3.536   1.542   5.071
  201TIP3   OH2  566   6.201   5.995   1.288
  201TIP3    H1  567   6.204   6.084   1.252
  201TIP3    H2  568   6.133   5.950   1.238
  202TIP3   OH2  569   5.171   3.370   4.926
  202TIP3    H1  570   5.075   3.369   4.919
  202TIP3    H2  571   5.200   3.299   4.868
  203TIP3   OH2  572   1.127   4.091   2.205
  203TIP3    H1  573   1.075   4.051   2.275
  203TIP3    H2  574   1.168   4.167   2.246
  204TIP3   OH2  575   1.561   0.300   0.933
  204TIP3    H1  576   1.644   0.342   0.915
  204TIP3    H2  577   1.518   0.294   0.848
  205TIP3   OH2  578   3.238   1.727   2.499
  205TIP3    H1  579   3.194   1.722   2.584
  205TIP3    H2  580   3.176   1.688   2.437
  206TIP3   OH2  581   0.024   2.965   3.152
  206TIP3    H1  582   0.046   2.872   3.161
  206TIP3    H2  583   0.050   3.004   3.236
  207TIP3   OH2  584   1.121   0.374   4.971
  207TIP3    H1  585   1.199   0.418   5.006
  207TIP3    H2  586   1.102   0.305   5.034
  208TIP3   OH2  587   3.113   3.383   0.479
  208TIP3    H1  588   3.124   3.386   0.384
  208TIP3    H2  589   3.199   3.406   0.514
  209TIP3   OH2  590   1.420   4.544   1.013
  209TIP3    H1  591   1.505   4.502   1.029
  209TIP3    H2  592   1.434   4.636   1.036
  210TIP3   OH2  593   0.474   3.139   2.982
  210TIP3    H1  594   0.432   3.171   3.062
  210TIP3    H2  595   0.411   3.079   2.944
  211TIP3   OH2  596   3.962   3.236   2.615
  211TIP3    H1  597   3.944   3.201   2.527
  211TIP3    H2  598   3.911   3.317   2.620
  212TIP3   OH2  599   0.266   6.025   3.291
  212TIP3    H1  600   0.351   6.020   3.248
  212TIP3    H2  601   0.212   5.961   3.244
  213TIP3   OH2  602   2.455   2.879   2.203
  213TIP3    H1  603   2.445   2.803   2.145
  213TIP3    H2  604   2.398   2.861   2.277
  214TIP3   OH2  605   2.016   1.021   1.990
  214TIP3    H1  606   2.078   0.962   1.947
  214TIP3    H2  607   2.063   1.105   1.994
  215TIP3   OH2  608   0.750   1.432   4.934
  215TIP3    H1  609   0.660   1.429   4.967
  215TIP3    H2  610   0.740   1.430   4.839
  216TIP3   OH2  611   3.887   6.774   2.878
  216TIP3    H1  612   3.814   6.713   2.888
  216TIP3    H2  613   3.954   6.725   2.830
  217TIP3   OH2  614   5.217   5.586   4.327
  217TIP3    H1  615   5.177   5.611   4.244
  217TIP3    H2  616   5.179   5.647   4.391
  218TIP3   OH2  617   3.485   1.996   1.199
  218TIP3    H1  618   3.437   2.070   1.161
  218TIP3    H2  619   3.440   1.918   1.167
  219TIP3   OH2  620   4.294   1.286   2.557
  219TIP3    H1  621   4.241   1.366   2.547
  219TIP3    H2  622   4.379   1.309   2.520
  220TIP3   OH2  623   5.652   6.374   0.720
  220TIP3    H1  624   5.707   6.308   0.676
  220TIP3    H2  625   5.576   6.325   0.751
  221TIP3   OH2  626   1.697   4.774   5.065
  221TIP3    H1  627   1.608   4.777   5.030
  221TIP3    H2  628   1.716   4.680   5.073
  222TIP3   OH2  629   0.966   2.217   1.525
  222TIP3    H1  630   1.005   2.263   1.599
  222TIP3    H2  631   0.977   2.124   1.547
  223TIP3   OH2  632   3.095   3.190   5.252
  223TIP3    H1  633   3.093   3.198   5.157
  223TIP3    H2  634   3.036   3.117   5.271
  224TIP3   OH2  635   3.200   4.491   0.471
  224TIP3    H1  636   3.256   4.553   0.424
  224TIP3    H2  637   3.260   4.423   0.501
  225TIP3   OH2  638   3.675   1.114   3.814
  225TIP3    H1  639   3.593   1.077   3.847
  225TIP3    H2  640   3.699   1.056   3.741
  226TIP3   OH2  641   3.936   1.020   0.931
  226TIP3    H1  642   3.890   0.937   0.922
  226TIP3    H2  643   4.029   0.997   0.921
  227TIP3   OH2  644   2.175   1.282   2.010
  227TIP3    H1  645   2.230   1.211   1.978
  227TIP3    H2  646   2.197   1.291   2.102
  228TIP3   OH2  647   5.601   4.789   2.380
  228TIP3    H1  648   5.636   4.852   2.444
  228TIP3    H2  649   5.631   4.704   2.412
  229TIP3   OH2  650   0.678   3.558   0.357
  229TIP3    H1  651   0.719   3.593   0.279
  229TIP3    H2  652   0.661   3.634   0.413
  230TIP3   OH2  653   1.799   0.349   2.068
  230TIP3    H1  654   1.755   0.414   2.123
  230TIP3    H2  655   1.890   0.379   2.064
  231TIP3   OH2  656   6.112   4.166   1.933
  231TIP3    H1  657   6.078   4.199   1.850
  231TIP3    H2  658   6.203   4.144   1.915
  232TIP3   OH2  659   5.424   3.042   4.202
  232TIP3    H1  660   5.470   3.041   4.118
  232TIP3    H2  661   5.491   3.067   4.266
  233TIP3   OH2  662   4.467   2.095   5.577
  233TIP3    H1  663   4.458   2.017   5.522
  233TIP3    H2  664   4.552   2.084   5.620
  234TIP3   OH2  665   1.572   2.708   1.848
  234TIP3    H1  666   1.580   2.647   1.774
  234TIP3    H2  667   1.506   2.771   1.820
  235TIP3   OH2  668   2.581   4.991   4.738
  235TIP3    H1  669   2.566   5.058   4.671
  235TIP3    H2  670   2.551   5.033   4.820
  236TIP3   OH2  671   2.373   2.456   2.690
  236TIP3    H1  672   2.283   2.439   2.719
  236TIP3    H2  673   2.410   2.370   2.672
  237TIP3   OH2  674   4.688   3.744   4.632
  237TIP3    H1  675   4.771   3.785   4.658
  237TIP3    H2  676   4.690   3.744   4.537
  238TIP3   OH2  677   0.188   2.625   4.611
  238TIP3    H1  678   0.270   2.664   4.639
  238TIP3    H2  679   0.210   2.578   4.530
  239TIP3   OH2  680   3.527   4.998   5.350
  239TIP3    H1  681   3.586   5.073   5.340
  239TIP3    H2  682   3.447   5.025   5.305
  240TIP3   OH2  683   4.153   3.909   2.319
  240TIP3    H1  684   4.066   3.934   2.350
  240TIP3    H2  685   4.176   3.978   2.256
  241TIP3   OH2  686   0.442   5.556   3.297
  241TIP3    H1  687   0.470   5.606   3.374
  241TIP3    H2  688   0.444   5.465   3.326
  242TIP3   OH2  689   2.289   5.703   5.288
  242TIP3    H1  690   2.370   5.673   5.247
  242TIP3    H2  691   2.290   5.798   5.275
  243TIP3   OH2  692   3.528   2.021   2.837
  243TIP3    H1  693   3.551   1.932   2.865
  243TIP3    H2  694   3.571   2.078   2.901
  244TIP3   OH2  695   1.401   0.295   0.701
  244TIP3    H1  696   1.350   0.223   0.662
  244TIP3    H2  697   1.385   0.369   0.643
  245TIP3   OH2  698   0.927   5.075   4.109
  245TIP3    H1  699   0.860   5.048   4.046
  245TIP3    H2  700   0.878   5.119   4.179
  246TIP3   OH2  701   5.974   6.244   0.827
  246TIP3    H1  702   6.009   6.161   0.796
  246TIP3    H2  703   5.910   6.270   0.761
  247TIP3   OH2  704   4.331   3.220   4.938
  247TIP3    H1  705   4.272   3.269   4.882
  247TIP3    H2  706   4.361   3.283   5.003
  248TIP3   OH2  707   0.354   5.399   2.037
  248TIP3    H1  708   0.398   5.465   2.090
  248TIP3    H2  709   0.405   5.396   1.956
  249TIP3   OH2  710   3.362   4.652   1.903
  249TIP3    H1  711   3.442   4.668   1.854
  249TIP3    H2  712   3.340   4.738   1.941
  250TIP3   OH2  713   2.325   0.833   0.613
  250TIP3    H1  714   2.415   0.805   0.597
  250TIP3    H2  715   2.306   0.895   0.543
  251TIP3   OH2  716   0.635   0.238   3.290
  251TIP3    H1  717   0.632   0.240   3.385
  251TIP3    H2  718   0.645   0.145   3.268
  252TIP3   OH2  719   0.771   5.397   5.534
  252TIP3    H1  720   0.726   5.319   5.502
  252TIP3    H2  721   0.835   5.362   5.597
  253TIP3   OH2  722   3.256   4.387   2.220
  253TIP3    H1  723   3.332   4.352   2.265
  253TIP3    H2  724   3.206   4.433   2.288
  254TIP3   OH2  725   2.973   3.527   5.114
  254TIP3    H1  726   3.056   3.539   5.160
  254TIP3    H2  727   2.924   3.466   5.169
  255TIP3   OH2  728   4.655   4.412   1.692
  255TIP3    H1  729   4.566   4.412   1.657
  255TIP3    H2  730   4.646   4.376   1.780
  256TIP3   OH2  731   1.409   1.518   2.523
  256TIP3    H1  732   1.328   1.559   2.490
  256TIP3    H2  733   1.448   1.477   2.446
  257TIP3   OH2  734   2.206   6.594   0.783
  257TIP3    H1  735   2.262   6.635   0.716
  257TIP3    H2  736   2.141   6.661   0.804
  258TIP3   OH2  737   0.536   0.237   3.611
  258TIP3    H1  738   0.467   0.239   3.677
  258TIP3    H2  739   0.546   0.144   3.589
  259TIP3   OH2  740   3.677   3.474   5.543
  259TIP3    H1  741   3.760   3.520   5.554
  259TIP3    H2  742   3.694   3.386   5.578
  260TIP3   OH2  743   6.234   2.775   5.551
  260TIP3    H1  744   6.162   2.803   5.494
  260TIP3    H2  745   6.191   2.750   5.633
  261TIP3   OH2  746   2.547   1.976   4.753
  261TIP3    H1  747   2.554   1.896   4.806
  261TIP3    H2  748   2.613   2.035   4.789
  262TIP3   OH2  749   2.852   1.077   2.671
  262TIP3    H1  750   2.816   1.160   2.639
  262TIP3    H2  751   2.810   1.064   2.756
  263TIP3   OH2  752   0.769   1.415   4.167
  263TIP3    H1  753   0.761   1.477   4.095
  263TIP3    H2  754   0.740   1.331   4.130
  264TIP3   OH2  755   4.857   1.686   3.869
  264TIP3    H1  756   4.854   1.743   3.793
  264TIP3    H2  757   4.832   1.600   3.835
  265TIP3   OH2  758   4.496   1.137   1.770
  265TIP3    H1  759   4.543   1.151   1.689
  265TIP3    H2  760   4.452   1.053   1.759
  266TIP3   OH2  761   2.547   1.313   0.739
  266TIP3    H1  762   2.554   1.407   0.720
  266TIP3    H2  763   2.463   1.287   0.703
  267TIP3   OH2  764   4.690   6.319   0.353
  267TIP3    H1  765   4.693   6.224   0.366
  267TIP3    H2  766   4.647   6.330   0.268
  268TIP3   OH2  767   5.991   3.702   2.928
  268TIP3    H1  768   5.993   3.797   2.944
  268TIP3    H2  769   5.980   3.664   3.015
  269TIP3   OH2  770   6.996   3.856   0.569
  269TIP3    H1  771   7.045   3.937   0.584
  269TIP3    H2  772   6.974   3.858   0.476
  270TIP3   OH2  773   4.823   2.037   2.919
  270TIP3    H1  774   4.812   2.119   2.967
  270TIP3    H2  775   4.767   2.046   2.843
  271TIP3   OH2  776   0.856   2.578   5.385
  271TIP3    H1  777   0.883   2.618   5.302
  271TIP3    H2  778   0.937   2.573   5.436
  272TIP3   OH2  779   5.333   4.131   1.231
  272TIP3    H1  780   5.372   4.218   1.241
  272TIP3    H2  781   5.275   4.139   1.156
  273TIP3   OH2  782   4.051   2.672   1.444
  273TIP3    H1  783   3.983   2.643   1.504
  273TIP3    H2  784   4.018   2.650   1.357
  274TIP3   OH2  785   2.021   1.172   5.748
  274TIP3    H1  786   2.022   1.116   5.670
  274TIP3    H2  787   2.006   1.112   5.821
  275TIP3   OH2  788   2.510   4.014   2.095
  275TIP3    H1  789   2.600   3.986   2.074
  275TIP3    H2  790   2.497   4.093   2.043
  276TIP3   OH2  791   4.508   3.281   5.240
  276TIP3    H1  792   4.532   3.213   5.177
  276TIP3    H2  793   4.519   3.240   5.325
  277TIP3   OH2  794   1.859   2.637   0.286
  277TIP3    H1  795   1.874   2.709   0.347
  277TIP3    H2  796   1.936   2.581   0.295
  278TIP3   OH2  797   5.387   4.482   3.069
  278TIP3    H1  798   5.444   4.527   3.131
  278TIP3    H2  799   5.317   4.544   3.051
  279TIP3   OH2  800   5.783   2.181   4.981
  279TIP3    H1  801   5.761   2.273   4.967
  279TIP3    H2  802   5.780   2.170   5.076
  280TIP3   OH2  803   3.636   3.987   3.458
  280TIP3    H1  804   3.725   4.007   3.484
  280TIP3    H2  805   3.642   3.963   3.365
  281TIP3   OH2  806   6.848   6.704   1.616
  281TIP3    H1  807   6.854   6.703   1.712
  281TIP3    H2  808   6.838   6.796   1.594
  282TIP3   OH2  809   6.303   1.566   4.970
  282TIP3    H1  810   6.334   1.657   4.976
  282TIP3    H2  811   6.333   1.536   4.884
  283TIP3   OH2  812   2.249   2.169   4.542
  283TIP3    H1  813   2.316   2.204   4.484
  283TIP3    H2  814   2.245   2.076   4.520
  284TIP3   OH2  815   6.923   5.661   0.065
  284TIP3    H1  816   6.960   5.730   0.120
  284TIP3    H2  817   6.852   5.624   0.117
  285TIP3   OH2  818   5.094   1.300   2.221
  285TIP3    H1  819   5.158   1.371   2.223
  285TIP3    H2  820   5.124   1.242   2.150
  286TIP3   OH2  821   0.804   0.816   2.833
  286TIP3    H1  822   0.717   0.833   2.869
  286TIP3    H2  823   0.864   0.831   2.906
  287TIP3   OH2  824   5.398   5.741   2.404
  287TIP3    H1  825   5.334   5.777   2.465
  287TIP3    H2  826   5.372   5.649   2.394
  288TIP3   OH2  827   5.751   2.478   2.829
  288TIP3    H1  828   5.703   2.406   2.788
  288TIP3    H2  829   5.809   2.510   2.760
  289TIP3   OH2  830   5.647   6.082   3.066
  289TIP3    H1  831   5.580   6.015   3.083
  289TIP3    H2  832   5.662   6.077   2.972
  290TIP3   OH2  833   5.770   0.906   0.926
  290TIP3    H1  834   5.719   0.941   0.853
  290TIP3    H2  835   5.784   0.981   0.983
  291TIP3   OH2  836   5.472   2.599   5.417
  291TIP3    H1  837   5.481   2.632   5.506
  291TIP3    H2  838   5.515   2.665   5.362
  292TIP3   OH2  839   3.883   0.684   3.035
  292TIP3    H1  840   3.973   0.658   3.052
  292TIP3    H2  841   3.864   0.651   2.947
  293TIP3   OH2  842   3.882   2.699   1.213
  293TIP3    H1  843   3.855   2.746   1.292
  293TIP3    H2  844   3.866   2.607   1.233
  294TIP3   OH2  845   0.834   6.701   0.075
  294TIP3    H1  846   0.798   6.619   0.042
  294TIP3    H2  847   0.771   6.767   0.047
  295TIP3   OH2  848   6.816   3.728   3.139
  295TIP3    H1  849   6.909   3.714   3.158
  295TIP3    H2  850   6.770   3.665   3.195
  296TIP3   OH2  851   5.250   6.196   1.237
  296TIP3    H1  852   5.226   6.184   1.145
  296TIP3    H2  853   5.259   6.107   1.271
  297TIP3   OH2  854   5.515   2.448   0.656
  297TIP3    H1  855   5.452   2.420   0.723
  297TIP3    H2  856   5.464   2.506   0.599
  298TIP3   OH2  857   6.581   5.084   0.240
  298TIP3    H1  858   6.606   5.024   0.310
  298TIP3    H2  859   6.586   5.031   0.160
  299TIP3   OH2  860   6.022   5.929   2.657
  299TIP3    H1  861   6.040   5.902   2.567
  299TIP3    H2  862   6.097   5.899   2.707
  300TIP3   OH2  863   2.284   5.049   5.241
  300TIP3    H1  864   2.318   5.074   5.326
  300TIP3    H2  865   2.210   5.108   5.226
  301TIP3   OH2  866   2.871   6.004   4.458
  301TIP3    H1  867   2.957   6.037   4.484
  301TIP3    H2  868   2.885   5.911   4.442
  302TIP3   OH2  869   3.177   6.477   1.523
  302TIP3    H1  870   3.206   6.444   1.608
  302TIP3    H2  871   3.210   6.414   1.460
  303TIP3   OH2  872   2.076   1.441   4.824
  303TIP3    H1  873   2.007   1.505   4.807
  303TIP3    H2  874   2.046   1.362   4.779
  304TIP3   OH2  875   0.884   4.723  -0.060
  304TIP3    H1  876   0.979   4.723  -0.046
  304TIP3    H2  877   0.870   4.653  -0.123
  305TIP3   OH2  878   0.177   4.607   0.317
  305TIP3    H1  879   0.193   4.572   0.404
  305TIP3    H2  880   0.261   4.647   0.292
  306TIP3   OH2  881   0.000   5.881   1.487
  306TIP3    H1  882   0.004   5.788   1.462
  306TIP3    H2  883   0.068   5.923   1.436
  307TIP3   OH2  884   5.064   3.024   4.538
  307TIP3    H1  885   5.100   3.038   4.450
  307TIP3    H2  886   5.116   2.953   4.575
  308TIP3   OH2  887   0.220   4.525   0.576
  308TIP3    H1  888   0.150   4.538   0.640
  308TIP3    H2  889   0.301   4.536   0.626
  309TIP3   OH2  890   5.750   0.808   1.777
  309TIP3    H1  891   5.686   0.827   1.845
  309TIP3    H2  892   5.832   0.797   1.824
  310TIP3   OH2  893   1.276   6.053   1.603
  310TIP3    H1  894   1.217   6.069   1.677
  310TIP3    H2  895   1.342   5.992   1.636
  311TIP3   OH2  896   3.190   6.590   2.815
  311TIP3    H1  897   3.163   6.637   2.737
  311TIP3    H2  898   3.174   6.651   2.887
  312TIP3   OH2  899   4.927   6.043   2.191
  312TIP3    H1  900   4.889   6.002   2.113
  312TIP3    H2  901   5.016   6.068   2.165
  313TIP3   OH2  902  -0.009   2.603   5.609
  313TIP3    H1  903   0.062   2.652   5.566
  313TIP3    H2  904   0.035   2.528   5.649
  314TIP3   OH2  905   5.633   6.714   4.937
  314TIP3    H1  906   5.600   6.651   4.873
  314TIP3    H2  907   5.561   6.725   4.999
  315TIP3   OH2  908   1.866   3.508   4.180
  315TIP3    H1  909   1.865   3.566   4.104
  315TIP3    H2  910   1.834   3.562   4.253
  316TIP3   OH2  911   2.047   6.201   1.676
  316TIP3    H1  912   2.021   6.177   1.765
  316TIP3    H2  913   2.088   6.287   1.686
  317TIP3   OH2  914   2.281   0.432   4.927
  317TIP3    H1  915   2.247   0.517   4.900
  317TIP3    H2  916   2.373   0.433   4.900
  318TIP3   OH2  917   2.443   1.380   3.619
  318TIP3    H1  918   2.442   1.302   3.674
  318TIP3    H2  919   2.427   1.347   3.531
  319TIP3   OH2  920   3.727   2.756   5.445
  319TIP3    H1  921   3.644   2.716   5.419
  319TIP3    H2  922   3.714   2.850   5.432
  320TIP3   OH2  923   2.512   5.866   5.377
  320TIP3    H1  924   2.469   5.786   5.406
  320TIP3    H2  925   2.597   5.838   5.345
  321TIP3   OH2  926   2.930   2.734   2.065
  321TIP3    H1  927   2.908   2.802   2.128
  321TIP3    H2  928   2.950   2.657   2.118
  322TIP3   OH2  929   5.130   0.420   0.795
  322TIP3    H1  930   5.134   0.510   0.760
  322TIP3    H2  931   5.205   0.415   0.854
  323TIP3   OH2  932   3.702   0.398   0.085
  323TIP3    H1  933   3.725   0.314   0.124
  323TIP3    H2  934   3.784   0.447   0.085
  324TIP3   OH2  935   5.300   5.692   5.382
  324TIP3    H1  936   5.262   5.685   5.294
  324TIP3    H2  937   5.232   5.732   5.435
  325TIP3   OH2  938   1.658   4.264   1.603
  325TIP3    H1  939   1.655   4.174   1.636
  325TIP3    H2  940   1.728   4.306   1.653
  326TIP3   OH2  941   4.349   1.427   2.287
  326TIP3    H1  942   4.267   1.377   2.290
  326TIP3    H2  943   4.330   1.500   2.227
  327TIP3   OH2  944   3.481   0.707   2.040
  327TIP3    H1  945   3.429   0.653   2.099
  327TIP3    H2  946   3.515   0.646   1.975
  328TIP3   OH2  947   2.056   2.330   5.677
  328TIP3    H1  948   2.044   2.240   5.707
  328TIP3    H2  949   1.969   2.369   5.682
  329TIP3   OH2  950   3.796   3.633   0.790
  329TIP3    H1  951   3.832   3.710   0.748
  329TIP3    H2  952   3.739   3.667   0.859
  330TIP3   OH2  953   0.236   5.989   5.547
  330TIP3    H1  954   0.265   5.998   5.457
  330TIP3    H2  955   0.235   5.894   5.563
  331TIP3   OH2  956   1.922   1.259   4.688
  331TIP3    H1  957   1.846   1.309   4.661
  331TIP3    H2  958   1.887   1.173   4.713
  332TIP3   OH2  959   2.948   3.603   5.473
  332TIP3    H1  960   2.932   3.662   5.547
  332TIP3    H2  961   2.960   3.517   5.512
  333TIP3   OH2  962   6.573   6.702   1.250
  333TIP3    H1  963   6.667   6.688   1.263
  333TIP3    H2  964   6.552   6.652   1.171
  334TIP3   OH2  965   0.959   5.308   2.868
  334TIP3    H1  966   0.976   5.215   2.857
  334TIP3    H2  967   1.022   5.337   2.934
  335TIP3   OH2  968   5.338   5.969   4.795
  335TIP3    H1  969   5.403   5.900   4.807
  335TIP3    H2  970   5.312   5.962   4.703
  336TIP3   OH2  971   4.987   5.126   0.809
  336TIP3    H1  972   5.055   5.181   0.850
  336TIP3    H2  973   4.905   5.169   0.833
  337TIP3   OH2  974   1.828   1.429   1.206
  337TIP3    H1  975   1.881   1.374   1.148
  337TIP3    H2  976   1.874   1.513   1.208
  338TIP3   OH2  977   6.419   3.625   2.415
  338TIP3    H1  978   6.515   3.622   2.417
  338TIP3    H2  979   6.397   3.632   2.322
  339TIP3   OH2  980   2.769   0.938   1.185
  339TIP3    H1  981   2.821   1.018   1.193
  339TIP3    H2  982   2.823   0.880   1.133
  340TIP3   OH2  983   3.037   3.502   5.852
  340TIP3    H1  984   3.024   3.498   5.946
  340TIP3    H2  985   3.016   3.592   5.828
  341TIP3   OH2  986   6.873   3.094   1.931
  341TIP3    H1  987   6.961   3.101   1.894
  341TIP3    H2  988   6.821   3.050   1.864
  342TIP3   OH2  989   3.187   2.986   3.829
  342TIP3    H1  990   3.230   2.912   3.873
  342TIP3    H2  991   3.196   3.059   3.890
  343TIP3   OH2  992   3.790   6.519   1.088
  343TIP3    H1  993   3.846   6.444   1.105
  343TIP3    H2  994   3.829   6.590   1.139
  344TIP3   OH2  995   0.790   1.891   2.950
  344TIP3    H1  996   0.717   1.950   2.968
  344TIP3    H2  997   0.750   1.804   2.944
  345TIP3   OH2  998   4.175   5.406   5.174
  345TIP3    H1  999   4.222   5.324   5.187
  345TIP3    H2 1000   4.151   5.435   5.262
  346TIP3   OH2 1001   7.061   2.951   2.959
  346TIP3    H1 1002   6.988   2.899   2.991
  346TIP3    H2 1003   7.130   2.939   3.024
  347TIP3   OH2 1004   1.890   2.802   3.842
  347TIP3    H1 1005   1.880   2.897   3.848
  347TIP3    H2 1006   1.910   2.774   3.931
  348TIP3   OH2 1007   5.944   3.603   4.939
  348TIP3    H1 1008   5.988   3.530   4.982
  348TIP3    H2 1009   5.892   3.562   4.869
  349TIP3   OH2 1010   0.732   6.345   2.155
  349TIP3    H1 1011   0.720   6.271   2.214
  349TIP3    H2 1012   0.648   6.391   2.157
  350TIP3   OH2 1013   3.525   3.221   5.658
  350TIP3    H1 1014   3.576   3.222   5.738
  350TIP3    H2 1015   3.435   3.239   5.687
  351TIP3   OH2 1016   4.537   5.921   4.913
  351TIP3    H1 1017   4.471   5.982   4.882
  351TIP3    H2 1018   4.522   5.841   4.862
  352TIP3   OH2 1019   3.069   5.145   1.063
  352TIP3    H1 1020   3.032   5.112   0.981
  352TIP3    H2 1021   2.993   5.163   1.118
  353TIP3   OH2 1022   1.676   5.355   5.641
  353TIP3    H1 1023   1.591   5.317   5.618
  353TIP3    H2 1024   1.669   5.447   5.616
  354TIP3   OH2 1025   5.824   0.742   4.584
  354TIP3    H1 1026   5.907   0.707   4.551
  354TIP3    H2 1027   5.833   0.737   4.679
  355TIP3   OH2 1028   0.927   3.045   5.814
  355TIP3    H1 1029   0.851   3.052   5.756
  355TIP3    H2 1030   0.929   2.953   5.840
  356TIP3   OH2 1031   2.000   2.066   3.951
  356TIP3    H1 1032   2.049   2.131   4.001
  356TIP3    H2 1033   2.056   1.988   3.952
  357TIP3   OH2 1034   2.360   1.169   4.181
  357TIP3    H1 1035   2.332   1.160   4.272
  357TIP3    H2 1036   2.288   1.215   4.138
  358TIP3   OH2 1037   5.460   1.774   5.341
  358TIP3    H1 1038   5.458   1.854   5.394
  358TIP3    H2 1039   5.399   1.791   5.270
  359TIP3   OH2 1040   1.119   6.093   0.382
  359TIP3    H1 1041   1.137   5.999   0.389
  359TIP3    H2 1042   1.026   6.101   0.406
  360TIP3   OH2 1043   7.117   6.606   1.246
  360TIP3    H1 1044   7.096   6.699   1.247
  360TIP3    H2 1045   7.168   6.592   1.326
  361TIP3   OH2 1046   2.369   4.854   0.092
  361TIP3    H1 1047   2.371   4.835   0.186
  361TIP3    H2 1048   2.281   4.829   0.064
  362TIP3   OH2 1049   0.333   5.415   4.169
  362TIP3    H1 1050   0.401   5.482   4.169
  362TIP3    H2 1051   0.284   5.429   4.251
  363TIP3   OH2 1052   1.274   0.240   0.218
  363TIP3    H1 1053   1.279   0.281   0.132
  363TIP3    H2 1054   1.348   0.179   0.220
  364TIP3   OH2 1055   1.954   3.259   4.953
  364TIP3    H1 1056   2.028   3.266   5.013
  364TIP3    H2 1057   1.914   3.346   4.954
  365TIP3   OH2 1058  -0.007   4.067   3.577
  365TIP3    H1 1059   0.021   4.123   3.650
  365TIP3    H2 1060   0.020   3.979   3.603
  366TIP3   OH2 1061   3.380   2.577   3.200
  366TIP3    H1 1062   3.332   2.626   3.267
  366TIP3    H2 1063   3.392   2.640   3.129
  367TIP3   OH2 1064   4.169   5.394   2.030
  367TIP3    H1 1065   4.178   5.385   2.125
  367TIP3    H2 1066   4.213   5.477   2.010
  368TIP3   OH2 1067   2.604   0.947   5.412
  368TIP3    H1 1068   2.647   0.864   5.390
  368TIP3    H2 1069   2.512   0.933   5.390
  369TIP3   OH2 1070   5.187   0.610   2.810
  369TIP3    H1 1071   5.258   0.547   2.798
  369TIP3    H2 1072   5.119   0.561   2.854
  370TIP3   OH2 1073   6.763   1.282   1.628
  370TIP3    H1 1074   6.768   1.257   1.720
  370TIP3    H2 1075   6.841   1.244   1.588
  371TIP3   OH2 1076   3.990   5.213   2.947
  371TIP3    H1 1077   3.949   5.213   3.034
  371TIP3    H2 1078   3.916   5.223   2.887
  372TIP3   OH2 1079   6.671   4.442   1.687
  372TIP3    H1 1080   6.752   4.482   1.656
  372TIP3    H2 1081   6.696   4.393   1.765
  373TIP3   OH2 1082   1.523   5.177   5.361
  373TIP3    H1 1083   1.588   5.125   5.314
  373TIP3    H2 1084   1.479   5.114   5.418
  374TIP3   OH2 1085   2.464   4.381   4.784
  374TIP3    H1 1086   2.434   4.299   4.746
  374TIP3    H2 1087   2.528   4.355   4.850
  375TIP3   OH2 1088   4.331   2.977   0.770
  375TIP3    H1 1089   4.288   2.902   0.813
  375TIP3    H2 1090   4.259   3.034   0.745
  376TIP3   OH2 1091   0.252   4.396   2.864
  376TIP3    H1 1092   0.295   4.443   2.936
  376TIP3    H2 1093   0.314   4.402   2.791
  377TIP3   OH2 1094   0.424   1.353   5.641
  377TIP3    H1 1095   0.360   1.363   5.570
  377TIP3    H2 1096   0.393   1.414   5.708
  378TIP3   OH2 1097   0.403   2.593   4.222
  378TIP3    H1 1098   0.479   2.640   4.254
  378TIP3    H2 1099   0.404   2.607   4.127
  379TIP3   OH2 1100   6.600   4.961   5.602
  379TIP3    H1 1101   6.613   5.055   5.598
  379TIP3    H2 1102   6.657   4.926   5.533
  380TIP3   OH2 1103   4.884   4.450   0.452
  380TIP3    H1 1104   4.804   4.498   0.472
  380TIP3    H2 1105   4.857   4.382   0.390
  381TIP3   OH2 1106   6.523   3.068   0.411
  381TIP3    H1 1107   6.537   3.010   0.486
  381TIP3    H2 1108   6.457   3.022   0.358
  382TIP3   OH2 1109   2.244   0.999   2.913
  382TIP3    H1 1110   2.187   0.929   2.881
  382TIP3    H2 1111   2.188   1.053   2.968
  383TIP3   OH2 1112   0.908   5.861   5.160
  383TIP3    H1 1113   0.990   5.884   5.204
  383TIP3    H2 1114   0.905   5.919   5.084
  384TIP3   OH2 1115   3.705   6.032   0.531
  384TIP3    H1 1116   3.637   6.100   0.536
  384TIP3    H2 1117   3.677   5.967   0.595
  385TIP3   OH2 1118   5.015   0.508   5.365
  385TIP3    H1 1119   5.059   0.473   5.443
  385TIP3    H2 1120   4.980   0.593   5.393
  386TIP3   OH2 1121   4.421   4.621   4.102
  386TIP3    H1 1122   4.387   4.676   4.032
  386TIP3    H2 1123   4.344   4.595   4.153
  387TIP3   OH2 1124   7.075   4.757   3.240
  387TIP3    H1 1125   7.161   4.723   3.215
  387TIP3    H2 1126   7.073   4.746   3.336
  388TIP3   OH2 1127   1.025   3.957   2.918
  388TIP3    H1 1128   0.991   3.871   2.894
  388TIP3    H2 1129   0.950   4.016   2.907
  389TIP3   OH2 1130   2.806   1.954   2.136
  389TIP3    H1 1131   2.868   1.896   2.091
  389TIP3    H2 1132   2.790   2.025   2.074
  390TIP3   OH2 1133   0.617   1.628   3.554
  390TIP3    H1 1134   0.610   1.587   3.640
  390TIP3    H2 1135   0.560   1.577   3.497
  391TIP3   OH2 1136   7.164   1.970   0.017
  391TIP3    H1 1137   7.094   1.913   0.049
  391TIP3    H2 1138   7.175   2.035   0.087
  392TIP3   OH2 1139   1.976   6.011   5.135
  392TIP3    H1 1140   2.030   6.071   5.187
  392TIP3    H2 1141   1.954   5.940   5.196
  393TIP3   OH2 1142   1.796   2.759   4.967
  393TIP3    H1 1143   1.823   2.710   5.045
  393TIP3    H2 1144   1.846   2.841   4.972
  394TIP3   OH2 1145   5.581   2.842   5.540
  394TIP3    H1 1146   5.623   2.858   5.455
  394TIP3    H2 1147   5.543   2.926   5.564
  395TIP3   OH2 1148   4.194   4.445   3.496
  395TIP3    H1 1149   4.133   4.382   3.535
  395TIP3    H2 1150   4.278   4.399   3.494
  396TIP3   OH2 1151   2.258   5.771   4.555
  396TIP3    H1 1152   2.169   5.805   4.550
  396TIP3    H2 1153   2.255   5.703   4.622
  397TIP3   OH2 1154   0.762   3.336   2.212
  397TIP3    H1 1155   0.758   3.392   2.290
  397TIP3    H2 1156   0.683   3.358   2.163
  398TIP3   OH2 1157   0.220   2.660   3.990
  398TIP3    H1 1158   0.203   2.655   3.896
  398TIP3    H2 1159   0.225   2.754   4.009
  399TIP3   OH2 1160   3.582   5.779   5.685
  399TIP3    H1 1161   3.521   5.840   5.725
  399TIP3    H2 1162   3.563   5.783   5.591
  400TIP3   OH2 1163   0.449   2.567   0.971
  400TIP3    H1 1164   0.543   2.551   0.986
  400TIP3    H2 1165   0.416   2.485   0.934
  401TIP3   OH2 1166   0.778   2.345   4.500
  401TIP3    H1 1167   0.868   2.325   4.477
  401TIP3    H2 1168   0.735   2.364   4.417
  402TIP3   OH2 1169   3.192   0.823   1.178
  402TIP3    H1 1170   3.136   0.798   1.252
  402TIP3    H2 1171   3.254   0.885   1.216
  403TIP3   OH2 1172   4.866   6.377   5.499
  403TIP3    H1 1173   4.777   6.383   5.465
  403TIP3    H2 1174   4.854   6.372   5.594
  404TIP3   OH2 1175   0.394   5.228   2.556
  404TIP3    H1 1176   0.369   5.227   2.648
  404TIP3    H2 1177   0.460   5.158   2.549
  405TIP3   OH2 1178   6.836   3.474   1.481
  405TIP3    H1 1179   6.890   3.455   1.404
  405TIP3    H2 1180   6.749   3.489   1.446
  406TIP3   OH2 1181   0.716   1.733   0.088
  406TIP3    H1 1182   0.735   1.694   0.173
  406TIP3    H2 1183   0.658   1.669   0.045
  407TIP3   OH2 1184   5.204   3.349   1.788
  407TIP3    H1 1185   5.241   3.336   1.875
  407TIP3    H2 1186   5.170   3.262   1.764
  408TIP3   OH2 1187   1.220   2.993   4.356
  408TIP3    H1 1188   1.283   3.042   4.303
  408TIP3    H2 1189   1.152   2.968   4.295
  409TIP3   OH2 1190   1.789   3.824   0.717
  409TIP3    H1 1191   1.759   3.913   0.731
  409TIP3    H2 1192   1.741   3.794   0.640
  410TIP3   OH2 1193   1.397   3.352   1.645
  410TIP3    H1 1194   1.419   3.329   1.735
  410TIP3    H2 1195   1.464   3.415   1.619
  411TIP3   OH2 1196   4.455   3.805   1.544
  411TIP3    H1 1197   4.487   3.771   1.628
  411TIP3    H2 1198   4.384   3.744   1.519
  412TIP3   OH2 1199   2.227   0.117   4.152
  412TIP3    H1 1200   2.187   0.068   4.223
  412TIP3    H2 1201   2.213   0.209   4.176
  413TIP3   OH2 1202   4.708   3.462   2.393
  413TIP3    H1 1203   4.794   3.452   2.352
  413TIP3    H2 1204   4.688   3.375   2.426
  414TIP3   OH2 1205   3.616   0.904   0.363
  414TIP3    H1 1206   3.525   0.875   0.360
  414TIP3    H2 1207   3.666   0.823   0.378
  415TIP3   OH2 1208   4.684   2.189   3.496
  415TIP3    H1 1209   4.737   2.110   3.488
  415TIP3    H2 1210   4.595   2.160   3.477
  416TIP3   OH2 1211   6.345   4.573   2.422
  416TIP3    H1 1212   6.424   4.574   2.476
  416TIP3    H2 1213   6.288   4.510   2.466
  417TIP3   OH2 1214   4.686   0.210   5.750
  417TIP3    H1 1215   4.615   0.268   5.780
  417TIP3    H2 1216   4.751   0.215   5.820
  418TIP3   OH2 1217   0.000   5.051   2.260
  418TIP3    H1 1218  -0.081   5.017   2.299
  418TIP3    H2 1219   0.064   4.982   2.276
  419TIP3   OH2 1220   3.601   1.218   1.730
  419TIP3    H1 1221   3.672   1.174   1.777
  419TIP3    H2 1222   3.570   1.153   1.668
  420TIP3   OH2 1223   6.765   4.950   3.703
  420TIP3    H1 1224   6.714   4.878   3.665
  420TIP3    H2 1225   6.829   4.907   3.760
  421TIP3   OH2 1226   0.093   4.651   3.998
  421TIP3    H1 1227   0.163   4.619   4.056
  421TIP3    H2 1228   0.131   4.644   3.910
  422TIP3   OH2 1229   0.711   3.554   5.598
  422TIP3    H1 1230   0.734   3.479   5.542
  422TIP3    H2 1231   0.795   3.584   5.633
  423TIP3   OH2 1232   5.531   0.561   3.831
  423TIP3    H1 1233   5.531   0.602   3.745
  423TIP3    H2 1234   5.615   0.584   3.869
  424TIP3   OH2 1235   5.900   3.369   1.946
  424TIP3    H1 1236   5.833   3.312   1.908
  424TIP3    H2 1237   5.962   3.309   1.987
  425TIP3   OH2 1238   1.947   3.874   1.122
  425TIP3    H1 1239   1.898   3.956   1.116
  425TIP3    H2 1240   2.019   3.885   1.061
  426TIP3   OH2 1241   2.557   0.462   4.050
  426TIP3    H1 1242   2.505   0.475   3.970
  426TIP3    H2 1243   2.647   0.451   4.018
  427TIP3   OH2 1244   1.027   6.215   0.947
  427TIP3    H1 1245   1.040   6.295   0.998
  427TIP3    H2 1246   0.940   6.184   0.972
  428TIP3   OH2 1247   6.507   5.306   3.054
  428TIP3    H1 1248   6.517   5.301   3.149
  428TIP3    H2 1249   6.485   5.398   3.037
  429TIP3   OH2 1250   0.544   1.605   4.682
  429TIP3    H1 1251   0.564   1.513   4.670
  429TIP3    H2 1252   0.484   1.626   4.610
  430TIP3   OH2 1253   0.117   4.754   5.563
  430TIP3    H1 1254   0.061   4.689   5.606
  430TIP3    H2 1255   0.139   4.715   5.479
  431TIP3   OH2 1256   2.704   6.073   4.682
  431TIP3    H1 1257   2.773   6.077   4.616
  431TIP3    H2 1258   2.632   6.026   4.639
  432TIP3   OH2 1259   4.257   6.301   4.667
  432TIP3    H1 1260   4.180   6.248   4.686
  432TIP3    H2 1261   4.321   6.240   4.632
  433TIP3   OH2 1262   4.923   4.173   4.556
  433TIP3    H1 1263   4.975   4.241   4.597
  433TIP3    H2 1264   4.846   4.165   4.612
  434TIP3   OH2 1265   4.721   2.365   4.523
  434TIP3    H1 1266   4.775   2.287   4.534
  434TIP3    H2 1267   4.759   2.429   4.583
  435TIP3   OH2 1268   3.385   2.408   5.169
  435TIP3    H1 1269   3.375   2.383   5.078
  435TIP3    H2 1270   3.476   2.387   5.190
  436TIP3   OH2 1271   0.579   1.996   0.181
  436TIP3    H1 1272   0.632   1.917   0.168
  436TIP3    H2 1273   0.492   1.971   0.150
  437TIP3   OH2 1274   4.311   2.696   2.512
  437TIP3    H1 1275   4.266   2.633   2.456
  437TIP3    H2 1276   4.241   2.747   2.552
  438TIP3   OH2 1277   4.086   2.612   0.616
  438TIP3    H1 1278   4.176   2.633   0.594
  438TIP3    H2 1279   4.035   2.639   0.540
  439TIP3   OH2 1280   0.232   5.247   5.564
  439TIP3    H1 1281   0.191   5.161   5.573
  439TIP3    H2 1282   0.326   5.229   5.562
  440TIP3   OH2 1283   6.716   2.742   2.196
  440TIP3    H1 1284   6.783   2.738   2.128
  440TIP3    H2 1285   6.751   2.690   2.268
  441TIP3   OH2 1286   6.007   6.380   0.447
  441TIP3    H1 1287   6.034   6.371   0.356
  441TIP3    H2 1288   6.088   6.389   0.496
  442TIP3   OH2 1289   7.088   3.669   1.453
  442TIP3    H1 1290   7.054   3.615   1.382
  442TIP3    H2 1291   7.013   3.683   1.511
  443TIP3   OH2 1292   3.906   5.200   1.806
  443TIP3    H1 1293   3.934   5.211   1.897
  443TIP3    H2 1294   3.895   5.289   1.774
  444TIP3   OH2 1295   5.889   2.717   2.974
  444TIP3    H1 1296   5.977   2.686   2.998
  444TIP3    H2 1297   5.902   2.759   2.889
  445TIP3   OH2 1298   3.948   5.492   3.994
  445TIP3    H1 1299   3.907   5.485   3.909
  445TIP3    H2 1300   3.881   5.530   4.051
  446TIP3   OH2 1301   2.437   6.782   2.821
  446TIP3    H1 1302   2.351   6.741   2.823
  446TIP3    H2 1303   2.498   6.711   2.841
  447TIP3   OH2 1304   5.159   3.072   4.285
  447TIP3    H1 1305   5.096   3.020   4.234
  447TIP3    H2 1306   5.233   3.084   4.226
  448TIP3   OH2 1307   7.076   5.490   3.593
  448TIP3    H1 1308   7.102   5.497   3.501
  448TIP3    H2 1309   6.981   5.478   3.591
  449TIP3   OH2 1310   3.998   6.479   0.833
  449TIP3    H1 1311   3.912   6.437   0.840
  449TIP3    H2 1312   4.045   6.426   0.768
  450TIP3   OH2 1313   5.470   3.475   2.300
  450TIP3    H1 1314   5.475   3.389   2.341
  450TIP3    H2 1315   5.387   3.512   2.330
  451TIP3   OH2 1316   3.818   0.565   1.536
  451TIP3    H1 1317   3.767   0.634   1.577
  451TIP3    H2 1318   3.781   0.557   1.448
  452TIP3   OH2 1319   4.703   1.090   4.844
  452TIP3    H1 1320   4.721   1.093   4.938
  452TIP3    H2 1321   4.704   0.997   4.822
  453TIP3   OH2 1322   5.623   0.926   3.474
  453TIP3    H1 1323   5.684   0.971   3.416
  453TIP3    H2 1324   5.562   0.993   3.503
  454TIP3   OH2 1325   1.190   2.466   1.011
  454TIP3    H1 1326   1.188   2.478   1.106
  454TIP3    H2 1327   1.268   2.515   0.983
  455TIP3   OH2 1328   4.310   4.837   2.532
  455TIP3    H1 1329   4.241   4.844   2.598
  455TIP3    H2 1330   4.305   4.919   2.483
  456TIP3   OH2 1331   4.546   6.724   4.601
  456TIP3    H1 1332   4.595   6.743   4.681
  456TIP3    H2 1333   4.462   6.688   4.632
  457TIP3   OH2 1334   4.053   1.518   0.723
  457TIP3    H1 1335   4.010   1.455   0.666
  457TIP3    H2 1336   4.098   1.578   0.663
  458TIP3   OH2 1337   2.702   2.264   2.211
  458TIP3    H1 1338   2.682   2.218   2.129
  458TIP3    H2 1339   2.736   2.196   2.269
  459TIP3   OH2 1340   2.127   0.881   3.931
  459TIP3    H1 1341   2.078   0.814   3.882
  459TIP3    H2 1342   2.137   0.953   3.870
  460TIP3   OH2 1343   4.642   3.013   4.682
  460TIP3    H1 1344   4.550   2.989   4.669
  460TIP3    H2 1345   4.682   2.935   4.721
  461TIP3   OH2 1346   2.691   2.130   1.963
  461TIP3    H1 1347   2.600   2.158   1.967
  461TIP3    H2 1348   2.725   2.169   1.883
  462TIP3   OH2 1349   6.020   0.808   5.248
  462TIP3    H1 1350   6.085   0.794   5.317
  462TIP3    H2 1351   6.051   0.885   5.200
  463TIP3   OH2 1352   3.686   1.114   3.508
  463TIP3    H1 1353   3.652   1.147   3.425
  463TIP3    H2 1354   3.779   1.101   3.492
  464TIP3   OH2 1355   2.325   5.220   3.166
  464TIP3    H1 1356   2.341   5.128   3.187
  464TIP3    H2 1357   2.410   5.262   3.177
  465TIP3   OH2 1358   5.419   3.165   5.189
  465TIP3    H1 1359   5.491   3.228   5.177
  465TIP3    H2 1360   5.430   3.102   5.117
  466TIP3   OH2 1361   6.313   1.236   2.700
  466TIP3    H1 1362   6.273   1.188   2.628
  466TIP3    H2 1363   6.269   1.321   2.699
  467TIP3   OH2 1364   0.548   0.468   1.942
  467TIP3    H1 1365   0.460   0.461   1.905
  467TIP3    H2 1366   0.536   0.458   2.036
  468TIP3   OH2 1367   3.477   3.852   0.414
  468TIP3    H1 1368   3.427   3.931   0.436
  468TIP3    H2 1369   3.567   3.874   0.435
  469TIP3   OH2 1370   6.078   0.321   5.730
  469TIP3    H1 1371   6.172   0.310   5.717
  469TIP3    H2 1372   6.070   0.370   5.812
  470TIP3   OH2 1373   2.551   1.121   3.673
  470TIP3    H1 1374   2.638   1.085   3.690
  470TIP3    H2 1375   2.491   1.048   3.689
  471TIP3   OH2 1376   1.585   0.546   2.693
  471TIP3    H1 1377   1.638   0.621   2.666
  471TIP3    H2 1378   1.547   0.572   2.777
  472TIP3   OH2 1379   5.577   6.109   4.029
  472TIP3    H1 1380   5.561   6.028   4.077
  472TIP3    H2 1381   5.589   6.176   4.097
  473TIP3   OH2 1382   2.567   5.940   1.245
  473TIP3    H1 1383   2.516   6.015   1.215
  473TIP3    H2 1384   2.589   5.893   1.164
  474TIP3   OH2 1385   5.847   3.952   3.978
  474TIP3    H1 1386   5.837   3.929   4.071
  474TIP3    H2 1387   5.928   4.003   3.974
  475TIP3   OH2 1388   3.820   2.447   3.003
  475TIP3    H1 1389   3.853   2.500   2.930
  475TIP3    H2 1390   3.893   2.391   3.027
  476TIP3   OH2 1391   0.395   1.875   0.639
  476TIP3    H1 1392   0.439   1.871   0.554
  476TIP3    H2 1393   0.442   1.812   0.693
  477TIP3   OH2 1394   4.101   5.941   3.486
  477TIP3    H1 1395   4.180   5.994   3.475
  477TIP3    H2 1396   4.128   5.866   3.539
  478TIP3   OH2 1397   1.872   6.072   2.917
  478TIP3    H1 1398   1.845   6.144   2.974
  478TIP3    H2 1399   1.956   6.099   2.881
  479TIP3   OH2 1400   2.120   4.055   3.694
  479TIP3    H1 1401   2.078   4.114   3.632
  479TIP3    H2 1402   2.064   4.058   3.771
  480TIP3   OH2 1403   1.151   1.320   4.076
  480TIP3    H1 1404   1.163   1.397   4.021
  480TIP3    H2 1405   1.129   1.355   4.162
  481TIP3   OH2 1406   2.241   0.085   1.289
  481TIP3    H1 1407   2.303   0.096   1.361
  481TIP3    H2 1408   2.157   0.116   1.325
  482TIP3   OH2 1409   6.357   0.474   2.426
  482TIP3    H1 1410   6.436   0.484   2.373
  482TIP3    H2 1411   6.318   0.561   2.427
  483TIP3   OH2 1412   4.796   6.188   3.598
  483TIP3    H1 1413   4.751   6.273   3.601
  483TIP3    H2 1414   4.847   6.185   3.680
  484TIP3   OH2 1415   3.210   4.223   1.704
  484TIP3    H1 1416   3.305   4.227   1.712
  484TIP3    H2 1417   3.177   4.280   1.773
  485TIP3   OH2 1418   1.702   5.052   5.198
  485TIP3    H1 1419   1.711   5.128   5.140
  485TIP3    H2 1420   1.687   4.978   5.139
  486TIP3   OH2 1421   4.787   3.421   0.753
  486TIP3    H1 1422   4.873   3.431   0.794
  486TIP3    H2 1423   4.761   3.331   0.770
  487TIP3   OH2 1424   1.099   4.947   1.319
  487TIP3    H1 1425   1.140   4.904   1.244
  487TIP3    H2 1426   1.042   4.879   1.357
  488TIP3   OH2 1427   1.650   2.152   2.860
  488TIP3    H1 1428   1.662   2.245   2.882
  488TIP3    H2 1429   1.556   2.137   2.874
  489TIP3   OH2 1430   7.117   3.920   5.451
  489TIP3    H1 1431   7.045   3.983   5.448
  489TIP3    H2 1432   7.174   3.946   5.378
  490TIP3   OH2 1433   0.650   1.727   1.011
  490TIP3    H1 1434   0.678   1.768   0.929
  490TIP3    H2 1435   0.666   1.634   0.997
  491TIP3   OH2 1436   0.150   5.111   3.122
  491TIP3    H1 1437   0.118   5.126   3.210
  491TIP3    H2 1438   0.074   5.126   3.065
  492TIP3   OH2 1439   0.887   4.867   0.561
  492TIP3    H1 1440   0.883   4.870   0.465
  492TIP3    H2 1441   0.857   4.780   0.584
  493TIP3   OH2 1442   2.714   0.204   0.749
  493TIP3    H1 1443   2.690   0.250   0.830
  493TIP3    H2 1444   2.767   0.130   0.778
  494TIP3   OH2 1445   2.412   0.472   2.976
  494TIP3    H1 1446   2.378   0.537   3.037
  494TIP3    H2 1447   2.359   0.482   2.898
  495TIP3   OH2 1448   0.785   0.361   3.889
  495TIP3    H1 1449   0.728   0.308   3.944
  495TIP3    H2 1450   0.866   0.310   3.881
  496TIP3   OH2 1451   0.258   5.252   2.823
  496TIP3    H1 1452   0.275   5.306   2.900
  496TIP3    H2 1453   0.267   5.162   2.855
  497TIP3   OH2 1454   4.372   0.151   4.629
  497TIP3    H1 1455   4.421   0.128   4.550
  497TIP3    H2 1456   4.381   0.074   4.685
  498TIP3   OH2 1457   2.965   5.815   2.471
  498TIP3    H1 1458   2.953   5.862   2.553
  498TIP3    H2 1459   2.948   5.723   2.493
  499TIP3   OH2 1460   0.783   4.126   4.103
  499TIP3    H1 1461   0.821   4.149   4.188
  499TIP3    H2 1462   0.796   4.031   4.096
  500TIP3   OH2 1463   3.912   3.172   2.350
  500TIP3    H1 1464   3.897   3.080   2.370
  500TIP3    H2 1465   3.833   3.199   2.302
  501TIP3   OH2 1466   4.169   1.787   5.536
  501TIP3    H1 1467   4.143   1.870   5.575
  501TIP3    H2 1468   4.243   1.810   5.479
  502TIP3   OH2 1469   2.348   0.423   4.507
  502TIP3    H1 1470   2.416   0.402   4.443
  502TIP3    H2 1471   2.324   0.338   4.544
  503TIP3   OH2 1472   4.203   2.064   5.262
  503TIP3    H1 1473   4.140   2.136   5.255
  503TIP3    H2 1474   4.185   2.009   5.186
  504TIP3   OH2 1475   2.876   5.568   4.791
  504TIP3    H1 1476   2.790   5.585   4.829
  504TIP3    H2 1477   2.869   5.595   4.699
  505TIP3   OH2 1478   0.351   0.908   3.118
  505TIP3    H1 1479   0.287   0.924   3.048
  505TIP3    H2 1480   0.328   0.971   3.186
  506TIP3   OH2 1481   0.948   4.848   2.967
  506TIP3    H1 1482   0.974   4.901   2.891
  506TIP3    H2 1483   0.951   4.909   3.041
  507TIP3   OH2 1484   2.353   1.223   5.168
  507TIP3    H1 1485   2.274   1.267   5.139
  507TIP3    H2 1486   2.337   1.130   5.150
  508TIP3   OH2 1487   5.481   3.053   2.916
  508TIP3    H1 1488   5.403   3.108   2.910
  508TIP3    H2 1489   5.458   2.987   2.981
  509TIP3   OH2 1490   3.289   6.422   1.798
  509TIP3    H1 1491   3.219   6.373   1.840
  509TIP3    H2 1492   3.263   6.514   1.808
  510TIP3   OH2 1493   5.484  -0.010   4.910
  510TIP3    H1 1494   5.412  -0.013   4.847
  510TIP3    H2 1495   5.444  -0.032   4.994
  511TIP3   OH2 1496   5.628   3.100   1.980
  511TIP3    H1 1497   5.663   3.122   1.893
  511TIP3    H2 1498   5.695   3.044   2.019
  512TIP3   OH2 1499   3.027   5.590   5.818
  512TIP3    H1 1500   2.935   5.604   5.840
  512TIP3    H2 1501   3.027   5.578   5.723
  513TIP3   OH2 1502   3.131   0.591   1.502
  513TIP3    H1 1503   3.129   0.518   1.564
  513TIP3    H2 1504   3.222   0.596   1.474
  514TIP3   OH2 1505   3.633   6.454   0.394
  514TIP3    H1 1506   3.565   6.489   0.452
  514TIP3    H2 1507   3.586   6.396   0.334
  515TIP3   OH2 1508   5.724   3.171   1.742
  515TIP3    H1 1509   5.767   3.243   1.697
  515TIP3    H2 1510   5.764   3.092   1.705
  516TIP3   OH2 1511   0.693   5.610   3.652
  516TIP3    H1 1512   0.761   5.668   3.617
  516TIP3    H2 1513   0.714   5.524   3.615
  517TIP3   OH2 1514   3.364   2.464   1.143
  517TIP3    H1 1515   3.333   2.481   1.054
  517TIP3    H2 1516   3.314   2.524   1.199
  518TIP3   OH2 1517   0.716   4.653   3.082
  518TIP3    H1 1518   0.723   4.626   3.174
  518TIP3    H2 1519   0.743   4.745   3.083
  519TIP3   OH2 1520   4.198   2.668   5.756
  519TIP3    H1 1521   4.106   2.645   5.744
  519TIP3    H2 1522   4.196   2.760   5.785
  520TIP3   OH2 1523   3.373   6.134   4.939
  520TIP3    H1 1524   3.346   6.122   5.030
  520TIP3    H2 1525   3.294   6.118   4.888
  521TIP3   OH2 1526   4.525   4.090   5.592
  521TIP3    H1 1527   4.438   4.125   5.574
  521TIP3    H2 1528   4.520   3.998   5.567
  522TIP3   OH2 1529   7.106   2.448   4.440
  522TIP3    H1 1530   7.179   2.478   4.493
  522TIP3    H2 1531   7.062   2.382   4.494
  523TIP3   OH2 1532   2.538   0.994   4.677
  523TIP3    H1 1533   2.502   1.070   4.723
  523TIP3    H2 1534   2.622   1.025   4.642
  524TIP3   OH2 1535   5.102   0.402   1.716
  524TIP3    H1 1536   5.145   0.411   1.801
  524TIP3    H2 1537   5.063   0.488   1.700
  525TIP3   OH2 1538   1.729   4.909   4.222
  525TIP3    H1 1539   1.736   5.000   4.251
  525TIP3    H2 1540   1.683   4.914   4.138
  526TIP3   OH2 1541   2.067   2.619   5.696
  526TIP3    H1 1542   1.989   2.661   5.733
  526TIP3    H2 1543   2.045   2.526   5.691
  527TIP3   OH2 1544   1.209   3.796   1.225
  527TIP3    H1 1545   1.185   3.810   1.133
  527TIP3    H2 1546   1.147   3.850   1.274
  528TIP3   OH2 1547   2.725   2.346   3.759
  528TIP3    H1 1548   2.651   2.310   3.709
  528TIP3    H2 1549   2.798   2.346   3.698
  529TIP3   OH2 1550   3.906   4.247   5.023
  529TIP3    H1 1551   3.968   4.214   4.959
  529TIP3    H2 1552   3.825   4.199   5.006
  530TIP3   OH2 1553   4.678   5.911   2.577
  530TIP3    H1 1554   4.725   5.927   2.496
  530TIP3    H2 1555   4.687   5.817   2.592
  531TIP3   OH2 1556   5.234   4.234   4.975
  531TIP3    H1 1557   5.308   4.187   5.013
  531TIP3    H2 1558   5.165   4.228   5.041
  532TIP3   OH2 1559   1.839   4.125   5.443
  532TIP3    H1 1560   1.761   4.154   5.395
  532TIP3    H2 1561   1.805   4.089   5.524
  533TIP3   OH2 1562   0.263   6.670   1.583
  533TIP3    H1 1563   0.284   6.761   1.602
  533TIP3    H2 1564   0.324   6.619   1.636
  534TIP3   OH2 1565   5.545   2.344   2.682
  534TIP3    H1 1566   5.500   2.386   2.756
  534TIP3    H2 1567   5.545   2.251   2.703
  535TIP3   OH2 1568   5.431   2.645   5.920
  535TIP3    H1 1569   5.434   2.636   5.825
  535TIP3    H2 1570   5.355   2.595   5.947
  536TIP3   OH2 1571   0.029   3.610   5.793
  536TIP3    H1 1572   0.066   3.629   5.707
  536TIP3    H2 1573   0.054   3.685   5.847
  537TIP3   OH2 1574   6.924   1.564   1.668
  537TIP3    H1 1575   6.831   1.544   1.677
  537TIP3    H2 1576   6.929   1.628   1.598
  538TIP3   OH2 1577   2.449   6.784   1.692
  538TIP3    H1 1578   2.544   6.789   1.698
  538TIP3    H2 1579   2.430   6.790   1.599
  539TIP3   OH2 1580   0.674   4.945   3.660
  539TIP3    H1 1581   0.726   4.982   3.732
  539TIP3    H2 1582   0.584   4.972   3.679
  540TIP3   OH2 1583   1.407   5.260   0.826
  540TIP3    H1 1584   1.417   5.306   0.909
  540TIP3    H2 1585   1.426   5.326   0.760
  541TIP3   OH2 1586   6.881   0.519   3.021
  541TIP3    H1 1587   6.793   0.482   3.016
  541TIP3    H2 1588   6.868   0.613   3.030
  542TIP3   OH2 1589   3.384   2.739   1.286
  542TIP3    H1 1590   3.417   2.827   1.305
  542TIP3    H2 1591   3.289   2.748   1.286
  543TIP3   OH2 1592   1.226   3.416   1.118
  543TIP3    H1 1593   1.260   3.414   1.208
  543TIP3    H2 1594   1.142   3.461   1.126
  544TIP3   OH2 1595   2.940   5.344   0.486
  544TIP3    H1 1596   2.856   5.377   0.518
  544TIP3    H2 1597   2.921   5.307   0.400
  545TIP3   OH2 1598   5.510   6.581   1.050
  545TIP3    H1 1599   5.443   6.568   1.117
  545TIP3    H2 1600   5.513   6.498   1.003
  546TIP3   OH2 1601   5.269   5.217   1.617
  546TIP3    H1 1602   5.279   5.131   1.576
  546TIP3    H2 1603   5.174   5.231   1.621
  547TIP3   OH2 1604   2.447   4.708   3.195
  547TIP3    H1 1605   2.420   4.753   3.275
  547TIP3    H2 1606   2.503   4.636   3.225
  548TIP3   OH2 1607   3.091   4.517   3.550
  548TIP3    H1 1608   3.107   4.563   3.468
  548TIP3    H2 1609   3.083   4.425   3.526
  549TIP3   OH2 1610   3.290   6.722   1.492
  549TIP3    H1 1611   3.350   6.697   1.422
  549TIP3    H2 1612   3.242   6.642   1.512
  550TIP3   OH2 1613   3.247   1.215   1.796
  550TIP3    H1 1614   3.278   1.133   1.835
  550TIP3    H2 1615   3.309   1.281   1.827
  551TIP3   OH2 1616   6.831   3.377   0.619
  551TIP3    H1 1617   6.736   3.392   0.613
  551TIP3    H2 1618   6.854   3.406   0.707
  552TIP3   OH2 1619   1.885   1.759   4.083
  552TIP3    H1 1620   1.839   1.830   4.128
  552TIP3    H2 1621   1.963   1.744   4.137
  553TIP3   OH2 1622   6.726   4.095   4.979
  553TIP3    H1 1623   6.757   4.027   5.039
  553TIP3    H2 1624   6.643   4.062   4.946
  554TIP3   OH2 1625   0.767   2.961   4.142
  554TIP3    H1 1626   0.712   3.038   4.124
  554TIP3    H2 1627   0.785   2.966   4.236
  555TIP3   OH2 1628   5.445   5.921   3.093
  555TIP3    H1 1629   5.374   5.952   3.149
  555TIP3    H2 1630   5.425   5.958   3.007
  556TIP3   OH2 1631   0.498   4.640   0.680
  556TIP3    H1 1632   0.544   4.572   0.630
  556TIP3    H2 1633   0.567   4.698   0.711
  557TIP3   OH2 1634   6.575   3.499  -0.029
  557TIP3    H1 1635   6.657   3.463   0.006
  557TIP3    H2 1636   6.579   3.481  -0.123
  558TIP3   OH2 1637   4.426   0.635   3.098
  558TIP3    H1 1638   4.497   0.573   3.116
  558TIP3    H2 1639   4.346   0.585   3.116
  559TIP3   OH2 1640   4.583   1.472   0.664
  559TIP3    H1 1641   4.569   1.425   0.581
  559TIP3    H2 1642   4.505   1.452   0.716
  560TIP3   OH2 1643   4.309   3.256   2.380
  560TIP3    H1 1644   4.227   3.233   2.335
  560TIP3    H2 1645   4.334   3.340   2.342
  561TIP3   OH2 1646   2.075   3.182   3.492
  561TIP3    H1 1647   2.121   3.156   3.571
  561TIP3    H2 1648   2.131   3.152   3.420
  562TIP3   OH2 1649   5.686   3.305   2.613
  562TIP3    H1 1650   5.601   3.329   2.576
  562TIP3    H2 1651   5.722   3.387   2.647
  563TIP3   OH2 1652   2.925   4.269   2.558
  563TIP3    H1 1653   2.986   4.316   2.501
  563TIP3    H2 1654   2.891   4.336   2.616
  564TIP3   OH2 1655   0.161   4.689   4.513
  564TIP3    H1 1656   0.235   4.655   4.463
  564TIP3    H2 1657   0.093   4.622   4.504
  565TIP3   OH2 1658   2.429   6.175   0.899
  565TIP3    H1 1659   2.497   6.230   0.859
  565TIP3    H2 1660   2.474   6.093   0.919
  566TIP3   OH2 1661   1.946   6.360   2.523
  566TIP3    H1 1662   1.915   6.422   2.589
  566TIP3    H2 1663   1.887   6.286   2.529
  567TIP3   OH2 1664   5.169   1.034   0.562
  567TIP3    H1 1665   5.178   0.984   0.643
  567TIP3    H2 1666   5.085   1.006   0.526
  568TIP3   OH2 1667   4.359   0.610   1.049
  568TIP3    H1 1668   4.448   0.645   1.044
  568TIP3    H2 1669   4.356   0.541   0.983
  569TIP3   OH2 1670   1.896   4.954   3.053
  569TIP3    H1 1671   1.868   4.865   3.074
  569TIP3    H2 1672   1.863   4.969   2.964
  570TIP3   OH2 1673   6.595   0.549   2.308
  570TIP3    H1 1674   6.688   0.565   2.291
  570TIP3    H2 1675   6.550   0.606   2.245
  571TIP3   OH2 1676   1.487   6.231   4.877
  571TIP3    H1 1677   1.402   6.239   4.920
  571TIP3    H2 1678   1.548   6.207   4.946
  572TIP3   OH2 1679   1.515   3.939   3.913
  572TIP3    H1 1680   1.541   3.887   3.989
  572TIP3    H2 1681   1.592   3.938   3.856
  573TIP3   OH2 1682   1.823   2.734   5.790
  573TIP3    H1 1683   1.813   2.823   5.758
  573TIP3    H2 1684   1.807   2.740   5.884
  574TIP3   OH2 1685   1.610   2.638   5.600
  574TIP3    H1 1686   1.635   2.636   5.508
  574TIP3    H2 1687   1.674   2.697   5.641
  575TIP3   OH2 1688   1.196   0.509   4.684
  575TIP3    H1 1689   1.106   0.513   4.715
  575TIP3    H2 1690   1.222   0.418   4.698
  576TIP3   OH2 1691   4.139   1.502   1.793
  576TIP3    H1 1692   4.130   1.411   1.824
  576TIP3    H2 1693   4.084   1.506   1.715
  577TIP3   OH2 1694   4.711   4.225   3.373
  577TIP3    H1 1695   4.804   4.204   3.383
  577TIP3    H2 1696   4.701   4.308   3.420
  578TIP3   OH2 1697   6.489   4.425   5.073
  578TIP3    H1 1698   6.459   4.502   5.122
  578TIP3    H2 1699   6.585   4.432   5.074
  579TIP3   OH2 1700   2.103   2.652   1.756
  579TIP3    H1 1701   2.104   2.583   1.689
  579TIP3    H2 1702   2.047   2.617   1.825
  580TIP3   OH2 1703   5.561   5.612   5.098
  580TIP3    H1 1704   5.467   5.592   5.105
  580TIP3    H2 1705   5.593   5.608   5.188
  581TIP3   OH2 1706   4.107   4.665   1.645
  581TIP3    H1 1707   4.184   4.697   1.599
  581TIP3    H2 1708   4.035   4.720   1.612
  582TIP3   OH2 1709   5.016   3.570   4.599
  582TIP3    H1 1710   4.933   3.538   4.636
  582TIP3    H2 1711   5.020   3.662   4.624
  583TIP3   OH2 1712   4.262   2.347   5.248
  583TIP3    H1 1713   4.346   2.357   5.202
  583TIP3    H2 1714   4.285   2.347   5.341
  584TIP3   OH2 1715   1.833   5.499   2.225
  584TIP3    H1 1716   1.834   5.494   2.321
  584TIP3    H2 1717   1.742   5.481   2.201
  585TIP3   OH2 1718   3.865   3.909   1.903
  585TIP3    H1 1719   3.953   3.940   1.924
  585TIP3    H2 1720   3.880   3.826   1.857
  586TIP3   OH2 1721   6.134   6.435   0.998
  586TIP3    H1 1722   6.077   6.409   0.926
  586TIP3    H2 1723   6.090   6.510   1.038
  587TIP3   OH2 1724   1.648   5.597   2.827
  587TIP3    H1 1725   1.678   5.678   2.869
  587TIP3    H2 1726   1.619   5.542   2.900
  588TIP3   OH2 1727   6.122   4.869   0.433
  588TIP3    H1 1728   6.055   4.917   0.385
  588TIP3    H2 1729   6.078   4.790   0.464
  589TIP3   OH2 1730   3.288   2.150   1.687
  589TIP3    H1 1731   3.303   2.169   1.780
  589TIP3    H2 1732   3.374   2.155   1.647
  590TIP3   OH2 1733   0.819   4.378  -0.005
  590TIP3    H1 1734   0.908   4.344   0.001
  590TIP3    H2 1735   0.818   4.428  -0.087
  591TIP3   OH2 1736   5.628   0.495   0.688
  591TIP3    H1 1737   5.615   0.433   0.760
  591TIP3    H2 1738   5.699   0.457   0.637
  592TIP3   OH2 1739   4.238   3.333   0.430
  592TIP3    H1 1740   4.290   3.259   0.460
  592TIP3    H2 1741   4.170   3.294   0.375
  593TIP3   OH2 1742   0.356   1.309   1.883
  593TIP3    H1 1743   0.412   1.319   1.806
  593TIP3    H2 1744   0.381   1.225   1.920
  594TIP3   OH2 1745   0.231   3.533   2.609
  594TIP3    H1 1746   0.277   3.617   2.617
  594TIP3    H2 1747   0.192   3.519   2.695
  595TIP3   OH2 1748   1.519   2.624   0.026
  595TIP3    H1 1749   1.556   2.569   0.094
  595TIP3    H2 1750   1.426   2.630   0.047
  596TIP3   OH2 1751   2.525   0.135   4.890
  596TIP3    H1 1752   2.584   0.122   4.964
  596TIP3    H2 1753   2.487   0.222   4.903
  597TIP3   OH2 1754   6.096   4.580   5.701
  597TIP3    H1 1755   6.104   4.643   5.773
  597TIP3    H2 1756   6.137   4.500   5.735
  598TIP3   OH2 1757   1.040   4.381   4.666
  598TIP3    H1 1758   1.085   4.402   4.583
  598TIP3    H2 1759   0.952   4.417   4.655
  599TIP3   OH2 1760   7.131   3.600   4.782
  599TIP3    H1 1761   7.080   3.588   4.702
  599TIP3    H2 1762   7.085   3.668   4.831
  600TIP3   OH2 1763   3.052   2.089   0.826
  600TIP3    H1 1764   3.043   2.171   0.779
  600TIP3    H2 1765   3.147   2.076   0.833
  601TIP3   OH2 1766   5.649   2.231   2.213
  601TIP3    H1 1767   5.716   2.164   2.198
  601TIP3    H2 1768   5.658   2.253   2.305
  602TIP3   OH2 1769   3.797   0.526   2.080
  602TIP3    H1 1770   3.809   0.493   1.991
  602TIP3    H2 1771   3.784   0.448   2.133
  603TIP3   OH2 1772   2.276   3.736   3.989
  603TIP3    H1 1773   2.239   3.823   3.974
  603TIP3    H2 1774   2.283   3.698   3.902
  604TIP3   OH2 1775   6.637   3.895   3.305
  604TIP3    H1 1776   6.570   3.954   3.341
  604TIP3    H2 1777   6.664   3.937   3.224
  605TIP3   OH2 1778   6.584   2.133   5.893
  605TIP3    H1 1779   6.660   2.134   5.834
  605TIP3    H2 1780   6.521   2.190   5.850
  606TIP3   OH2 1781   5.079   2.960   5.065
  606TIP3    H1 1782   5.173   2.965   5.044
  606TIP3    H2 1783   5.054   2.872   5.040
  607TIP3   OH2 1784   0.364   2.398   3.357
  607TIP3    H1 1785   0.459   2.395   3.351
  607TIP3    H2 1786   0.346   2.450   3.435
  608TIP3   OH2 1787   6.704   4.952   4.005
  608TIP3    H1 1788   6.632   4.994   3.957
  608TIP3    H2 1789   6.782   5.001   3.978
  609TIP3   OH2 1790   4.749   0.484   5.678
  609TIP3    H1 1791   4.673   0.510   5.731
  609TIP3    H2 1792   4.742   0.389   5.671
  610TIP3   OH2 1793   3.609   1.494   1.665
  610TIP3    H1 1794   3.683   1.522   1.611
  610TIP3    H2 1795   3.623   1.400   1.678
  611TIP3   OH2 1796   0.771   4.941   5.446
  611TIP3    H1 1797   0.750   4.949   5.353
  611TIP3    H2 1798   0.840   5.006   5.461
  612TIP3   OH2 1799   5.444   0.283   0.567
  612TIP3    H1 1800   5.386   0.319   0.634
  612TIP3    H2 1801   5.427   0.337   0.490
  613TIP3   OH2 1802   4.368   0.492   4.368
  613TIP3    H1 1803   4.286   0.474   4.322
  613TIP3    H2 1804   4.380   0.416   4.425
  614TIP3   OH2 1805   4.060   0.550   1.277
  614TIP3    H1 1806   4.048   0.572   1.369
  614TIP3    H2 1807   4.146   0.509   1.272
  615TIP3   OH2 1808   6.078   3.475   1.528
  615TIP3    H1 1809   6.024   3.554   1.530
  615TIP3    H2 1810   6.016   3.403   1.519
  616TIP3   OH2 1811   6.918   4.213   0.844
  616TIP3    H1 1812   6.875   4.244   0.923
  616TIP3    H2 1813   6.995   4.165   0.875
  617TIP3   OH2 1814   2.258   6.263   3.656
  617TIP3    H1 1815   2.235   6.242   3.565
  617TIP3    H2 1816   2.261   6.179   3.700
  618TIP3   OH2 1817   1.017   4.950   2.267
  618TIP3    H1 1818   1.051   4.923   2.352
  618TIP3    H2 1819   0.922   4.938   2.274
  619TIP3   OH2 1820   3.288   1.870   4.674
  619TIP3    H1 1821   3.382   1.869   4.659
  619TIP3    H2 1822   3.251   1.905   4.592
  620TIP3   OH2 1823   4.596   4.530   0.389
  620TIP3    H1 1824   4.654   4.563   0.320
  620TIP3    H2 1825   4.530   4.479   0.342
  621TIP3   OH2 1826   1.761   2.661   5.374
  621TIP3    H1 1827   1.697   2.641   5.306
  621TIP3    H2 1828   1.845   2.659   5.329
  622TIP3   OH2 1829   5.904   2.170   0.607
  622TIP3    H1 1830   5.913   2.120   0.525
  622TIP3    H2 1831   5.864   2.252   0.581
  623TIP3   OH2 1832   1.827   6.288   3.064
  623TIP3    H1 1833   1.734   6.306   3.077
  623TIP3    H2 1834   1.870   6.330   3.139
  624TIP3   OH2 1835   3.951   3.836   1.577
  624TIP3    H1 1836   3.885   3.840   1.508
  624TIP3    H2 1837   3.908   3.790   1.649
  625TIP3   OH2 1838   4.706   2.819   3.394
  625TIP3    H1 1839   4.612   2.810   3.404
  625TIP3    H2 1840   4.731   2.886   3.457
  626TIP3   OH2 1841   6.685   1.517   4.325
  626TIP3    H1 1842   6.674   1.424   4.345
  626TIP3    H2 1843   6.779   1.530   4.318
  627TIP3   OH2 1844   4.806   6.333   1.421
  627TIP3    H1 1845   4.787   6.275   1.496
  627TIP3    H2 1846   4.870   6.284   1.369
  628TIP3   OH2 1847   7.069   6.181   5.315
  628TIP3    H1 1848   7.053   6.165   5.408
  628TIP3    H2 1849   7.043   6.272   5.301
  629TIP3   OH2 1850   1.849   4.726   4.365
  629TIP3    H1 1851   1.777   4.777   4.329
  629TIP3    H2 1852   1.916   4.726   4.296
  630TIP3   OH2 1853   1.327   2.058   1.971
  630TIP3    H1 1854   1.384   1.989   2.004
  630TIP3    H2 1855   1.334   2.128   2.037
  631TIP3   OH2 1856   5.344   1.935   0.480
  631TIP3    H1 1857   5.367   2.005   0.542
  631TIP3    H2 1858   5.421   1.879   0.478
  632TIP3   OH2 1859   0.319   0.363   5.249
  632TIP3    H1 1860   0.381   0.399   5.186
  632TIP3    H2 1861   0.256   0.434   5.264
  633TIP3   OH2 1862   5.808   1.459   4.327
  633TIP3    H1 1863   5.825   1.376   4.372
  633TIP3    H2 1864   5.848   1.526   4.383
  634TIP3   OH2 1865   0.990   1.991   4.646
  634TIP3    H1 1866   0.943   1.940   4.712
  634TIP3    H2 1867   0.942   1.975   4.565
  635TIP3   OH2 1868   5.082   3.756   3.442
  635TIP3    H1 1869   5.028   3.764   3.521
  635TIP3    H2 1870   5.082   3.663   3.422
  636TIP3   OH2 1871   3.635   3.365   4.778
  636TIP3    H1 1872   3.691   3.403   4.710
  636TIP3    H2 1873   3.669   3.277   4.791
  637TIP3   OH2 1874   6.042   5.729   5.316
  637TIP3    H1 1875   6.060   5.650   5.366
  637TIP3    H2 1876   5.961   5.708   5.268
  638TIP3   OH2 1877   0.174   3.308   5.066
  638TIP3    H1 1878   0.118   3.261   5.005
  638TIP3    H2 1879   0.236   3.355   5.010
  639TIP3   OH2 1880   5.413   2.954   4.979
  639TIP3    H1 1881   5.455   2.957   4.894
  639TIP3    H2 1882   5.392   2.861   4.992
  640TIP3   OH2 1883   3.567   0.573   3.832
  640TIP3    H1 1884   3.652   0.535   3.853
  640TIP3    H2 1885   3.504   0.522   3.884
  641TIP3   OH2 1886   5.759   0.953   1.526
  641TIP3    H1 1887   5.669   0.925   1.506
  641TIP3    H2 1888   5.775   0.920   1.614
  642TIP3   OH2 1889   5.887   4.704   2.120
  642TIP3    H1 1890   5.891   4.615   2.155
  642TIP3    H2 1891   5.829   4.698   2.044
  643TIP3   OH2 1892   3.204   6.645   5.561
  643TIP3    H1 1893   3.143   6.660   5.488
  643TIP3    H2 1894   3.147   6.634   5.637
  644TIP3   OH2 1895   2.361   4.556   5.289
  644TIP3    H1 1896   2.353   4.639   5.336
  644TIP3    H2 1897   2.436   4.567   5.231
  645TIP3   OH2 1898   3.216   6.779   2.320
  645TIP3    H1 1899   3.277   6.724   2.270
  645TIP3    H2 1900   3.133   6.731   2.317
  646TIP3   OH2 1901   5.307   4.692   5.127
  646TIP3    H1 1902   5.302   4.629   5.055
  646TIP3    H2 1903   5.262   4.650   5.200
  647TIP3   OH2 1904   3.649   0.972   4.952
  647TIP3    H1 1905   3.595   0.895   4.937
  647TIP3    H2 1906   3.721   0.964   4.889
  648TIP3   OH2 1907   0.552   4.726   4.252
  648TIP3    H1 1908   0.496   4.803   4.253
  648TIP3    H2 1909   0.507   4.662   4.307
  649TIP3   OH2 1910   2.494   0.584   4.656
  649TIP3    H1 1911   2.447   0.531   4.591
  649TIP3    H2 1912   2.460   0.673   4.643
  650TIP3   OH2 1913   4.079   2.992   0.305
  650TIP3    H1 1914   4.134   2.965   0.379
  650TIP3    H2 1915   4.012   3.049   0.344
  651TIP3   OH2 1916   1.765   0.938   4.468
  651TIP3    H1 1917   1.692   0.984   4.426
  651TIP3    H2 1918   1.722   0.872   4.523
  652TIP3   OH2 1919   3.711   2.526   0.522
  652TIP3    H1 1920   3.656   2.580   0.578
  652TIP3    H2 1921   3.778   2.586   0.490
  653TIP3   OH2 1922   5.643   5.851   3.911
  653TIP3    H1 1923   5.609   5.857   3.822
  653TIP3    H2 1924   5.647   5.942   3.942
  654TIP3   OH2 1925   2.658   2.012   3.570
  654TIP3    H1 1926   2.645   1.921   3.544
  654TIP3    H2 1927   2.631   2.014   3.662
  655TIP3   OH2 1928   0.848   5.832   0.190
  655TIP3    H1 1929   0.914   5.816   0.257
  655TIP3    H2 1930   0.798   5.906   0.222
  656TIP3   OH2 1931   2.761   6.628   1.739
  656TIP3    H1 1932   2.772   6.540   1.703
  656TIP3    H2 1933   2.808   6.685   1.679
  657TIP3   OH2 1934   5.430   3.448   5.026
  657TIP3    H1 1935   5.447   3.517   4.962
  657TIP3    H2 1936   5.340   3.420   5.009
  658TIP3   OH2 1937   3.369   4.794   4.748
  658TIP3    H1 1938   3.307   4.762   4.813
  658TIP3    H2 1939   3.318   4.802   4.668
  659TIP3   OH2 1940   6.084   4.959   4.620
  659TIP3    H1 1941   6.114   5.050   4.615
  659TIP3    H2 1942   5.994   4.961   4.586
  660TIP3   OH2 1943   1.252   2.829   3.056
  660TIP3    H1 1944   1.304   2.892   3.008
  660TIP3    H2 1945   1.293   2.744   3.038
  661TIP3   OH2 1946   5.931   2.865   4.419
  661TIP3    H1 1947   5.973   2.795   4.470
  661TIP3    H2 1948   5.943   2.944   4.472
  662TIP3   OH2 1949   0.078   1.794   1.304
  662TIP3    H1 1950   0.063   1.813   1.211
  662TIP3    H2 1951   0.052   1.874   1.349
  663TIP3   OH2 1952   1.549   1.833   3.210
  663TIP3    H1 1953   1.465   1.786   3.206
  663TIP3    H2 1954   1.601   1.784   3.274
  664TIP3   OH2 1955   6.622   1.000   5.750
  664TIP3    H1 1956   6.600   0.984   5.842
  664TIP3    H2 1957   6.717   1.007   5.748
  665TIP3   OH2 1958   4.057   1.869   5.086
  665TIP3    H1 1959   4.098   1.873   5.000
  665TIP3    H2 1960   3.990   1.938   5.084
  666TIP3   OH2 1961   2.935   0.114   2.754
  666TIP3    H1 1962   2.991   0.109   2.677
  666TIP3    H2 1963   2.995   0.129   2.827
  667TIP3   OH2 1964   1.410   6.015   2.191
  667TIP3    H1 1965   1.418   6.110   2.180
  667TIP3    H2 1966   1.419   5.980   2.103
  668TIP3   OH2 1967   4.589   0.726   1.417
  668TIP3    H1 1968   4.590   0.657   1.483
  668TIP3    H2 1969   4.581   0.807   1.467
  669TIP3   OH2 1970   2.082   3.787   2.642
  669TIP3    H1 1971   1.996   3.773   2.682
  669TIP3    H2 1972   2.086   3.723   2.571
  670TIP3   OH2 1973   0.449   5.618   2.855
  670TIP3    H1 1974   0.477   5.708   2.869
  670TIP3    H2 1975   0.501   5.566   2.917
  671TIP3   OH2 1976   2.908   4.597   3.205
  671TIP3    H1 1977   2.924   4.628   3.116
  671TIP3    H2 1978   2.989   4.616   3.252
  672TIP3   OH2 1979   1.539   1.522   5.737
  672TIP3    H1 1980   1.464   1.580   5.721
  672TIP3    H2 1981   1.563   1.539   5.828
  673TIP3   OH2 1982   1.487   0.476   0.161
  673TIP3    H1 1983   1.494   0.416   0.236
  673TIP3    H2 1984   1.565   0.458   0.109
  674TIP3   OH2 1985   6.208   5.750   4.175
  674TIP3    H1 1986   6.303   5.744   4.186
  674TIP3    H2 1987   6.185   5.836   4.212
  675TIP3   OH2 1988   7.222   5.265   0.265
  675TIP3    H1 1989   7.173   5.320   0.325
  675TIP3    H2 1990   7.161   5.246   0.194
  676TIP3   OH2 1991   3.826   4.545   2.698
  676TIP3    H1 1992   3.857   4.483   2.764
  676TIP3    H2 1993   3.787   4.617   2.747
  677TIP3   OH2 1994   5.462   6.418   4.963
  677TIP3    H1 1995   5.443   6.336   4.919
  677TIP3    H2 1996   5.432   6.486   4.903
  678TIP3   OH2 1997   3.665   2.581   4.466
  678TIP3    H1 1998   3.661   2.676   4.453
  678TIP3    H2 1999   3.756   2.558   4.449
  679TIP3   OH2 2000   0.505   4.537   5.663
  679TIP3    H1 2001   0.515   4.632   5.664
  679TIP3    H2 2002   0.425   4.520   5.712
  680TIP3   OH2 2003   1.450   5.427   1.048
  680TIP3    H1 2004   1.509   5.409   1.122
  680TIP3    H2 2005   1.381   5.482   1.084
  681TIP3   OH2 2006   6.993   4.306   1.755
  681TIP3    H1 2007   7.009   4.390   1.799
  681TIP3    H2 2008   6.972   4.330   1.665
  682TIP3   OH2 2009   3.475   2.409   3.428
  682TIP3    H1 2010   3.498   2.452   3.345
  682TIP3    H2 2011   3.380   2.416   3.432
  683TIP3   OH2 2012   5.052   2.878   5.926
  683TIP3    H1 2013   5.095   2.847   5.846
  683TIP3    H2 2014   4.959   2.875   5.907
  684TIP3   OH2 2015   4.103   0.490   4.561
  684TIP3    H1 2016   4.149   0.556   4.509
  684TIP3    H2 2017   4.046   0.541   4.619
  685TIP3   OH2 2018   1.338   1.826   5.459
  685TIP3    H1 2019   1.379   1.889   5.518
  685TIP3    H2 2020   1.253   1.864   5.438
  686TIP3   OH2 2021   0.839   3.690   2.371
  686TIP3    H1 2022   0.838   3.594   2.379
  686TIP3    H2 2023   0.917   3.708   2.318
  687TIP3   OH2 2024   2.112   3.254   2.589
  687TIP3    H1 2025   2.167   3.206   2.527
  687TIP3    H2 2026   2.023   3.240   2.557
  688TIP3   OH2 2027   2.470   5.275   2.441
  688TIP3    H1 2028   2.381   5.277   2.477
  688TIP3    H2 2029   2.503   5.188   2.464
  689TIP3   OH2 2030   5.034   6.041   5.564
  689TIP3    H1 2031   5.043   6.029   5.658
  689TIP3    H2 2032   5.056   5.956   5.526
  690TIP3   OH2 2033   3.645   0.871   3.620
  690TIP3    H1 2034   3.642   0.948   3.564
  690TIP3    H2 2035   3.679   0.802   3.563
  691TIP3   OH2 2036   4.553   3.714   1.800
  691TIP3    H1 2037   4.644   3.742   1.808
  691TIP3    H2 2038   4.527   3.692   1.890
  692TIP3   OH2 2039   1.208   0.173   4.469
  692TIP3    H1 2040   1.147   0.222   4.524
  692TIP3    H2 2041   1.294   0.209   4.490
  693TIP3   OH2 2042   3.079   1.829   1.350
  693TIP3    H1 2043   3.159   1.791   1.314
  693TIP3    H2 2044   3.018   1.755   1.356
  694TIP3   OH2 2045   3.967   4.561   0.407
  694TIP3    H1 2046   3.943   4.598   0.491
  694TIP3    H2 2047   4.047   4.511   0.424
  695TIP3   OH2 2048   4.197   5.392   3.011
  695TIP3    H1 2049   4.122   5.334   3.003
  695TIP3    H2 2050   4.197   5.419   3.103
  696TIP3   OH2 2051   6.517   4.156   0.569
  696TIP3    H1 2052   6.575   4.083   0.553
  696TIP3    H2 2053   6.475   4.174   0.485
  697TIP3   OH2 2054   5.939   3.647   4.585
  697TIP3    H1 2055   5.925   3.736   4.553
  697TIP3    H2 2056   6.033   3.643   4.604
  698TIP3   OH2 2057   2.648   6.641   4.166
  698TIP3    H1 2058   2.554   6.651   4.178
  698TIP3    H2 2059   2.658   6.552   4.131
  699TIP3   OH2 2060   0.886   3.643   1.867
  699TIP3    H1 2061   0.797   3.678   1.859
  699TIP3    H2 2062   0.877   3.550   1.843
  700TIP3   OH2 2063   5.962   5.608   1.984
  700TIP3    H1 2064   5.990   5.550   2.055
  700TIP3    H2 2065   6.025   5.591   1.913
  701TIP3   OH2 2066   6.673   0.427   3.624
  701TIP3    H1 2067   6.665   0.470   3.539
  701TIP3    H2 2068   6.602   0.462   3.676
  702TIP3   OH2 2069   7.201   3.174   5.332
  702TIP3    H1 2070   7.186   3.110   5.401
  702TIP3    H2 2071   7.114   3.199   5.303
  703TIP3   OH2 2072   4.759   1.448   2.669
  703TIP3    H1 2073   4.698   1.456   2.596
  703TIP3    H2 2074   4.708   1.408   2.739
  704TIP3   OH2 2075   0.158   1.207   4.898
  704TIP3    H1 2076   0.105   1.158   4.962
  704TIP3    H2 2077   0.248   1.183   4.920
  705TIP3   OH2 2078   1.210   6.467   4.030
  705TIP3    H1 2079   1.123   6.480   4.069
  705TIP3    H2 2080   1.194   6.470   3.935
  706TIP3   OH2 2081   2.023   3.613   2.447
  706TIP3    H1 2082   1.933   3.646   2.454
  706TIP3    H2 2083   2.013   3.523   2.419
  707TIP3   OH2 2084   3.382   6.393   2.902
  707TIP3    H1 2085   3.446   6.429   2.963
  707TIP3    H2 2086   3.335   6.469   2.869
  708TIP3   OH2 2087   6.284   2.831   4.946
  708TIP3    H1 2088   6.301   2.755   4.891
  708TIP3    H2 2089   6.304   2.906   4.890
  709TIP3   OH2 2090   4.066   6.427   3.581
  709TIP3    H1 2091   4.126   6.382   3.640
  709TIP3    H2 2092   4.084   6.390   3.495
  710TIP3   OH2 2093   4.259   0.716   3.548
  710TIP3    H1 2094   4.352   0.699   3.562
  710TIP3    H2 2095   4.224   0.730   3.636
  711TIP3   OH2 2096   4.897   0.336   3.208
  711TIP3    H1 2097   4.964   0.402   3.225
  711TIP3    H2 2098   4.929   0.287   3.133
  712TIP3   OH2 2099   0.265   3.489   1.626
  712TIP3    H1 2100   0.172   3.515   1.630
  712TIP3    H2 2101   0.290   3.478   1.718
  713TIP3   OH2 2102   4.668   0.867   0.487
  713TIP3    H1 2103   4.636   0.784   0.523
  713TIP3    H2 2104   4.758   0.848   0.459
  714TIP3   OH2 2105   1.225   5.711   2.380
  714TIP3    H1 2106   1.270   5.638   2.423
  714TIP3    H2 2107   1.225   5.688   2.287
  715TIP3   OH2 2108   6.398   2.129   2.789
  715TIP3    H1 2109   6.456   2.054   2.802
  715TIP3    H2 2110   6.448   2.204   2.821
  716TIP3   OH2 2111   2.066   3.472   3.516
  716TIP3    H1 2112   2.148   3.501   3.477
  716TIP3    H2 2113   2.065   3.377   3.502
  717TIP3   OH2 2114   3.436   0.565   3.601
  717TIP3    H1 2115   3.491   0.566   3.679
  717TIP3    H2 2116   3.496   0.538   3.531
  718TIP3   OH2 2117   3.894   1.584   1.979
  718TIP3    H1 2118   3.977   1.612   1.940
  718TIP3    H2 2119   3.828   1.637   1.934
  719TIP3   OH2 2120   5.201   3.705   1.412
  719TIP3    H1 2121   5.180   3.642   1.480
  719TIP3    H2 2122   5.120   3.753   1.397
  720TIP3   OH2 2123   0.692   0.367   1.152
  720TIP3    H1 2124   0.737   0.285   1.173
  720TIP3    H2 2125   0.738   0.399   1.074
  721TIP3   OH2 2126   5.044   4.823   3.819
  721TIP3    H1 2127   5.111   4.889   3.833
  721TIP3    H2 2128   5.088   4.755   3.767
  722TIP3   OH2 2129   1.005   4.063   1.534
  722TIP3    H1 2130   1.012   3.968   1.527
  722TIP3    H2 2131   1.038   4.096   1.450
  723TIP3   OH2 2132   4.130   5.481   5.424
  723TIP3    H1 2133   4.176   5.565   5.427
  723TIP3    H2 2134   4.042   5.500   5.457
  724TIP3   OH2 2135   7.162   4.495   1.237
  724TIP3    H1 2136   7.096   4.433   1.266
  724TIP3    H2 2137   7.236   4.440   1.210
  725TIP3   OH2 2138   4.175   2.438   1.262
  725TIP3    H1 2139   4.191   2.500   1.191
  725TIP3    H2 2140   4.081   2.443   1.279
  726TIP3   OH2 2141   5.848   3.256   4.686
  726TIP3    H1 2142   5.803   3.341   4.692
  726TIP3    H2 2143   5.927   3.275   4.635
  727TIP3   OH2 2144   1.688   6.764   4.490
  727TIP3    H1 2145   1.763   6.774   4.432
  727TIP3    H2 2146   1.678   6.849   4.531
  728TIP3   OH2 2147   2.127   1.415   5.703
  728TIP3    H1 2148   2.158   1.433   5.792
  728TIP3    H2 2149   2.076   1.334   5.711
  729TIP3   OH2 2150   4.670   5.305   5.364
  729TIP3    H1 2151   4.601   5.357   5.404
  729TIP3    H2 2152   4.750   5.333   5.408
  730TIP3   OH2 2153   5.271   5.442   2.436
  730TIP3    H1 2154   5.225   5.370   2.393
  730TIP3    H2 2155   5.363   5.415   2.436
  731TIP3   OH2 2156   2.956   6.537   3.635
  731TIP3    H1 2157   2.876   6.536   3.582
  731TIP3    H2 2158   3.014   6.598   3.589
  732TIP3   OH2 2159   2.438   1.444   2.054
  732TIP3    H1 2160   2.353   1.471   2.020
  732TIP3    H2 2161   2.480   1.398   1.981
  733TIP3   OH2 2162   6.528   4.990   3.317
  733TIP3    H1 2163   6.450   5.021   3.363
  733TIP3    H2 2164   6.496   4.960   3.233
  734TIP3   OH2 2165   2.747   3.962   1.265
  734TIP3    H1 2166   2.814   3.930   1.326
  734TIP3    H2 2167   2.732   4.052   1.292
  735TIP3   OH2 2168   2.952   1.159   1.172
  735TIP3    H1 2169   2.934   1.163   1.078
  735TIP3    H2 2170   3.041   1.195   1.180
  736TIP3   OH2 2171   6.909   1.494   5.189
  736TIP3    H1 2172   6.904   1.577   5.141
  736TIP3    H2 2173   6.818   1.473   5.209
  737TIP3   OH2 2174   3.556   6.491   3.132
  737TIP3    H1 2175   3.638   6.524   3.169
  737TIP3    H2 2176   3.529   6.421   3.192
  738TIP3   OH2 2177   2.357   3.377   2.592
  738TIP3    H1 2178   2.261   3.371   2.586
  738TIP3    H2 2179   2.377   3.467   2.566
  739TIP3   OH2 2180   3.585   4.065   3.916
  739TIP3    H1 2181   3.620   3.987   3.959
  739TIP3    H2 2182   3.557   4.122   3.987
  740TIP3   OH2 2183   3.479   6.453   5.245
  740TIP3    H1 2184   3.532   6.375   5.226
  740TIP3    H2 2185   3.392   6.432   5.212
  741TIP3   OH2 2186   5.189   3.565   3.766
  741TIP3    H1 2187   5.201   3.528   3.853
  741TIP3    H2 2188   5.146   3.650   3.781
  742TIP3   OH2 2189   2.022   5.069   4.756
  742TIP3    H1 2190   1.958   5.002   4.782
  742TIP3    H2 2191   2.091   5.019   4.711
  743TIP3   OH2 2192   0.925   0.917   1.910
  743TIP3    H1 2193   0.942   0.832   1.868
  743TIP3    H2 2194   0.896   0.894   1.998
  744TIP3   OH2 2195   4.938   3.814   4.751
  744TIP3    H1 2196   5.012   3.852   4.703
  744TIP3    H2 2197   4.928   3.871   4.828
  745TIP3   OH2 2198   1.112   2.900   2.830
  745TIP3    H1 2199   1.141   2.868   2.915
  745TIP3    H2 2200   1.017   2.886   2.831
  746TIP3   OH2 2201   3.584   3.424   3.912
  746TIP3    H1 2202   3.608   3.515   3.930
  746TIP3    H2 2203   3.493   3.418   3.941
  747TIP3   OH2 2204   2.578   1.568   4.800
  747TIP3    H1 2205   2.589   1.581   4.894
  747TIP3    H2 2206   2.666   1.554   4.767
  748TIP3   OH2 2207   5.031   5.999   2.467
  748TIP3    H1 2208   5.080   6.030   2.391
  748TIP3    H2 2209   4.951   5.961   2.431
  749TIP3   OH2 2210   1.541   2.309   0.046
  749TIP3    H1 2211   1.579   2.363   0.116
  749TIP3    H2 2212   1.585   2.224   0.055
  750TIP3   OH2 2213   5.069   6.431   4.280
  750TIP3    H1 2214   5.026   6.380   4.348
  750TIP3    H2 2215   4.999   6.453   4.219
  751TIP3   OH2 2216   4.768   5.646   2.128
  751TIP3    H1 2217   4.798   5.638   2.038
  751TIP3    H2 2218   4.807   5.571   2.174
  752TIP3   OH2 2219   5.522   1.870   2.552
  752TIP3    H1 2220   5.496   1.788   2.593
  752TIP3    H2 2221   5.588   1.845   2.487
  753TIP3   OH2 2222   6.458   4.880   1.340
  753TIP3    H1 2223   6.526   4.879   1.273
  753TIP3    H2 2224   6.465   4.968   1.379
  754TIP3   OH2 2225   2.118   4.545   3.990
  754TIP3    H1 2226   2.039   4.494   3.972
  754TIP3    H2 2227   2.106   4.625   3.939
  755TIP3   OH2 2228   2.232   2.522   3.016
  755TIP3    H1 2229   2.176   2.486   2.948
  755TIP3    H2 2230   2.291   2.451   3.040
  756TIP3   OH2 2231   2.093   5.311   2.391
  756TIP3    H1 2232   2.165   5.372   2.406
  756TIP3    H2 2233   2.016   5.356   2.425
  757TIP3   OH2 2234   4.790   5.559   5.213
  757TIP3    H1 2235   4.778   5.625   5.280
  757TIP3    H2 2236   4.702   5.522   5.200
  758TIP3   OH2 2237   5.404   0.712   1.070
  758TIP3    H1 2238   5.442   0.695   1.157
  758TIP3    H2 2239   5.444   0.795   1.043
  759TIP3   OH2 2240   5.903   1.798   4.383
  759TIP3    H1 2241   5.869   1.770   4.468
  759TIP3    H2 2242   5.891   1.893   4.382
  760TIP3   OH2 2243   1.489   6.740   5.127
  760TIP3    H1 2244   1.518   6.790   5.203
  760TIP3    H2 2245   1.501   6.800   5.053
  761TIP3   OH2 2246   1.589   2.778   0.732
  761TIP3    H1 2247   1.661   2.771   0.795
  761TIP3    H2 2248   1.555   2.867   0.745
  762TIP3   OH2 2249   0.401   6.019   4.954
  762TIP3    H1 2250   0.325   6.029   5.011
  762TIP3    H2 2251   0.475   6.042   5.010
  763TIP3   OH2 2252   1.848   3.808   2.766
  763TIP3    H1 2253   1.778   3.843   2.711
  763TIP3    H2 2254   1.819   3.719   2.788
  764TIP3   OH2 2255   1.410   0.563   1.472
  764TIP3    H1 2256   1.488   0.601   1.513
  764TIP3    H2 2257   1.337   0.595   1.525
  765TIP3   OH2 2258   4.375   0.344   2.481
  765TIP3    H1 2259   4.318   0.420   2.486
  765TIP3    H2 2260   4.420   0.353   2.397
  766TIP3   OH2 2261   0.658   3.813   1.933
  766TIP3    H1 2262   0.581   3.787   1.882
  766TIP3    H2 2263   0.623   3.872   1.999
  767TIP3   OH2 2264   1.521   2.369   0.532
  767TIP3    H1 2265   1.465   2.335   0.602
  767TIP3    H2 2266   1.488   2.328   0.453
  768TIP3   OH2 2267   0.859   2.111   0.821
  768TIP3    H1 2268   0.887   2.168   0.893
  768TIP3    H2 2269   0.871   2.164   0.742
  769TIP3   OH2 2270   4.995   3.377   0.127
  769TIP3    H1 2271   4.984   3.294   0.173
  769TIP3    H2 2272   5.054   3.428   0.182
  770TIP3   OH2 2273   4.335   6.407   4.957
  770TIP3    H1 2274   4.418   6.364   4.937
  770TIP3    H2 2275   4.279   6.389   4.881
  771TIP3   OH2 2276   0.028   6.490   5.088
  771TIP3    H1 2277   0.081   6.423   5.045
  771TIP3    H2 2278  -0.040   6.511   5.024
  772TIP3   OH2 2279   6.776   2.798   2.830
  772TIP3    H1 2280   6.700   2.832   2.783
  772TIP3    H2 2281   6.758   2.818   2.922
  773TIP3   OH2 2282   4.804   4.740   3.542
  773TIP3    H1 2283   4.869   4.769   3.605
  773TIP3    H2 2284   4.839   4.765   3.457
  774TIP3   OH2 2285   5.247   0.981   3.876
  774TIP3    H1 2286   5.236   0.915   3.807
  774TIP3    H2 2287   5.234   0.932   3.958
  775TIP3   OH2 2288   3.332   2.631   4.957
  775TIP3    H1 2289   3.413   2.667   4.991
  775TIP3    H2 2290   3.302   2.571   5.026
  776TIP3   OH2 2291   5.727   0.713   0.513
  776TIP3    H1 2292   5.664   0.682   0.578
  776TIP3    H2 2293   5.778   0.635   0.490
  777TIP3   OH2 2294   4.537   6.431   3.295
  777TIP3    H1 2295   4.612   6.490   3.294
  777TIP3    H2 2296   4.467   6.482   3.336
  778TIP3   OH2 2297   1.431   5.003   4.717
  778TIP3    H1 2298   1.514   5.044   4.692
  778TIP3    H2 2299   1.372   5.020   4.643
  779TIP3   OH2 2300   5.369   2.267   2.961
  779TIP3    H1 2301   5.431   2.194   2.946
  779TIP3    H2 2302   5.385   2.326   2.887
  780TIP3   OH2 2303   0.289   4.232   0.679
  780TIP3    H1 2304   0.322   4.236   0.589
  780TIP3    H2 2305   0.271   4.323   0.702
  781TIP3   OH2 2306   3.054   5.469   4.311
  781TIP3    H1 2307   2.978   5.424   4.346
  781TIP3    H2 2308   3.029   5.494   4.222
  782TIP3   OH2 2309  -0.002   5.511   1.645
  782TIP3    H1 2310   0.080   5.471   1.670
  782TIP3    H2 2311   0.013   5.543   1.556
  783TIP3   OH2 2312   0.119   0.365   3.715
  783TIP3    H1 2313   0.138   0.383   3.623
  783TIP3    H2 2314   0.204   0.340   3.753
  784TIP3   OH2 2315   1.575   4.106   2.545
  784TIP3    H1 2316   1.637   4.051   2.498
  784TIP3    H2 2317   1.489   4.069   2.523
  785TIP3   OH2 2318   1.173   1.472   0.720
  785TIP3    H1 2319   1.209   1.399   0.770
  785TIP3    H2 2320   1.083   1.480   0.750
  786TIP3   OH2 2321   3.136   3.245   3.233
  786TIP3    H1 2322   3.228   3.224   3.253
  786TIP3    H2 2323   3.130   3.339   3.246
  787TIP3   OH2 2324   6.323   2.123   4.601
  787TIP3    H1 2325   6.346   2.195   4.659
  787TIP3    H2 2326   6.307   2.049   4.660
  788TIP3   OH2 2327   7.109   3.803   0.990
  788TIP3    H1 2328   7.058   3.858   0.931
  788TIP3    H2 2329   7.200   3.824   0.968
  789TIP3   OH2 2330   4.311   4.683   2.999
  789TIP3    H1 2331   4.285   4.612   3.058
  789TIP3    H2 2332   4.306   4.762   3.054
  790TIP3   OH2 2333   3.455   4.471   0.073
  790TIP3    H1 2334   3.373   4.513   0.049
  790TIP3    H2 2335   3.448   4.382   0.039
  791TIP3   OH2 2336   6.461   0.231   1.931
  791TIP3    H1 2337   6.397   0.238   1.861
  791TIP3    H2 2338   6.518   0.158   1.905
  792TIP3   OH2 2339   5.042   0.810   4.402
  792TIP3    H1 2340   5.029   0.905   4.398
  792TIP3    H2 2341   4.983   0.774   4.336
  793TIP3   OH2 2342   4.877   2.826   2.667
  793TIP3    H1 2343   4.930   2.795   2.741
  793TIP3    H2 2344   4.812   2.756   2.655
  794TIP3   OH2 2345   2.247   0.061   0.520
  794TIP3    H1 2346   2.321   0.093   0.571
  794TIP3    H2 2347   2.236   0.126   0.451
  795TIP3   OH2 2348   7.101   1.482   1.849
  795TIP3    H1 2349   7.180   1.479   1.795
  795TIP3    H2 2350   7.038   1.532   1.796
  796TIP3   OH2 2351   7.133   5.763   1.087
  796TIP3    H1 2352   7.225   5.789   1.083
  796TIP3    H2 2353   7.099   5.809   1.164
  797TIP3   OH2 2354   5.802   1.997   2.428
  797TIP3    H1 2355   5.871   1.931   2.431
  797TIP3    H2 2356   5.775   2.008   2.519
  798TIP3   OH2 2357   1.455   3.195   5.175
  798TIP3    H1 2358   1.546   3.168   5.171
  798TIP3    H2 2359   1.435   3.227   5.088
  799TIP3   OH2 2360   6.893   6.778   5.238
  799TIP3    H1 2361   6.974   6.791   5.189
  799TIP3    H2 2362   6.860   6.866   5.254
  800TIP3   OH2 2363   2.949   5.370   2.036
  800TIP3    H1 2364   3.038   5.343   2.059
  800TIP3    H2 2365   2.946   5.464   2.058
  801TIP3   OH2 2366   7.003   5.156   5.316
  801TIP3    H1 2367   7.046   5.238   5.339
  801TIP3    H2 2368   6.913   5.181   5.295
  802TIP3   OH2 2369   0.764   0.693   1.235
  802TIP3    H1 2370   0.722   0.760   1.181
  802TIP3    H2 2371   0.760   0.613   1.183
  803TIP3   OH2 2372   6.416   5.957   4.465
  803TIP3    H1 2373   6.342   5.934   4.521
  803TIP3    H2 2374   6.412   6.052   4.458
  804TIP3   OH2 2375   1.451   4.996   5.539
  804TIP3    H1 2376   1.514   4.948   5.593
  804TIP3    H2 2377   1.423   4.934   5.472
  805TIP3   OH2 2378   3.948   5.750   2.121
  805TIP3    H1 2379   3.934   5.694   2.045
  805TIP3    H2 2380   3.878   5.814   2.117
  806TIP3   OH2 2381   2.805   4.434   2.758
  806TIP3    H1 2382   2.730   4.407   2.812
  806TIP3    H2 2383   2.878   4.439   2.820
  807TIP3   OH2 2384   5.062   3.342   3.130
  807TIP3    H1 2385   5.125   3.275   3.153
  807TIP3    H2 2386   5.115   3.416   3.100
  808TIP3   OH2 2387   6.954   6.444   4.009
  808TIP3    H1 2388   6.979   6.352   4.015
  808TIP3    H2 2389   6.961   6.477   4.099
  809TIP3   OH2 2390   1.621   0.182   1.581
  809TIP3    H1 2391   1.680   0.191   1.656
  809TIP3    H2 2392   1.643   0.255   1.523
  810TIP3   OH2 2393   4.805   3.697   0.938
  810TIP3    H1 2394   4.734   3.747   0.897
  810TIP3    H2 2395   4.775   3.683   1.028
  811TIP3   OH2 2396   0.493   0.646   0.153
  811TIP3    H1 2397   0.449   0.661   0.069
  811TIP3    H2 2398   0.525   0.556   0.148
  812TIP3   OH2 2399   5.951   2.302   0.059
  812TIP3    H1 2400   5.887   2.302  -0.012
  812TIP3    H2 2401   5.929   2.378   0.113
  813TIP3   OH2 2402   1.892   5.737   4.962
  813TIP3    H1 2403   1.844   5.784   4.894
  813TIP3    H2 2404   1.923   5.806   5.021
  814TIP3   OH2 2405   6.403   0.599   1.884
  814TIP3    H1 2406   6.385   0.665   1.951
  814TIP3    H2 2407   6.322   0.550   1.877
  815TIP3   OH2 2408   5.120   4.987   5.408
  815TIP3    H1 2409   5.043   4.946   5.370
  815TIP3    H2 2410   5.087   5.064   5.454
  816TIP3   OH2 2411   0.281   2.248   2.328
  816TIP3    H1 2412   0.282   2.190   2.405
  816TIP3    H2 2413   0.364   2.231   2.284
  817TIP3   OH2 2414   4.421   1.093   3.319
  817TIP3    H1 2415   4.428   0.997   3.325
  817TIP3    H2 2416   4.476   1.116   3.244
  818TIP3   OH2 2417   2.639   3.477   5.146
  818TIP3    H1 2418   2.658   3.393   5.106
  818TIP3    H2 2419   2.618   3.535   5.073
  819TIP3   OH2 2420   5.164   3.898   5.010
  819TIP3    H1 2421   5.094   3.948   4.968
  819TIP3    H2 2422   5.121   3.855   5.084
  820TIP3   OH2 2423   5.973   0.145   2.853
  820TIP3    H1 2424   5.953   0.071   2.795
  820TIP3    H2 2425   5.917   0.131   2.930
  821TIP3   OH2 2426   6.309   3.421   2.950
  821TIP3    H1 2427   6.381   3.406   3.011
  821TIP3    H2 2428   6.320   3.352   2.884
  822TIP3   OH2 2429   0.466   2.358   1.181
  822TIP3    H1 2430   0.535   2.391   1.239
  822TIP3    H2 2431   0.501   2.372   1.093
  823TIP3   OH2 2432   1.698   5.091   4.680
  823TIP3    H1 2433   1.761   5.084   4.608
  823TIP3    H2 2434   1.723   5.022   4.741
  824TIP3   OH2 2435   7.088   5.440   2.544
  824TIP3    H1 2436   7.011   5.432   2.600
  824TIP3    H2 2437   7.140   5.509   2.585
  825TIP3   OH2 2438   2.909   0.810   4.026
  825TIP3    H1 2439   2.814   0.822   4.023
  825TIP3    H2 2440   2.933   0.787   3.936
  826TIP3   OH2 2441   5.605   6.350   3.121
  826TIP3    H1 2442   5.552   6.383   3.049
  826TIP3    H2 2443   5.615   6.256   3.103
  827TIP3   OH2 2444   4.300   3.445   0.707
  827TIP3    H1 2445   4.377   3.428   0.653
  827TIP3    H2 2446   4.283   3.362   0.751
  828TIP3   OH2 2447   5.612   2.763   2.530
  828TIP3    H1 2448   5.579   2.852   2.540
  828TIP3    H2 2449   5.625   2.731   2.619
  829TIP3   OH2 2450   2.368   1.375   4.624
  829TIP3    H1 2451   2.315   1.302   4.592
  829TIP3    H2 2452   2.413   1.340   4.701
  830TIP3   OH2 2453   4.043   4.636   5.726
  830TIP3    H1 2454   4.099   4.688   5.784
  830TIP3    H2 2455   4.093   4.557   5.709
  831TIP3   OH2 2456   7.042   0.587   5.541
  831TIP3    H1 2457   7.101   0.576   5.616
  831TIP3    H2 2458   7.076   0.664   5.495
  832TIP3   OH2 2459   6.123   1.216   4.692
  832TIP3    H1 2460   6.170   1.201   4.610
  832TIP3    H2 2461   6.105   1.128   4.726
  833TIP3   OH2 2462   6.981   5.546   5.791
  833TIP3    H1 2463   6.990   5.509   5.879
  833TIP3    H2 2464   7.053   5.506   5.742
  834TIP3   OH2 2465   0.014   2.062   1.752
  834TIP3    H1 2466   0.109   2.064   1.742
  834TIP3    H2 2467  -0.010   2.152   1.772
  835TIP3   OH2 2468   0.539   0.487   3.957
  835TIP3    H1 2469   0.530   0.562   3.897
  835TIP3    H2 2470   0.624   0.449   3.935
  836TIP3   OH2 2471   2.680   0.115   3.886
  836TIP3    H1 2472   2.623   0.145   3.956
  836TIP3    H2 2473   2.646   0.029   3.863
  837TIP3   OH2 2474   6.214   5.923   2.870
  837TIP3    H1 2475   6.217   6.014   2.901
  837TIP3    H2 2476   6.230   5.871   2.948
  838TIP3   OH2 2477   2.058   5.735   2.007
  838TIP3    H1 2478   2.090   5.692   2.085
  838TIP3    H2 2479   1.968   5.762   2.029
  839TIP3   OH2 2480   5.092   1.674   3.520
  839TIP3    H1 2481   5.159   1.730   3.557
  839TIP3    H2 2482   5.133   1.634   3.444
  840TIP3   OH2 2483   4.780   4.028   3.608
  840TIP3    H1 2484   4.780   4.083   3.529
  840TIP3    H2 2485   4.792   4.091   3.679
  841TIP3   OH2 2486   5.043   0.919   5.196
  841TIP3    H1 2487   5.102   0.989   5.168
  841TIP3    H2 2488   5.024   0.939   5.288
  842TIP3   OH2 2489   3.191   0.406   1.996
  842TIP3    H1 2490   3.273   0.429   2.039
  842TIP3    H2 2491   3.124   0.453   2.046
  843TIP3   OH2 2492   2.304  -0.039   1.720
  843TIP3    H1 2493   2.360  -0.031   1.643
  843TIP3    H2 2494   2.240   0.031   1.710
  844TIP3   OH2 2495   4.147   0.903   1.647
  844TIP3    H1 2496   4.069   0.886   1.700
  844TIP3    H2 2497   4.220   0.879   1.705
  845TIP3   OH2 2498   3.014   1.887   1.963
  845TIP3    H1 2499   3.074   1.958   1.984
  845TIP3    H2 2500   3.016   1.881   1.867
  846TIP3   OH2 2501   0.721   5.859   3.127
  846TIP3    H1 2502   0.734   5.873   3.221
  846TIP3    H2 2503   0.746   5.942   3.086
  847TIP3   OH2 2504   3.987   4.585   3.668
  847TIP3    H1 2505   4.069   4.573   3.621
  847TIP3    H2 2506   4.002   4.662   3.723
  848TIP3   OH2 2507   5.579   5.970   3.669
  848TIP3    H1 2508   5.673   5.989   3.664
  848TIP3    H2 2509   5.554   5.948   3.580
  849TIP3   OH2 2510   4.182   4.489  -0.008
  849TIP3    H1 2511   4.182   4.436  -0.088
  849TIP3    H2 2512   4.102   4.462   0.039
  850TIP3   OH2 2513   6.384   0.535   3.573
  850TIP3    H1 2514   6.374   0.484   3.654
  850TIP3    H2 2515   6.296   0.568   3.555
  851TIP3   OH2 2516   1.801   5.403   1.169
  851TIP3    H1 2517   1.817   5.497   1.176
  851TIP3    H2 2518   1.749   5.382   1.247
  852TIP3   OH2 2519   4.456   1.063   0.193
  852TIP3    H1 2520   4.438   1.049   0.100
  852TIP3    H2 2521   4.552   1.064   0.199
  853TIP3   OH2 2522   7.009   5.176   0.655
  853TIP3    H1 2523   6.971   5.181   0.567
  853TIP3    H2 2524   6.982   5.090   0.688
  854TIP3   OH2 2525   1.624   3.210   2.352
  854TIP3    H1 2526   1.589   3.157   2.280
  854TIP3    H2 2527   1.594   3.167   2.431
  855TIP3   OH2 2528   0.469   5.892   2.898
  855TIP3    H1 2529   0.446   5.865   2.987
  855TIP3    H2 2530   0.415   5.968   2.882
  856TIP3   OH2 2531   5.322   6.593   1.891
  856TIP3    H1 2532   5.305   6.500   1.874
  856TIP3    H2 2533   5.409   6.609   1.855
  857TIP3   OH2 2534   1.043   0.212   2.529
  857TIP3    H1 2535   1.057   0.223   2.623
  857TIP3    H2 2536   1.119   0.162   2.499
  858TIP3   OH2 2537   4.975   1.071   4.431
  858TIP3    H1 2538   4.906   1.098   4.370
  858TIP3    H2 2539   4.948   1.108   4.515
  859TIP3   OH2 2540   3.534   2.357   0.311
  859TIP3    H1 2541   3.539   2.343   0.405
  859TIP3    H2 2542   3.589   2.434   0.296
  860TIP3   OH2 2543   4.099   3.639   5.132
  860TIP3    H1 2544   4.120   3.657   5.041
  860TIP3    H2 2545   4.076   3.724   5.169
  861TIP3   OH2 2546   1.924   2.233   2.778
  861TIP3    H1 2547   1.829   2.220   2.778
  861TIP3    H2 2548   1.958   2.162   2.832
  862TIP3   OH2 2549   5.825   3.748   3.679
  862TIP3    H1 2550   5.784   3.678   3.730
  862TIP3    H2 2551   5.756   3.815   3.672
  863TIP3   OH2 2552   5.516   6.332   3.848
  863TIP3    H1 2553   5.525   6.263   3.914
  863TIP3    H2 2554   5.424   6.359   3.852
  864TIP3   OH2 2555   3.068   3.796   5.710
  864TIP3    H1 2556   3.143   3.745   5.679
  864TIP3    H2 2557   3.090   3.819   5.801
  865TIP3   OH2 2558   1.573   1.003   3.162
  865TIP3    H1 2559   1.516   0.955   3.223
  865TIP3    H2 2560   1.542   1.093   3.166
  866TIP3   OH2 2561   1.826   3.491   1.307
  866TIP3    H1 2562   1.882   3.474   1.382
  866TIP3    H2 2563   1.886   3.524   1.239
  867TIP3   OH2 2564   4.837   5.016   1.388
  867TIP3    H1 2565   4.783   5.028   1.466
  867TIP3    H2 2566   4.779   5.036   1.315
  868TIP3   OH2 2567   2.979   4.001   3.488
  868TIP3    H1 2568   3.001   4.016   3.580
  868TIP3    H2 2569   3.036   3.929   3.461
  869TIP3   OH2 2570   1.659   1.658   1.158
  869TIP3    H1 2571   1.684   1.650   1.249
  869TIP3    H2 2572   1.570   1.623   1.154
  870TIP3   OH2 2573   5.612   6.254   1.770
  870TIP3    H1 2574   5.551   6.323   1.747
  870TIP3    H2 2575   5.689   6.270   1.715
  871TIP3   OH2 2576   3.571   0.092   3.670
  871TIP3    H1 2577   3.575   0.025   3.738
  871TIP3    H2 2578   3.479   0.096   3.644
  872TIP3   OH2 2579   2.805   4.362   1.833
  872TIP3    H1 2580   2.849   4.379   1.916
  872TIP3    H2 2581   2.814   4.267   1.821
  873TIP3   OH2 2582   2.032   0.605   0.454
  873TIP3    H1 2583   1.976   0.662   0.401
  873TIP3    H2 2584   2.112   0.595   0.403
  874TIP3   OH2 2585   5.301   2.647   2.485
  874TIP3    H1 2586   5.280   2.738   2.464
  874TIP3    H2 2587   5.260   2.632   2.571
  875TIP3   OH2 2588   6.051   2.361   4.532
  875TIP3    H1 2589   6.036   2.369   4.626
  875TIP3    H2 2590   6.133   2.313   4.525
  876TIP3   OH2 2591   0.446   1.589   2.595
  876TIP3    H1 2592   0.352   1.575   2.608
  876TIP3    H2 2593   0.453   1.629   2.509
  877TIP3   OH2 2594   1.581   2.787   2.291
  877TIP3    H1 2595   1.675   2.799   2.301
  877TIP3    H2 2596   1.571   2.695   2.265
  878TIP3   OH2 2597   3.902   0.147   3.453
  878TIP3    H1 2598   3.908   0.152   3.549
  878TIP3    H2 2599   3.986   0.179   3.422
  879TIP3   OH2 2600   5.330   2.883   1.013
  879TIP3    H1 2601   5.291   2.845   0.935
  879TIP3    H2 2602   5.350   2.808   1.070
  880TIP3   OH2 2603   4.076   1.386   5.517
  880TIP3    H1 2604   4.150   1.326   5.507
  880TIP3    H2 2605   4.098   1.439   5.593
  881TIP3   OH2 2606   5.702   1.646   3.395
  881TIP3    H1 2607   5.641   1.719   3.392
  881TIP3    H2 2608   5.655   1.574   3.352
  882TIP3   OH2 2609   4.108   4.477   2.050
  882TIP3    H1 2610   4.111   4.553   1.991
  882TIP3    H2 2611   4.042   4.420   2.012
  883TIP3   OH2 2612   6.284   1.194   5.484
  883TIP3    H1 2613   6.300   1.261   5.418
  883TIP3    H2 2614   6.364   1.141   5.483
  884TIP3   OH2 2615   3.335   0.138   5.787
  884TIP3    H1 2616   3.350   0.060   5.733
  884TIP3    H2 2617   3.367   0.211   5.734
  885TIP3   OH2 2618   6.489   0.765   5.687
  885TIP3    H1 2619   6.546   0.842   5.696
  885TIP3    H2 2620   6.426   0.774   5.759
  886TIP3   OH2 2621   2.692   5.128   2.871
  886TIP3    H1 2622   2.621   5.115   2.808
  886TIP3    H2 2623   2.766   5.079   2.834
  887TIP3   OH2 2624   4.622   0.982   2.206
  887TIP3    H1 2625   4.534   1.008   2.233
  887TIP3    H2 2626   4.640   0.902   2.255
  888TIP3   OH2 2627   0.537   3.908   0.637
  888TIP3    H1 2628   0.451   3.869   0.623
  888TIP3    H2 2629   0.520   3.986   0.689
  889TIP3   OH2 2630   5.198   5.429   5.379
  889TIP3    H1 2631   5.248   5.350   5.397
  889TIP3    H2 2632   5.264   5.499   5.375
  890TIP3   OH2 2633   2.031   3.986   0.682
  890TIP3    H1 2634   2.088   4.018   0.752
  890TIP3    H2 2635   1.973   3.922   0.725
  891TIP3   OH2 2636   4.846   6.846   3.468
  891TIP3    H1 2637   4.924   6.879   3.422
  891TIP3    H2 2638   4.865   6.859   3.561
  892TIP3   OH2 2639   6.918   4.984   1.386
  892TIP3    H1 2640   6.985   5.036   1.343
  892TIP3    H2 2641   6.912   5.021   1.475
  893TIP3   OH2 2642   5.970   2.158   2.924
  893TIP3    H1 2643   5.877   2.144   2.904
  893TIP3    H2 2644   6.007   2.192   2.842
  894TIP3   OH2 2645   0.446   4.155   3.562
  894TIP3    H1 2646   0.460   4.127   3.472
  894TIP3    H2 2647   0.468   4.078   3.614
  895TIP3   OH2 2648   2.326   1.145   0.899
  895TIP3    H1 2649   2.414   1.168   0.868
  895TIP3    H2 2650   2.310   1.206   0.971
  896TIP3   OH2 2651   0.839   4.148   4.362
  896TIP3    H1 2652   0.893   4.070   4.351
  896TIP3    H2 2653   0.759   4.115   4.404
  897TIP3   OH2 2654   7.158   2.179   3.031
  897TIP3    H1 2655   7.221   2.236   2.987
  897TIP3    H2 2656   7.198   2.158   3.115
  898TIP3   OH2 2657   0.436   1.155   1.022
  898TIP3    H1 2658   0.368   1.099   1.058
  898TIP3    H2 2659   0.406   1.244   1.040
  899TIP3   OH2 2660   6.638   5.843   5.920
  899TIP3    H1 2661   6.631   5.780   5.848
  899TIP3    H2 2662   6.692   5.914   5.886
  900TIP3   OH2 2663   7.053   2.579   1.275
  900TIP3    H1 2664   7.074   2.665   1.310
  900TIP3    H2 2665   6.965   2.561   1.307
  901TIP3   OH2 2666   6.210   0.529   3.068
  901TIP3    H1 2667   6.252   0.483   3.140
  901TIP3    H2 2668   6.118   0.502   3.072
  902TIP3   OH2 2669   4.088   3.116   0.683
  902TIP3    H1 2670   4.064   3.157   0.600
  902TIP3    H2 2671   4.013   3.062   0.706
  903TIP3   OH2 2672   4.795   6.236   4.200
  903TIP3    H1 2673   4.801   6.252   4.294
  903TIP3    H2 2674   4.872   6.184   4.180
  904TIP3   OH2 2675   4.095   2.008   1.272
  904TIP3    H1 2676   4.126   2.099   1.263
  904TIP3    H2 2677   4.147   1.959   1.208
  905TIP3   OH2 2678   2.513   5.143   0.534
  905TIP3    H1 2679   2.557   5.059   0.552
  905TIP3    H2 2680   2.468   5.129   0.451
  906TIP3   OH2 2681   3.257   6.451   0.665
  906TIP3    H1 2682   3.276   6.493   0.749
  906TIP3    H2 2683   3.167   6.420   0.674
  907TIP3   OH2 2684   4.455   2.438   1.461
  907TIP3    H1 2685   4.475   2.412   1.551
  907TIP3    H2 2686   4.415   2.360   1.422
  908TIP3   OH2 2687   4.489   4.494   3.314
  908TIP3    H1 2688   4.404   4.481   3.272
  908TIP3    H2 2689   4.513   4.584   3.293
  909TIP3   OH2 2690   4.969   2.280   4.295
  909TIP3    H1 2691   4.899   2.276   4.230
  909TIP3    H2 2692   4.971   2.193   4.334
  910TIP3   OH2 2693   4.824   3.443   4.191
  910TIP3    H1 2694   4.916   3.432   4.215
  910TIP3    H2 2695   4.776   3.427   4.273
  911TIP3   OH2 2696   0.575   4.505   2.053
  911TIP3    H1 2697   0.619   4.560   1.988
  911TIP3    H2 2698   0.501   4.468   2.005
  912TIP3   OH2 2699   1.291   0.581   5.026
  912TIP3    H1 2700   1.218   0.639   5.002
  912TIP3    H2 2701   1.356   0.594   4.957
  913TIP3   OH2 2702   4.728   0.929   4.154
  913TIP3    H1 2703   4.679   0.991   4.100
  913TIP3    H2 2704   4.724   0.965   4.242
  914TIP3   OH2 2705   4.185   1.505   1.102
  914TIP3    H1 2706   4.139   1.578   1.142
  914TIP3    H2 2707   4.211   1.449   1.175
  915TIP3   OH2 2708   0.737   2.481   2.919
  915TIP3    H1 2709   0.792   2.405   2.936
  915TIP3    H2 2710   0.785   2.554   2.957
  916TIP3   OH2 2711   2.463   0.688   2.123
  916TIP3    H1 2712   2.532   0.723   2.067
  916TIP3    H2 2713   2.412   0.764   2.150
  917TIP3   OH2 2714   2.998   1.118   5.613
  917TIP3    H1 2715   3.091   1.139   5.621
  917TIP3    H2 2716   2.987   1.088   5.523
  918TIP3   OH2 2717   4.857   3.151   5.323
  918TIP3    H1 2718   4.871   3.214   5.252
  918TIP3    H2 2719   4.818   3.075   5.279
  919TIP3   OH2 2720   3.692   4.019   3.002
  919TIP3    H1 2721   3.739   3.963   2.941
  919TIP3    H2 2722   3.758   4.048   3.065
  920TIP3   OH2 2723   1.383   3.259   5.861
  920TIP3    H1 2724   1.434   3.206   5.923
  920TIP3    H2 2725   1.321   3.198   5.822
  921TIP3   OH2 2726   0.632   5.976   3.823
  921TIP3    H1 2727   0.556   5.931   3.787
  921TIP3    H2 2728   0.692   5.986   3.750
  922TIP3   OH2 2729   2.229   4.908   0.861
  922TIP3    H1 2730   2.178   4.976   0.906
  922TIP3    H2 2731   2.183   4.827   0.881
  923TIP3   OH2 2732   2.024   3.917   4.496
  923TIP3    H1 2733   2.070   3.952   4.420
  923TIP3    H2 2734   2.090   3.913   4.564
  924TIP3   OH2 2735   5.267   1.333   1.993
  924TIP3    H1 2736   5.212   1.401   1.956
  924TIP3    H2 2737   5.255   1.257   1.936
  925TIP3   OH2 2738   0.501   4.817   5.571
  925TIP3    H1 2739   0.588   4.857   5.567
  925TIP3    H2 2740   0.440   4.891   5.573
  926TIP3   OH2 2741   7.247   1.280   4.039
  926TIP3    H1 2742   7.240   1.312   4.128
  926TIP3    H2 2743   7.212   1.351   3.985
  927TIP3   OH2 2744   0.770   2.464   0.470
  927TIP3    H1 2745   0.736   2.537   0.522
  927TIP3    H2 2746   0.693   2.429   0.426
  928TIP3   OH2 2747   3.089   1.241   2.147
  928TIP3    H1 2748   3.086   1.224   2.241
  928TIP3    H2 2749   3.140   1.322   2.139
  929TIP3   OH2 2750   5.448   2.308   5.507
  929TIP3    H1 2751   5.431   2.302   5.601
  929TIP3    H2 2752   5.366   2.340   5.470
  930TIP3   OH2 2753   5.747   4.670   2.960
  930TIP3    H1 2754   5.780   4.605   2.898
  930TIP3    H2 2755   5.674   4.711   2.914
  931TIP3   OH2 2756   3.958   0.411   2.984
  931TIP3    H1 2757   3.996   0.364   2.911
  931TIP3    H2 2758   4.022   0.480   3.004
  932TIP3   OH2 2759   4.442   1.576   3.524
  932TIP3    H1 2760   4.354   1.613   3.523
  932TIP3    H2 2761   4.493   1.634   3.580
  933TIP3   OH2 2762   6.021   0.851   2.200
  933TIP3    H1 2763   6.013   0.815   2.288
  933TIP3    H2 2764   6.100   0.906   2.204
  934TIP3   OH2 2765   0.292   2.089   2.565
  934TIP3    H1 2766   0.367   2.036   2.594
  934TIP3    H2 2767   0.217   2.031   2.573
  935TIP3   OH2 2768   1.064   1.823   0.496
  935TIP3    H1 2769   1.093   1.875   0.571
  935TIP3    H2 2770   1.135   1.762   0.481
  936TIP3   OH2 2771   6.390   5.819   3.130
  936TIP3    H1 2772   6.441   5.863   3.062
  936TIP3    H2 2773   6.388   5.882   3.202
  937TIP3   OH2 2774   3.473   3.962   1.951
  937TIP3    H1 2775   3.486   3.949   1.858
  937TIP3    H2 2776   3.559   3.984   1.986
  938TIP3   OH2 2777   1.526   2.361   4.114
  938TIP3    H1 2778   1.558   2.444   4.149
  938TIP3    H2 2779   1.467   2.386   4.043
  939TIP3   OH2 2780   1.564   3.517   0.178
  939TIP3    H1 2781   1.618   3.526   0.257
  939TIP3    H2 2782   1.578   3.427   0.149
  940TIP3   OH2 2783   0.955   1.336   1.447
  940TIP3    H1 2784   0.920   1.412   1.492
  940TIP3    H2 2785   0.882   1.274   1.444
  941TIP3   OH2 2786   2.944   6.662   4.113
  941TIP3    H1 2787   2.873   6.678   4.051
  941TIP3    H2 2788   2.916   6.704   4.194
  942TIP3   OH2 2789   6.836   4.310   1.097
  942TIP3    H1 2790   6.780   4.243   1.137
  942TIP3    H2 2791   6.795   4.393   1.120
  943TIP3   OH2 2792  -0.001   2.159   3.299
  943TIP3    H1 2793  -0.027   2.068   3.314
  943TIP3    H2 2794   0.083   2.167   3.344
  944TIP3   OH2 2795   0.224   6.662   3.809
  944TIP3    H1 2796   0.258   6.624   3.729
  944TIP3    H2 2797   0.160   6.599   3.841
  945TIP3   OH2 2798   5.131   4.815   0.810
  945TIP3    H1 2799   5.053   4.870   0.806
  945TIP3    H2 2800   5.145   4.789   0.719
  946TIP3   OH2 2801   4.959   1.090   1.422
  946TIP3    H1 2802   4.971   1.030   1.348
  946TIP3    H2 2803   5.008   1.050   1.493
  947TIP3   OH2 2804   3.052   6.284   4.315
  947TIP3    H1 2805   3.134   6.247   4.282
  947TIP3    H2 2806   2.987   6.256   4.251
  948TIP3   OH2 2807   4.344   0.877   5.353
  948TIP3    H1 2808   4.377   0.869   5.442
  948TIP3    H2 2809   4.253   0.905   5.364
  949TIP3   OH2 2810   1.423   1.034   2.051
  949TIP3    H1 2811   1.424   0.992   1.965
  949TIP3    H2 2812   1.433   1.127   2.032
  950TIP3   OH2 2813   2.764   5.385   3.830
  950TIP3    H1 2814   2.849   5.426   3.814
  950TIP3    H2 2815   2.749   5.330   3.753
  951TIP3   OH2 2816   1.784   3.843   4.541
  951TIP3    H1 2817   1.878   3.861   4.547
  951TIP3    H2 2818   1.779   3.748   4.529
  952TIP3   OH2 2819   4.775   5.713   4.450
  952TIP3    H1 2820   4.718   5.637   4.437
  952TIP3    H2 2821   4.751   5.773   4.380
  953TIP3   OH2 2822   4.783   2.795   4.141
  953TIP3    H1 2823   4.797   2.782   4.235
  953TIP3    H2 2824   4.696   2.760   4.124
  954TIP3   OH2 2825   4.100   4.740   4.988
  954TIP3    H1 2826   4.192   4.720   5.001
  954TIP3    H2 2827   4.097   4.792   4.908
  955TIP3   OH2 2828   1.756   6.663   3.860
  955TIP3    H1 2829   1.851   6.656   3.854
  955TIP3    H2 2830   1.729   6.587   3.911
  956TIP3   OH2 2831   5.566   1.327   0.811
  956TIP3    H1 2832   5.641   1.280   0.848
  956TIP3    H2 2833   5.511   1.349   0.887
  957TIP3   OH2 2834   0.269   1.173   0.634
  957TIP3    H1 2835   0.224   1.111   0.577
  957TIP3    H2 2836   0.239   1.151   0.722
  958TIP3   OH2 2837   4.950   3.372   3.947
  958TIP3    H1 2838   5.041   3.393   3.968
  958TIP3    H2 2839   4.899   3.410   4.019
  959TIP3   OH2 2840   7.087   1.357   0.121
  959TIP3    H1 2841   7.140   1.402   0.188
  959TIP3    H2 2842   7.148   1.345   0.048
  960TIP3   OH2 2843   2.363   4.868   3.671
  960TIP3    H1 2844   2.353   4.816   3.751
  960TIP3    H2 2845   2.355   4.805   3.600
  961TIP3   OH2 2846   6.641   1.446   4.774
  961TIP3    H1 2847   6.568   1.399   4.734
  961TIP3    H2 2848   6.661   1.516   4.712
  962TIP3   OH2 2849   6.719   4.294   5.583
  962TIP3    H1 2850   6.690   4.215   5.539
  962TIP3    H2 2851   6.648   4.357   5.572
  963TIP3   OH2 2852   7.065   3.180   0.837
  963TIP3    H1 2853   6.976   3.162   0.867
  963TIP3    H2 2854   7.085   3.108   0.777
  964TIP3   OH2 2855   5.275   3.425   4.599
  964TIP3    H1 2856   5.195   3.470   4.625
  964TIP3    H2 2857   5.249   3.333   4.590
  965TIP3   OH2 2858   6.681   4.471   5.293
  965TIP3    H1 2859   6.598   4.519   5.289
  965TIP3    H2 2860   6.745   4.536   5.320
  966TIP3   OH2 2861   6.262   4.221   4.766
  966TIP3    H1 2862   6.259   4.249   4.858
  966TIP3    H2 2863   6.350   4.245   4.737
  967TIP3   OH2 2864   1.714   4.155   3.364
  967TIP3    H1 2865   1.699   4.097   3.289
  967TIP3    H2 2866   1.803   4.187   3.353
  968TIP3   OH2 2867   2.839   3.279   3.131
  968TIP3    H1 2868   2.930   3.267   3.104
  968TIP3    H2 2869   2.824   3.209   3.195
  969TIP3   OH2 2870   7.193   1.957   4.878
  969TIP3    H1 2871   7.118   1.927   4.826
  969TIP3    H2 2872   7.180   1.917   4.964
  970TIP3   OH2 2873   5.050   3.802   3.787
  970TIP3    H1 2874   4.957   3.782   3.775
  970TIP3    H2 2875   5.064   3.882   3.736
  971TIP3   OH2 2876   0.246   6.227   0.591
  971TIP3    H1 2877   0.328   6.202   0.548
  971TIP3    H2 2878   0.225   6.313   0.554
  972TIP3   OH2 2879   3.437   0.120   5.445
  972TIP3    H1 2880   3.382   0.063   5.499
  972TIP3    H2 2881   3.500   0.060   5.403
  973TIP3   OH2 2882   3.926   1.817   3.690
  973TIP3    H1 2883   3.974   1.807   3.773
  973TIP3    H2 2884   3.856   1.879   3.711
  974TIP3   OH2 2885   6.654   4.530   0.934
  974TIP3    H1 2886   6.634   4.455   0.879
  974TIP3    H2 2887   6.663   4.493   1.022
  975TIP3   OH2 2888   6.763   2.547   1.262
  975TIP3    H1 2889   6.680   2.560   1.216
  975TIP3    H2 2890   6.791   2.459   1.237
  976TIP3   OH2 2891   3.198   2.000   2.968
  976TIP3    H1 2892   3.160   2.015   3.055
  976TIP3    H2 2893   3.249   2.078   2.950
  977TIP3   OH2 2894   0.876   4.994   5.167
  977TIP3    H1 2895   0.823   4.975   5.090
  977TIP3    H2 2896   0.913   4.909   5.192
  978TIP3   OH2 2897   5.463   4.373   1.249
  978TIP3    H1 2898   5.547   4.417   1.257
  978TIP3    H2 2899   5.412   4.430   1.191
  979TIP3   OH2 2900   3.379   5.734   2.442
  979TIP3    H1 2901   3.315   5.673   2.479
  979TIP3    H2 2902   3.348   5.820   2.470
  980TIP3   OH2 2903   0.891   5.809   3.578
  980TIP3    H1 2904   0.972   5.771   3.544
  980TIP3    H2 2905   0.920   5.864   3.651
  981TIP3   OH2 2906   6.304   3.912   0.611
  981TIP3    H1 2907   6.384   3.964   0.615
  981TIP3    H2 2908   6.315   3.857   0.533
  982TIP3   OH2 2909   2.415   3.253   1.170
  982TIP3    H1 2910   2.478   3.186   1.146
  982TIP3    H2 2911   2.374   3.220   1.250
  983TIP3   OH2 2912   4.690   5.094   2.761
  983TIP3    H1 2913   4.606   5.048   2.769
  983TIP3    H2 2914   4.694   5.149   2.839
  984TIP3   OH2 2915   1.676   4.056   0.840
  984TIP3    H1 2916   1.738   4.112   0.886
  984TIP3    H2 2917   1.620   4.020   0.909
  985TIP3   OH2 2918   6.826   6.009   5.263
  985TIP3    H1 2919   6.840   6.102   5.283
  985TIP3    H2 2920   6.907   5.966   5.291
  986TIP3   OH2 2921   5.767   3.427   0.585
  986TIP3    H1 2922   5.826   3.432   0.509
  986TIP3    H2 2923   5.713   3.505   0.578
  987TIP3   OH2 2924   3.799   0.148   0.169
  987TIP3    H1 2925   3.742   0.071   0.175
  987TIP3    H2 2926   3.886   0.114   0.189
  988TIP3   OH2 2927   6.039   4.426   4.049
  988TIP3    H1 2928   6.105   4.493   4.067
  988TIP3    H2 2929   5.956   4.473   4.055
  989TIP3   OH2 2930   4.814   2.906   3.111
  989TIP3    H1 2931   4.756   2.960   3.058
  989TIP3    H2 2932   4.787   2.924   3.201
  990TIP3   OH2 2933   5.158   0.724   2.081
  990TIP3    H1 2934   5.198   0.701   2.164
  990TIP3    H2 2935   5.075   0.676   2.080
  991TIP3   OH2 2936   4.340   5.356   1.688
  991TIP3    H1 2937   4.399   5.399   1.750
  991TIP3    H2 2938   4.365   5.264   1.693
  992TIP3   OH2 2939   3.804   2.214   0.133
  992TIP3    H1 2940   3.719   2.189   0.096
  992TIP3    H2 2941   3.788   2.300   0.172
  993TIP3   OH2 2942   1.044   2.754   3.244
  993TIP3    H1 2943   1.098   2.790   3.173
  993TIP3    H2 2944   1.012   2.831   3.291
  994TIP3   OH2 2945   5.431   2.531   0.166
  994TIP3    H1 2946   5.460   2.444   0.139
  994TIP3    H2 2947   5.485   2.591   0.114
  995TIP3   OH2 2948   1.751   2.223   2.544
  995TIP3    H1 2949   1.840   2.189   2.543
  995TIP3    H2 2950   1.696   2.146   2.558
  996TIP3   OH2 2951   0.339   4.049   2.301
  996TIP3    H1 2952   0.353   4.144   2.310
  996TIP3    H2 2953   0.327   4.018   2.391
  997TIP3   OH2 2954   2.074   0.487   5.135
  997TIP3    H1 2955   2.131   0.519   5.066
  997TIP3    H2 2956   2.118   0.409   5.169
  998TIP3   OH2 2957   5.653   5.167   0.879
  998TIP3    H1 2958   5.715   5.194   0.811
  998TIP3    H2 2959   5.705   5.114   0.940
  999TIP3   OH2 2960   5.785   0.196   3.332
  999TIP3    H1 2961   5.697   0.158   3.321
  999TIP3    H2 2962   5.769   0.291   3.337
 1000TIP3   OH2 2963   2.839   3.123   0.792
 1000TIP3    H1 2964   2.851   3.217   0.808
 1000TIP3    H2 2965   2.755   3.118   0.745
 1001TIP3   OH2 2966   1.738   6.655   4.936
 1001TIP3    H1 2967   1.755   6.678   5.027
 1001TIP3    H2 2968   1.705   6.565   4.940
 1002TIP3   OH2 2969   2.617   2.990   0.037
 1002TIP3    H1 2970   2.681   3.049  -0.002
 1002TIP3    H2 2971   2.597   3.030   0.122
 1003TIP3   OH2 2972   4.589   4.029   0.584
 1003TIP3    H1 2973   4.662   4.009   0.525
 1003TIP3    H2 2974   4.545   3.945   0.596
 1004TIP3   OH2 2975   3.577   1.191   5.105
 1004TIP3    H1 2976   3.584   1.098   5.082
 1004TIP3    H2 2977   3.565   1.190   5.200
 1005TIP3   OH2 2978   6.741   2.716   0.589
 1005TIP3    H1 2979   6.772   2.782   0.650
 1005TIP3    H2 2980   6.647   2.734   0.580
 1006TIP3   OH2 2981   1.217   0.516   0.125
 1006TIP3    H1 2982   1.311   0.535   0.118
 1006TIP3    H2 2983   1.192   0.550   0.211
 1007TIP3   OH2 2984   6.648   0.320   1.334
 1007TIP3    H1 2985   6.727   0.269   1.319
 1007TIP3    H2 2986   6.661   0.400   1.283
 1008TIP3   OH2 2987   3.435   0.432   2.136
 1008TIP3    H1 2988   3.504   0.381   2.095
 1008TIP3    H2 2989   3.427   0.396   2.224
 1009TIP3   OH2 2990   4.532   4.281   4.413
 1009TIP3    H1 2991   4.622   4.308   4.393
 1009TIP3    H2 2992   4.539   4.188   4.434
 1010TIP3   OH2 2993   2.620   0.688   2.965
 1010TIP3    H1 2994   2.570   0.741   3.027
 1010TIP3    H2 2995   2.603   0.597   2.991
 1011TIP3   OH2 2996   5.639   4.889   0.025
 1011TIP3    H1 2997   5.574   4.921  -0.038
 1011TIP3    H2 2998   5.587   4.851   0.095
 1012TIP3   OH2 2999   4.289   5.822   2.906
 1012TIP3    H1 3000   4.285   5.727   2.913
 1012TIP3    H2 3001   4.382   5.842   2.911
 1013TIP3   OH2 3002   7.116   4.587   5.641
 1013TIP3    H1 3003   7.057   4.519   5.608
 1013TIP3    H2 3004   7.060   4.663   5.654
 1014TIP3   OH2 3005   4.328   6.101   4.923
 1014TIP3    H1 3006   4.373   6.126   5.004
 1014TIP3    H2 3007   4.385   6.133   4.853
 1015TIP3   OH2 3008   5.323   4.960   1.511
 1015TIP3    H1 3009   5.405   4.915   1.494
 1015TIP3    H2 3010   5.256   4.892   1.504
 1016TIP3   OH2 3011   4.245   1.016   0.788
 1016TIP3    H1 3012   4.311   1.013   0.719
 1016TIP3    H2 3013   4.187   1.088   0.762
 1017TIP3   OH2 3014   3.494   4.620   2.284
 1017TIP3    H1 3015   3.402   4.629   2.261
 1017TIP3    H2 3016   3.541   4.645   2.205
 1018TIP3   OH2 3017   2.812   5.476   1.633
 1018TIP3    H1 3018   2.807   5.406   1.567
 1018TIP3    H2 3019   2.786   5.433   1.715
 1019TIP3   OH2 3020   6.952   5.403   2.965
 1019TIP3    H1 3021   7.027   5.348   2.943
 1019TIP3    H2 3022   6.876   5.351   2.938
 1020TIP3   OH2 3023   5.539   3.710   2.068
 1020TIP3    H1 3024   5.517   3.744   1.982
 1020TIP3    H2 3025   5.625   3.670   2.057
 1021TIP3   OH2 3026   5.365   3.796   2.313
 1021TIP3    H1 3027   5.272   3.798   2.288
 1021TIP3    H2 3028   5.412   3.786   2.230
 1022TIP3   OH2 3029   3.118   6.837   3.349
 1022TIP3    H1 3030   3.173   6.815   3.425
 1022TIP3    H2 3031   3.029   6.837   3.383
 1023TIP3   OH2 3032   1.988   6.282   5.679
 1023TIP3    H1 3033   2.039   6.332   5.742
 1023TIP3    H2 3034   1.968   6.200   5.726
 1024TIP3   OH2 3035   6.122   4.265   0.296
 1024TIP3    H1 3036   6.077   4.292   0.376
 1024TIP3    H2 3037   6.146   4.174   0.310
 1025TIP3   OH2 3038   5.179   0.210   2.452
 1025TIP3    H1 3039   5.225   0.200   2.535
 1025TIP3    H2 3040   5.107   0.147   2.457
 1026TIP3   OH2 3041   0.249   6.574   5.216
 1026TIP3    H1 3042   0.176   6.534   5.168
 1026TIP3    H2 3043   0.323   6.570   5.156
 1027TIP3   OH2 3044   2.409   3.267   0.636
 1027TIP3    H1 3045   2.337   3.288   0.576
 1027TIP3    H2 3046   2.384   3.309   0.719
 1028TIP3   OH2 3047   1.250   2.214   4.851
 1028TIP3    H1 3048   1.160   2.182   4.854
 1028TIP3    H2 3049   1.246   2.302   4.888
 1029TIP3   OH2 3050   6.483   5.744   4.184
 1029TIP3    H1 3051   6.487   5.667   4.241
 1029TIP3    H2 3052   6.508   5.817   4.240
 1030TIP3   OH2 3053   0.112   2.823   2.057
 1030TIP3    H1 3054   0.177   2.790   2.119
 1030TIP3    H2 3055   0.070   2.896   2.104
 1031TIP3   OH2 3056   3.230   1.055   3.738
 1031TIP3    H1 3057   3.157   1.097   3.692
 1031TIP3    H2 3058   3.305   1.113   3.721
 1032TIP3   OH2 3059   3.709   4.027   2.100
 1032TIP3    H1 3060   3.760   4.076   2.165
 1032TIP3    H2 3061   3.772   3.965   2.064
 1033TIP3   OH2 3062   0.745   3.809   2.588
 1033TIP3    H1 3063   0.790   3.743   2.535
 1033TIP3    H2 3064   0.762   3.783   2.678
 1034TIP3   OH2 3065   5.483   4.777   0.258
 1034TIP3    H1 3066   5.517   4.756   0.345
 1034TIP3    H2 3067   5.404   4.828   0.275
 1035TIP3   OH2 3068   5.165   0.995   2.024
 1035TIP3    H1 3069   5.201   0.910   2.046
 1035TIP3    H2 3070   5.241   1.053   2.015
 1036TIP3   OH2 3071   1.086   1.586   5.347
 1036TIP3    H1 3072   1.115   1.528   5.277
 1036TIP3    H2 3073   0.993   1.565   5.359
 1037TIP3   OH2 3074   0.089   3.128   0.486
 1037TIP3    H1 3075   0.089   3.106   0.579
 1037TIP3    H2 3076   0.156   3.196   0.477
 1038TIP3   OH2 3077   0.462   5.000   4.841
 1038TIP3    H1 3078   0.434   4.955   4.762
 1038TIP3    H2 3079   0.498   5.083   4.811
 1039TIP3   OH2 3080   6.357   6.166   5.861
 1039TIP3    H1 3081   6.281   6.224   5.856
 1039TIP3    H2 3082   6.321   6.078   5.853
 1040TIP3   OH2 3083   4.855   1.557   0.395
 1040TIP3    H1 3084   4.940   1.548   0.352
 1040TIP3    H2 3085   4.834   1.469   0.426
 1041TIP3   OH2 3086   1.538   5.106   3.544
 1041TIP3    H1 3087   1.511   5.016   3.562
 1041TIP3    H2 3088   1.575   5.103   3.456
 1042TIP3   OH2 3089   0.132   4.231   0.036
 1042TIP3    H1 3090   0.091   4.232   0.122
 1042TIP3    H2 3091   0.147   4.323   0.015
 1043TIP3   OH2 3092   0.872   5.859   1.563
 1043TIP3    H1 3093   0.965   5.845   1.548
 1043TIP3    H2 3094   0.868   5.937   1.619
 1044TIP3   OH2 3095   6.494   0.752   4.175
 1044TIP3    H1 3096   6.541   0.815   4.229
 1044TIP3    H2 3097   6.488   0.673   4.229
 1045TIP3   OH2 3098   6.008   1.027   3.093
 1045TIP3    H1 3099   6.056   1.103   3.059
 1045TIP3    H2 3100   6.071   0.956   3.093
 1046TIP3   OH2 3101   6.616   1.888  -0.005
 1046TIP3    H1 3102   6.585   1.860   0.081
 1046TIP3    H2 3103   6.538   1.927  -0.046
 1047TIP3   OH2 3104   0.422   2.932   2.128
 1047TIP3    H1 3105   0.503   2.885   2.150
 1047TIP3    H2 3106   0.354   2.887   2.178
 1048TIP3   OH2 3107   5.651   2.798   3.956
 1048TIP3    H1 3108   5.694   2.773   4.037
 1048TIP3    H2 3109   5.637   2.892   3.963
 1049TIP3   OH2 3110   2.643   4.658   2.657
 1049TIP3    H1 3111   2.665   4.694   2.571
 1049TIP3    H2 3112   2.727   4.632   2.694
 1050TIP3   OH2 3113   2.814   2.372   0.445
 1050TIP3    H1 3114   2.742   2.407   0.498
 1050TIP3    H2 3115   2.772   2.309   0.386
 1051TIP3   OH2 3116   1.350   1.213   5.790
 1051TIP3    H1 3117   1.341   1.189   5.698
 1051TIP3    H2 3118   1.442   1.234   5.801
 1052TIP3   OH2 3119   5.554   5.403   2.016
 1052TIP3    H1 3120   5.569   5.497   2.017
 1052TIP3    H2 3121   5.510   5.386   1.933
 1053TIP3   OH2 3122   6.165   1.918   5.016
 1053TIP3    H1 3123   6.226   1.859   5.061
 1053TIP3    H2 3124   6.085   1.913   5.068
 1054TIP3   OH2 3125   5.093   3.873   1.775
 1054TIP3    H1 3126   5.023   3.886   1.711
 1054TIP3    H2 3127   5.056   3.905   1.857
 1055TIP3   OH2 3128   2.417   1.996   5.146
 1055TIP3    H1 3129   2.370   2.002   5.229
 1055TIP3    H2 3130   2.462   1.912   5.149
 1056TIP3   OH2 3131   2.480   1.769   3.359
 1056TIP3    H1 3132   2.392   1.765   3.395
 1056TIP3    H2 3133   2.537   1.739   3.430
 1057TIP3   OH2 3134   3.565   4.813   4.085
 1057TIP3    H1 3135   3.484   4.852   4.050
 1057TIP3    H2 3136   3.582   4.861   4.166
 1058TIP3   OH2 3137   4.826   6.010   0.962
 1058TIP3    H1 3138   4.900   5.977   0.911
 1058TIP3    H2 3139   4.852   5.999   1.053
 1059TIP3   OH2 3140   6.017   6.218   3.645
 1059TIP3    H1 3141   5.970   6.279   3.701
 1059TIP3    H2 3142   5.988   6.239   3.556
 1060TIP3   OH2 3143   2.673   5.157   1.455
 1060TIP3    H1 3144   2.732   5.101   1.506
 1060TIP3    H2 3145   2.607   5.185   1.517
 1061TIP3   OH2 3146   6.912   0.146   2.433
 1061TIP3    H1 3147   6.818   0.151   2.445
 1061TIP3    H2 3148   6.933   0.054   2.448
 1062TIP3   OH2 3149   3.620   4.519   1.453
 1062TIP3    H1 3150   3.603   4.426   1.438
 1062TIP3    H2 3151   3.656   4.551   1.370
 1063TIP3   OH2 3152   3.419   6.719   1.954
 1063TIP3    H1 3153   3.463   6.669   2.023
 1063TIP3    H2 3154   3.327   6.691   1.959
 1064TIP3   OH2 3155   3.020   1.469   1.018
 1064TIP3    H1 3156   3.114   1.476   1.003
 1064TIP3    H2 3157   2.994   1.389   0.973
 1065TIP3   OH2 3158   0.558   3.097   3.849
 1065TIP3    H1 3159   0.628   3.099   3.784
 1065TIP3    H2 3160   0.529   3.005   3.851
 1066TIP3   OH2 3161   1.542   3.958   1.657
 1066TIP3    H1 3162   1.487   4.018   1.608
 1066TIP3    H2 3163   1.537   3.989   1.748
 1067TIP3   OH2 3164   5.758   2.296   2.471
 1067TIP3    H1 3165   5.825   2.232   2.494
 1067TIP3    H2 3166   5.694   2.290   2.541
 1068TIP3   OH2 3167   6.567   3.646   3.279
 1068TIP3    H1 3168   6.571   3.741   3.273
 1068TIP3    H2 3169   6.474   3.625   3.281
 1069TIP3   OH2 3170   6.507   4.469   3.693
 1069TIP3    H1 3171   6.415   4.484   3.714
 1069TIP3    H2 3172   6.507   4.431   3.605
 1070TIP3   OH2 3173   3.415   2.289   1.903
 1070TIP3    H1 3174   3.357   2.298   1.979
 1070TIP3    H2 3175   3.405   2.371   1.855
 1071TIP3   OH2 3176   6.543   0.446   5.770
 1071TIP3    H1 3177   6.573   0.526   5.815
 1071TIP3    H2 3178   6.621   0.416   5.722
 1072TIP3   OH2 3179   5.515   4.056   2.271
 1072TIP3    H1 3180   5.454   3.984   2.286
 1072TIP3    H2 3181   5.586   4.043   2.333
 1073TIP3   OH2 3182   3.051   3.532   4.664
 1073TIP3    H1 3183   3.005   3.481   4.731
 1073TIP3    H2 3184   2.982   3.577   4.616
 1074TIP3   OH2 3185   5.373   5.821   1.895
 1074TIP3    H1 3186   5.441   5.869   1.847
 1074TIP3    H2 3187   5.407   5.816   1.985
 1075TIP3   OH2 3188   6.876   3.060   5.640
 1075TIP3    H1 3189   6.841   3.146   5.665
 1075TIP3    H2 3190   6.803   3.017   5.597
 1076TIP3   OH2 3191   6.002   2.207   4.106
 1076TIP3    H1 3192   5.956   2.126   4.084
 1076TIP3    H2 3193   6.095   2.185   4.101
 1077TIP3   OH2 3194   4.870   1.091   5.372
 1077TIP3    H1 3195   4.776   1.098   5.392
 1077TIP3    H2 3196   4.906   1.042   5.446
 1078TIP3   OH2 3197   3.164   4.246   4.367
 1078TIP3    H1 3198   3.208   4.202   4.440
 1078TIP3    H2 3199   3.076   4.262   4.399
 1079TIP3   OH2 3200   3.149   1.354   4.728
 1079TIP3    H1 3201   3.195   1.320   4.652
 1079TIP3    H2 3202   3.102   1.279   4.764
 1080TIP3   OH2 3203   4.610   1.673   2.796
 1080TIP3    H1 3204   4.545   1.742   2.812
 1080TIP3    H2 3205   4.632   1.683   2.704
 1081TIP3   OH2 3206   0.479   6.060   2.009
 1081TIP3    H1 3207   0.539   6.099   1.946
 1081TIP3    H2 3208   0.432   6.135   2.046
 1082TIP3   OH2 3209   0.205   4.142   5.304
 1082TIP3    H1 3210   0.296   4.151   5.276
 1082TIP3    H2 3211   0.210   4.136   5.399
 1083TIP3   OH2 3212   2.820   1.690   2.795
 1083TIP3    H1 3213   2.850   1.773   2.831
 1083TIP3    H2 3214   2.880   1.625   2.831
 1084TIP3   OH2 3215   2.412   2.940   1.227
 1084TIP3    H1 3216   2.494   2.950   1.276
 1084TIP3    H2 3217   2.352   2.899   1.289
 1085TIP3   OH2 3218   1.347   1.174   3.953
 1085TIP3    H1 3219   1.414   1.231   3.990
 1085TIP3    H2 3220   1.264   1.215   3.979
 1086TIP3   OH2 3221   4.831   4.471   1.462
 1086TIP3    H1 3222   4.794   4.428   1.539
 1086TIP3    H2 3223   4.805   4.562   1.470
 1087TIP3   OH2 3224   0.705   0.963   2.297
 1087TIP3    H1 3225   0.718   1.033   2.361
 1087TIP3    H2 3226   0.618   0.928   2.317
 1088TIP3   OH2 3227   2.132   6.499   1.653
 1088TIP3    H1 3228   2.135   6.530   1.743
 1088TIP3    H2 3229   2.100   6.573   1.603
 1089TIP3   OH2 3230   1.068   4.953   0.981
 1089TIP3    H1 3231   0.976   4.969   0.960
 1089TIP3    H2 3232   1.111   4.948   0.896
 1090TIP3   OH2 3233   0.282   5.398   4.456
 1090TIP3    H1 3234   0.300   5.460   4.526
 1090TIP3    H2 3235   0.211   5.344   4.489
 1091TIP3   OH2 3236   6.248   2.820   2.804
 1091TIP3    H1 3237   6.292   2.810   2.720
 1091TIP3    H2 3238   6.225   2.912   2.809
 1092TIP3   OH2 3239   1.150   1.673   4.815
 1092TIP3    H1 3240   1.155   1.647   4.907
 1092TIP3    H2 3241   1.208   1.749   4.809
 1093TIP3   OH2 3242   4.266   3.368   3.464
 1093TIP3    H1 3243   4.311   3.453   3.463
 1093TIP3    H2 3244   4.200   3.377   3.532
 1094TIP3   OH2 3245   1.889   4.022   3.860
 1094TIP3    H1 3246   1.893   3.927   3.862
 1094TIP3    H2 3247   1.844   4.043   3.779
 1095TIP3   OH2 3248   4.968   1.304   0.155
 1095TIP3    H1 3249   5.048   1.355   0.166
 1095TIP3    H2 3250   4.902   1.369   0.130
 1096TIP3   OH2 3251   6.334   6.525   5.692
 1096TIP3    H1 3252   6.286   6.577   5.628
 1096TIP3    H2 3253   6.380   6.589   5.746
 1097TIP3   OH2 3254   1.612   1.191   5.214
 1097TIP3    H1 3255   1.669   1.113   5.216
 1097TIP3    H2 3256   1.535   1.165   5.263
 1098TIP3   OH2 3257   1.331   1.213   1.821
 1098TIP3    H1 3258   1.348   1.247   1.734
 1098TIP3    H2 3259   1.297   1.125   1.807
 1099TIP3   OH2 3260   4.395   1.866   3.654
 1099TIP3    H1 3261   4.357   1.845   3.568
 1099TIP3    H2 3262   4.321   1.858   3.714
 1100TIP3   OH2 3263   7.006   5.727   0.610
 1100TIP3    H1 3264   7.066   5.694   0.676
 1100TIP3    H2 3265   6.962   5.801   0.652
 1101TIP3   OH2 3266   4.612   2.569   3.557
 1101TIP3    H1 3267   4.635   2.641   3.615
 1101TIP3    H2 3268   4.694   2.547   3.513
 1102TIP3   OH2 3269   7.093   6.723   3.009
 1102TIP3    H1 3270   7.183   6.692   3.020
 1102TIP3    H2 3271   7.041   6.666   3.066
 1103TIP3   OH2 3272   1.489   3.271   1.886
 1103TIP3    H1 3273   1.547   3.311   1.951
 1103TIP3    H2 3274   1.489   3.178   1.908
 1104TIP3   OH2 3275   1.528   4.294   5.462
 1104TIP3    H1 3276   1.563   4.301   5.551
 1104TIP3    H2 3277   1.433   4.297   5.474
 1105TIP3   OH2 3278   4.092   5.247   3.516
 1105TIP3    H1 3279   4.142   5.166   3.513
 1105TIP3    H2 3280   4.016   5.227   3.572
 1106TIP3   OH2 3281   7.118   0.828   4.001
 1106TIP3    H1 3282   7.054   0.757   4.001
 1106TIP3    H2 3283   7.067   0.906   4.023
 1107TIP3   OH2 3284   7.204   2.939   1.046
 1107TIP3    H1 3285   7.240   2.938   0.958
 1107TIP3    H2 3286   7.162   2.854   1.056
 1108TIP3   OH2 3287   2.509   1.321   1.774
 1108TIP3    H1 3288   2.571   1.319   1.701
 1108TIP3    H2 3289   2.423   1.312   1.732
 1109TIP3   OH2 3290   6.000   3.110   5.224
 1109TIP3    H1 3291   5.931   3.173   5.202
 1109TIP3    H2 3292   5.991   3.040   5.160
 1110TIP3   OH2 3293   6.206   2.471   0.743
 1110TIP3    H1 3294   6.208   2.378   0.723
 1110TIP3    H2 3295   6.246   2.477   0.830
 1111TIP3   OH2 3296   4.997   0.397   2.588
 1111TIP3    H1 3297   4.915   0.353   2.610
 1111TIP3    H2 3298   5.063   0.328   2.588
 1112TIP3   OH2 3299   3.980   5.617   5.115
 1112TIP3    H1 3300   3.913   5.564   5.073
 1112TIP3    H2 3301   4.045   5.554   5.145
 1113TIP3   OH2 3302   1.428   1.964   5.013
 1113TIP3    H1 3303   1.419   1.876   5.047
 1113TIP3    H2 3304   1.365   2.016   5.062
 1114TIP3   OH2 3305   2.674   5.745   1.039
 1114TIP3    H1 3306   2.740   5.711   0.978
 1114TIP3    H2 3307   2.632   5.816   0.991
 1115TIP3   OH2 3308   4.405   4.506   1.232
 1115TIP3    H1 3309   4.446   4.480   1.150
 1115TIP3    H2 3310   4.378   4.597   1.217
 1116TIP3   OH2 3311   5.019   1.764   5.126
 1116TIP3    H1 3312   4.945   1.721   5.083
 1116TIP3    H2 3313   4.978   1.819   5.193
 1117TIP3   OH2 3314   0.159   3.921   5.623
 1117TIP3    H1 3315   0.207   3.863   5.564
 1117TIP3    H2 3316   0.149   4.002   5.574
 1118TIP3   OH2 3317   5.675   2.098   5.661
 1118TIP3    H1 3318   5.606   2.159   5.687
 1118TIP3    H2 3319   5.649   2.069   5.573
 1119TIP3   OH2 3320   0.419   3.645   1.441
 1119TIP3    H1 3321   0.374   3.590   1.505
 1119TIP3    H2 3322   0.399   3.735   1.467
 1120TIP3   OH2 3323   6.833   0.831   4.683
 1120TIP3    H1 3324   6.845   0.781   4.764
 1120TIP3    H2 3325   6.797   0.915   4.712
 1121TIP3   OH2 3326   6.970   4.793   4.494
 1121TIP3    H1 3327   6.986   4.725   4.429
 1121TIP3    H2 3328   6.881   4.824   4.474
 1122TIP3   OH2 3329   0.267   3.532   4.654
 1122TIP3    H1 3330   0.313   3.611   4.625
 1122TIP3    H2 3331   0.215   3.506   4.577
 1123TIP3   OH2 3332   4.370   0.441   0.616
 1123TIP3    H1 3333   4.429   0.365   0.605
 1123TIP3    H2 3334   4.347   0.440   0.709
 1124TIP3   OH2 3335   6.992   5.832   5.762
 1124TIP3    H1 3336   6.989   5.736   5.772
 1124TIP3    H2 3337   6.900   5.857   5.756
 1125TIP3   OH2 3338   2.733   2.457   0.760
 1125TIP3    H1 3339   2.770   2.384   0.810
 1125TIP3    H2 3340   2.674   2.416   0.698
 1126TIP3   OH2 3341   4.928   1.611   5.405
 1126TIP3    H1 3342   4.927   1.636   5.312
 1126TIP3    H2 3343   4.977   1.529   5.407
 1127TIP3   OH2 3344   5.320   3.462   2.832
 1127TIP3    H1 3345   5.274   3.378   2.837
 1127TIP3    H2 3346   5.288   3.512   2.907
 1128TIP3   OH2 3347   5.664   3.705   0.582
 1128TIP3    H1 3348   5.603   3.773   0.609
 1128TIP3    H2 3349   5.705   3.739   0.502
 1129TIP3   OH2 3350   3.915   4.831   1.509
 1129TIP3    H1 3351   3.942   4.911   1.554
 1129TIP3    H2 3352   3.827   4.815   1.542
 1130TIP3   OH2 3353   0.215   2.524   2.136
 1130TIP3    H1 3354   0.219   2.491   2.046
 1130TIP3    H2 3355   0.304   2.554   2.154
 1131TIP3   OH2 3356   1.833   0.734   3.306
 1131TIP3    H1 3357   1.829   0.640   3.285
 1131TIP3    H2 3358   1.783   0.776   3.236
 1132TIP3   OH2 3359   1.312   6.649   0.385
 1132TIP3    H1 3360   1.276   6.564   0.409
 1132TIP3    H2 3361   1.255   6.679   0.313
 1133TIP3   OH2 3362   5.135   6.506   0.716
 1133TIP3    H1 3363   5.093   6.555   0.645
 1133TIP3    H2 3364   5.187   6.439   0.672
 1134TIP3   OH2 3365   3.152   6.045   0.243
 1134TIP3    H1 3366   3.128   6.124   0.291
 1134TIP3    H2 3367   3.230   6.012   0.288
 1135TIP3   OH2 3368   3.658   6.707   3.508
 1135TIP3    H1 3369   3.579   6.672   3.467
 1135TIP3    H2 3370   3.667   6.657   3.589
 1136TIP3   OH2 3371   6.147   1.830   0.469
 1136TIP3    H1 3372   6.139   1.825   0.564
 1136TIP3    H2 3373   6.235   1.865   0.454
 1137TIP3   OH2 3374   6.978   4.896   0.738
 1137TIP3    H1 3375   6.920   4.822   0.719
 1137TIP3    H2 3376   7.047   4.890   0.672
 1138TIP3   OH2 3377   0.326   1.382   3.479
 1138TIP3    H1 3378   0.266   1.319   3.440
 1138TIP3    H2 3379   0.409   1.366   3.434
 1139TIP3   OH2 3380   7.193   2.739   0.525
 1139TIP3    H1 3381   7.194   2.662   0.582
 1139TIP3    H2 3382   7.284   2.750   0.498
 1140TIP3   OH2 3383   1.039   1.277   1.088
 1140TIP3    H1 3384   1.077   1.209   1.033
 1140TIP3    H2 3385   1.092   1.274   1.168
 1141TIP3   OH2 3386   6.365   5.959   3.979
 1141TIP3    H1 3387   6.333   5.987   4.065
 1141TIP3    H2 3388   6.444   5.908   3.999
 1142TIP3   OH2 3389   4.833   5.511   3.176
 1142TIP3    H1 3390   4.778   5.576   3.218
 1142TIP3    H2 3391   4.804   5.509   3.085
 1143TIP3   OH2 3392   6.893   2.613   4.546
 1143TIP3    H1 3393   6.987   2.599   4.560
 1143TIP3    H2 3394   6.854   2.525   4.555
 1144TIP3   OH2 3395   0.972   3.694   2.826
 1144TIP3    H1 3396   0.948   3.608   2.793
 1144TIP3    H2 3397   1.041   3.725   2.768
 1145TIP3   OH2 3398   2.128   6.513   3.159
 1145TIP3    H1 3399   2.112   6.470   3.243
 1145TIP3    H2 3400   2.176   6.448   3.108
 1146TIP3   OH2 3401   1.609   4.991   1.256
 1146TIP3    H1 3402   1.676   4.945   1.307
 1146TIP3    H2 3403   1.541   5.012   1.320
 1147TIP3   OH2 3404   0.065   1.649   2.911
 1147TIP3    H1 3405  -0.008   1.665   2.971
 1147TIP3    H2 3406   0.143   1.665   2.964
 1148TIP3   OH2 3407   3.685   4.438   3.998
 1148TIP3    H1 3408   3.643   4.485   3.926
 1148TIP3    H2 3409   3.614   4.422   4.060
 1149TIP3   OH2 3410   4.342   3.859   3.004
 1149TIP3    H1 3411   4.271   3.808   3.043
 1149TIP3    H2 3412   4.363   3.925   3.070
 1150TIP3   OH2 3413   4.073   2.836   4.649
 1150TIP3    H1 3414   4.124   2.756   4.636
 1150TIP3    H2 3415   4.005   2.833   4.581
 1151TIP3   OH2 3416   3.971   0.828   1.294
 1151TIP3    H1 3417   3.885   0.792   1.273
 1151TIP3    H2 3418   4.032   0.774   1.245
 1152TIP3   OH2 3419   2.584   6.069   3.160
 1152TIP3    H1 3420   2.507   6.105   3.204
 1152TIP3    H2 3421   2.588   6.113   3.076
 1153TIP3   OH2 3422   6.637   0.791   2.196
 1153TIP3    H1 3423   6.634   0.835   2.281
 1153TIP3    H2 3424   6.728   0.796   2.169
 1154TIP3   OH2 3425  -0.016   1.430   3.258
 1154TIP3    H1 3426  -0.025   1.397   3.168
 1154TIP3    H2 3427  -0.006   1.351   3.311
 1155TIP3   OH2 3428   1.923   2.265   0.254
 1155TIP3    H1 3429   1.898   2.302   0.169
 1155TIP3    H2 3430   1.907   2.335   0.316
 1156TIP3   OH2 3431   3.749   0.470   4.290
 1156TIP3    H1 3432   3.749   0.549   4.236
 1156TIP3    H2 3433   3.733   0.399   4.229
 1157TIP3   OH2 3434   0.321   2.425   1.674
 1157TIP3    H1 3435   0.272   2.440   1.593
 1157TIP3    H2 3436   0.411   2.449   1.653
 1158TIP3   OH2 3437   0.738   5.737   4.398
 1158TIP3    H1 3438   0.733   5.641   4.399
 1158TIP3    H2 3439   0.822   5.755   4.357
 1159TIP3   OH2 3440   5.570   3.867   3.681
 1159TIP3    H1 3441   5.552   3.936   3.744
 1159TIP3    H2 3442   5.498   3.872   3.618
 1160TIP3   OH2 3443   6.800   0.959   3.273
 1160TIP3    H1 3444   6.825   0.882   3.323
 1160TIP3    H2 3445   6.790   0.927   3.183
 1161TIP3   OH2 3446   3.652   0.235   5.541
 1161TIP3    H1 3447   3.644   0.188   5.624
 1161TIP3    H2 3448   3.575   0.207   5.491
 1162TIP3   OH2 3449   5.480   5.090   0.561
 1162TIP3    H1 3450   5.400   5.121   0.604
 1162TIP3    H2 3451   5.474   4.995   0.565
 1163TIP3   OH2 3452   3.847   5.738   5.705
 1163TIP3    H1 3453   3.754   5.750   5.689
 1163TIP3    H2 3454   3.853   5.715   5.798
 1164TIP3   OH2 3455   7.006   0.209   0.393
 1164TIP3    H1 3456   6.930   0.224   0.338
 1164TIP3    H2 3457   6.979   0.141   0.455
 1165TIP3   OH2 3458   6.337   0.561   0.969
 1165TIP3    H1 3459   6.278   0.574   1.043
 1165TIP3    H2 3460   6.335   0.645   0.923
 1166TIP3   OH2 3461   2.699   4.253   4.881
 1166TIP3    H1 3462   2.771   4.251   4.944
 1166TIP3    H2 3463   2.632   4.196   4.918
 1167TIP3   OH2 3464   6.720   5.452   3.212
 1167TIP3    H1 3465   6.679   5.376   3.252
 1167TIP3    H2 3466   6.754   5.420   3.128
 1168TIP3   OH2 3467   2.834   6.486   5.644
 1168TIP3    H1 3468   2.789   6.570   5.651
 1168TIP3    H2 3469   2.924   6.505   5.670
 1169TIP3   OH2 3470   0.266   5.231   0.304
 1169TIP3    H1 3471   0.286   5.255   0.394
 1169TIP3    H2 3472   0.172   5.213   0.304
 1170TIP3   OH2 3473   4.554   0.207   2.783
 1170TIP3    H1 3474   4.477   0.154   2.806
 1170TIP3    H2 3475   4.520   0.296   2.773
 1171TIP3   OH2 3476   2.651   1.729   0.935
 1171TIP3    H1 3477   2.584   1.765   0.992
 1171TIP3    H2 3478   2.693   1.806   0.896
 1172TIP3   OH2 3479   3.054   5.025   2.014
 1172TIP3    H1 3480   3.030   5.041   1.923
 1172TIP3    H2 3481   3.119   5.092   2.034
 1173TIP3   OH2 3482   6.752   6.554   5.401
 1173TIP3    H1 3483   6.676   6.612   5.400
 1173TIP3    H2 3484   6.817   6.599   5.347
 1174TIP3   OH2 3485   6.149   5.918   3.468
 1174TIP3    H1 3486   6.139   5.903   3.562
 1174TIP3    H2 3487   6.241   5.941   3.457
 1175TIP3   OH2 3488   3.845   4.296   5.652
 1175TIP3    H1 3489   3.833   4.251   5.568
 1175TIP3    H2 3490   3.760   4.288   5.695
 1176TIP3   OH2 3491   6.668   0.873   0.731
 1176TIP3    H1 3492   6.729   0.944   0.713
 1176TIP3    H2 3493   6.679   0.854   0.824
 1177TIP3   OH2 3494   4.205   5.831   5.955
 1177TIP3    H1 3495   4.202   5.924   5.934
 1177TIP3    H2 3496   4.200   5.787   5.870
 1178TIP3   OH2 3497   3.755   5.026   5.796
 1178TIP3    H1 3498   3.719   5.107   5.832
 1178TIP3    H2 3499   3.850   5.041   5.793
 1179TIP3   OH2 3500   5.039   2.759   3.194
 1179TIP3    H1 3501   5.058   2.829   3.257
 1179TIP3    H2 3502   4.960   2.789   3.149
 1180TIP3   OH2 3503   3.219   0.364   4.502
 1180TIP3    H1 3504   3.154   0.294   4.502
 1180TIP3    H2 3505   3.296   0.326   4.458
 1181TIP3   OH2 3506   4.740   3.151   3.846
 1181TIP3    H1 3507   4.757   3.107   3.929
 1181TIP3    H2 3508   4.805   3.222   3.843
 1182TIP3   OH2 3509   2.501   6.125   5.442
 1182TIP3    H1 3510   2.500   6.032   5.420
 1182TIP3    H2 3511   2.556   6.131   5.520
 1183TIP3   OH2 3512   2.280   3.078   2.434
 1183TIP3    H1 3513   2.280   2.996   2.483
 1183TIP3    H2 3514   2.338   3.062   2.360
 1184TIP3   OH2 3515   4.362   3.434   4.525
 1184TIP3    H1 3516   4.327   3.387   4.601
 1184TIP3    H2 3517   4.296   3.502   4.507
 1185TIP3   OH2 3518   6.389   6.068   2.653
 1185TIP3    H1 3519   6.418   6.062   2.562
 1185TIP3    H2 3520   6.470   6.062   2.704
 1186TIP3   OH2 3521   7.158   1.898   1.094
 1186TIP3    H1 3522   7.150   1.910   0.999
 1186TIP3    H2 3523   7.068   1.903   1.126
 1187TIP3   OH2 3524   3.096   3.038   0.832
 1187TIP3    H1 3525   3.078   2.972   0.898
 1187TIP3    H2 3526   3.009   3.065   0.801
 1188TIP3   OH2 3527   0.869   5.502   0.833
 1188TIP3    H1 3528   0.838   5.525   0.745
 1188TIP3    H2 3529   0.949   5.452   0.818
 1189TIP3   OH2 3530   2.098   2.054   0.388
 1189TIP3    H1 3531   2.112   1.989   0.319
 1189TIP3    H2 3532   2.019   2.025   0.433
 1190TIP3   OH2 3533   0.206   4.912   2.315
 1190TIP3    H1 3534   0.231   4.858   2.390
 1190TIP3    H2 3535   0.284   4.914   2.259
 1191TIP3   OH2 3536   1.571   3.999   4.599
 1191TIP3    H1 3537   1.493   3.975   4.549
 1191TIP3    H2 3538   1.641   3.943   4.565
 1192TIP3   OH2 3539   4.335   2.282   3.376
 1192TIP3    H1 3540   4.332   2.333   3.457
 1192TIP3    H2 3541   4.257   2.310   3.328
 1193TIP3   OH2 3542   3.795   6.556   4.929
 1193TIP3    H1 3543   3.890   6.551   4.932
 1193TIP3    H2 3544   3.770   6.585   5.017
 1194TIP3   OH2 3545   4.049   0.939   0.272
 1194TIP3    H1 3546   4.091   1.005   0.217
 1194TIP3    H2 3547   4.115   0.919   0.339
 1195TIP3   OH2 3548   5.197   6.396   1.442
 1195TIP3    H1 3549   5.229   6.468   1.387
 1195TIP3    H2 3550   5.201   6.319   1.385
 1196TIP3   OH2 3551   6.556   1.007   0.503
 1196TIP3    H1 3552   6.511   1.042   0.426
 1196TIP3    H2 3553   6.488   0.963   0.553
 1197TIP3   OH2 3554   3.971   2.403   0.426
 1197TIP3    H1 3555   3.969   2.433   0.517
 1197TIP3    H2 3556   3.928   2.473   0.377
 1198TIP3   OH2 3557   0.178   2.576   1.014
 1198TIP3    H1 3558   0.175   2.484   1.041
 1198TIP3    H2 3559   0.268   2.602   1.029
 1199TIP3   OH2 3560   1.229   4.324   0.518
 1199TIP3    H1 3561   1.175   4.248   0.541
 1199TIP3    H2 3562   1.260   4.358   0.602
 1200TIP3   OH2 3563   6.894   4.366   0.112
 1200TIP3    H1 3564   6.928   4.442   0.065
 1200TIP3    H2 3565   6.819   4.399   0.162
 1201TIP3   OH2 3566   0.885   3.646   1.143
 1201TIP3    H1 3567   0.814   3.624   1.204
 1201TIP3    H2 3568   0.840   3.682   1.066
 1202TIP3   OH2 3569   3.679   2.220   1.265
 1202TIP3    H1 3570   3.706   2.186   1.350
 1202TIP3    H2 3571   3.609   2.161   1.236
 1203TIP3   OH2 3572   3.412   0.191   3.246
 1203TIP3    H1 3573   3.409   0.257   3.177
 1203TIP3    H2 3574   3.496   0.205   3.289
 1204TIP3   OH2 3575   1.796   1.627   3.590
 1204TIP3    H1 3576   1.843   1.592   3.666
 1204TIP3    H2 3577   1.705   1.600   3.605
 1205TIP3   OH2 3578   5.439   0.921   0.573
 1205TIP3    H1 3579   5.433   0.826   0.577
 1205TIP3    H2 3580   5.349   0.952   0.584
 1206TIP3   OH2 3581   2.605   0.640   2.385
 1206TIP3    H1 3582   2.576   0.658   2.295
 1206TIP3    H2 3583   2.631   0.548   2.384
 1207TIP3   OH2 3584   1.675   2.460   2.337
 1207TIP3    H1 3585   1.684   2.379   2.387
 1207TIP3    H2 3586   1.598   2.446   2.282
 1208TIP3   OH2 3587   6.729   3.647   1.193
 1208TIP3    H1 3588   6.730   3.646   1.289
 1208TIP3    H2 3589   6.800   3.705   1.168
 1209TIP3   OH2 3590   0.668   0.162   4.019
 1209TIP3    H1 3591   0.652   0.068   4.008
 1209TIP3    H2 3592   0.642   0.179   4.110
 1210TIP3   OH2 3593   2.096   2.090   1.986
 1210TIP3    H1 3594   2.184   2.064   1.958
 1210TIP3    H2 3595   2.054   2.122   1.906
 1211TIP3   OH2 3596   6.672   5.722   1.611
 1211TIP3    H1 3597   6.590   5.672   1.614
 1211TIP3    H2 3598   6.716   5.701   1.693
 1212TIP3   OH2 3599   1.918   0.611   4.253
 1212TIP3    H1 3600   1.844   0.669   4.238
 1212TIP3    H2 3601   1.920   0.598   4.347
 1213TIP3   OH2 3602   6.809   0.460   2.568
 1213TIP3    H1 3603   6.807   0.530   2.503
 1213TIP3    H2 3604   6.720   0.425   2.568
 1214TIP3   OH2 3605  -0.003   0.230   5.385
 1214TIP3    H1 3606   0.070   0.253   5.442
 1214TIP3    H2 3607   0.035   0.168   5.322
 1215TIP3   OH2 3608   6.277   0.729   1.394
 1215TIP3    H1 3609   6.197   0.770   1.427
 1215TIP3    H2 3610   6.291   0.771   1.309
 1216TIP3   OH2 3611   1.764   5.144   1.475
 1216TIP3    H1 3612   1.788   5.054   1.496
 1216TIP3    H2 3613   1.770   5.191   1.558
 1217TIP3   OH2 3614   2.497   1.041   1.542
 1217TIP3    H1 3615   2.482   1.068   1.451
 1217TIP3    H2 3616   2.591   1.051   1.555
 1218TIP3   OH2 3617   2.626   3.835   2.298
 1218TIP3    H1 3618   2.566   3.898   2.258
 1218TIP3    H2 3619   2.597   3.750   2.265
 1219TIP3   OH2 3620   3.266   1.163   3.247
 1219TIP3    H1 3621   3.272   1.070   3.269
 1219TIP3    H2 3622   3.346   1.202   3.282
 1220TIP3   OH2 3623   4.743   5.745   5.418
 1220TIP3    H1 3624   4.670   5.805   5.404
 1220TIP3    H2 3625   4.768   5.758   5.509
 1221TIP3   OH2 3626   6.482   1.210   3.629
 1221TIP3    H1 3627   6.578   1.213   3.622
 1221TIP3    H2 3628   6.457   1.134   3.577
 1222TIP3   OH2 3629   5.491   2.830   1.966
 1222TIP3    H1 3630   5.488   2.870   2.053
 1222TIP3    H2 3631   5.581   2.841   1.937
 1223TIP3   OH2 3632   5.391   0.329   5.144
 1223TIP3    H1 3633   5.433   0.400   5.096
 1223TIP3    H2 3634   5.298   0.350   5.142
 1224TIP3   OH2 3635   2.231   6.107   2.438
 1224TIP3    H1 3636   2.188   6.036   2.484
 1224TIP3    H2 3637   2.321   6.077   2.425
 1225TIP3   OH2 3638   5.935   4.109   1.698
 1225TIP3    H1 3639   5.862   4.137   1.754
 1225TIP3    H2 3640   5.930   4.013   1.699
 1226TIP3   OH2 3641   5.291   2.567   2.190
 1226TIP3    H1 3642   5.285   2.658   2.218
 1226TIP3    H2 3643   5.344   2.524   2.258
 1227TIP3   OH2 3644   0.964   0.553   4.804
 1227TIP3    H1 3645   1.016   0.632   4.789
 1227TIP3    H2 3646   0.992   0.524   4.891
 1228TIP3   OH2 3647   0.131   6.300   3.089
 1228TIP3    H1 3648   0.195   6.241   3.128
 1228TIP3    H2 3649   0.053   6.291   3.144
 1229TIP3   OH2 3650   0.883   5.450   0.029
 1229TIP3    H1 3651   0.807   5.484   0.076
 1229TIP3    H2 3652   0.855   5.446  -0.062
 1230TIP3   OH2 3653   4.848   3.569   5.209
 1230TIP3    H1 3654   4.838   3.561   5.115
 1230TIP3    H2 3655   4.931   3.527   5.229
 1231TIP3   OH2 3656   5.401   0.971   2.785
 1231TIP3    H1 3657   5.325   1.029   2.792
 1231TIP3    H2 3658   5.374   0.904   2.722
 1232TIP3   OH2 3659   3.210   2.590   0.709
 1232TIP3    H1 3660   3.207   2.525   0.639
 1232TIP3    H2 3661   3.162   2.665   0.673
 1233TIP3   OH2 3662   1.756   3.986   4.295
 1233TIP3    H1 3663   1.732   3.948   4.380
 1233TIP3    H2 3664   1.794   3.914   4.245
 1234TIP3   OH2 3665   3.966   5.052   0.707
 1234TIP3    H1 3666   3.903   4.984   0.731
 1234TIP3    H2 3667   3.922   5.103   0.639
 1235TIP3   OH2 3668   0.488   6.699   1.821
 1235TIP3    H1 3669   0.412   6.729   1.870
 1235TIP3    H2 3670   0.490   6.604   1.835
 1236TIP3   OH2 3671   1.466   4.533   0.220
 1236TIP3    H1 3672   1.471   4.608   0.161
 1236TIP3    H2 3673   1.552   4.527   0.260
 1237TIP3   OH2 3674   3.730   3.330   0.193
 1237TIP3    H1 3675   3.811   3.371   0.226
 1237TIP3    H2 3676   3.689   3.293   0.270
 1238TIP3   OH2 3677   5.966   0.039   0.913
 1238TIP3    H1 3678   6.037  -0.024   0.896
 1238TIP3    H2 3679   6.011   0.116   0.947
 1239TIP3   OH2 3680   3.035   2.768   2.484
 1239TIP3    H1 3681   2.948   2.799   2.510
 1239TIP3    H2 3682   3.057   2.702   2.550
 1240TIP3   OH2 3683   5.853   0.069   3.109
 1240TIP3    H1 3684   5.840   0.128   3.183
 1240TIP3    H2 3685   5.765   0.051   3.077
 1241TIP3   OH2 3686   3.825   4.881   5.352
 1241TIP3    H1 3687   3.745   4.837   5.381
 1241TIP3    H2 3688   3.886   4.810   5.333
 1242TIP3   OH2 3689   1.817   2.939   2.035
 1242TIP3    H1 3690   1.792   2.853   2.070
 1242TIP3    H2 3691   1.904   2.955   2.073
 1243TIP3   OH2 3692   4.796   2.442   3.406
 1243TIP3    H1 3693   4.881   2.445   3.450
 1243TIP3    H2 3694   4.754   2.363   3.440
 1244TIP3   OH2 3695   1.962   1.356   1.881
 1244TIP3    H1 3696   1.957   1.278   1.825
 1244TIP3    H2 3697   2.035   1.338   1.940
 1245TIP3   OH2 3698   0.159   5.607   4.273
 1245TIP3    H1 3699   0.097   5.581   4.341
 1245TIP3    H2 3700   0.206   5.681   4.310
 1246TIP3   OH2 3701   1.786   0.970   5.243
 1246TIP3    H1 3702   1.789   0.900   5.308
 1246TIP3    H2 3703   1.841   0.940   5.172
 1247TIP3   OH2 3704   0.329   0.260   2.178
 1247TIP3    H1 3705   0.332   0.334   2.240
 1247TIP3    H2 3706   0.387   0.194   2.217
 1248TIP3   OH2 3707   1.946   2.913   4.258
 1248TIP3    H1 3708   1.930   2.826   4.294
 1248TIP3    H2 3709   1.881   2.969   4.300
 1249TIP3   OH2 3710   4.951   2.501   2.293
 1249TIP3    H1 3711   4.997   2.569   2.244
 1249TIP3    H2 3712   5.018   2.464   2.350
 1250TIP3   OH2 3713   1.545   0.226   2.089
 1250TIP3    H1 3714   1.581   0.151   2.043
 1250TIP3    H2 3715   1.620   0.282   2.107
 1251TIP3   OH2 3716   2.354   0.170   4.645
 1251TIP3    H1 3717   2.354   0.084   4.605
 1251TIP3    H2 3718   2.427   0.167   4.707
 1252TIP3   OH2 3719   3.537   1.605   3.679
 1252TIP3    H1 3720   3.618   1.602   3.629
 1252TIP3    H2 3721   3.559   1.654   3.758
 1253TIP3   OH2 3722   3.435   5.153   0.740
 1253TIP3    H1 3723   3.344   5.163   0.765
 1253TIP3    H2 3724   3.433   5.137   0.646
 1254TIP3   OH2 3725   7.152   3.314   1.398
 1254TIP3    H1 3726   7.194   3.251   1.340
 1254TIP3    H2 3727   7.067   3.332   1.357
 1255TIP3   OH2 3728   3.814   5.074   1.325
 1255TIP3    H1 3729   3.754   5.102   1.394
 1255TIP3    H2 3730   3.887   5.033   1.372
 1256TIP3   OH2 3731   0.144   1.082   4.438
 1256TIP3    H1 3732   0.109   1.013   4.383
 1256TIP3    H2 3733   0.096   1.074   4.521
 1257TIP3   OH2 3734   6.746   0.592   1.173
 1257TIP3    H1 3735   6.736   0.670   1.228
 1257TIP3    H2 3736   6.841   0.577   1.171
 1258TIP3   OH2 3737   4.662   5.473   4.941
 1258TIP3    H1 3738   4.620   5.485   5.026
 1258TIP3    H2 3739   4.627   5.390   4.909
 1259TIP3   OH2 3740   3.175   5.236   3.277
 1259TIP3    H1 3741   3.169   5.314   3.222
 1259TIP3    H2 3742   3.161   5.268   3.366
 1260TIP3   OH2 3743   1.411   3.025   2.981
 1260TIP3    H1 3744   1.365   3.060   3.057
 1260TIP3    H2 3745   1.375   3.073   2.907
 1261TIP3   OH2 3746   5.048   2.973   3.349
 1261TIP3    H1 3747   5.135   3.004   3.374
 1261TIP3    H2 3748   4.988   3.035   3.388
 1262TIP3   OH2 3749   3.110   2.486   2.265
 1262TIP3    H1 3750   3.033   2.519   2.311
 1262TIP3    H2 3751   3.183   2.503   2.324
 1263TIP3   OH2 3752   5.294   4.215   2.502
 1263TIP3    H1 3753   5.349   4.154   2.552
 1263TIP3    H2 3754   5.356   4.271   2.456
 1264TIP3   OH2 3755   6.189   0.077   5.246
 1264TIP3    H1 3756   6.136  -0.002   5.260
 1264TIP3    H2 3757   6.279   0.048   5.259
 1265TIP3   OH2 3758   6.995   4.106   3.279
 1265TIP3    H1 3759   6.949   4.125   3.360
 1265TIP3    H2 3760   6.946   4.153   3.212
 1266TIP3   OH2 3761   0.880   5.555   0.567
 1266TIP3    H1 3762   0.943   5.525   0.502
 1266TIP3    H2 3763   0.796   5.559   0.520
 1267TIP3   OH2 3764   4.173   1.155   2.795
 1267TIP3    H1 3765   4.201   1.227   2.738
 1267TIP3    H2 3766   4.183   1.189   2.884
 1268TIP3   OH2 3767   0.584   3.813   4.256
 1268TIP3    H1 3768   0.590   3.723   4.286
 1268TIP3    H2 3769   0.607   3.865   4.333
 1269TIP3   OH2 3770   2.863   1.285   5.079
 1269TIP3    H1 3771   2.802   1.224   5.038
 1269TIP3    H2 3772   2.944   1.236   5.089
 1270TIP3   OH2 3773   2.909   6.410   3.873
 1270TIP3    H1 3774   2.902   6.476   3.804
 1270TIP3    H2 3775   3.001   6.409   3.897
 1271TIP3   OH2 3776   0.448   2.254   4.685
 1271TIP3    H1 3777   0.465   2.195   4.612
 1271TIP3    H2 3778   0.479   2.339   4.655
 1272TIP3   OH2 3779   0.884   0.050   4.212
 1272TIP3    H1 3780   0.966   0.013   4.244
 1272TIP3    H2 3781   0.888   0.142   4.239
 1273TIP3   OH2 3782   3.163   4.437   4.153
 1273TIP3    H1 3783   3.185   4.361   4.206
 1273TIP3    H2 3784   3.118   4.497   4.213
 1274TIP3   OH2 3785   6.563   4.297   4.187
 1274TIP3    H1 3786   6.629   4.333   4.127
 1274TIP3    H2 3787   6.479   4.318   4.145
 1275TIP3   OH2 3788   1.825   5.440   0.459
 1275TIP3    H1 3789   1.821   5.361   0.512
 1275TIP3    H2 3790   1.788   5.414   0.375
 1276TIP3   OH2 3791   7.138   0.543   2.311
 1276TIP3    H1 3792   7.177   0.538   2.398
 1276TIP3    H2 3793   7.120   0.452   2.287
 1277TIP3   OH2 3794   1.114   6.398   1.996
 1277TIP3    H1 3795   1.176   6.470   1.986
 1277TIP3    H2 3796   1.029   6.440   2.003
 1278TIP3   OH2 3797   4.025   3.567   0.563
 1278TIP3    H1 3798   4.108   3.555   0.608
 1278TIP3    H2 3799   3.960   3.525   0.620
 1279TIP3   OH2 3800   1.465   1.464   4.498
 1279TIP3    H1 3801   1.478   1.530   4.430
 1279TIP3    H2 3802   1.384   1.490   4.542
 1280TIP3   OH2 3803   5.856   6.164   3.290
 1280TIP3    H1 3804   5.836   6.258   3.286
 1280TIP3    H2 3805   5.818   6.129   3.209
 1281TIP3   OH2 3806   4.181   1.740   0.571
 1281TIP3    H1 3807   4.181   1.823   0.523
 1281TIP3    H2 3808   4.199   1.674   0.505
 1282TIP3   OH2 3809   5.216   0.036   4.751
 1282TIP3    H1 3810   5.226   0.084   4.668
 1282TIP3    H2 3811   5.189   0.102   4.814
 1283TIP3   OH2 3812   6.740   2.148   0.375
 1283TIP3    H1 3813   6.705   2.232   0.405
 1283TIP3    H2 3814   6.675   2.117   0.311
 1284TIP3   OH2 3815   1.120   1.899   1.397
 1284TIP3    H1 3816   1.191   1.835   1.391
 1284TIP3    H2 3817   1.053   1.866   1.338
 1285TIP3   OH2 3818   6.590   2.037   0.786
 1285TIP3    H1 3819   6.624   2.004   0.702
 1285TIP3    H2 3820   6.601   2.132   0.779
 1286TIP3   OH2 3821   0.435   4.063   0.848
 1286TIP3    H1 3822   0.383   4.043   0.926
 1286TIP3    H2 3823   0.383   4.129   0.802
 1287TIP3   OH2 3824   0.574   5.531   5.317
 1287TIP3    H1 3825   0.573   5.547   5.412
 1287TIP3    H2 3826   0.642   5.589   5.284
 1288TIP3   OH2 3827   4.728   5.355   2.156
 1288TIP3    H1 3828   4.812   5.355   2.202
 1288TIP3    H2 3829   4.703   5.263   2.151
 1289TIP3   OH2 3830   4.692   4.925   5.656
 1289TIP3    H1 3831   4.608   4.925   5.609
 1289TIP3    H2 3832   4.730   5.011   5.637
 1290TIP3   OH2 3833   1.774   0.896   5.712
 1290TIP3    H1 3834   1.844   0.900   5.647
 1290TIP3    H2 3835   1.756   0.802   5.722
 1291TIP3   OH2 3836   0.971   5.736   5.475
 1291TIP3    H1 3837   1.016   5.805   5.426
 1291TIP3    H2 3838   0.982   5.657   5.422
 1292TIP3   OH2 3839   2.240   0.625   1.408
 1292TIP3    H1 3840   2.291   0.700   1.438
 1292TIP3    H2 3841   2.217   0.647   1.318
 1293TIP3   OH2 3842   4.068   1.972   2.945
 1293TIP3    H1 3843   4.006   2.032   2.986
 1293TIP3    H2 3844   4.139   1.964   3.009
 1294TIP3   OH2 3845   7.001   4.886   5.362
 1294TIP3    H1 3846   7.021   4.978   5.349
 1294TIP3    H2 3847   7.057   4.841   5.298
 1295TIP3   OH2 3848   0.377   4.067   4.581
 1295TIP3    H1 3849   0.286   4.075   4.552
 1295TIP3    H2 3850   0.371   4.052   4.675
 1296TIP3   OH2 3851   7.041   4.992   2.687
 1296TIP3    H1 3852   7.049   4.897   2.683
 1296TIP3    H2 3853   7.088   5.024   2.610
 1297TIP3   OH2 3854   4.900   4.362   1.013
 1297TIP3    H1 3855   4.876   4.431   1.074
 1297TIP3    H2 3856   4.849   4.381   0.934
 1298TIP3   OH2 3857   6.680   3.404   5.558
 1298TIP3    H1 3858   6.655   3.431   5.646
 1298TIP3    H2 3859   6.776   3.403   5.559
 1299TIP3   OH2 3860   6.904   3.781   5.863
 1299TIP3    H1 3861   6.917   3.686   5.853
 1299TIP3    H2 3862   6.987   3.819   5.834
 1300TIP3   OH2 3863   1.330   5.295   3.548
 1300TIP3    H1 3864   1.371   5.360   3.604
 1300TIP3    H2 3865   1.399   5.230   3.532
 1301TIP3   OH2 3866   2.129   3.828   5.629
 1301TIP3    H1 3867   2.132   3.755   5.692
 1301TIP3    H2 3868   2.221   3.847   5.610
 1302TIP3   OH2 3869   2.734   4.088   5.856
 1302TIP3    H1 3870   2.749   4.075   5.762
 1302TIP3    H2 3871   2.688   4.172   5.861
 1303TIP3   OH2 3872   5.762   1.197   2.744
 1303TIP3    H1 3873   5.678   1.234   2.720
 1303TIP3    H2 3874   5.804   1.176   2.660
 1304TIP3   OH2 3875   6.137   5.783   0.485
 1304TIP3    H1 3876   6.114   5.739   0.404
 1304TIP3    H2 3877   6.077   5.747   0.551
 1305TIP3   OH2 3878   0.290   2.152   3.744
 1305TIP3    H1 3879   0.257   2.065   3.769
 1305TIP3    H2 3880   0.354   2.135   3.675
 1306TIP3   OH2 3881   6.428   0.712   0.391
 1306TIP3    H1 3882   6.453   0.724   0.299
 1306TIP3    H2 3883   6.511   0.708   0.438
 1307TIP3   OH2 3884   5.909   0.800   2.439
 1307TIP3    H1 3885   5.818   0.802   2.409
 1307TIP3    H2 3886   5.921   0.711   2.474
 1308TIP3   OH2 3887   5.387   1.666   1.457
 1308TIP3    H1 3888   5.443   1.647   1.532
 1308TIP3    H2 3889   5.368   1.760   1.464
 1309TIP3   OH2 3890   1.203   3.349   4.054
 1309TIP3    H1 3891   1.245   3.340   3.968
 1309TIP3    H2 3892   1.110   3.341   4.035
 1310TIP3   OH2 3893   1.804   4.846   1.363
 1310TIP3    H1 3894   1.810   4.835   1.458
 1310TIP3    H2 3895   1.884   4.805   1.329
 1311TIP3   OH2 3896   5.812   5.706   0.344
 1311TIP3    H1 3897   5.889   5.649   0.346
 1311TIP3    H2 3898   5.798   5.724   0.251
 1312TIP3   OH2 3899   5.834   2.426   1.314
 1312TIP3    H1 3900   5.886   2.421   1.394
 1312TIP3    H2 3901   5.881   2.488   1.259
 1313TIP3   OH2 3902   1.678   2.576   4.587
 1313TIP3    H1 3903   1.751   2.579   4.649
 1313TIP3    H2 3904   1.605   2.616   4.634
 1314TIP3   OH2 3905   2.710   3.217   3.418
 1314TIP3    H1 3906   2.668   3.299   3.445
 1314TIP3    H2 3907   2.765   3.192   3.492
 1315TIP3   OH2 3908   5.395   1.770   0.083
 1315TIP3    H1 3909   5.487   1.797   0.083
 1315TIP3    H2 3910   5.349   1.839   0.130
 1316TIP3   OH2 3911   3.479   5.601   5.017
 1316TIP3    H1 3912   3.471   5.618   4.923
 1316TIP3    H2 3913   3.400   5.551   5.038
 1317TIP3   OH2 3914   7.257   3.931   2.589
 1317TIP3    H1 3915   7.204   4.004   2.621
 1317TIP3    H2 3916   7.197   3.857   2.583
 1318TIP3   OH2 3917   2.239   0.593   5.805
 1318TIP3    H1 3918   2.266   0.678   5.769
 1318TIP3    H2 3919   2.219   0.539   5.729
 1319TIP3   OH2 3920   0.294   2.089   1.727
 1319TIP3    H1 3921   0.364   2.134   1.679
 1319TIP3    H2 3922   0.333   2.067   1.811
 1320TIP3   OH2 3923   1.992   2.025   0.132
 1320TIP3    H1 3924   1.904   1.998   0.108
 1320TIP3    H2 3925   1.979   2.097   0.194
 1321TIP3   OH2 3926   0.369   6.225   0.258
 1321TIP3    H1 3927   0.325   6.148   0.295
 1321TIP3    H2 3928   0.333   6.234   0.170
 1322TIP3   OH2 3929   2.914   5.009   2.748
 1322TIP3    H1 3930   2.929   4.967   2.663
 1322TIP3    H2 3931   2.998   5.047   2.771
 1323TIP3   OH2 3932   4.827   3.644   2.074
 1323TIP3    H1 3933   4.846   3.573   2.013
 1323TIP3    H2 3934   4.876   3.623   2.153
 1324TIP3   OH2 3935   2.157   4.369   1.607
 1324TIP3    H1 3936   2.080   4.340   1.657
 1324TIP3    H2 3937   2.140   4.341   1.518
 1325TIP3   OH2 3938   6.712   5.314   2.177
 1325TIP3    H1 3939   6.792   5.366   2.176
 1325TIP3    H2 3940   6.719   5.259   2.255
 1326TIP3   OH2 3941   3.755   6.243   1.436
 1326TIP3    H1 3942   3.694   6.190   1.488
 1326TIP3    H2 3943   3.757   6.200   1.351
 1327TIP3   OH2 3944   0.828   0.077   4.711
 1327TIP3    H1 3945   0.826   0.017   4.786
 1327TIP3    H2 3946   0.886   0.035   4.648
 1328TIP3   OH2 3947   7.048   1.653   2.067
 1328TIP3    H1 3948   7.065   1.585   2.002
 1328TIP3    H2 3949   6.954   1.649   2.082
 1329TIP3   OH2 3950   3.390   2.793   0.947
 1329TIP3    H1 3951   3.326   2.864   0.952
 1329TIP3    H2 3952   3.339   2.714   0.961
 1330TIP3   OH2 3953   2.537   4.503   2.303
 1330TIP3    H1 3954   2.457   4.459   2.272
 1330TIP3    H2 3955   2.606   4.438   2.290
 1331TIP3   OH2 3956   5.058   0.401   4.164
 1331TIP3    H1 3957   5.050   0.306   4.163
 1331TIP3    H2 3958   5.133   0.419   4.220
 1332TIP3   OH2 3959   4.387   4.782   2.108
 1332TIP3    H1 3960   4.344   4.792   2.023
 1332TIP3    H2 3961   4.353   4.699   2.142
 1333TIP3   OH2 3962   2.478   0.164   0.622
 1333TIP3    H1 3963   2.565   0.171   0.661
 1333TIP3    H2 3964   2.429   0.237   0.659
 1334TIP3   OH2 3965   2.196   3.266   4.587
 1334TIP3    H1 3966   2.249   3.327   4.537
 1334TIP3    H2 3967   2.119   3.251   4.532
 1335TIP3   OH2 3968   2.772   4.205   5.580
 1335TIP3    H1 3969   2.835   4.269   5.615
 1335TIP3    H2 3970   2.815   4.171   5.501
 1336TIP3   OH2 3971   2.326   3.407   3.283
 1336TIP3    H1 3972   2.295   3.437   3.197
 1336TIP3    H2 3973   2.305   3.313   3.284
 1337TIP3   OH2 3974   0.220   2.313   1.117
 1337TIP3    H1 3975   0.312   2.333   1.132
 1337TIP3    H2 3976   0.220   2.220   1.091
 1338TIP3   OH2 3977   3.305   5.685   3.459
 1338TIP3    H1 3978   3.276   5.774   3.477
 1338TIP3    H2 3979   3.228   5.631   3.479
 1339TIP3   OH2 3980   2.574   5.004   2.478
 1339TIP3    H1 3981   2.574   5.025   2.571
 1339TIP3    H2 3982   2.658   4.961   2.463
 1340TIP3   OH2 3983   1.975   2.299   3.488
 1340TIP3    H1 3984   1.967   2.221   3.543
 1340TIP3    H2 3985   2.044   2.351   3.530
 1341TIP3   OH2 3986   1.899   2.568   1.927
 1341TIP3    H1 3987   1.882   2.617   2.007
 1341TIP3    H2 3988   1.813   2.558   1.886
 1342TIP3   OH2 3989   0.253   6.733   2.595
 1342TIP3    H1 3990   0.235   6.797   2.665
 1342TIP3    H2 3991   0.205   6.767   2.520
 1343TIP3   OH2 3992   7.134   1.317   2.090
 1343TIP3    H1 3993   7.111   1.347   2.002
 1343TIP3    H2 3994   7.229   1.326   2.095
 1344TIP3   OH2 3995   5.882   4.714   1.557
 1344TIP3    H1 3996   5.955   4.655   1.576
 1344TIP3    H2 3997   5.805   4.657   1.551
 1345TIP3   OH2 3998   6.941   4.261   4.392
 1345TIP3    H1 3999   6.848   4.248   4.412
 1345TIP3    H2 4000   6.982   4.276   4.478
 1346TIP3   OH2 4001   1.081   0.184   5.522
 1346TIP3    H1 4002   1.074   0.266   5.571
 1346TIP3    H2 4003   1.157   0.196   5.466
 1347TIP3   OH2 4004   5.086   0.141   1.632
 1347TIP3    H1 4005   5.094   0.236   1.640
 1347TIP3    H2 4006   5.176   0.110   1.618
 1348TIP3   OH2 4007   1.108   0.908   0.203
 1348TIP3    H1 4008   1.027   0.917   0.253
 1348TIP3    H2 4009   1.168   0.865   0.264
 1349TIP3   OH2 4010   3.735   5.462   2.978
 1349TIP3    H1 4011   3.667   5.459   3.046
 1349TIP3    H2 4012   3.777   5.547   2.991
 1350TIP3   OH2 4013   2.872   1.360   3.271
 1350TIP3    H1 4014   2.817   1.299   3.222
 1350TIP3    H2 4015   2.960   1.346   3.236
 1351TIP3   OH2 4016   5.582   0.771   0.012
 1351TIP3    H1 4017   5.546   0.858   0.030
 1351TIP3    H2 4018   5.619   0.742   0.095
 1352TIP3   OH2 4019   4.143   0.227   2.033
 1352TIP3    H1 4020   4.180   0.308   2.070
 1352TIP3    H2 4021   4.149   0.239   1.938
 1353TIP3   OH2 4022   0.505   1.193   0.468
 1353TIP3    H1 4023   0.438   1.204   0.535
 1353TIP3    H2 4024   0.458   1.151   0.395
 1354TIP3   OH2 4025   5.891   1.059   2.519
 1354TIP3    H1 4026   5.895   0.966   2.497
 1354TIP3    H2 4027   5.945   1.102   2.454
 1355TIP3   OH2 4028   4.333   1.876   2.178
 1355TIP3    H1 4029   4.278   1.944   2.140
 1355TIP3    H2 4030   4.275   1.830   2.239
 1356TIP3   OH2 4031   4.338   5.592   3.771
 1356TIP3    H1 4032   4.369   5.509   3.735
 1356TIP3    H2 4033   4.346   5.581   3.866
 1357TIP3   OH2 4034   1.769   1.450   5.647
 1357TIP3    H1 4035   1.756   1.387   5.576
 1357TIP3    H2 4036   1.682   1.459   5.686
 1358TIP3   OH2 4037   1.795   5.657   1.629
 1358TIP3    H1 4038   1.816   5.737   1.678
 1358TIP3    H2 4039   1.725   5.616   1.680
 1359TIP3   OH2 4040   3.163   3.502   3.133
 1359TIP3    H1 4041   3.239   3.558   3.114
 1359TIP3    H2 4042   3.088   3.560   3.124
 1360TIP3   OH2 4043   3.534   2.250   2.519
 1360TIP3    H1 4044   3.578   2.224   2.600
 1360TIP3    H2 4045   3.591   2.218   2.449
 1361TIP3   OH2 4046   6.512   1.947   3.733
 1361TIP3    H1 4047   6.418   1.962   3.722
 1361TIP3    H2 4048   6.519   1.878   3.799
 1362TIP3   OH2 4049   2.560   4.092   5.413
 1362TIP3    H1 4050   2.650   4.086   5.446
 1362TIP3    H2 4051   2.533   4.181   5.435
 1363TIP3   OH2 4052   0.548   1.261   4.253
 1363TIP3    H1 4053   0.549   1.170   4.284
 1363TIP3    H2 4054   0.493   1.307   4.317
 1364TIP3   OH2 4055   1.835   4.253   4.654
 1364TIP3    H1 4056   1.795   4.255   4.567
 1364TIP3    H2 4057   1.852   4.345   4.676
 1365TIP3   OH2 4058   1.789   1.615   0.899
 1365TIP3    H1 4059   1.733   1.657   0.833
 1365TIP3    H2 4060   1.728   1.589   0.968
 1366TIP3   OH2 4061   3.168   0.257   4.918
 1366TIP3    H1 4062   3.166   0.179   4.863
 1366TIP3    H2 4063   3.173   0.330   4.856
 1367TIP3   OH2 4064   3.839   0.454   2.591
 1367TIP3    H1 4065   3.874   0.371   2.625
 1367TIP3    H2 4066   3.914   0.496   2.549
 1368TIP3   OH2 4067   1.511   5.727   1.413
 1368TIP3    H1 4068   1.475   5.802   1.366
 1368TIP3    H2 4069   1.602   5.722   1.386
 1369TIP3   OH2 4070   2.166   4.209   0.370
 1369TIP3    H1 4071   2.240   4.265   0.395
 1369TIP3    H2 4072   2.206   4.129   0.337
 1370TIP3   OH2 4073   1.521   3.495   3.658
 1370TIP3    H1 4074   1.471   3.538   3.589
 1370TIP3    H2 4075   1.583   3.439   3.612
 1371TIP3   OH2 4076   6.239   1.484   3.986
 1371TIP3    H1 4077   6.171   1.469   3.920
 1371TIP3    H2 4078   6.191   1.514   4.063
 1372TIP3   OH2 4079   4.664   2.641   0.837
 1372TIP3    H1 4080   4.675   2.588   0.917
 1372TIP3    H2 4081   4.665   2.576   0.766
 1373TIP3   OH2 4082   0.218   1.384   5.451
 1373TIP3    H1 4083   0.194   1.419   5.366
 1373TIP3    H2 4084   0.136   1.377   5.499
 1374TIP3   OH2 4085   6.736   2.879   5.826
 1374TIP3    H1 4086   6.721   2.832   5.743
 1374TIP3    H2 4087   6.690   2.962   5.815
 1375TIP3   OH2 4088   5.784   2.427   0.602
 1375TIP3    H1 4089   5.810   2.518   0.621
 1375TIP3    H2 4090   5.697   2.418   0.642
 1376TIP3   OH2 4091   1.248   6.082   3.608
 1376TIP3    H1 4092   1.297   6.023   3.551
 1376TIP3    H2 4093   1.160   6.085   3.570
 1377TIP3   OH2 4094   2.315   6.807   3.691
 1377TIP3    H1 4095   2.226   6.816   3.724
 1377TIP3    H2 4096   2.310   6.833   3.599
 1378TIP3   OH2 4097   6.641   0.463   1.892
 1378TIP3    H1 4098   6.598   0.391   1.938
 1378TIP3    H2 4099   6.572   0.529   1.882
 1379TIP3   OH2 4100   3.504   5.400   0.957
 1379TIP3    H1 4101   3.553   5.366   1.032
 1379TIP3    H2 4102   3.415   5.411   0.989
 1380TIP3   OH2 4103   6.405   3.523   4.204
 1380TIP3    H1 4104   6.496   3.552   4.193
 1380TIP3    H2 4105   6.362   3.546   4.122
 1381TIP3   OH2 4106   4.722   3.272   2.602
 1381TIP3    H1 4107   4.665   3.196   2.616
 1381TIP3    H2 4108   4.810   3.235   2.598
 1382TIP3   OH2 4109   3.852   0.274   2.157
 1382TIP3    H1 4110   3.782   0.220   2.191
 1382TIP3    H2 4111   3.884   0.227   2.080
 1383TIP3   OH2 4112   5.085   0.920   1.579
 1383TIP3    H1 4113   5.039   0.836   1.578
 1383TIP3    H2 4114   5.177   0.898   1.566
 1384TIP3   OH2 4115   6.292   1.936   1.121
 1384TIP3    H1 4116   6.302   1.845   1.091
 1384TIP3    H2 4117   6.369   1.952   1.175
 1385TIP3   OH2 4118   2.097   4.040   2.577
 1385TIP3    H1 4119   2.021   4.053   2.520
 1385TIP3    H2 4120   2.095   3.946   2.597
 1386TIP3   OH2 4121   3.855   1.927   1.114
 1386TIP3    H1 4122   3.890   2.007   1.154
 1386TIP3    H2 4123   3.806   1.958   1.038
 1387TIP3   OH2 4124   7.148   0.972   2.806
 1387TIP3    H1 4125   7.110   0.887   2.782
 1387TIP3    H2 4126   7.072   1.030   2.813
 1388TIP3   OH2 4127   0.935   2.194   4.114
 1388TIP3    H1 4128   1.008   2.256   4.107
 1388TIP3    H2 4129   0.956   2.140   4.190
 1389TIP3   OH2 4130   1.877   3.236   2.433
 1389TIP3    H1 4131   1.793   3.226   2.390
 1389TIP3    H2 4132   1.934   3.273   2.366
 1390TIP3   OH2 4133   3.799   5.516   2.628
 1390TIP3    H1 4134   3.840   5.472   2.554
 1390TIP3    H2 4135   3.710   5.536   2.598
 1391TIP3   OH2 4136   3.828   2.595   2.569
 1391TIP3    H1 4137   3.886   2.656   2.522
 1391TIP3    H2 4138   3.742   2.611   2.532
 1392TIP3   OH2 4139   6.103   1.022   4.031
 1392TIP3    H1 4140   6.062   1.109   4.036
 1392TIP3    H2 4141   6.115   0.997   4.123
 1393TIP3   OH2 4142   2.785   4.152   4.642
 1393TIP3    H1 4143   2.776   4.217   4.712
 1393TIP3    H2 4144   2.825   4.076   4.684
 1394TIP3   OH2 4145   6.041   3.622   3.533
 1394TIP3    H1 4146   5.985   3.549   3.506
 1394TIP3    H2 4147   5.987   3.671   3.596
 1395TIP3   OH2 4148   6.401   2.027   3.214
 1395TIP3    H1 4149   6.399   1.966   3.287
 1395TIP3    H2 4150   6.415   1.973   3.137
 1396TIP3   OH2 4151   0.076   1.863   5.369
 1396TIP3    H1 4152   0.146   1.858   5.433
 1396TIP3    H2 4153   0.053   1.772   5.350
 1397TIP3   OH2 4154   0.091   1.524   1.056
 1397TIP3    H1 4155   0.118   1.609   1.020
 1397TIP3    H2 4156   0.015   1.545   1.111
 1398TIP3   OH2 4157   6.366   1.692   1.571
 1398TIP3    H1 4158   6.299   1.626   1.593
 1398TIP3    H2 4159   6.322   1.776   1.584
 1399TIP3   OH2 4160   2.800   2.952   1.569
 1399TIP3    H1 4161   2.717   2.930   1.526
 1399TIP3    H2 4162   2.807   3.047   1.560
 1400TIP3   OH2 4163   4.276   6.213   3.700
 1400TIP3    H1 4164   4.189   6.174   3.707
 1400TIP3    H2 4165   4.319   6.164   3.630
 1401TIP3   OH2 4166   4.204   1.693   3.504
 1401TIP3    H1 4167   4.181   1.669   3.593
 1401TIP3    H2 4168   4.121   1.695   3.457
 1402TIP3   OH2 4169   1.101   3.900   4.932
 1402TIP3    H1 4170   1.117   3.990   4.903
 1402TIP3    H2 4171   1.024   3.872   4.881
 1403TIP3   OH2 4172   1.619   2.427   4.932
 1403TIP3    H1 4173   1.706   2.403   4.901
 1403TIP3    H2 4174   1.583   2.347   4.969
 1404TIP3   OH2 4175   3.812   0.222   3.705
 1404TIP3    H1 4176   3.732   0.175   3.681
 1404TIP3    H2 4177   3.865   0.156   3.749
 1405TIP3   OH2 4178   0.380   5.330   0.834
 1405TIP3    H1 4179   0.300   5.320   0.885
 1405TIP3    H2 4180   0.449   5.340   0.899
 1406TIP3   OH2 4181   0.178   0.832   2.041
 1406TIP3    H1 4182   0.260   0.806   2.084
 1406TIP3    H2 4183   0.195   0.818   1.948
 1407TIP3   OH2 4184   2.034   2.031   1.102
 1407TIP3    H1 4185   2.024   2.008   1.010
 1407TIP3    H2 4186   1.957   1.994   1.144
 1408TIP3   OH2 4187   5.961   1.982   3.206
 1408TIP3    H1 4188   5.998   2.034   3.277
 1408TIP3    H2 4189   6.037   1.957   3.153
 1409TIP3   OH2 4190   2.807   5.804   1.940
 1409TIP3    H1 4191   2.756   5.857   2.001
 1409TIP3    H2 4192   2.869   5.757   1.996
 1410TIP3   OH2 4193   4.240   5.873   1.818
 1410TIP3    H1 4194   4.267   5.947   1.872
 1410TIP3    H2 4195   4.146   5.886   1.804
 1411TIP3   OH2 4196   3.919   5.259   0.531
 1411TIP3    H1 4197   3.827   5.266   0.556
 1411TIP3    H2 4198   3.952   5.349   0.537
 1412TIP3   OH2 4199   6.816   5.687   1.838
 1412TIP3    H1 4200   6.774   5.660   1.920
 1412TIP3    H2 4201   6.896   5.634   1.834
 1413TIP3   OH2 4202   6.044   0.414   4.665
 1413TIP3    H1 4203   6.086   0.469   4.732
 1413TIP3    H2 4204   5.954   0.447   4.660
 1414TIP3   OH2 4205   2.997   2.900   3.672
 1414TIP3    H1 4206   3.067   2.944   3.720
 1414TIP3    H2 4207   2.993   2.813   3.711
 1415TIP3   OH2 4208   0.259   2.014   1.061
 1415TIP3    H1 4209   0.350   2.015   1.030
 1415TIP3    H2 4210   0.265   1.982   1.151
 1416TIP3   OH2 4211   0.892   2.496   3.349
 1416TIP3    H1 4212   0.951   2.421   3.360
 1416TIP3    H2 4213   0.951   2.570   3.330
 1417TIP3   OH2 4214   1.040   4.784   5.117
 1417TIP3    H1 4215   1.116   4.749   5.070
 1417TIP3    H2 4216   0.964   4.746   5.072
 1418TIP3   OH2 4217   2.046   5.461   4.180
 1418TIP3    H1 4218   2.109   5.397   4.213
 1418TIP3    H2 4219   2.084   5.546   4.201
 1419TIP3   OH2 4220   1.701   4.514   4.453
 1419TIP3    H1 4221   1.762   4.586   4.439
 1419TIP3    H2 4222   1.735   4.443   4.399
 1420TIP3   OH2 4223   0.181   0.793   5.334
 1420TIP3    H1 4224   0.182   0.713   5.281
 1420TIP3    H2 4225   0.267   0.833   5.319
 1421TIP3   OH2 4226   1.313   0.506   0.541
 1421TIP3    H1 4227   1.263   0.583   0.514
 1421TIP3    H2 4228   1.274   0.434   0.492
 1422TIP3   OH2 4229   6.581   5.751   5.230
 1422TIP3    H1 4230   6.598   5.845   5.221
 1422TIP3    H2 4231   6.643   5.710   5.170
 1423TIP3   OH2 4232   3.521   3.290   1.105
 1423TIP3    H1 4233   3.605   3.316   1.142
 1423TIP3    H2 4234   3.481   3.373   1.077
 1424TIP3   OH2 4235   2.009   5.328   4.820
 1424TIP3    H1 4236   2.009   5.234   4.801
 1424TIP3    H2 4237   2.039   5.369   4.738
 1425TIP3   OH2 4238   0.527   1.956   5.190
 1425TIP3    H1 4239   0.548   2.042   5.225
 1425TIP3    H2 4240   0.432   1.957   5.179
 1426TIP3   OH2 4241   4.310   1.021   0.432
 1426TIP3    H1 4242   4.359   1.039   0.351
 1426TIP3    H2 4243   4.355   0.946   0.471
 1427TIP3   OH2 4244   6.259   0.307   4.387
 1427TIP3    H1 4245   6.311   0.237   4.347
 1427TIP3    H2 4246   6.221   0.267   4.465
 1428TIP3   OH2 4247   5.939   2.535   3.245
 1428TIP3    H1 4248   5.967   2.623   3.270
 1428TIP3    H2 4249   6.020   2.492   3.214
 1429TIP3   OH2 4250   6.275   4.809   2.505
 1429TIP3    H1 4251   6.183   4.785   2.503
 1429TIP3    H2 4252   6.321   4.734   2.466
 1430TIP3   OH2 4253   2.216   1.965   1.317
 1430TIP3    H1 4254   2.157   1.991   1.246
 1430TIP3    H2 4255   2.171   1.892   1.360
 1431TIP3   OH2 4256   5.311   1.838   2.829
 1431TIP3    H1 4257   5.368   1.881   2.894
 1431TIP3    H2 4258   5.279   1.910   2.775
 1432TIP3   OH2 4259   5.286   2.394   4.994
 1432TIP3    H1 4260   5.336   2.374   5.074
 1432TIP3    H2 4261   5.253   2.309   4.965
 1433TIP3   OH2 4262   4.479   0.723   3.998
 1433TIP3    H1 4263   4.494   0.704   4.090
 1433TIP3    H2 4264   4.424   0.802   3.998
 1434TIP3   OH2 4265   3.970   2.671   4.277
 1434TIP3    H1 4266   3.998   2.713   4.196
 1434TIP3    H2 4267   3.961   2.742   4.339
 1435TIP3   OH2 4268   1.322   4.811   2.502
 1435TIP3    H1 4269   1.228   4.829   2.509
 1435TIP3    H2 4270   1.359   4.845   2.583
 1436TIP3   OH2 4271   3.296   4.887   3.143
 1436TIP3    H1 4272   3.287   4.795   3.116
 1436TIP3    H2 4273   3.311   4.882   3.237
 1437TIP3   OH2 4274   4.858   2.334   1.477
 1437TIP3    H1 4275   4.925   2.341   1.544
 1437TIP3    H2 4276   4.815   2.250   1.495
 1438TIP3   OH2 4277   6.666   0.474   0.670
 1438TIP3    H1 4278   6.699   0.558   0.636
 1438TIP3    H2 4279   6.651   0.491   0.763
 1439TIP3   OH2 4280   3.040   0.225   5.774
 1439TIP3    H1 4281   3.129   0.194   5.789
 1439TIP3    H2 4282   3.051   0.307   5.725
 1440TIP3   OH2 4283   0.095   4.590   1.750
 1440TIP3    H1 4284   0.059   4.608   1.663
 1440TIP3    H2 4285   0.152   4.665   1.768
 1441TIP3   OH2 4286   1.317   6.203   5.472
 1441TIP3    H1 4287   1.400   6.161   5.496
 1441TIP3    H2 4288   1.333   6.239   5.385
 1442TIP3   OH2 4289   2.488   5.216   1.629
 1442TIP3    H1 4290   2.420   5.283   1.635
 1442TIP3    H2 4291   2.476   5.162   1.707
 1443TIP3   OH2 4292   1.026   6.025   2.459
 1443TIP3    H1 4293   1.111   5.984   2.477
 1443TIP3    H2 4294   1.047   6.099   2.402
 1444TIP3   OH2 4295   5.063   6.201   4.105
 1444TIP3    H1 4296   5.103   6.280   4.142
 1444TIP3    H2 4297   5.138   6.146   4.081
 1445TIP3   OH2 4298   6.585   4.719   4.819
 1445TIP3    H1 4299   6.593   4.789   4.754
 1445TIP3    H2 4300   6.535   4.651   4.776
 1446TIP3   OH2 4301   0.355   6.715   1.237
 1446TIP3    H1 4302   0.443   6.700   1.271
 1446TIP3    H2 4303   0.300   6.650   1.281
 1447TIP3   OH2 4304   2.222   6.042   5.345
 1447TIP3    H1 4305   2.176   6.118   5.382
 1447TIP3    H2 4306   2.315   6.064   5.353
 1448TIP3   OH2 4307   2.836   4.594   5.356
 1448TIP3    H1 4308   2.878   4.665   5.307
 1448TIP3    H2 4309   2.812   4.635   5.440
 1449TIP3   OH2 4310   5.103   1.712   4.859
 1449TIP3    H1 4311   5.089   1.724   4.953
 1449TIP3    H2 4312   5.161   1.637   4.853
 1450TIP3   OH2 4313   4.936   5.160   0.341
 1450TIP3    H1 4314   4.878   5.084   0.335
 1450TIP3    H2 4315   5.016   5.132   0.296
 1451TIP3   OH2 4316   1.892   0.975   4.763
 1451TIP3    H1 4317   1.944   0.931   4.695
 1451TIP3    H2 4318   1.801   0.958   4.738
 1452TIP3   OH2 4319   6.675   1.193   3.359
 1452TIP3    H1 4320   6.701   1.113   3.313
 1452TIP3    H2 4321   6.704   1.179   3.449
 1453TIP3   OH2 4322   2.583   4.638   2.043
 1453TIP3    H1 4323   2.547   4.591   2.119
 1453TIP3    H2 4324   2.672   4.604   2.033
 1454TIP3   OH2 4325   6.394   4.489   4.477
 1454TIP3    H1 4326   6.386   4.408   4.426
 1454TIP3    H2 4327   6.362   4.557   4.417
 1455TIP3   OH2 4328   6.854   0.703   1.394
 1455TIP3    H1 4329   6.915   0.718   1.466
 1455TIP3    H2 4330   6.830   0.791   1.364
 1456TIP3   OH2 4331   3.951   6.430   4.590
 1456TIP3    H1 4332   3.939   6.335   4.597
 1456TIP3    H2 4333   3.938   6.448   4.497
 1457TIP3   OH2 4334   2.106   3.883   0.454
 1457TIP3    H1 4335   2.068   3.930   0.529
 1457TIP3    H2 4336   2.138   3.801   0.490
 1458TIP3   OH2 4337   1.577   2.270   5.212
 1458TIP3    H1 4338   1.652   2.325   5.232
 1458TIP3    H2 4339   1.586   2.195   5.271
 1459TIP3   OH2 4340   5.200   6.004   3.952
 1459TIP3    H1 4341   5.251   6.040   3.879
 1459TIP3    H2 4342   5.238   5.918   3.967
 1460TIP3   OH2 4343   6.531   3.248   3.270
 1460TIP3    H1 4344   6.610   3.269   3.319
 1460TIP3    H2 4345   6.538   3.299   3.189
 1461TIP3   OH2 4346   5.764   4.817   3.281
 1461TIP3    H1 4347   5.685   4.800   3.230
 1461TIP3    H2 4348   5.777   4.912   3.275
 1462TIP3   OH2 4349   1.742   5.634   5.571
 1462TIP3    H1 4350   1.705   5.714   5.606
 1462TIP3    H2 4351   1.740   5.647   5.476
 1463TIP3   OH2 4352   6.764   2.236   2.726
 1463TIP3    H1 4353   6.721   2.197   2.650
 1463TIP3    H2 4354   6.693   2.274   2.777
 1464TIP3   OH2 4355   6.755   2.247   0.740
 1464TIP3    H1 4356   6.780   2.311   0.673
 1464TIP3    H2 4357   6.825   2.252   0.805
 1465TIP3   OH2 4358   1.263   1.124   2.349
 1465TIP3    H1 4359   1.358   1.118   2.359
 1465TIP3    H2 4360   1.236   1.034   2.332
 1466TIP3   OH2 4361   2.625   2.260   2.795
 1466TIP3    H1 4362   2.615   2.224   2.883
 1466TIP3    H2 4363   2.618   2.354   2.806
 1467TIP3   OH2 4364   1.882   0.096   0.953
 1467TIP3    H1 4365   1.972   0.089   0.921
 1467TIP3    H2 4366   1.855   0.006   0.970
 1468TIP3   OH2 4367   0.084   4.706   0.774
 1468TIP3    H1 4368   0.069   4.758   0.695
 1468TIP3    H2 4369   0.006   4.720   0.827
 1469TIP3   OH2 4370   5.582   4.697   4.701
 1469TIP3    H1 4371   5.539   4.707   4.786
 1469TIP3    H2 4372   5.547   4.768   4.648
 1470TIP3   OH2 4373   0.751   5.639   1.675
 1470TIP3    H1 4374   0.795   5.720   1.649
 1470TIP3    H2 4375   0.701   5.663   1.753
 1471TIP3   OH2 4376   2.554   3.213   3.172
 1471TIP3    H1 4377   2.576   3.213   3.265
 1471TIP3    H2 4378   2.635   3.240   3.128
 1472TIP3   OH2 4379   6.298   6.780   4.921
 1472TIP3    H1 4380   6.329   6.787   4.831
 1472TIP3    H2 4381   6.282   6.687   4.934
 1473TIP3   OH2 4382   2.747   0.748   5.308
 1473TIP3    H1 4383   2.726   0.716   5.221
 1473TIP3    H2 4384   2.837   0.779   5.301
 1474TIP3   OH2 4385   1.623   6.186   2.070
 1474TIP3    H1 4386   1.552   6.213   2.012
 1474TIP3    H2 4387   1.682   6.262   2.073
 1475TIP3   OH2 4388   2.114   4.761   0.065
 1475TIP3    H1 4389   2.021   4.757   0.040
 1475TIP3    H2 4390   2.120   4.705   0.142
 1476TIP3   OH2 4391   0.437   1.628   1.210
 1476TIP3    H1 4392   0.413   1.699   1.150
 1476TIP3    H2 4393   0.522   1.655   1.246
 1477TIP3   OH2 4394   0.302   4.185   2.052
 1477TIP3    H1 4395   0.339   4.140   2.128
 1477TIP3    H2 4396   0.302   4.277   2.076
 1478TIP3   OH2 4397   6.357   5.369   2.244
 1478TIP3    H1 4398   6.409   5.395   2.320
 1478TIP3    H2 4399   6.327   5.280   2.264
 1479TIP3   OH2 4400   0.767   1.554   3.195
 1479TIP3    H1 4401   0.859   1.579   3.197
 1479TIP3    H2 4402   0.741   1.564   3.103
 1480TIP3   OH2 4403   5.988   0.719   1.955
 1480TIP3    H1 4404   5.996   0.627   1.982
 1480TIP3    H2 4405   5.987   0.768   2.038
 1481TIP3   OH2 4406   0.109   3.880   1.690
 1481TIP3    H1 4407   0.094   3.827   1.768
 1481TIP3    H2 4408   0.116   3.970   1.722
 1482TIP3   OH2 4409   0.617   6.168   1.809
 1482TIP3    H1 4410   0.604   6.127   1.724
 1482TIP3    H2 4411   0.565   6.248   1.805
 1483TIP3   OH2 4412   4.138   0.750   3.298
 1483TIP3    H1 4413   4.188   0.742   3.380
 1483TIP3    H2 4414   4.161   0.836   3.264
 1484TIP3   OH2 4415   2.592   6.561   2.835
 1484TIP3    H1 4416   2.617   6.508   2.911
 1484TIP3    H2 4417   2.544   6.501   2.779
 1485TIP3   OH2 4418   1.270   1.952   3.660
 1485TIP3    H1 4419   1.309   1.961   3.747
 1485TIP3    H2 4420   1.247   2.041   3.635
 1486TIP3   OH2 4421   3.623   5.227   2.552
 1486TIP3    H1 4422   3.630   5.216   2.458
 1486TIP3    H2 4423   3.530   5.215   2.571
 1487TIP3   OH2 4424   3.483   2.075   5.335
 1487TIP3    H1 4425   3.561   2.023   5.316
 1487TIP3    H2 4426   3.459   2.113   5.251
 1488TIP3   OH2 4427   6.709   0.883   1.257
 1488TIP3    H1 4428   6.647   0.886   1.184
 1488TIP3    H2 4429   6.665   0.932   1.327
 1489TIP3   OH2 4430   4.854   3.955   0.543
 1489TIP3    H1 4431   4.843   3.861   0.536
 1489TIP3    H2 4432   4.933   3.966   0.597
 1490TIP3   OH2 4433   6.342   3.517   3.362
 1490TIP3    H1 4434   6.337   3.421   3.353
 1490TIP3    H2 4435   6.368   3.531   3.452
 1491TIP3   OH2 4436   6.039   3.504   2.523
 1491TIP3    H1 4437   6.051   3.580   2.580
 1491TIP3    H2 4438   6.015   3.541   2.439
 1492TIP3   OH2 4439   1.960   2.179   5.332
 1492TIP3    H1 4440   2.038   2.234   5.332
 1492TIP3    H2 4441   1.924   2.189   5.243
 1493TIP3   OH2 4442   2.228   1.693   5.378
 1493TIP3    H1 4443   2.265   1.640   5.307
 1493TIP3    H2 4444   2.156   1.741   5.338
 1494TIP3   OH2 4445   6.417   5.139   1.473
 1494TIP3    H1 4446   6.507   5.172   1.479
 1494TIP3    H2 4447   6.363   5.218   1.474
 1495TIP3   OH2 4448   4.464   2.922   1.662
 1495TIP3    H1 4449   4.381   2.878   1.649
 1495TIP3    H2 4450   4.507   2.920   1.577
 1496TIP3   OH2 4451   6.340   5.953   3.717
 1496TIP3    H1 4452   6.359   5.859   3.717
 1496TIP3    H2 4453   6.309   5.971   3.806
 1497TIP3   OH2 4454   5.611   4.691   5.159
 1497TIP3    H1 4455   5.542   4.671   5.222
 1497TIP3    H2 4456   5.567   4.741   5.090
 1498TIP3   OH2 4457   2.000   3.931   5.378
 1498TIP3    H1 4458   2.045   3.922   5.462
 1498TIP3    H2 4459   1.943   4.008   5.390
 1499TIP3   OH2 4460   6.020   6.428   2.993
 1499TIP3    H1 4461   5.960   6.436   3.067
 1499TIP3    H2 4462   6.025   6.334   2.975
 1500TIP3   OH2 4463   6.737   3.378   1.844
 1500TIP3    H1 4464   6.818   3.388   1.794
 1500TIP3    H2 4465   6.764   3.338   1.926
 1501TIP3   OH2 4466   3.084   1.584   2.328
 1501TIP3    H1 4467   3.149   1.552   2.266
 1501TIP3    H2 4468   3.013   1.519   2.326
 1502TIP3   OH2 4469   3.401   1.842   2.315
 1502TIP3    H1 4470   3.493   1.823   2.333
 1502TIP3    H2 4471   3.354   1.799   2.387
 1503TIP3   OH2 4472   5.154   2.757   0.349
 1503TIP3    H1 4473   5.173   2.849   0.329
 1503TIP3    H2 4474   5.129   2.719   0.265
 1504TIP3   OH2 4475   0.546   6.070   3.539
 1504TIP3    H1 4476   0.633   6.108   3.552
 1504TIP3    H2 4477   0.521   6.098   3.451
 1505TIP3   OH2 4478   5.213   6.230   3.463
 1505TIP3    H1 4479   5.287   6.261   3.411
 1505TIP3    H2 4480   5.151   6.304   3.462
 1506TIP3   OH2 4481   3.109   3.512   2.248
 1506TIP3    H1 4482   3.052   3.588   2.258
 1506TIP3    H2 4483   3.144   3.519   2.160
 1507TIP3   OH2 4484   0.106   3.907   0.534
 1507TIP3    H1 4485   0.069   3.973   0.593
 1507TIP3    H2 4486   0.175   3.865   0.586
 1508TIP3   OH2 4487   2.820   4.490   1.532
 1508TIP3    H1 4488   2.761   4.427   1.574
 1508TIP3    H2 4489   2.889   4.505   1.597
 1509TIP3   OH2 4490   3.492   0.885   3.222
 1509TIP3    H1 4491   3.401   0.856   3.229
 1509TIP3    H2 4492   3.543   0.803   3.224
 1510TIP3   OH2 4493   3.258   2.079   3.352
 1510TIP3    H1 4494   3.317   2.053   3.423
 1510TIP3    H2 4495   3.306   2.059   3.272
 1511TIP3   OH2 4496   1.203   4.358   3.898
 1511TIP3    H1 4497   1.209   4.266   3.871
 1511TIP3    H2 4498   1.243   4.360   3.985
 1512TIP3   OH2 4499   6.501   5.728   5.678
 1512TIP3    H1 4500   6.467   5.778   5.603
 1512TIP3    H2 4501   6.573   5.677   5.642
 1513TIP3   OH2 4502   1.189   5.069   4.883
 1513TIP3    H1 4503   1.133   5.117   4.822
 1513TIP3    H2 4504   1.263   5.041   4.830
 1514TIP3   OH2 4505   6.425   6.217   5.174
 1514TIP3    H1 4506   6.330   6.210   5.188
 1514TIP3    H2 4507   6.451   6.293   5.225
 1515TIP3   OH2 4508   6.202   0.543   4.290
 1515TIP3    H1 4509   6.241   0.560   4.204
 1515TIP3    H2 4510   6.223   0.451   4.307
 1516TIP3   OH2 4511   1.001   1.971   1.633
 1516TIP3    H1 4512   1.078   1.949   1.686
 1516TIP3    H2 4513   1.018   1.929   1.549
 1517TIP3   OH2 4514   4.662   2.925   4.385
 1517TIP3    H1 4515   4.664   2.937   4.480
 1517TIP3    H2 4516   4.608   2.997   4.353
 1518TIP3   OH2 4517   2.086   6.672   3.392
 1518TIP3    H1 4518   2.149   6.742   3.378
 1518TIP3    H2 4519   2.090   6.619   3.312
 1519TIP3   OH2 4520   3.589   5.363   4.017
 1519TIP3    H1 4521   3.599   5.292   3.953
 1519TIP3    H2 4522   3.504   5.401   3.998
 1520TIP3   OH2 4523   4.088   0.310   2.308
 1520TIP3    H1 4524   4.020   0.298   2.242
 1520TIP3    H2 4525   4.090   0.405   2.322
 1521TIP3   OH2 4526   0.385   0.040   4.941
 1521TIP3    H1 4527   0.392  -0.010   4.860
 1521TIP3    H2 4528   0.371   0.131   4.912
 1522TIP3   OH2 4529   5.377   2.291   4.045
 1522TIP3    H1 4530   5.308   2.336   4.094
 1522TIP3    H2 4531   5.370   2.200   4.074
 1523TIP3   OH2 4532   1.500   2.580   3.505
 1523TIP3    H1 4533   1.554   2.628   3.568
 1523TIP3    H2 4534   1.542   2.495   3.497
 1524TIP3   OH2 4535   1.139   2.756   4.941
 1524TIP3    H1 4536   1.193   2.823   4.899
 1524TIP3    H2 4537   1.054   2.763   4.898
 1525TIP3   OH2 4538   0.298   0.393   1.894
 1525TIP3    H1 4539   0.211   0.420   1.864
 1525TIP3    H2 4540   0.281   0.317   1.950
 1526TIP3   OH2 4541   2.059   3.154   0.657
 1526TIP3    H1 4542   2.134   3.096   0.670
 1526TIP3    H2 4543   1.996   3.128   0.724
 1527TIP3   OH2 4544   1.142   5.552   4.227
 1527TIP3    H1 4545   1.148   5.461   4.198
 1527TIP3    H2 4546   1.224   5.568   4.274
 1528TIP3   OH2 4547   4.936   5.892   4.770
 1528TIP3    H1 4548   4.874   5.903   4.842
 1528TIP3    H2 4549   4.969   5.980   4.754
 1529TIP3   OH2 4550   1.545   4.423   0.633
 1529TIP3    H1 4551   1.513   4.512   0.648
 1529TIP3    H2 4552   1.615   4.412   0.698
 1530TIP3   OH2 4553   3.418   4.461   0.803
 1530TIP3    H1 4554   3.432   4.483   0.711
 1530TIP3    H2 4555   3.331   4.496   0.823
 1531TIP3   OH2 4556   6.872   3.479   3.427
 1531TIP3    H1 4557   6.846   3.387   3.423
 1531TIP3    H2 4558   6.906   3.499   3.340
 1532TIP3   OH2 4559   1.738   5.839   3.174
 1532TIP3    H1 4560   1.689   5.789   3.239
 1532TIP3    H2 4561   1.776   5.912   3.223
 1533TIP3   OH2 4562   2.133   1.759   0.301
 1533TIP3    H1 4563   2.194   1.746   0.374
 1533TIP3    H2 4564   2.186   1.799   0.232
 1534TIP3   OH2 4565   6.970   6.679   4.356
 1534TIP3    H1 4566   6.895   6.631   4.321
 1534TIP3    H2 4567   7.046   6.633   4.321
 1535TIP3   OH2 4568   2.843   5.028   5.241
 1535TIP3    H1 4569   2.775   5.003   5.303
 1535TIP3    H2 4570   2.819   4.982   5.160
 1536TIP3   OH2 4571   6.706   2.046   2.199
 1536TIP3    H1 4572   6.736   2.090   2.120
 1536TIP3    H2 4573   6.787   2.027   2.248
 1537TIP3   OH2 4574   6.801   1.807   3.802
 1537TIP3    H1 4575   6.809   1.901   3.817
 1537TIP3    H2 4576   6.838   1.767   3.882
 1538TIP3   OH2 4577   3.195   6.127   1.665
 1538TIP3    H1 4578   3.286   6.157   1.668
 1538TIP3    H2 4579   3.154   6.165   1.743
 1539TIP3   OH2 4580   2.948   2.414   2.826
 1539TIP3    H1 4581   3.008   2.371   2.765
 1539TIP3    H2 4582   2.881   2.453   2.770
 1540TIP3   OH2 4583   0.863   3.140   3.420
 1540TIP3    H1 4584   0.896   3.226   3.397
 1540TIP3    H2 4585   0.937   3.081   3.403
 1541TIP3   OH2 4586   3.773   2.673   2.197
 1541TIP3    H1 4587   3.826   2.594   2.210
 1541TIP3    H2 4588   3.686   2.640   2.178
 1542TIP3   OH2 4589   4.060   5.100   1.531
 1542TIP3    H1 4590   4.091   5.076   1.443
 1542TIP3    H2 4591   4.138   5.097   1.585
 1543TIP3   OH2 4592   1.262   5.619   0.416
 1543TIP3    H1 4593   1.296   5.679   0.483
 1543TIP3    H2 4594   1.340   5.576   0.381
 1544TIP3   OH2 4595   4.066   4.809   5.507
 1544TIP3    H1 4596   4.052   4.754   5.585
 1544TIP3    H2 4597   4.019   4.890   5.527
 1545TIP3   OH2 4598   0.477   5.507   3.772
 1545TIP3    H1 4599   0.435   5.562   3.837
 1545TIP3    H2 4600   0.536   5.565   3.725
 1546TIP3   OH2 4601   5.209   2.444   5.446
 1546TIP3    H1 4602   5.258   2.526   5.457
 1546TIP3    H2 4603   5.150   2.462   5.372
 1547TIP3   OH2 4604   1.150   5.530   0.061
 1547TIP3    H1 4605   1.057   5.516   0.046
 1547TIP3    H2 4606   1.161   5.625   0.062
 1548TIP3   OH2 4607   0.553   3.291   5.763
 1548TIP3    H1 4608   0.506   3.218   5.722
 1548TIP3    H2 4609   0.645   3.275   5.742
 1549TIP3   OH2 4610   6.330   2.234   5.788
 1549TIP3    H1 4611   6.243   2.272   5.776
 1549TIP3    H2 4612   6.320   2.178   5.865
 1550TIP3   OH2 4613   6.291   0.751   2.442
 1550TIP3    H1 4614   6.306   0.835   2.487
 1550TIP3    H2 4615   6.216   0.713   2.488
 1551TIP3   OH2 4616   6.932   0.507   1.918
 1551TIP3    H1 4617   6.851   0.479   1.874
 1551TIP3    H2 4618   6.968   0.427   1.956
 1552TIP3   OH2 4619   5.531   4.122   3.853
 1552TIP3    H1 4620   5.608   4.179   3.849
 1552TIP3    H2 4621   5.502   4.126   3.944
 1553TIP3   OH2 4622   2.097   4.267   2.931
 1553TIP3    H1 4623   2.046   4.186   2.927
 1553TIP3    H2 4624   2.176   4.248   2.882
 1554TIP3   OH2 4625   2.134   5.474   1.922
 1554TIP3    H1 4626   2.070   5.437   1.982
 1554TIP3    H2 4627   2.096   5.557   1.895
 1555TIP3   OH2 4628   1.120   4.580   1.363
 1555TIP3    H1 4629   1.035   4.616   1.386
 1555TIP3    H2 4630   1.153   4.638   1.294
 1556TIP3   OH2 4631   6.410   6.739   0.893
 1556TIP3    H1 4632   6.400   6.657   0.941
 1556TIP3    H2 4633   6.462   6.795   0.951
 1557TIP3   OH2 4634   4.329   0.589   0.394
 1557TIP3    H1 4635   4.291   0.551   0.474
 1557TIP3    H2 4636   4.398   0.528   0.369
 1558TIP3   OH2 4637   3.981   4.303   0.911
 1558TIP3    H1 4638   3.917   4.365   0.877
 1558TIP3    H2 4639   3.989   4.325   1.004
 1559TIP3   OH2 4640   5.776   1.213   3.880
 1559TIP3    H1 4641   5.814   1.152   3.817
 1559TIP3    H2 4642   5.681   1.199   3.872
 1560TIP3   OH2 4643   5.931   4.996   2.373
 1560TIP3    H1 4644   5.845   5.011   2.333
 1560TIP3    H2 4645   5.992   5.046   2.318
 1561TIP3   OH2 4646   4.545   2.362   4.907
 1561TIP3    H1 4647   4.640   2.367   4.900
 1561TIP3    H2 4648   4.529   2.301   4.979
 1562TIP3   OH2 4649   1.378   3.019   3.307
 1562TIP3    H1 4650   1.376   3.060   3.394
 1562TIP3    H2 4651   1.470   3.020   3.282
 1563TIP3   OH2 4652   5.746   4.556   2.488
 1563TIP3    H1 4653   5.800   4.498   2.541
 1563TIP3    H2 4654   5.801   4.580   2.414
 1564TIP3   OH2 4655   4.160   6.562   4.195
 1564TIP3    H1 4656   4.149   6.545   4.101
 1564TIP3    H2 4657   4.134   6.653   4.206
 1565TIP3   OH2 4658   2.961   4.724   4.916
 1565TIP3    H1 4659   2.900   4.759   4.981
 1565TIP3    H2 4660   2.915   4.733   4.832
 1566TIP3   OH2 4661   6.224   6.209   2.813
 1566TIP3    H1 4662   6.286   6.156   2.762
 1566TIP3    H2 4663   6.280   6.267   2.866
 1567TIP3   OH2 4664   4.807   6.329   5.776
 1567TIP3    H1 4665   4.793   6.235   5.779
 1567TIP3    H2 4666   4.888   6.343   5.826
 1568TIP3   OH2 4667   4.098   4.552   2.687
 1568TIP3    H1 4668   4.005   4.571   2.696
 1568TIP3    H2 4669   4.140   4.606   2.754
 1569TIP3   OH2 4670   3.048   2.009   3.192
 1569TIP3    H1 4671   3.108   2.014   3.267
 1569TIP3    H2 4672   2.974   2.064   3.217
 1570TIP3   OH2 4673   2.279   2.436   0.718
 1570TIP3    H1 4674   2.256   2.529   0.712
 1570TIP3    H2 4675   2.258   2.412   0.808
 1571TIP3   OH2 4676   5.577   5.293   1.486
 1571TIP3    H1 4677   5.646   5.354   1.461
 1571TIP3    H2 4678   5.588   5.283   1.581
 1572TIP3   OH2 4679   5.123   4.090   1.402
 1572TIP3    H1 4680   5.210   4.099   1.362
 1572TIP3    H2 4681   5.131   4.134   1.487
 1573TIP3   OH2 4682   4.115   0.747   5.584
 1573TIP3    H1 4683   4.150   0.739   5.673
 1573TIP3    H2 4684   4.042   0.808   5.593
 1574TIP3   OH2 4685   6.147   3.120   3.458
 1574TIP3    H1 4686   6.163   3.026   3.456
 1574TIP3    H2 4687   6.197   3.152   3.533
 1575TIP3   OH2 4688   3.608   5.060   4.953
 1575TIP3    H1 4689   3.513   5.059   4.963
 1575TIP3    H2 4690   3.623   5.018   4.868
 1576TIP3   OH2 4691   1.785   6.107   3.683
 1576TIP3    H1 4692   1.863   6.155   3.712
 1576TIP3    H2 4693   1.754   6.157   3.607
 1577TIP3   OH2 4694   4.885   5.207   2.559
 1577TIP3    H1 4695   4.829   5.144   2.605
 1577TIP3    H2 4696   4.838   5.290   2.564
 1578TIP3   OH2 4697   6.598   5.155   0.657
 1578TIP3    H1 4698   6.676   5.188   0.701
 1578TIP3    H2 4699   6.526   5.177   0.716
 1579TIP3   OH2 4700   4.116   1.246   5.807
 1579TIP3    H1 4701   4.083   1.163   5.839
 1579TIP3    H2 4702   4.198   1.223   5.762
 1580TIP3   OH2 4703   1.199   4.268   1.949
 1580TIP3    H1 4704   1.159   4.199   2.002
 1580TIP3    H2 4705   1.182   4.242   1.859
 1581TIP3   OH2 4706   0.593   2.848   2.936
 1581TIP3    H1 4707   0.580   2.868   3.028
 1581TIP3    H2 4708   0.519   2.891   2.892
 1582TIP3   OH2 4709   1.028   0.371   0.329
 1582TIP3    H1 4710   0.959   0.314   0.295
 1582TIP3    H2 4711   1.100   0.360   0.267
 1583TIP3   OH2 4712   2.396   4.588   1.306
 1583TIP3    H1 4713   2.487   4.572   1.283
 1583TIP3    H2 4714   2.382   4.536   1.385
 1584TIP3   OH2 4715   5.221   5.216   3.667
 1584TIP3    H1 4716   5.231   5.203   3.573
 1584TIP3    H2 4717   5.129   5.240   3.679
 1585TIP3   OH2 4718   1.213   4.701   2.765
 1585TIP3    H1 4719   1.137   4.741   2.722
 1585TIP3    H2 4720   1.195   4.607   2.761
 1586TIP3   OH2 4721   4.605   6.664   2.420
 1586TIP3    H1 4722   4.599   6.615   2.338
 1586TIP3    H2 4723   4.526   6.641   2.469
 1587TIP3   OH2 4724   1.678   2.180   3.799
 1587TIP3    H1 4725   1.591   2.210   3.773
 1587TIP3    H2 4726   1.726   2.261   3.817
 1588TIP3   OH2 4727   4.251   5.642   5.744
 1588TIP3    H1 4728   4.195   5.580   5.790
 1588TIP3    H2 4729   4.199   5.670   5.669
 1589TIP3   OH2 4730   3.153   3.202   4.983
 1589TIP3    H1 4731   3.081   3.242   4.933
 1589TIP3    H2 4732   3.231   3.250   4.956
 1590TIP3   OH2 4733   0.700   1.628   2.944
 1590TIP3    H1 4734   0.730   1.571   2.873
 1590TIP3    H2 4735   0.605   1.630   2.935
 1591TIP3   OH2 4736   3.585   0.530   1.833
 1591TIP3    H1 4737   3.547   0.451   1.871
 1591TIP3    H2 4738   3.675   0.505   1.812
 1592TIP3   OH2 4739   6.871   2.861   1.740
 1592TIP3    H1 4740   6.786   2.901   1.721
 1592TIP3    H2 4741   6.881   2.794   1.673
 1593TIP3   OH2 4742   5.048   2.056   1.669
 1593TIP3    H1 4743   5.022   1.966   1.686
 1593TIP3    H2 4744   5.069   2.092   1.755
 1594TIP3   OH2 4745   0.297   0.911   4.935
 1594TIP3    H1 4746   0.349   0.985   4.965
 1594TIP3    H2 4747   0.214   0.920   4.981
 1595TIP3   OH2 4748   3.113   0.959   2.759
 1595TIP3    H1 4749   3.056   1.029   2.728
 1595TIP3    H2 4750   3.153   0.923   2.679
 1596TIP3   OH2 4751   1.333   3.678   4.113
 1596TIP3    H1 4752   1.284   3.693   4.032
 1596TIP3    H2 4753   1.416   3.724   4.099
 1597TIP3   OH2 4754   0.012   5.644   0.269
 1597TIP3    H1 4755  -0.053   5.711   0.291
 1597TIP3    H2 4756   0.049   5.619   0.353
 1598TIP3   OH2 4757   4.656   0.554   1.203
 1598TIP3    H1 4758   4.637   0.613   1.276
 1598TIP3    H2 4759   4.728   0.499   1.235
 1599TIP3   OH2 4760   1.013   4.619   2.377
 1599TIP3    H1 4761   0.980   4.688   2.434
 1599TIP3    H2 4762   1.107   4.619   2.390
 1600TIP3   OH2 4763   3.340   0.549   5.869
 1600TIP3    H1 4764   3.304   0.559   5.781
 1600TIP3    H2 4765   3.405   0.479   5.861
 1601TIP3   OH2 4766   4.219   0.943   4.562
 1601TIP3    H1 4767   4.247   0.852   4.568
 1601TIP3    H2 4768   4.166   0.947   4.483
 1602TIP3   OH2 4769   5.547   0.457   1.896
 1602TIP3    H1 4770   5.500   0.540   1.888
 1602TIP3    H2 4771   5.591   0.463   1.981
 1603TIP3   OH2 4772   2.077   5.239   1.697
 1603TIP3    H1 4773   2.059   5.332   1.684
 1603TIP3    H2 4774   2.171   5.235   1.715
 1604TIP3   OH2 4775   5.511   4.553   5.841
 1604TIP3    H1 4776   5.577   4.549   5.910
 1604TIP3    H2 4777   5.470   4.639   5.851
 1605TIP3   OH2 4778   2.158   5.143   3.570
 1605TIP3    H1 4779   2.143   5.212   3.634
 1605TIP3    H2 4780   2.248   5.159   3.539
 1606TIP3   OH2 4781   3.586   6.168   5.449
 1606TIP3    H1 4782   3.540   6.205   5.373
 1606TIP3    H2 4783   3.516   6.130   5.502
 1607TIP3   OH2 4784   0.434   4.183   0.030
 1607TIP3    H1 4785   0.443   4.228  -0.054
 1607TIP3    H2 4786   0.347   4.208   0.061
 1608TIP3   OH2 4787   1.072   6.752   0.527
 1608TIP3    H1 4788   1.118   6.673   0.556
 1608TIP3    H2 4789   1.041   6.731   0.439
 1609TIP3   OH2 4790   5.354   2.178   1.132
 1609TIP3    H1 4791   5.309   2.257   1.101
 1609TIP3    H2 4792   5.290   2.108   1.119
 1610TIP3   OH2 4793   0.016   5.621   5.435
 1610TIP3    H1 4794   0.074   5.598   5.507
 1610TIP3    H2 4795  -0.028   5.701   5.464
 1611TIP3   OH2 4796   5.025   0.957   4.118
 1611TIP3    H1 4797   5.003   0.970   4.026
 1611TIP3    H2 4798   4.943   0.975   4.165
 1612TIP3   OH2 4799   2.551   5.675   0.725
 1612TIP3    H1 4800   2.537   5.675   0.630
 1612TIP3    H2 4801   2.510   5.594   0.755
 1613TIP3   OH2 4802   7.089   3.096   2.384
 1613TIP3    H1 4803   7.133   3.014   2.360
 1613TIP3    H2 4804   6.998   3.071   2.401
 1614TIP3   OH2 4805   2.726   5.211   3.623
 1614TIP3    H1 4806   2.782   5.183   3.549
 1614TIP3    H2 4807   2.694   5.129   3.660
 1615TIP3   OH2 4808   4.177   1.266   2.112
 1615TIP3    H1 4809   4.154   1.273   2.020
 1615TIP3    H2 4810   4.152   1.176   2.136
 1616TIP3   OH2 4811   4.186   6.208   2.119
 1616TIP3    H1 4812   4.124   6.260   2.171
 1616TIP3    H2 4813   4.143   6.196   2.034
 1617TIP3   OH2 4814   2.651   0.892   4.002
 1617TIP3    H1 4815   2.636   0.954   4.073
 1617TIP3    H2 4816   2.571   0.840   3.998
 1618TIP3   OH2 4817   1.696   2.077   3.485
 1618TIP3    H1 4818   1.707   2.169   3.510
 1618TIP3    H2 4819   1.773   2.058   3.431
 1619TIP3   OH2 4820   6.171   3.795   3.359
 1619TIP3    H1 4821   6.095   3.830   3.313
 1619TIP3    H2 4822   6.136   3.727   3.416
 1620TIP3   OH2 4823   1.375   4.027   0.233
 1620TIP3    H1 4824   1.405   3.961   0.294
 1620TIP3    H2 4825   1.380   4.109   0.281
 1621TIP3   OH2 4826   6.092   4.554   2.497
 1621TIP3    H1 4827   6.042   4.489   2.448
 1621TIP3    H2 4828   6.041   4.634   2.490
 1622TIP3   OH2 4829   6.408   5.499   1.998
 1622TIP3    H1 4830   6.424   5.429   1.934
 1622TIP3    H2 4831   6.359   5.455   2.068
 1623TIP3   OH2 4832   3.851   1.863   2.163
 1623TIP3    H1 4833   3.854   1.958   2.167
 1623TIP3    H2 4834   3.928   1.839   2.111
 1624TIP3   OH2 4835   7.109   0.327   3.439
 1624TIP3    H1 4836   7.043   0.319   3.509
 1624TIP3    H2 4837   7.192   0.335   3.486
 1625TIP3   OH2 4838   0.102   3.820   2.839
 1625TIP3    H1 4839   0.079   3.841   2.748
 1625TIP3    H2 4840   0.104   3.905   2.883
 1626TIP3   OH2 4841   5.112   3.149   2.487
 1626TIP3    H1 4842   5.061   3.120   2.562
 1626TIP3    H2 4843   5.047   3.186   2.427
 1627TIP3   OH2 4844   1.912   0.870   0.918
 1627TIP3    H1 4845   2.002   0.876   0.887
 1627TIP3    H2 4846   1.919   0.826   1.003
 1628TIP3   OH2 4847   5.018   3.079   3.002
 1628TIP3    H1 4848   5.010   3.171   3.026
 1628TIP3    H2 4849   4.960   3.034   3.063
 1629TIP3   OH2 4850   0.280   5.372   3.059
 1629TIP3    H1 4851   0.241   5.305   3.115
 1629TIP3    H2 4852   0.349   5.411   3.113
 1630TIP3   OH2 4853   1.661   6.441   0.490
 1630TIP3    H1 4854   1.693   6.531   0.487
 1630TIP3    H2 4855   1.669   6.409   0.400
 1631TIP3   OH2 4856   5.621   4.920   1.494
 1631TIP3    H1 4857   5.626   4.977   1.571
 1631TIP3    H2 4858   5.709   4.923   1.456
 1632TIP3   OH2 4859   0.156   5.958   0.869
 1632TIP3    H1 4860   0.075   5.980   0.822
 1632TIP3    H2 4861   0.212   6.035   0.858
 1633TIP3   OH2 4862   6.774   0.135   2.025
 1633TIP3    H1 4863   6.714   0.176   2.087
 1633TIP3    H2 4864   6.717   0.087   1.965
 1634TIP3   OH2 4865   0.370   4.548   3.085
 1634TIP3    H1 4866   0.348   4.641   3.076
 1634TIP3    H2 4867   0.372   4.533   3.180
 1635TIP3   OH2 4868   6.528   6.351   3.007
 1635TIP3    H1 4869   6.530   6.428   3.064
 1635TIP3    H2 4870   6.504   6.386   2.921
 1636TIP3   OH2 4871   1.511   0.214   3.215
 1636TIP3    H1 4872   1.550   0.138   3.172
 1636TIP3    H2 4873   1.537   0.288   3.161
 1637TIP3   OH2 4874   1.612   2.870   2.835
 1637TIP3    H1 4875   1.535   2.904   2.880
 1637TIP3    H2 4876   1.584   2.858   2.744
 1638TIP3   OH2 4877   5.929   6.713   0.394
 1638TIP3    H1 4878   5.881   6.635   0.422
 1638TIP3    H2 4879   6.020   6.695   0.417
 1639TIP3   OH2 4880   1.347   2.132   4.441
 1639TIP3    H1 4881   1.251   2.140   4.448
 1639TIP3    H2 4882   1.369   2.177   4.360
 1640TIP3   OH2 4883   1.858   6.635   2.405
 1640TIP3    H1 4884   1.788   6.570   2.400
 1640TIP3    H2 4885   1.926   6.592   2.456
 1641TIP3   OH2 4886   6.877   1.377   4.885
 1641TIP3    H1 4887   6.839   1.418   4.962
 1641TIP3    H2 4888   6.829   1.415   4.811
 1642TIP3   OH2 4889   1.431   1.810   5.758
 1642TIP3    H1 4890   1.473   1.878   5.705
 1642TIP3    H2 4891   1.410   1.855   5.840
 1643TIP3   OH2 4892   2.847   3.385   5.591
 1643TIP3    H1 4893   2.820   3.412   5.678
 1643TIP3    H2 4894   2.876   3.295   5.602
 1644TIP3   OH2 4895   5.816   5.574   3.681
 1644TIP3    H1 4896   5.789   5.602   3.593
 1644TIP3    H2 4897   5.892   5.629   3.702
 1645TIP3   OH2 4898   0.311   4.579   1.337
 1645TIP3    H1 4899   0.247   4.650   1.333
 1645TIP3    H2 4900   0.258   4.499   1.332
 1646TIP3   OH2 4901   3.962   3.560   5.554
 1646TIP3    H1 4902   3.991   3.512   5.632
 1646TIP3    H2 4903   3.997   3.648   5.566
 1647TIP3   OH2 4904   0.394   1.517   5.939
 1647TIP3    H1 4905   0.321   1.549   5.886
 1647TIP3    H2 4906   0.464   1.581   5.924
 1648TIP3   OH2 4907   5.394   1.796   1.847
 1648TIP3    H1 4908   5.403   1.889   1.829
 1648TIP3    H2 4909   5.409   1.788   1.941
 1649TIP3   OH2 4910   1.004   0.760   1.690
 1649TIP3    H1 4911   1.089   0.747   1.648
 1649TIP3    H2 4912   0.942   0.765   1.617
 1650TIP3   OH2 4913   4.769   4.736   1.421
 1650TIP3    H1 4914   4.683   4.765   1.390
 1650TIP3    H2 4915   4.823   4.815   1.419
 1651TIP3   OH2 4916   4.172   3.217   4.240
 1651TIP3    H1 4917   4.096   3.159   4.247
 1651TIP3    H2 4918   4.157   3.266   4.158
 1652TIP3   OH2 4919   6.360   4.447  -0.029
 1652TIP3    H1 4920   6.273   4.466  -0.064
 1652TIP3    H2 4921   6.352   4.360   0.011
 1653TIP3   OH2 4922   3.881   2.953   0.774
 1653TIP3    H1 4923   3.799   2.903   0.765
 1653TIP3    H2 4924   3.884   2.977   0.867
 1654TIP3   OH2 4925   6.310   3.426   0.382
 1654TIP3    H1 4926   6.233   3.387   0.423
 1654TIP3    H2 4927   6.283   3.514   0.358
 1655TIP3   OH2 4928   1.770   1.201   5.523
 1655TIP3    H1 4929   1.818   1.138   5.578
 1655TIP3    H2 4930   1.792   1.177   5.433
 1656TIP3   OH2 4931   4.061   0.095   1.735
 1656TIP3    H1 4932   4.025   0.171   1.690
 1656TIP3    H2 4933   4.124   0.058   1.673
 1657TIP3   OH2 4934   0.062   1.257   3.029
 1657TIP3    H1 4935  -0.023   1.226   3.062
 1657TIP3    H2 4936   0.110   1.177   3.008
 1658TIP3   OH2 4937   3.808   2.545   5.573
 1658TIP3    H1 4938   3.727   2.497   5.554
 1658TIP3    H2 4939   3.794   2.632   5.534
 1659TIP3   OH2 4940   4.606   2.436   0.619
 1659TIP3    H1 4941   4.642   2.348   0.621
 1659TIP3    H2 4942   4.533   2.431   0.557
 1660TIP3   OH2 4943   2.008   0.120   1.453
 1660TIP3    H1 4944   1.931   0.107   1.398
 1660TIP3    H2 4945   2.011   0.214   1.469
 1661TIP3   OH2 4946   2.901   2.572   4.585
 1661TIP3    H1 4947   2.844   2.544   4.656
 1661TIP3    H2 4948   2.900   2.498   4.524
 1662TIP3   OH2 4949   5.620   5.922   4.681
 1662TIP3    H1 4950   5.695   5.888   4.633
 1662TIP3    H2 4951   5.610   5.865   4.757
 1663TIP3   OH2 4952   0.303   6.120   3.727
 1663TIP3    H1 4953   0.312   6.072   3.809
 1663TIP3    H2 4954   0.354   6.070   3.664
 1664TIP3   OH2 4955   2.857   4.589   2.282
 1664TIP3    H1 4956   2.790   4.623   2.342
 1664TIP3    H2 4957   2.930   4.563   2.339
 1665TIP3   OH2 4958   7.183   0.934   3.302
 1665TIP3    H1 4959   7.195   0.854   3.250
 1665TIP3    H2 4960   7.147   0.903   3.385
 1666TIP3   OH2 4961   7.110   3.122   1.767
 1666TIP3    H1 4962   7.198   3.145   1.738
 1666TIP3    H2 4963   7.058   3.117   1.687
 1667TIP3   OH2 4964   3.829   2.803   5.150
 1667TIP3    H1 4965   3.901   2.741   5.164
 1667TIP3    H2 4966   3.854   2.880   5.200
 1668TIP3   OH2 4967   3.542   1.167   2.284
 1668TIP3    H1 4968   3.628   1.186   2.245
 1668TIP3    H2 4969   3.491   1.246   2.271
 1669TIP3   OH2 4970   2.574   2.313   1.449
 1669TIP3    H1 4971   2.662   2.319   1.410
 1669TIP3    H2 4972   2.538   2.232   1.413
 1670TIP3   OH2 4973   1.363   0.980   4.498
 1670TIP3    H1 4974   1.374   1.070   4.467
 1670TIP3    H2 4975   1.290   0.946   4.447
 1671TIP3   OH2 4976   6.691   1.974   5.468
 1671TIP3    H1 4977   6.622   1.988   5.533
 1671TIP3    H2 4978   6.683   1.881   5.445
 1672TIP3   OH2 4979   7.025   5.919   1.280
 1672TIP3    H1 4980   6.938   5.899   1.314
 1672TIP3    H2 4981   7.064   5.977   1.345
 1673TIP3   OH2 4982   3.708   0.467   0.811
 1673TIP3    H1 4983   3.794   0.428   0.798
 1673TIP3    H2 4984   3.691   0.516   0.730
 1674TIP3   OH2 4985   0.157   1.822   2.603
 1674TIP3    H1 4986   0.150   1.843   2.696
 1674TIP3    H2 4987   0.152   1.726   2.600
 1675TIP3   OH2 4988   2.135   3.214   0.350
 1675TIP3    H1 4989   2.076   3.206   0.425
 1675TIP3    H2 4990   2.138   3.126   0.313
 1676TIP3   OH2 4991   3.746   4.357   0.448
 1676TIP3    H1 4992   3.805   4.433   0.449
 1676TIP3    H2 4993   3.752   4.322   0.537
 1677TIP3   OH2 4994   2.674   2.559   2.741
 1677TIP3    H1 4995   2.691   2.638   2.691
 1677TIP3    H2 4996   2.690   2.487   2.679
 1678TIP3   OH2 4997   2.093   2.454   2.794
 1678TIP3    H1 4998   2.053   2.506   2.725
 1678TIP3    H2 4999   2.041   2.374   2.799
 1679TIP3   OH2 5000   1.060   5.169   1.451
 1679TIP3    H1 5001   1.104   5.181   1.535
 1679TIP3    H2 5002   1.093   5.086   1.418
 1680TIP3   OH2 5003   1.711   0.792   3.851
 1680TIP3    H1 5004   1.720   0.738   3.772
 1680TIP3    H2 5005   1.757   0.873   3.829
 1681TIP3   OH2 5006   5.976   1.443   4.728
 1681TIP3    H1 5007   5.995   1.450   4.822
 1681TIP3    H2 5008   6.029   1.369   4.698
 1682TIP3   OH2 5009   0.597   0.624   1.520
 1682TIP3    H1 5010   0.683   0.656   1.492
 1682TIP3    H2 5011   0.534   0.679   1.473
 1683TIP3   OH2 5012   7.028   2.474   4.055
 1683TIP3    H1 5013   7.103   2.430   4.095
 1683TIP3    H2 5014   7.044   2.567   4.069
 1684TIP3   OH2 5015   5.995   5.580   4.475
 1684TIP3    H1 5016   5.976   5.662   4.430
 1684TIP3    H2 5017   5.965   5.512   4.415
 1685TIP3   OH2 5018   7.334   2.730   3.746
 1685TIP3    H1 5019   7.248   2.697   3.769
 1685TIP3    H2 5020   7.317   2.811   3.698
 1686TIP3   OH2 5021   5.380   0.746   2.997
 1686TIP3    H1 5022   5.387   0.822   2.939
 1686TIP3    H2 5023   5.317   0.688   2.954
 1687TIP3   OH2 5024   6.273   3.549   3.662
 1687TIP3    H1 5025   6.328   3.624   3.639
 1687TIP3    H2 5026   6.187   3.572   3.628
 1688TIP3   OH2 5027   2.586   3.403   2.771
 1688TIP3    H1 5028   2.578   3.308   2.779
 1688TIP3    H2 5029   2.543   3.424   2.689
 1689TIP3   OH2 5030   1.093   2.539   0.744
 1689TIP3    H1 5031   1.098   2.634   0.754
 1689TIP3    H2 5032   1.172   2.505   0.786
 1690TIP3   OH2 5033   1.241   3.941   2.015
 1690TIP3    H1 5034   1.291   3.867   2.051
 1690TIP3    H2 5035   1.209   3.988   2.092
 1691TIP3   OH2 5036   5.488   2.092   3.812
 1691TIP3    H1 5037   5.423   2.063   3.876
 1691TIP3    H2 5038   5.457   2.178   3.785
 1692TIP3   OH2 5039   5.208   1.760   4.478
 1692TIP3    H1 5040   5.147   1.689   4.457
 1692TIP3    H2 5041   5.290   1.715   4.500
 1693TIP3   OH2 5042   2.535   2.251   1.748
 1693TIP3    H1 5043   2.496   2.304   1.679
 1693TIP3    H2 5044   2.629   2.256   1.732
 1694TIP3   OH2 5045   0.575   5.482   1.463
 1694TIP3    H1 5046   0.636   5.531   1.408
 1694TIP3    H2 5047   0.576   5.528   1.547
 1695TIP3   OH2 5048   1.524   3.534   3.340
 1695TIP3    H1 5049   1.441   3.566   3.305
 1695TIP3    H2 5050   1.573   3.505   3.264
 1696TIP3   OH2 5051   0.516   4.119   3.287
 1696TIP3    H1 5052   0.601   4.075   3.293
 1696TIP3    H2 5053   0.526   4.181   3.215
 1697TIP3   OH2 5054   2.488   4.839   1.206
 1697TIP3    H1 5055   2.580   4.843   1.232
 1697TIP3    H2 5056   2.447   4.785   1.274
 1698TIP3   OH2 5057   3.434   4.617   0.356
 1698TIP3    H1 5058   3.429   4.708   0.327
 1698TIP3    H2 5059   3.403   4.566   0.281
 1699TIP3   OH2 5060   1.126   1.377   2.661
 1699TIP3    H1 5061   1.195   1.378   2.728
 1699TIP3    H2 5062   1.120   1.285   2.634
 1700TIP3   OH2 5063   3.787   1.540   1.442
 1700TIP3    H1 5064   3.733   1.527   1.364
 1700TIP3    H2 5065   3.814   1.632   1.438
 1701TIP3   OH2 5066   4.350   3.196   1.745
 1701TIP3    H1 5067   4.394   3.113   1.730
 1701TIP3    H2 5068   4.420   3.260   1.757
 1702TIP3   OH2 5069   3.201   1.045   0.932
 1702TIP3    H1 5070   3.174   1.064   1.021
 1702TIP3    H2 5071   3.126   1.001   0.892
 1703TIP3   OH2 5072   5.770   6.481   0.478
 1703TIP3    H1 5073   5.722   6.447   0.553
 1703TIP3    H2 5074   5.849   6.426   0.474
 1704TIP3   OH2 5075   4.953   6.479   3.884
 1704TIP3    H1 5076   4.971   6.386   3.874
 1704TIP3    H2 5077   4.932   6.490   3.977
 1705TIP3   OH2 5078   6.173   5.477   4.123
 1705TIP3    H1 5079   6.167   5.571   4.136
 1705TIP3    H2 5080   6.098   5.441   4.171
 1706TIP3   OH2 5081   4.771   6.180   2.615
 1706TIP3    H1 5082   4.819   6.213   2.539
 1706TIP3    H2 5083   4.756   6.088   2.595
 1707TIP3   OH2 5084   0.839   0.924   4.533
 1707TIP3    H1 5085   0.790   0.872   4.596
 1707TIP3    H2 5086   0.805   0.896   4.448
 1708TIP3   OH2 5087   6.798   4.590   2.598
 1708TIP3    H1 5088   6.873   4.646   2.614
 1708TIP3    H2 5089   6.724   4.639   2.634
 1709TIP3   OH2 5090   6.416   3.153   5.175
 1709TIP3    H1 5091   6.411   3.189   5.264
 1709TIP3    H2 5092   6.367   3.215   5.121
 1710TIP3   OH2 5093   6.258   0.960   1.016
 1710TIP3    H1 5094   6.194   1.016   1.059
 1710TIP3    H2 5095   6.258   0.988   0.925
 1711TIP3   OH2 5096   6.393   3.187   1.018
 1711TIP3    H1 5097   6.335   3.261   0.997
 1711TIP3    H2 5098   6.462   3.192   0.952
 1712TIP3   OH2 5099   5.984   4.047   5.891
 1712TIP3    H1 5100   6.039   3.972   5.913
 1712TIP3    H2 5101   5.901   4.029   5.936
 1713TIP3   OH2 5102   1.334   4.539   4.761
 1713TIP3    H1 5103   1.251   4.512   4.721
 1713TIP3    H2 5104   1.400   4.487   4.716
 1714TIP3   OH2 5105   2.897   3.590   1.665
 1714TIP3    H1 5106   2.987   3.619   1.647
 1714TIP3    H2 5107   2.900   3.495   1.654
 1715TIP3   OH2 5108   3.090   1.740   3.146
 1715TIP3    H1 5109   3.083   1.833   3.166
 1715TIP3    H2 5110   3.170   1.712   3.190
 1716TIP3   OH2 5111   1.042   0.389   5.732
 1716TIP3    H1 5112   1.039   0.478   5.696
 1716TIP3    H2 5113   1.072   0.401   5.822
 1717TIP3   OH2 5114   2.347   4.570   0.635
 1717TIP3    H1 5115   2.431   4.581   0.680
 1717TIP3    H2 5116   2.310   4.658   0.632
 1718TIP3   OH2 5117   5.630   3.445   1.326
 1718TIP3    H1 5118   5.549   3.485   1.292
 1718TIP3    H2 5119   5.700   3.486   1.276
 1719TIP3   OH2 5120   6.742   1.526   0.956
 1719TIP3    H1 5121   6.654   1.492   0.936
 1719TIP3    H2 5122   6.744   1.613   0.915
 1720TIP3   OH2 5123   0.736   6.718   5.138
 1720TIP3    H1 5124   0.684   6.693   5.062
 1720TIP3    H2 5125   0.749   6.635   5.185
 1721TIP3   OH2 5126   0.365   6.065   2.566
 1721TIP3    H1 5127   0.440   6.087   2.622
 1721TIP3    H2 5128   0.354   5.971   2.576
 1722TIP3   OH2 5129   0.920   5.534   4.926
 1722TIP3    H1 5130   0.954   5.524   5.014
 1722TIP3    H2 5131   0.998   5.537   4.870
 1723TIP3   OH2 5132   2.477   3.591   0.640
 1723TIP3    H1 5133   2.474   3.496   0.630
 1723TIP3    H2 5134   2.535   3.621   0.571
 1724TIP3   OH2 5135   6.704   5.599   0.234
 1724TIP3    H1 5136   6.625   5.642   0.200
 1724TIP3    H2 5137   6.698   5.609   0.329
 1725TIP3   OH2 5138   6.819   1.831   1.758
 1725TIP3    H1 5139   6.909   1.815   1.732
 1725TIP3    H2 5140   6.766   1.783   1.694
 1726TIP3   OH2 5141   1.208   6.743   0.133
 1726TIP3    H1 5142   1.210   6.687   0.056
 1726TIP3    H2 5143   1.126   6.719   0.177
 1727TIP3   OH2 5144   6.223   6.634   2.172
 1727TIP3    H1 5145   6.217   6.594   2.085
 1727TIP3    H2 5146   6.187   6.722   2.161
 1728TIP3   OH2 5147   2.690   1.888   0.704
 1728TIP3    H1 5148   2.769   1.872   0.653
 1728TIP3    H2 5149   2.652   1.966   0.664
 1729TIP3   OH2 5150   0.294   1.119   2.782
 1729TIP3    H1 5151   0.354   1.077   2.843
 1729TIP3    H2 5152   0.339   1.198   2.753
 1730TIP3   OH2 5153   1.086   1.126   2.570
 1730TIP3    H1 5154   1.108   1.055   2.631
 1730TIP3    H2 5155   1.150   1.117   2.499
 1731TIP3   OH2 5156   3.656   1.834   1.631
 1731TIP3    H1 5157   3.717   1.866   1.563
 1731TIP3    H2 5158   3.594   1.779   1.584
 1732TIP3   OH2 5159   5.101   5.224   5.608
 1732TIP3    H1 5160   5.156   5.282   5.661
 1732TIP3    H2 5161   5.105   5.140   5.654
 1733TIP3   OH2 5162   4.554   1.327   3.678
 1733TIP3    H1 5163   4.520   1.405   3.721
 1733TIP3    H2 5164   4.648   1.328   3.696
 1734TIP3   OH2 5165   1.972   2.661   5.192
 1734TIP3    H1 5166   2.038   2.605   5.151
 1734TIP3    H2 5167   2.023   2.722   5.246
 1735TIP3   OH2 5168   0.460   6.387   1.822
 1735TIP3    H1 5169   0.393   6.388   1.755
 1735TIP3    H2 5170   0.413   6.371   1.904
 1736TIP3   OH2 5171   4.722   6.113   5.538
 1736TIP3    H1 5172   4.807   6.100   5.581
 1736TIP3    H2 5173   4.664   6.140   5.609
 1737TIP3   OH2 5174   1.765   1.292   4.310
 1737TIP3    H1 5175   1.841   1.253   4.352
 1737TIP3    H2 5176   1.778   1.386   4.319
 1738TIP3   OH2 5177   4.264   6.799   2.738
 1738TIP3    H1 5178   4.353   6.835   2.731
 1738TIP3    H2 5179   4.262   6.756   2.823
 1739TIP3   OH2 5180   2.732   0.915   2.254
 1739TIP3    H1 5181   2.789   0.896   2.329
 1739TIP3    H2 5182   2.772   0.992   2.212
 1740TIP3   OH2 5183   6.648   0.813   2.558
 1740TIP3    H1 5184   6.610   0.899   2.578
 1740TIP3    H2 5185   6.624   0.759   2.633
 1741TIP3   OH2 5186   3.308   5.050   2.539
 1741TIP3    H1 5187   3.357   4.995   2.600
 1741TIP3    H2 5188   3.231   5.079   2.588
 1742TIP3   OH2 5189   2.054   2.094   3.018
 1742TIP3    H1 5190   2.059   2.004   3.053
 1742TIP3    H2 5191   2.039   2.148   3.095
 1743TIP3   OH2 5192   2.335   1.642   1.170
 1743TIP3    H1 5193   2.371   1.587   1.240
 1743TIP3    H2 5194   2.344   1.589   1.091
 1744TIP3   OH2 5195   6.581   2.068   4.335
 1744TIP3    H1 5196   6.659   2.122   4.347
 1744TIP3    H2 5197   6.573   2.057   4.240
 1745TIP3   OH2 5198   4.437   2.884   1.935
 1745TIP3    H1 5199   4.443   2.893   1.839
 1745TIP3    H2 5200   4.343   2.881   1.952
 1746TIP3   OH2 5201   5.431   6.784   4.438
 1746TIP3    H1 5202   5.514   6.810   4.398
 1746TIP3    H2 5203   5.442   6.690   4.457
 1747TIP3   OH2 5204   6.201   6.653   0.498
 1747TIP3    H1 5205   6.260   6.710   0.548
 1747TIP3    H2 5206   6.210   6.568   0.539
 1748TIP3   OH2 5207   0.861   6.468   2.395
 1748TIP3    H1 5208   0.876   6.508   2.481
 1748TIP3    H2 5209   0.948   6.441   2.366
 1749TIP3   OH2 5210   2.861   4.179   0.978
 1749TIP3    H1 5211   2.879   4.095   1.020
 1749TIP3    H2 5212   2.847   4.240   1.050
 1750TIP3   OH2 5213   5.147   1.503   3.313
 1750TIP3    H1 5214   5.233   1.529   3.279
 1750TIP3    H2 5215   5.129   1.420   3.270
 1751TIP3   OH2 5216   7.118   1.324   5.126
 1751TIP3    H1 5217   7.095   1.290   5.040
 1751TIP3    H2 5218   7.043   1.378   5.152
 1752TIP3   OH2 5219   6.193   5.932   5.211
 1752TIP3    H1 5220   6.144   5.867   5.260
 1752TIP3    H2 5221   6.185   5.905   5.120
 1753TIP3   OH2 5222   0.892   5.799   4.778
 1753TIP3    H1 5223   0.938   5.855   4.715
 1753TIP3    H2 5224   0.932   5.712   4.766
 1754TIP3   OH2 5225   4.184   5.417   4.158
 1754TIP3    H1 5226   4.162   5.348   4.221
 1754TIP3    H2 5227   4.099   5.445   4.123
 1755TIP3   OH2 5228   5.873   5.919   3.394
 1755TIP3    H1 5229   5.858   6.010   3.370
 1755TIP3    H2 5230   5.967   5.906   3.382
 1756TIP3   OH2 5231   5.073   2.011   4.466
 1756TIP3    H1 5232   5.100   1.922   4.444
 1756TIP3    H2 5233   5.140   2.043   4.526
 1757TIP3   OH2 5234   1.134   5.807   1.482
 1757TIP3    H1 5235   1.210   5.843   1.526
 1757TIP3    H2 5236   1.168   5.736   1.427
 1758TIP3   OH2 5237   6.011   2.032  -0.029
 1758TIP3    H1 5238   5.978   1.968   0.034
 1758TIP3    H2 5239   6.003   2.116   0.015
 1759TIP3   OH2 5240   0.971   1.765   3.333
 1759TIP3    H1 5241   1.016   1.752   3.417
 1759TIP3    H2 5242   0.879   1.747   3.353
 1760TIP3   OH2 5243   6.409   4.535   4.756
 1760TIP3    H1 5244   6.314   4.526   4.765
 1760TIP3    H2 5245   6.424   4.532   4.662
 1761TIP3   OH2 5246   3.042   6.121   0.902
 1761TIP3    H1 5247   3.006   6.044   0.859
 1761TIP3    H2 5248   2.980   6.139   0.973
 1762TIP3   OH2 5249   1.850   6.218   0.763
 1762TIP3    H1 5250   1.872   6.307   0.737
 1762TIP3    H2 5251   1.927   6.166   0.737
 1763TIP3   OH2 5252   4.802   1.987   5.767
 1763TIP3    H1 5253   4.778   1.978   5.674
 1763TIP3    H2 5254   4.806   2.082   5.781
 1764TIP3   OH2 5255   5.461   2.395   4.587
 1764TIP3    H1 5256   5.489   2.404   4.496
 1764TIP3    H2 5257   5.538   2.360   4.632
 1765TIP3   OH2 5258   6.262   5.607   5.070
 1765TIP3    H1 5259   6.306   5.524   5.052
 1765TIP3    H2 5260   6.203   5.588   5.143
 1766TIP3   OH2 5261   1.160   5.745   2.706
 1766TIP3    H1 5262   1.238   5.754   2.652
 1766TIP3    H2 5263   1.188   5.693   2.781
 1767TIP3   OH2 5264   3.377   3.204   2.234
 1767TIP3    H1 5265   3.289   3.218   2.268
 1767TIP3    H2 5266   3.435   3.235   2.303
 1768TIP3   OH2 5267   1.501   6.342   5.779
 1768TIP3    H1 5268   1.466   6.399   5.710
 1768TIP3    H2 5269   1.433   6.340   5.846
 1769TIP3   OH2 5270   5.178   3.717   4.084
 1769TIP3    H1 5271   5.110   3.750   4.026
 1769TIP3    H2 5272   5.213   3.796   4.126
 1770TIP3   OH2 5273   0.297   3.716   0.651
 1770TIP3    H1 5274   0.348   3.659   0.594
 1770TIP3    H2 5275   0.239   3.656   0.698
 1771TIP3   OH2 5276   0.795   3.050   0.402
 1771TIP3    H1 5277   0.741   3.122   0.433
 1771TIP3    H2 5278   0.885   3.077   0.422
 1772TIP3   OH2 5279   6.985   4.839   5.650
 1772TIP3    H1 5280   7.006   4.880   5.566
 1772TIP3    H2 5281   6.890   4.827   5.648
 1773TIP3   OH2 5282   4.934   3.089   2.690
 1773TIP3    H1 5283   4.930   3.096   2.785
 1773TIP3    H2 5284   4.903   3.000   2.671
 1774TIP3   OH2 5285   5.978   3.923   4.211
 1774TIP3    H1 5286   5.950   3.901   4.299
 1774TIP3    H2 5287   5.967   4.018   4.205
 1775TIP3   OH2 5288   2.058   1.987   4.842
 1775TIP3    H1 5289   2.143   2.023   4.866
 1775TIP3    H2 5290   2.023   1.952   4.923
 1776TIP3   OH2 5291   3.335   5.245   4.790
 1776TIP3    H1 5292   3.288   5.199   4.860
 1776TIP3    H2 5293   3.276   5.241   4.715
 1777TIP3   OH2 5294   0.514   1.541   4.282
 1777TIP3    H1 5295   0.484   1.576   4.198
 1777TIP3    H2 5296   0.587   1.483   4.259
 1778TIP3   OH2 5297   2.529   2.261   5.432
 1778TIP3    H1 5298   2.597   2.239   5.369
 1778TIP3    H2 5299   2.479   2.330   5.390
 1779TIP3   OH2 5300   0.643   0.054   5.670
 1779TIP3    H1 5301   0.639   0.143   5.634
 1779TIP3    H2 5302   0.592   0.058   5.750
 1780TIP3   OH2 5303   3.211   0.942   4.372
 1780TIP3    H1 5304   3.190   0.918   4.282
 1780TIP3    H2 5305   3.177   1.031   4.382
 1781TIP3   OH2 5306   1.084   2.417   4.337
 1781TIP3    H1 5307   1.103   2.510   4.348
 1781TIP3    H2 5308   1.078   2.383   4.426
 1782TIP3   OH2 5309   4.486   1.004   0.658
 1782TIP3    H1 5310   4.531   0.955   0.589
 1782TIP3    H2 5311   4.555   1.053   0.702
 1783TIP3   OH2 5312   4.116   0.770   2.844
 1783TIP3    H1 5313   4.183   0.830   2.811
 1783TIP3    H2 5314   4.034   0.800   2.805
 1784TIP3   OH2 5315   6.762   4.656   1.936
 1784TIP3    H1 5316   6.730   4.603   2.009
 1784TIP3    H2 5317   6.692   4.653   1.871
 1785TIP3   OH2 5318   4.237   6.415   2.713
 1785TIP3    H1 5319   4.287   6.353   2.766
 1785TIP3    H2 5320   4.200   6.477   2.776
 1786TIP3   OH2 5321   3.179   3.908   4.412
 1786TIP3    H1 5322   3.170   3.987   4.465
 1786TIP3    H2 5323   3.096   3.862   4.423
 1787TIP3   OH2 5324   3.425   0.700   5.374
 1787TIP3    H1 5325   3.452   0.692   5.283
 1787TIP3    H2 5326   3.341   0.745   5.371
 1788TIP3   OH2 5327   2.439   6.384   3.313
 1788TIP3    H1 5328   2.509   6.326   3.341
 1788TIP3    H2 5329   2.377   6.327   3.268
 1789TIP3   OH2 5330   0.491   0.855   5.575
 1789TIP3    H1 5331   0.577   0.828   5.541
 1789TIP3    H2 5332   0.467   0.787   5.637
 1790TIP3   OH2 5333   6.700   6.115   4.002
 1790TIP3    H1 5334   6.720   6.070   3.920
 1790TIP3    H2 5335   6.610   6.144   3.993
 1791TIP3   OH2 5336   1.139   6.461   2.303
 1791TIP3    H1 5337   1.141   6.543   2.254
 1791TIP3    H2 5338   1.190   6.479   2.382
 1792TIP3   OH2 5339   7.056   0.506   3.240
 1792TIP3    H1 5340   7.073   0.429   3.293
 1792TIP3    H2 5341   6.980   0.482   3.186
 1793TIP3   OH2 5342   6.251   6.377   0.576
 1793TIP3    H1 5343   6.246   6.294   0.528
 1793TIP3    H2 5344   6.274   6.352   0.665
 1794TIP3   OH2 5345   3.458   3.043   3.010
 1794TIP3    H1 5346   3.394   2.994   3.062
 1794TIP3    H2 5347   3.538   3.041   3.062
 1795TIP3   OH2 5348   6.385   1.442   5.186
 1795TIP3    H1 5349   6.348   1.485   5.110
 1795TIP3    H2 5350   6.338   1.479   5.261
 1796TIP3   OH2 5351   2.756   1.704   5.844
 1796TIP3    H1 5352   2.763   1.724   5.938
 1796TIP3    H2 5353   2.837   1.658   5.823
 1797TIP3   OH2 5354   6.472   2.187   0.503
 1797TIP3    H1 5355   6.406   2.190   0.572
 1797TIP3    H2 5356   6.468   2.097   0.471
 1798TIP3   OH2 5357   6.551   5.371   4.720
 1798TIP3    H1 5358   6.612   5.305   4.687
 1798TIP3    H2 5359   6.477   5.321   4.752
 1799TIP3   OH2 5360   4.626   5.962   3.708
 1799TIP3    H1 5361   4.720   5.953   3.721
 1799TIP3    H2 5362   4.617   6.020   3.632
 1800TIP3   OH2 5363   5.021   1.843   2.806
 1800TIP3    H1 5364   5.106   1.853   2.849
 1800TIP3    H2 5365   4.966   1.910   2.847
 1801TIP3   OH2 5366   5.077   2.388   4.538
 1801TIP3    H1 5367   5.086   2.342   4.455
 1801TIP3    H2 5368   5.047   2.476   4.514
 1802TIP3   OH2 5369   2.714   5.995   0.483
 1802TIP3    H1 5370   2.737   6.029   0.397
 1802TIP3    H2 5371   2.656   5.921   0.466
 1803TIP3   OH2 5372   3.541   4.017   5.328
 1803TIP3    H1 5373   3.624   3.972   5.344
 1803TIP3    H2 5374   3.506   3.975   5.249
 1804TIP3   OH2 5375   7.179   6.705   2.002
 1804TIP3    H1 5376   7.182   6.701   1.906
 1804TIP3    H2 5377   7.103   6.761   2.020
 1805TIP3   OH2 5378   5.025   4.382   2.493
 1805TIP3    H1 5379   5.027   4.476   2.512
 1805TIP3    H2 5380   5.082   4.342   2.559
 1806TIP3   OH2 5381   3.117   3.348   4.244
 1806TIP3    H1 5382   3.030   3.352   4.284
 1806TIP3    H2 5383   3.168   3.414   4.291
 1807TIP3   OH2 5384   1.313   4.704   5.842
 1807TIP3    H1 5385   1.251   4.750   5.785
 1807TIP3    H2 5386   1.341   4.770   5.905
 1808TIP3   OH2 5387   7.020   4.244   1.333
 1808TIP3    H1 5388   6.975   4.188   1.397
 1808TIP3    H2 5389   6.971   4.231   1.252
 1809TIP3   OH2 5390   4.773   2.081   5.496
 1809TIP3    H1 5391   4.737   2.024   5.429
 1809TIP3    H2 5392   4.759   2.170   5.462
 1810TIP3   OH2 5393   2.728   4.224   1.302
 1810TIP3    H1 5394   2.647   4.209   1.254
 1810TIP3    H2 5395   2.777   4.286   1.247
 1811TIP3   OH2 5396   6.836   1.160   1.240
 1811TIP3    H1 5397   6.772   1.118   1.297
 1811TIP3    H2 5398   6.795   1.161   1.154
 1812TIP3   OH2 5399   3.616  -0.037   5.306
 1812TIP3    H1 5400   3.554  -0.052   5.235
 1812TIP3    H2 5401   3.702  -0.035   5.263
 1813TIP3   OH2 5402   6.820   0.916   0.976
 1813TIP3    H1 5403   6.760   0.989   0.993
 1813TIP3    H2 5404   6.846   0.886   1.063
 1814TIP3   OH2 5405   6.951   4.295   2.398
 1814TIP3    H1 5406   6.943   4.334   2.311
 1814TIP3    H2 5407   6.863   4.263   2.417
 1815TIP3   OH2 5408   3.221   1.255   0.708
 1815TIP3    H1 5409   3.303   1.206   0.698
 1815TIP3    H2 5410   3.197   1.243   0.800
 1816TIP3   OH2 5411   0.533   1.572   2.028
 1816TIP3    H1 5412   0.533   1.665   2.051
 1816TIP3    H2 5413   0.455   1.561   1.972
 1817TIP3   OH2 5414   3.582   5.540   4.538
 1817TIP3    H1 5415   3.564   5.516   4.447
 1817TIP3    H2 5416   3.581   5.456   4.585
 1818TIP3   OH2 5417   0.247   4.673   3.750
 1818TIP3    H1 5418   0.251   4.595   3.695
 1818TIP3    H2 5419   0.323   4.666   3.808
 1819TIP3   OH2 5420   5.821   2.072   3.812
 1819TIP3    H1 5421   5.736   2.056   3.771
 1819TIP3    H2 5422   5.883   2.070   3.739
 1820TIP3   OH2 5423   6.057   3.577   4.019
 1820TIP3    H1 5424   6.090   3.611   3.936
 1820TIP3    H2 5425   6.087   3.639   4.085
 1821TIP3   OH2 5426   0.326   3.660   1.174
 1821TIP3    H1 5427   0.244   3.621   1.203
 1821TIP3    H2 5428   0.383   3.656   1.251
 1822TIP3   OH2 5429   4.734   1.150   4.334
 1822TIP3    H1 5430   4.662   1.164   4.273
 1822TIP3    H2 5431   4.721   1.217   4.402
 1823TIP3   OH2 5432   4.163   6.669   1.467
 1823TIP3    H1 5433   4.129   6.756   1.450
 1823TIP3    H2 5434   4.133   6.648   1.555
 1824TIP3   OH2 5435   2.250   2.654   3.644
 1824TIP3    H1 5436   2.220   2.568   3.674
 1824TIP3    H2 5437   2.171   2.695   3.608
 1825TIP3   OH2 5438   6.090   1.266   4.309
 1825TIP3    H1 5439   6.064   1.199   4.373
 1825TIP3    H2 5440   6.048   1.239   4.228
 1826TIP3   OH2 5441   6.792   0.032   5.506
 1826TIP3    H1 5442   6.707   0.057   5.543
 1826TIP3    H2 5443   6.856   0.073   5.564
 1827TIP3   OH2 5444   4.172   4.635   2.397
 1827TIP3    H1 5445   4.231   4.590   2.336
 1827TIP3    H2 5446   4.229   4.666   2.467
 1828TIP3   OH2 5447   3.028   0.655   2.608
 1828TIP3    H1 5448   3.031   0.607   2.691
 1828TIP3    H2 5449   3.112   0.636   2.567
 1829TIP3   OH2 5450   1.715   6.090   0.214
 1829TIP3    H1 5451   1.749   6.112   0.301
 1829TIP3    H2 5452   1.689   6.174   0.177
 1830TIP3   OH2 5453   5.996   1.649   1.518
 1830TIP3    H1 5454   5.907   1.621   1.499
 1830TIP3    H2 5455   6.042   1.643   1.435
 1831TIP3   OH2 5456   3.763   3.816   5.220
 1831TIP3    H1 5457   3.693   3.834   5.157
 1831TIP3    H2 5458   3.763   3.721   5.229
 1832TIP3   OH2 5459   1.498   5.932   1.237
 1832TIP3    H1 5460   1.417   5.983   1.228
 1832TIP3    H2 5461   1.513   5.896   1.149
 1833TIP3   OH2 5462   6.753   6.110   4.290
 1833TIP3    H1 5463   6.674   6.163   4.307
 1833TIP3    H2 5464   6.747   6.088   4.197
 1834TIP3   OH2 5465   5.978   3.918   2.461
 1834TIP3    H1 5466   6.068   3.886   2.466
 1834TIP3    H2 5467   5.965   3.970   2.541
 1835TIP3   OH2 5468   1.470   2.222   3.363
 1835TIP3    H1 5469   1.490   2.225   3.457
 1835TIP3    H2 5470   1.553   2.199   3.321
 1836TIP3   OH2 5471   1.986   4.633   2.641
 1836TIP3    H1 5472   2.011   4.620   2.733
 1836TIP3    H2 5473   1.984   4.545   2.604
 1837TIP3   OH2 5474   2.484   0.345   5.835
 1837TIP3    H1 5475   2.540   0.272   5.862
 1837TIP3    H2 5476   2.532   0.387   5.764
 1838TIP3   OH2 5477   6.650   6.624   0.965
 1838TIP3    H1 5478   6.719   6.583   0.912
 1838TIP3    H2 5479   6.580   6.559   0.968
 1839TIP3   OH2 5480   2.363   4.825   1.554
 1839TIP3    H1 5481   2.451   4.793   1.571
 1839TIP3    H2 5482   2.309   4.786   1.623
 1840TIP3   OH2 5483   1.162   6.144   1.890
 1840TIP3    H1 5484   1.144   6.229   1.929
 1840TIP3    H2 5485   1.139   6.081   1.958
 1841TIP3   OH2 5486   6.290   4.029   2.896
 1841TIP3    H1 5487   6.336   3.946   2.902
 1841TIP3    H2 5488   6.255   4.043   2.984
 1842TIP3   OH2 5489   4.663   5.673   3.360
 1842TIP3    H1 5490   4.608   5.751   3.368
 1842TIP3    H2 5491   4.743   5.695   3.408
 1843TIP3   OH2 5492   3.478   5.974   1.234
 1843TIP3    H1 5493   3.413   5.930   1.179
 1843TIP3    H2 5494   3.439   5.975   1.321
 1844TIP3   OH2 5495   0.444   6.115   1.102
 1844TIP3    H1 5496   0.385   6.151   1.036
 1844TIP3    H2 5497   0.504   6.060   1.053
 1845TIP3   OH2 5498   4.367   1.479   4.741
 1845TIP3    H1 5499   4.435   1.412   4.734
 1845TIP3    H2 5500   4.291   1.440   4.697
 1846TIP3   OH2 5501   7.082   4.535   5.280
 1846TIP3    H1 5502   7.024   4.578   5.342
 1846TIP3    H2 5503   7.168   4.574   5.296
 1847TIP3   OH2 5504   6.987   1.356   0.585
 1847TIP3    H1 5505   6.951   1.391   0.504
 1847TIP3    H2 5506   7.040   1.282   0.558
 1848TIP3   OH2 5507  -0.041   6.323   0.702
 1848TIP3    H1 5508  -0.100   6.396   0.720
 1848TIP3    H2 5509   0.046   6.364   0.700
 1849TIP3   OH2 5510   4.526   3.345   0.589
 1849TIP3    H1 5511   4.575   3.422   0.619
 1849TIP3    H2 5512   4.585   3.271   0.605
 1850TIP3   OH2 5513   1.194   5.343   2.138
 1850TIP3    H1 5514   1.202   5.248   2.146
 1850TIP3    H2 5515   1.113   5.364   2.184
 1851TIP3   OH2 5516   1.759   5.113   2.419
 1851TIP3    H1 5517   1.668   5.141   2.415
 1851TIP3    H2 5518   1.784   5.126   2.511
 1852TIP3   OH2 5519   4.140   3.622   4.476
 1852TIP3    H1 5520   4.067   3.573   4.437
 1852TIP3    H2 5521   4.127   3.712   4.444
 1853TIP3   OH2 5522   0.061   1.624   2.218
 1853TIP3    H1 5523   0.103   1.556   2.165
 1853TIP3    H2 5524  -0.022   1.641   2.173
 1854TIP3   OH2 5525   4.647   5.030   1.600
 1854TIP3    H1 5526   4.601   4.968   1.657
 1854TIP3    H2 5527   4.666   5.105   1.656
 1855TIP3   OH2 5528   1.363   5.144   4.084
 1855TIP3    H1 5529   1.304   5.110   4.152
 1855TIP3    H2 5530   1.401   5.223   4.122
 1856TIP3   OH2 5531   0.240   1.039   3.315
 1856TIP3    H1 5532   0.254   0.974   3.383
 1856TIP3    H2 5533   0.155   1.078   3.335
 1857TIP3   OH2 5534   0.583   0.335   5.311
 1857TIP3    H1 5535   0.511   0.331   5.247
 1857TIP3    H2 5536   0.621   0.247   5.309
 1858TIP3   OH2 5537   3.123   0.165   3.954
 1858TIP3    H1 5538   3.052   0.172   3.890
 1858TIP3    H2 5539   3.163   0.079   3.937
 1859TIP3   OH2 5540   5.862   5.209   2.679
 1859TIP3    H1 5541   5.881   5.255   2.760
 1859TIP3    H2 5542   5.933   5.232   2.619
 1860TIP3   OH2 5543   4.710   1.697   2.542
 1860TIP3    H1 5544   4.775   1.761   2.511
 1860TIP3    H2 5545   4.762   1.622   2.570
 1861TIP3   OH2 5546   4.753   1.377   1.677
 1861TIP3    H1 5547   4.802   1.351   1.755
 1861TIP3    H2 5548   4.817   1.425   1.624
 1862TIP3   OH2 5549   2.063   6.491   4.400
 1862TIP3    H1 5550   2.080   6.403   4.366
 1862TIP3    H2 5551   2.007   6.476   4.477
 1863TIP3   OH2 5552   3.775   4.296   1.160
 1863TIP3    H1 5553   3.828   4.368   1.192
 1863TIP3    H2 5554   3.834   4.221   1.158
 1864TIP3   OH2 5555   1.087   4.547   1.806
 1864TIP3    H1 5556   1.084   4.482   1.735
 1864TIP3    H2 5557   1.129   4.501   1.879
 1865TIP3   OH2 5558   5.046   5.637   0.794
 1865TIP3    H1 5559   5.020   5.641   0.886
 1865TIP3    H2 5560   4.995   5.565   0.757
 1866TIP3   OH2 5561   0.379   3.755   4.563
 1866TIP3    H1 5562   0.460   3.721   4.600
 1866TIP3    H2 5563   0.365   3.838   4.609
 1867TIP3   OH2 5564   1.391   0.741   0.139
 1867TIP3    H1 5565   1.469   0.688   0.151
 1867TIP3    H2 5566   1.387   0.757   0.045
 1868TIP3   OH2 5567   1.541   1.024   5.633
 1868TIP3    H1 5568   1.482   0.990   5.700
 1868TIP3    H2 5569   1.626   0.983   5.652
 1869TIP3   OH2 5570   1.035   5.798   0.372
 1869TIP3    H1 5571   0.997   5.802   0.460
 1869TIP3    H2 5572   1.096   5.724   0.376
 1870TIP3   OH2 5573   3.520   6.185   0.328
 1870TIP3    H1 5574   3.480   6.103   0.355
 1870TIP3    H2 5575   3.614   6.168   0.329
 1871TIP3   OH2 5576   2.911   4.702   1.996
 1871TIP3    H1 5577   2.885   4.667   2.082
 1871TIP3    H2 5578   2.949   4.787   2.015
 1872TIP3   OH2 5579   1.075   0.105   0.801
 1872TIP3    H1 5580   1.161   0.076   0.831
 1872TIP3    H2 5581   1.021   0.026   0.803
 1873TIP3   OH2 5582   6.576   3.893   0.304
 1873TIP3    H1 5583   6.521   3.815   0.314
 1873TIP3    H2 5584   6.516   3.960   0.271
 1874TIP3   OH2 5585   1.678   1.701   1.718
 1874TIP3    H1 5586   1.762   1.655   1.709
 1874TIP3    H2 5587   1.645   1.675   1.804
 1875TIP3   OH2 5588   2.333   1.045   1.906
 1875TIP3    H1 5589   2.357   1.022   1.816
 1875TIP3    H2 5590   2.415   1.075   1.946
 1876TIP3   OH2 5591   0.230   4.965   1.194
 1876TIP3    H1 5592   0.171   4.904   1.238
 1876TIP3    H2 5593   0.190   4.982   1.109
 1877TIP3   OH2 5594   1.501   4.237   3.510
 1877TIP3    H1 5595   1.581   4.219   3.461
 1877TIP3    H2 5596   1.528   4.299   3.578
 1878TIP3   OH2 5597   6.542   4.679   2.738
 1878TIP3    H1 5598   6.453   4.646   2.731
 1878TIP3    H2 5599   6.537   4.770   2.708
 1879TIP3   OH2 5600   1.085   2.724   5.204
 1879TIP3    H1 5601   1.132   2.806   5.217
 1879TIP3    H2 5602   1.104   2.699   5.113
 1880TIP3   OH2 5603   2.577   2.385   4.199
 1880TIP3    H1 5604   2.652   2.396   4.258
 1880TIP3    H2 5605   2.501   2.389   4.256
 1881TIP3   OH2 5606   6.060   5.714   1.587
 1881TIP3    H1 5607   5.999   5.785   1.567
 1881TIP3    H2 5608   6.020   5.636   1.548
 1882TIP3   OH2 5609   6.157   0.940   2.565
 1882TIP3    H1 5610   6.085   0.988   2.605
 1882TIP3    H2 5611   6.131   0.929   2.473
 1883TIP3   OH2 5612   5.373   3.314   2.542
 1883TIP3    H1 5613   5.326   3.377   2.596
 1883TIP3    H2 5614   5.310   3.244   2.526
 1884TIP3   OH2 5615   4.331   3.314   0.066
 1884TIP3    H1 5616   4.386   3.296   0.142
 1884TIP3    H2 5617   4.311   3.408   0.073
 1885TIP3   OH2 5618   4.208   2.636   1.071
 1885TIP3    H1 5619   4.272   2.705   1.061
 1885TIP3    H2 5620   4.154   2.642   0.992
 1886TIP3   OH2 5621   2.300   0.574   2.675
 1886TIP3    H1 5622   2.231   0.549   2.736
 1886TIP3    H2 5623   2.253   0.596   2.594
 1887TIP3   OH2 5624   5.412   6.627   2.658
 1887TIP3    H1 5625   5.442   6.717   2.674
 1887TIP3    H2 5626   5.318   6.629   2.676
 1888TIP3   OH2 5627   4.115   6.725   4.614
 1888TIP3    H1 5628   4.050   6.662   4.582
 1888TIP3    H2 5629   4.063   6.798   4.647
 1889TIP3   OH2 5630   7.206   2.830   4.441
 1889TIP3    H1 5631   7.144   2.775   4.489
 1889TIP3    H2 5632   7.269   2.768   4.405
 1890TIP3   OH2 5633   3.181   0.756   4.565
 1890TIP3    H1 5634   3.206   0.822   4.500
 1890TIP3    H2 5635   3.151   0.682   4.513
 1891TIP3   OH2 5636   4.583   4.305   2.546
 1891TIP3    H1 5637   4.603   4.395   2.523
 1891TIP3    H2 5638   4.536   4.310   2.629
 1892TIP3   OH2 5639   5.865   4.017   1.006
 1892TIP3    H1 5640   5.946   4.029   1.056
 1892TIP3    H2 5641   5.796   4.055   1.061
 1893TIP3   OH2 5642   4.999   5.679   0.383
 1893TIP3    H1 5643   4.910   5.717   0.380
 1893TIP3    H2 5644   5.011   5.643   0.295
 1894TIP3   OH2 5645   6.259   5.467   3.700
 1894TIP3    H1 5646   6.208   5.458   3.780
 1894TIP3    H2 5647   6.302   5.552   3.708
 1895TIP3   OH2 5648   3.144   1.414   3.196
 1895TIP3    H1 5649   3.183   1.328   3.212
 1895TIP3    H2 5650   3.217   1.470   3.171
 1896TIP3   OH2 5651   3.962   5.557   4.618
 1896TIP3    H1 5652   3.945   5.643   4.658
 1896TIP3    H2 5653   4.043   5.570   4.569
 1897TIP3   OH2 5654   5.149   0.826   2.659
 1897TIP3    H1 5655   5.161   0.752   2.718
 1897TIP3    H2 5656   5.062   0.860   2.680
 1898TIP3   OH2 5657   2.781   0.077   5.435
 1898TIP3    H1 5658   2.771   0.147   5.371
 1898TIP3    H2 5659   2.701   0.025   5.427
 1899TIP3   OH2 5660   4.306   1.411   4.093
 1899TIP3    H1 5661   4.211   1.400   4.101
 1899TIP3    H2 5662   4.325   1.493   4.139
 1900TIP3   OH2 5663   3.565   3.077   3.729
 1900TIP3    H1 5664   3.551   3.025   3.808
 1900TIP3    H2 5665   3.610   3.156   3.761
 1901TIP3   OH2 5666   3.326   4.820   3.906
 1901TIP3    H1 5667   3.325   4.754   3.836
 1901TIP3    H2 5668   3.239   4.813   3.947
 1902TIP3   OH2 5669   1.784   6.432   2.052
 1902TIP3    H1 5670   1.836   6.498   2.006
 1902TIP3    H2 5671   1.750   6.478   2.129
 1903TIP3   OH2 5672   0.667   0.325   1.428
 1903TIP3    H1 5673   0.659   0.353   1.337
 1903TIP3    H2 5674   0.671   0.229   1.423
 1904TIP3   OH2 5675   0.738   6.473   3.023
 1904TIP3    H1 5676   0.685   6.525   3.083
 1904TIP3    H2 5677   0.799   6.535   2.985
 1905TIP3   OH2 5678   0.381   3.108   5.143
 1905TIP3    H1 5679   0.345   3.189   5.106
 1905TIP3    H2 5680   0.314   3.077   5.203
 1906TIP3   OH2 5681   0.304   4.155   1.305
 1906TIP3    H1 5682   0.376   4.148   1.368
 1906TIP3    H2 5683   0.236   4.202   1.352
 1907TIP3   OH2 5684   2.275   2.643   0.199
 1907TIP3    H1 5685   2.187   2.669   0.172
 1907TIP3    H2 5686   2.328   2.647   0.119
 1908TIP3   OH2 5687   2.038   5.562   1.569
 1908TIP3    H1 5688   2.035   5.552   1.473
 1908TIP3    H2 5689   1.952   5.596   1.592
 1909TIP3   OH2 5690   3.130   0.502   1.030
 1909TIP3    H1 5691   3.174   0.477   0.950
 1909TIP3    H2 5692   3.110   0.595   1.019
 1910TIP3   OH2 5693   3.532   0.332   4.979
 1910TIP3    H1 5694   3.488   0.284   5.048
 1910TIP3    H2 5695   3.502   0.422   4.989
 1911TIP3   OH2 5696   2.209   0.277   5.863
 1911TIP3    H1 5697   2.249   0.211   5.919
 1911TIP3    H2 5698   2.283   0.327   5.829
 1912TIP3   OH2 5699   4.860   6.486   4.124
 1912TIP3    H1 5700   4.792   6.544   4.157
 1912TIP3    H2 5701   4.821   6.399   4.129
 1913TIP3   OH2 5702   6.213   0.348   3.289
 1913TIP3    H1 5703   6.175   0.414   3.346
 1913TIP3    H2 5704   6.150   0.276   3.289
 1914TIP3   OH2 5705   6.320   2.610   4.776
 1914TIP3    H1 5706   6.409   2.598   4.743
 1914TIP3    H2 5707   6.278   2.525   4.766
 1915TIP3   OH2 5708   3.385   4.278   3.040
 1915TIP3    H1 5709   3.444   4.291   2.966
 1915TIP3    H2 5710   3.377   4.365   3.080
 1916TIP3   OH2 5711   4.419   2.816   2.967
 1916TIP3    H1 5712   4.509   2.843   2.948
 1916TIP3    H2 5713   4.365   2.880   2.922
 1917TIP3   OH2 5714   2.132   4.445   0.144
 1917TIP3    H1 5715   2.071   4.445   0.071
 1917TIP3    H2 5716   2.136   4.353   0.172
 1918TIP3   OH2 5717   5.096   4.816   4.993
 1918TIP3    H1 5718   5.037   4.771   5.054
 1918TIP3    H2 5719   5.184   4.795   5.025
 1919TIP3   OH2 5720   1.458   3.790   1.001
 1919TIP3    H1 5721   1.489   3.844   1.073
 1919TIP3    H2 5722   1.368   3.819   0.986
 1920TIP3   OH2 5723   1.040   3.746   5.599
 1920TIP3    H1 5724   1.026   3.840   5.612
 1920TIP3    H2 5725   1.119   3.740   5.545
 1921TIP3   OH2 5726   4.348   6.150   1.146
 1921TIP3    H1 5727   4.323   6.082   1.085
 1921TIP3    H2 5728   4.433   6.180   1.115
 1922TIP3   OH2 5729   0.754   3.176   0.872
 1922TIP3    H1 5730   0.795   3.226   0.942
 1922TIP3    H2 5731   0.685   3.233   0.839
 1923TIP3   OH2 5732   5.862   5.682   5.090
 1923TIP3    H1 5733   5.907   5.607   5.052
 1923TIP3    H2 5734   5.770   5.670   5.066
 1924TIP3   OH2 5735   3.717   1.065   1.216
 1924TIP3    H1 5736   3.659   0.993   1.241
 1924TIP3    H2 5737   3.659   1.141   1.210
 1925TIP3   OH2 5738   1.198   6.775   4.875
 1925TIP3    H1 5739   1.156   6.786   4.961
 1925TIP3    H2 5740   1.240   6.859   4.858
 1926TIP3   OH2 5741   2.629   0.145   5.674
 1926TIP3    H1 5742   2.678   0.129   5.594
 1926TIP3    H2 5743   2.684   0.204   5.725
 1927TIP3   OH2 5744   4.348   6.055   3.470
 1927TIP3    H1 5745   4.405   6.112   3.419
 1927TIP3    H2 5746   4.362   5.968   3.433
 1928TIP3   OH2 5747   6.987   4.070   0.162
 1928TIP3    H1 5748   6.983   4.039   0.252
 1928TIP3    H2 5749   6.972   4.165   0.169
 1929TIP3   OH2 5750   7.065   6.403   1.070
 1929TIP3    H1 5751   7.144   6.350   1.080
 1929TIP3    H2 5752   7.074   6.471   1.137
 1930TIP3   OH2 5753   1.071   3.984   4.565
 1930TIP3    H1 5754   1.151   4.009   4.612
 1930TIP3    H2 5755   1.100   3.973   4.475
 1931TIP3   OH2 5756   4.334   1.397   2.840
 1931TIP3    H1 5757   4.336   1.396   2.744
 1931TIP3    H2 5758   4.426   1.403   2.866
 1932TIP3   OH2 5759   3.182   4.599   1.571
 1932TIP3    H1 5760   3.178   4.527   1.508
 1932TIP3    H2 5761   3.105   4.588   1.626
 1933TIP3   OH2 5762   4.756   4.257   0.035
 1933TIP3    H1 5763   4.723   4.327  -0.022
 1933TIP3    H2 5764   4.678   4.220   0.076
 1934TIP3   OH2 5765   0.210   0.282   5.550
 1934TIP3    H1 5766   0.213   0.279   5.646
 1934TIP3    H2 5767   0.294   0.321   5.525
 1935TIP3   OH2 5768   6.982   3.592   2.401
 1935TIP3    H1 5769   7.026   3.641   2.332
 1935TIP3    H2 5770   6.928   3.528   2.355
 1936TIP3   OH2 5771   0.866   5.893   0.916
 1936TIP3    H1 5772   0.922   5.857   0.985
 1936TIP3    H2 5773   0.925   5.905   0.842
 1937TIP3   OH2 5774   3.155   3.003   2.965
 1937TIP3    H1 5775   3.118   2.997   2.877
 1937TIP3    H2 5776   3.151   3.096   2.986
 1938TIP3   OH2 5777   3.071   2.258   2.634
 1938TIP3    H1 5778   3.041   2.170   2.613
 1938TIP3    H2 5779   3.164   2.247   2.653
 1939TIP3   OH2 5780   0.305   1.400   0.958
 1939TIP3    H1 5781   0.230   1.442   1.001
 1939TIP3    H2 5782   0.270   1.318   0.924
 1940TIP3   OH2 5783   5.491   5.059   4.127
 1940TIP3    H1 5784   5.485   5.042   4.033
 1940TIP3    H2 5785   5.556   4.995   4.158
 1941TIP3   OH2 5786   0.188   3.818   0.976
 1941TIP3    H1 5787   0.158   3.744   0.924
 1941TIP3    H2 5788   0.256   3.782   1.033
 1942TIP3   OH2 5789   5.895   2.559   3.840
 1942TIP3    H1 5790   5.850   2.475   3.850
 1942TIP3    H2 5791   5.987   2.536   3.838
 1943TIP3   OH2 5792   7.204   4.012   2.134
 1943TIP3    H1 5793   7.221   4.077   2.066
 1943TIP3    H2 5794   7.284   3.959   2.136
 1944TIP3   OH2 5795   6.126   1.373   5.662
 1944TIP3    H1 5796   6.176   1.319   5.602
 1944TIP3    H2 5797   6.079   1.435   5.606
 1945TIP3   OH2 5798   0.456   6.126   4.014
 1945TIP3    H1 5799   0.440   6.220   4.020
 1945TIP3    H2 5800   0.370   6.085   4.021
 1946TIP3   OH2 5801   7.013   1.271   2.336
 1946TIP3    H1 5802   7.058   1.193   2.369
 1946TIP3    H2 5803   7.077   1.312   2.279
 1947TIP3   OH2 5804   0.557   2.071   2.677
 1947TIP3    H1 5805   0.528   2.109   2.760
 1947TIP3    H2 5806   0.585   2.146   2.625
 1948TIP3   OH2 5807   1.795   2.030   4.139
 1948TIP3    H1 5808   1.839   2.067   4.062
 1948TIP3    H2 5809   1.830   2.078   4.213
 1949TIP3   OH2 5810   3.926   1.401   3.666
 1949TIP3    H1 5811   4.003   1.449   3.696
 1949TIP3    H2 5812   3.956   1.310   3.661
 1950TIP3   OH2 5813   3.618   3.712   2.855
 1950TIP3    H1 5814   3.548   3.771   2.882
 1950TIP3    H2 5815   3.573   3.632   2.829
 1951TIP3   OH2 5816   4.131   1.239   1.848
 1951TIP3    H1 5817   4.206   1.187   1.819
 1951TIP3    H2 5818   4.063   1.219   1.783
 1952TIP3   OH2 5819   6.695   2.158   2.456
 1952TIP3    H1 5820   6.658   2.120   2.377
 1952TIP3    H2 5821   6.644   2.238   2.470
 1953TIP3   OH2 5822   7.201   1.351   5.546
 1953TIP3    H1 5823   7.185   1.415   5.616
 1953TIP3    H2 5824   7.130   1.364   5.484
 1954TIP3   OH2 5825   6.317   1.847   5.771
 1954TIP3    H1 5826   6.274   1.910   5.829
 1954TIP3    H2 5827   6.364   1.901   5.707
 1955TIP3   OH2 5828   1.628   0.813   2.816
 1955TIP3    H1 5829   1.580   0.863   2.750
 1955TIP3    H2 5830   1.706   0.782   2.770
 1956TIP3   OH2 5831   4.790   3.838   1.874
 1956TIP3    H1 5832   4.761   3.918   1.917
 1956TIP3    H2 5833   4.837   3.790   1.941
 1957TIP3   OH2 5834   6.530   5.448   1.415
 1957TIP3    H1 5835   6.460   5.460   1.351
 1957TIP3    H2 5836   6.603   5.411   1.365
 1958TIP3   OH2 5837   2.338   4.931   4.895
 1958TIP3    H1 5838   2.254   4.921   4.940
 1958TIP3    H2 5839   2.347   4.851   4.843
 1959TIP3   OH2 5840   1.867   6.859   4.266
 1959TIP3    H1 5841   1.854   6.772   4.228
 1959TIP3    H2 5842   1.886   6.915   4.191
 1960TIP3   OH2 5843   0.927   4.216   3.745
 1960TIP3    H1 5844   0.958   4.145   3.802
 1960TIP3    H2 5845   0.838   4.233   3.776
 1961TIP3   OH2 5846   6.991   0.680   3.619
 1961TIP3    H1 5847   7.084   0.658   3.616
 1961TIP3    H2 5848   6.988   0.765   3.664
 1962TIP3   OH2 5849   0.839   5.391   2.578
 1962TIP3    H1 5850   0.830   5.452   2.504
 1962TIP3    H2 5851   0.835   5.304   2.538
 1963TIP3   OH2 5852   3.009   2.341   0.689
 1963TIP3    H1 5853   3.085   2.399   0.696
 1963TIP3    H2 5854   2.943   2.393   0.644
 1964TIP3   OH2 5855   5.367   1.342   5.685
 1964TIP3    H1 5856   5.451   1.367   5.648
 1964TIP3    H2 5857   5.332   1.422   5.724
 1965TIP3   OH2 5858   5.203   3.757   2.559
 1965TIP3    H1 5859   5.212   3.837   2.610
 1965TIP3    H2 5860   5.255   3.773   2.480
 1966TIP3   OH2 5861   3.267   5.396   5.026
 1966TIP3    H1 5862   3.329   5.340   5.072
 1966TIP3    H2 5863   3.285   5.380   4.933
 1967TIP3   OH2 5864   3.487   6.721   5.641
 1967TIP3    H1 5865   3.418   6.687   5.583
 1967TIP3    H2 5866   3.483   6.664   5.718
 1968TIP3   OH2 5867   5.049   2.334   3.676
 1968TIP3    H1 5868   5.132   2.307   3.716
 1968TIP3    H2 5869   5.070   2.345   3.583
 1969TIP3   OH2 5870   4.273   5.739   4.677
 1969TIP3    H1 5871   4.183   5.728   4.710
 1969TIP3    H2 5872   4.328   5.707   4.748
 1970TIP3   OH2 5873   4.183   6.318   5.179
 1970TIP3    H1 5874   4.249   6.259   5.213
 1970TIP3    H2 5875   4.227   6.366   5.109
 1971TIP3   OH2 5876   4.987   5.296   1.673
 1971TIP3    H1 5877   5.021   5.361   1.734
 1971TIP3    H2 5878   4.922   5.343   1.621
 1972TIP3   OH2 5879   6.514   6.046   0.541
 1972TIP3    H1 5880   6.553   6.073   0.624
 1972TIP3    H2 5881   6.481   5.958   0.557
 1973TIP3   OH2 5882   4.556   2.323   2.568
 1973TIP3    H1 5883   4.609   2.373   2.506
 1973TIP3    H2 5884   4.608   2.245   2.587
 1974TIP3   OH2 5885   2.780   2.381   5.069
 1974TIP3    H1 5886   2.810   2.346   5.153
 1974TIP3    H2 5887   2.858   2.379   5.013
 1975TIP3   OH2 5888   3.402   5.573   5.777
 1975TIP3    H1 5889   3.454   5.650   5.755
 1975TIP3    H2 5890   3.337   5.567   5.707
 1976TIP3   OH2 5891   0.461   3.875   3.985
 1976TIP3    H1 5892   0.480   3.790   3.945
 1976TIP3    H2 5893   0.499   3.869   4.073
 1977TIP3   OH2 5894   5.051   5.268   2.778
 1977TIP3    H1 5895   5.009   5.350   2.806
 1977TIP3    H2 5896   5.009   5.247   2.695
 1978TIP3   OH2 5897   5.194   2.850   5.680
 1978TIP3    H1 5898   5.221   2.758   5.682
 1978TIP3    H2 5899   5.216   2.879   5.591
 1979TIP3   OH2 5900   2.319   2.714   3.925
 1979TIP3    H1 5901   2.311   2.761   4.008
 1979TIP3    H2 5902   2.342   2.624   3.951
 1980TIP3   OH2 5903   0.629   2.073   0.450
 1980TIP3    H1 5904   0.686   1.997   0.438
 1980TIP3    H2 5905   0.584   2.083   0.366
 1981TIP3   OH2 5906   1.390   0.032   5.821
 1981TIP3    H1 5907   1.381  -0.009   5.735
 1981TIP3    H2 5908   1.369  -0.037   5.883
 1982TIP3   OH2 5909   1.411   6.267   2.897
 1982TIP3    H1 5910   1.483   6.235   2.843
 1982TIP3    H2 5911   1.439   6.353   2.927
 1983TIP3   OH2 5912   4.815   1.241   5.643
 1983TIP3    H1 5913   4.819   1.286   5.727
 1983TIP3    H2 5914   4.745   1.286   5.595
 1984TIP3   OH2 5915   3.606   3.853   2.552
 1984TIP3    H1 5916   3.536   3.872   2.490
 1984TIP3    H2 5917   3.651   3.777   2.514
 1985TIP3   OH2 5918   3.987   6.667   5.576
 1985TIP3    H1 5919   3.905   6.712   5.598
 1985TIP3    H2 5920   3.995   6.677   5.481
 1986TIP3   OH2 5921   2.093   5.176   0.536
 1986TIP3    H1 5922   2.081   5.263   0.499
 1986TIP3    H2 5923   2.151   5.191   0.612
 1987TIP3   OH2 5924   2.816   5.081   4.530
 1987TIP3    H1 5925   2.850   5.170   4.527
 1987TIP3    H2 5926   2.722   5.090   4.546
 1988TIP3   OH2 5927   6.950   2.208   5.192
 1988TIP3    H1 5928   6.947   2.298   5.159
 1988TIP3    H2 5929   6.880   2.163   5.144
 1989TIP3   OH2 5930   5.002   1.418   4.805
 1989TIP3    H1 5931   5.019   1.431   4.898
 1989TIP3    H2 5932   5.053   1.486   4.762
 1990TIP3   OH2 5933   5.559   2.604   4.725
 1990TIP3    H1 5934   5.602   2.642   4.648
 1990TIP3    H2 5935   5.486   2.554   4.690
 1991TIP3   OH2 5936   4.079   3.535   1.541
 1991TIP3    H1 5937   4.159   3.567   1.498
 1991TIP3    H2 5938   4.043   3.613   1.583
 1992TIP3   OH2 5939   5.114   4.883   0.514
 1992TIP3    H1 5940   5.039   4.823   0.517
 1992TIP3    H2 5941   5.143   4.881   0.423
 1993TIP3   OH2 5942   6.093   4.084   1.160
 1993TIP3    H1 5943   6.133   4.167   1.134
 1993TIP3    H2 5944   6.144   4.055   1.235
 1994TIP3   OH2 5945   3.982   3.973   3.731
 1994TIP3    H1 5946   3.921   3.903   3.755
 1994TIP3    H2 5947   4.010   4.010   3.815
 1995TIP3   OH2 5948   3.791   5.218   3.130
 1995TIP3    H1 5949   3.788   5.127   3.099
 1995TIP3    H2 5950   3.776   5.271   3.052
 1996TIP3   OH2 5951   4.606   3.679   2.239
 1996TIP3    H1 5952   4.610   3.601   2.294
 1996TIP3    H2 5953   4.674   3.665   2.173
 1997TIP3   OH2 5954   2.975   0.854   1.015
 1997TIP3    H1 5955   2.957   0.810   0.932
 1997TIP3    H2 5956   3.060   0.819   1.043
 1998TIP3   OH2 5957   4.932   2.415   0.396
 1998TIP3    H1 5958   5.020   2.392   0.426
 1998TIP3    H2 5959   4.882   2.335   0.406
 1999TIP3   OH2 5960   6.930   4.302   5.818
 1999TIP3    H1 5961   6.941   4.246   5.741
 1999TIP3    H2 5962   6.963   4.250   5.891
 2000TIP3   OH2 5963   3.168   3.125   4.064
 2000TIP3    H1 5964   3.263   3.121   4.080
 2000TIP3    H2 5965   3.135   3.185   4.131
 2001TIP3   OH2 5966   2.414   0.156   3.226
 2001TIP3    H1 5967   2.496   0.143   3.275
 2001TIP3    H2 5968   2.345   0.148   3.292
 2002TIP3   OH2 5969   2.649   3.143   0.599
 2002TIP3    H1 5970   2.677   3.220   0.549
 2002TIP3    H2 5971   2.556   3.157   0.613
 2003TIP3   OH2 5972   6.821   6.299   0.993
 2003TIP3    H1 5973   6.897   6.355   1.009
 2003TIP3    H2 5974   6.858   6.218   0.959
 2004TIP3   OH2 5975   3.943   1.816   4.220
 2004TIP3    H1 5976   3.933   1.859   4.135
 2004TIP3    H2 5977   3.874   1.749   4.220
 2005TIP3   OH2 5978   0.678   1.323   2.353
 2005TIP3    H1 5979   0.709   1.256   2.413
 2005TIP3    H2 5980   0.694   1.406   2.399
 2006TIP3   OH2 5981   2.896   0.255   1.911
 2006TIP3    H1 5982   2.850   0.335   1.935
 2006TIP3    H2 5983   2.907   0.208   1.993
 2007TIP3   OH2 5984   0.209   5.263   4.900
 2007TIP3    H1 5985   0.116   5.269   4.923
 2007TIP3    H2 5986   0.242   5.190   4.953
 2008TIP3   OH2 5987   5.680   4.692   0.456
 2008TIP3    H1 5988   5.722   4.631   0.394
 2008TIP3    H2 5989   5.645   4.636   0.524
 2009TIP3   OH2 5990   6.762   5.980   3.773
 2009TIP3    H1 5991   6.746   5.952   3.683
 2009TIP3    H2 5992   6.792   5.902   3.818
 2010TIP3   OH2 5993   1.809   3.682   5.724
 2010TIP3    H1 5994   1.894   3.646   5.749
 2010TIP3    H2 5995   1.746   3.620   5.760
 2011TIP3   OH2 5996   1.383   4.913   2.747
 2011TIP3    H1 5997   1.324   4.844   2.777
 2011TIP3    H2 5998   1.465   4.896   2.793
 2012TIP3   OH2 5999   0.671   0.442   0.465
 2012TIP3    H1 6000   0.610   0.447   0.392
 2012TIP3    H2 6001   0.742   0.502   0.441
 2013TIP3   OH2 6002   3.316   5.383   3.911
 2013TIP3    H1 6003   3.324   5.428   3.827
 2013TIP3    H2 6004   3.298   5.292   3.888
 2014TIP3   OH2 6005   4.141   4.065   0.891
 2014TIP3    H1 6006   4.087   3.995   0.927
 2014TIP3    H2 6007   4.080   4.137   0.875
 2015TIP3   OH2 6008   6.778   1.023   0.336
 2015TIP3    H1 6009   6.744   0.952   0.281
 2015TIP3    H2 6010   6.719   1.025   0.411
 2016TIP3   OH2 6011   5.666   2.577   1.692
 2016TIP3    H1 6012   5.597   2.563   1.627
 2016TIP3    H2 6013   5.620   2.580   1.776
 2017TIP3   OH2 6014   1.846   4.571   5.672
 2017TIP3    H1 6015   1.753   4.575   5.649
 2017TIP3    H2 6016   1.861   4.479   5.696
 2018TIP3   OH2 6017   5.615   6.620   4.112
 2018TIP3    H1 6018   5.625   6.711   4.141
 2018TIP3    H2 6019   5.594   6.572   4.192
 2019TIP3   OH2 6020   3.889   4.965   3.539
 2019TIP3    H1 6021   3.860   4.875   3.550
 2019TIP3    H2 6022   3.889   5.001   3.628
 2020TIP3   OH2 6023   0.164   1.342   1.255
 2020TIP3    H1 6024   0.107   1.384   1.320
 2020TIP3    H2 6025   0.164   1.403   1.181
 2021TIP3   OH2 6026   6.482   3.112   3.641
 2021TIP3    H1 6027   6.438   3.030   3.618
 2021TIP3    H2 6028   6.411   3.171   3.666
 2022TIP3   OH2 6029   3.393   3.079   1.787
 2022TIP3    H1 6030   3.302   3.065   1.760
 2022TIP3    H2 6031   3.431   3.130   1.716
 2023TIP3   OH2 6032   3.166   3.088   0.431
 2023TIP3    H1 6033   3.084   3.039   0.420
 2023TIP3    H2 6034   3.138   3.179   0.443
 2024TIP3   OH2 6035   1.416   2.628   3.037
 2024TIP3    H1 6036   1.478   2.663   3.102
 2024TIP3    H2 6037   1.449   2.540   3.017
 2025TIP3   OH2 6038   3.628   6.211   5.179
 2025TIP3    H1 6039   3.629   6.183   5.088
 2025TIP3    H2 6040   3.704   6.168   5.219
 2026TIP3   OH2 6041   2.263   6.094   2.133
 2026TIP3    H1 6042   2.331   6.067   2.195
 2026TIP3    H2 6043   2.185   6.106   2.187
 2027TIP3   OH2 6044   5.461   4.306   0.021
 2027TIP3    H1 6045   5.395   4.270  -0.038
 2027TIP3    H2 6046   5.436   4.398   0.031
 2028TIP3   OH2 6047   3.225   5.851   4.335
 2028TIP3    H1 6048   3.226   5.802   4.417
 2028TIP3    H2 6049   3.305   5.824   4.289
 2029TIP3   OH2 6050   3.194   0.064   0.956
 2029TIP3    H1 6051   3.210   0.070   0.861
 2029TIP3    H2 6052   3.168   0.153   0.981
 2030TIP3   OH2 6053   1.879   4.905   2.244
 2030TIP3    H1 6054   1.824   4.961   2.298
 2030TIP3    H2 6055   1.833   4.900   2.160
 2031TIP3   OH2 6056   0.828   0.238   3.568
 2031TIP3    H1 6057   0.747   0.270   3.609
 2031TIP3    H2 6058   0.858   0.168   3.627
 2032TIP3   OH2 6059   3.642   6.012   1.590
 2032TIP3    H1 6060   3.664   5.947   1.522
 2032TIP3    H2 6061   3.727   6.038   1.626
 2033TIP3   OH2 6062   1.094   5.358   0.851
 2033TIP3    H1 6063   1.149   5.324   0.780
 2033TIP3    H2 6064   1.119   5.308   0.928
 2034TIP3   OH2 6065   4.806   6.491   0.988
 2034TIP3    H1 6066   4.820   6.427   0.919
 2034TIP3    H2 6067   4.710   6.499   0.994
 2035TIP3   OH2 6068   6.365   1.296   4.500
 2035TIP3    H1 6069   6.387   1.362   4.434
 2035TIP3    H2 6070   6.375   1.212   4.455
 2036TIP3   OH2 6071   3.056   5.824   0.751
 2036TIP3    H1 6072   3.078   5.887   0.683
 2036TIP3    H2 6073   3.095   5.742   0.722
 2037TIP3   OH2 6074   2.436   3.212   1.700
 2037TIP3    H1 6075   2.397   3.298   1.712
 2037TIP3    H2 6076   2.406   3.183   1.614
 2038TIP3   OH2 6077   0.450  -0.008   4.672
 2038TIP3    H1 6078   0.395  -0.021   4.595
 2038TIP3    H2 6079   0.537   0.011   4.637
 2039TIP3   OH2 6080   3.067   0.135   4.577
 2039TIP3    H1 6081   3.061   0.040   4.565
 2039TIP3    H2 6082   2.976   0.163   4.589
 2040TIP3   OH2 6083   6.660   0.534   4.497
 2040TIP3    H1 6084   6.692   0.550   4.586
 2040TIP3    H2 6085   6.566   0.520   4.507
 2041TIP3   OH2 6086   4.478   6.563   5.574
 2041TIP3    H1 6087   4.424   6.633   5.539
 2041TIP3    H2 6088   4.553   6.607   5.613
 2042TIP3   OH2 6089   5.082   6.344   2.566
 2042TIP3    H1 6090   5.049   6.357   2.478
 2042TIP3    H2 6091   5.144   6.272   2.559
 2043TIP3   OH2 6092   0.547   2.911   2.437
 2043TIP3    H1 6093   0.604   2.863   2.375
 2043TIP3    H2 6094   0.592   2.994   2.451
 2044TIP3   OH2 6095   0.086   5.951   5.001
 2044TIP3    H1 6096   0.032   5.880   5.037
 2044TIP3    H2 6097   0.092   5.932   4.908
 2045TIP3   OH2 6098   7.071   4.693   3.510
 2045TIP3    H1 6099   7.013   4.703   3.586
 2045TIP3    H2 6100   7.130   4.622   3.535
 2046TIP3   OH2 6101   4.630   6.047   0.407
 2046TIP3    H1 6102   4.664   6.018   0.491
 2046TIP3    H2 6103   4.606   5.967   0.361
 2047TIP3   OH2 6104   6.848   3.310   4.736
 2047TIP3    H1 6105   6.883   3.292   4.823
 2047TIP3    H2 6106   6.813   3.226   4.706
 2048TIP3   OH2 6107   2.802   3.240   0.360
 2048TIP3    H1 6108   2.795   3.334   0.374
 2048TIP3    H2 6109   2.840   3.231   0.273
 2049TIP3   OH2 6110   5.644   2.229   2.985
 2049TIP3    H1 6111   5.686   2.292   3.043
 2049TIP3    H2 6112   5.644   2.147   3.035
 2050TIP3   OH2 6113   6.810   3.868   0.935
 2050TIP3    H1 6114   6.779   3.854   0.845
 2050TIP3    H2 6115   6.730   3.875   0.987
 2051TIP3   OH2 6116   2.769   0.145   1.681
 2051TIP3    H1 6117   2.815   0.161   1.763
 2051TIP3    H2 6118   2.723   0.227   1.663
 2052TIP3   OH2 6119   4.057   5.934   5.671
 2052TIP3    H1 6120   4.032   5.842   5.670
 2052TIP3    H2 6121   3.995   5.976   5.730
 2053TIP3   OH2 6122   6.161   1.797   4.459
 2053TIP3    H1 6123   6.072   1.772   4.435
 2053TIP3    H2 6124   6.154   1.822   4.552
 2054TIP3   OH2 6125   3.620   3.567   0.574
 2054TIP3    H1 6126   3.687   3.594   0.638
 2054TIP3    H2 6127   3.646   3.611   0.493
 2055TIP3   OH2 6128   1.024   1.407   2.163
 2055TIP3    H1 6129   0.929   1.421   2.161
 2055TIP3    H2 6130   1.044   1.361   2.081
 2056TIP3   OH2 6131   2.179   3.470   5.025
 2056TIP3    H1 6132   2.224   3.520   5.093
 2056TIP3    H2 6133   2.086   3.488   5.038
 2057TIP3   OH2 6134   4.565   0.596   3.430
 2057TIP3    H1 6135   4.573   0.548   3.348
 2057TIP3    H2 6136   4.509   0.541   3.485
 2058TIP3   OH2 6137   6.680   0.169   0.645
 2058TIP3    H1 6138   6.678   0.214   0.730
 2058TIP3    H2 6139   6.640   0.232   0.584
 2059TIP3   OH2 6140   1.903   1.859   3.053
 2059TIP3    H1 6141   1.868   1.775   3.024
 2059TIP3    H2 6142   1.832   1.921   3.036
 2060TIP3   OH2 6143   4.910   2.756   5.658
 2060TIP3    H1 6144   4.952   2.729   5.577
 2060TIP3    H2 6145   4.939   2.846   5.672
 2061TIP3   OH2 6146   6.180   5.402   3.224
 2061TIP3    H1 6147   6.204   5.407   3.316
 2061TIP3    H2 6148   6.149   5.312   3.213
 2062TIP3   OH2 6149   2.051   5.420   0.922
 2062TIP3    H1 6150   2.090   5.412   0.835
 2062TIP3    H2 6151   2.074   5.508   0.951
 2063TIP3   OH2 6152   2.145   4.820   1.764
 2063TIP3    H1 6153   2.069   4.873   1.790
 2063TIP3    H2 6154   2.215   4.848   1.823
 2064TIP3   OH2 6155   2.050   1.108   4.961
 2064TIP3    H1 6156   1.984   1.040   4.972
 2064TIP3    H2 6157   2.083   1.096   4.872
 2065TIP3   OH2 6158   6.787   4.813   1.637
 2065TIP3    H1 6159   6.802   4.822   1.731
 2065TIP3    H2 6160   6.734   4.889   1.613
 2066TIP3   OH2 6161   7.027   5.238   4.558
 2066TIP3    H1 6162   7.025   5.263   4.466
 2066TIP3    H2 6163   6.997   5.315   4.605
 2067TIP3   OH2 6164   4.086   0.539   0.646
 2067TIP3    H1 6165   4.160   0.588   0.682
 2067TIP3    H2 6166   4.048   0.493   0.722
 2068TIP3   OH2 6167   5.160   1.995   1.071
 2068TIP3    H1 6168   5.066   2.007   1.064
 2068TIP3    H2 6169   5.171   1.907   1.106
 2069TIP3   OH2 6170   3.306   6.393   5.499
 2069TIP3    H1 6171   3.278   6.483   5.514
 2069TIP3    H2 6172   3.395   6.401   5.464
 2070TIP3   OH2 6173   2.138   1.361   0.191
 2070TIP3    H1 6174   2.177   1.316   0.116
 2070TIP3    H2 6175   2.212   1.383   0.247
 2071TIP3   OH2 6176   1.021   3.362   3.315
 2071TIP3    H1 6177   1.000   3.455   3.312
 2071TIP3    H2 6178   1.114   3.359   3.338
 2072TIP3   OH2 6179   3.323   1.262   1.526
 2072TIP3    H1 6180   3.372   1.235   1.604
 2072TIP3    H2 6181   3.232   1.239   1.545
 2073TIP3   OH2 6182   4.803   1.453   3.739
 2073TIP3    H1 6183   4.826   1.373   3.787
 2073TIP3    H2 6184   4.824   1.433   3.648
 2074TIP3   OH2 6185   5.064   1.389   5.072
 2074TIP3    H1 6186   5.018   1.350   5.146
 2074TIP3    H2 6187   5.118   1.319   5.037
 2075TIP3   OH2 6188   7.074   4.104   0.450
 2075TIP3    H1 6189   7.073   4.183   0.505
 2075TIP3    H2 6190   7.151   4.116   0.394
 2076TIP3   OH2 6191   5.074   4.877   4.110
 2076TIP3    H1 6192   5.070   4.961   4.065
 2076TIP3    H2 6193   5.064   4.812   4.040
 2077TIP3   OH2 6194   6.845   1.669   0.564
 2077TIP3    H1 6195   6.922   1.712   0.601
 2077TIP3    H2 6196   6.878   1.618   0.490
 2078TIP3   OH2 6197   0.594   1.395   1.003
 2078TIP3    H1 6198   0.502   1.416   0.988
 2078TIP3    H2 6199   0.591   1.318   1.060
 2079TIP3   OH2 6200   6.210   2.199   0.602
 2079TIP3    H1 6201   6.114   2.206   0.597
 2079TIP3    H2 6202   6.228   2.164   0.689
 2080TIP3   OH2 6203   7.166   5.641   2.729
 2080TIP3    H1 6204   7.206   5.725   2.706
 2080TIP3    H2 6205   7.230   5.598   2.786
 2081TIP3   OH2 6206   3.819   1.268   2.863
 2081TIP3    H1 6207   3.863   1.190   2.898
 2081TIP3    H2 6208   3.881   1.339   2.879
 2082TIP3   OH2 6209   4.980   2.244   2.158
 2082TIP3    H1 6210   4.926   2.202   2.225
 2082TIP3    H2 6211   4.952   2.335   2.157
 2083TIP3   OH2 6212   1.692   5.492   0.896
 2083TIP3    H1 6213   1.773   5.445   0.915
 2083TIP3    H2 6214   1.633   5.467   0.967
 2084TIP3   OH2 6215   2.428   5.658   5.608
 2084TIP3    H1 6216   2.333   5.659   5.597
 2084TIP3    H2 6217   2.457   5.582   5.558
 2085TIP3   OH2 6218   3.653   0.769   1.608
 2085TIP3    H1 6219   3.569   0.735   1.639
 2085TIP3    H2 6220   3.629   0.839   1.547
 2086TIP3   OH2 6221   6.296   3.900   1.816
 2086TIP3    H1 6222   6.313   3.994   1.806
 2086TIP3    H2 6223   6.352   3.874   1.890
 2087TIP3   OH2 6224   5.491   3.389   3.054
 2087TIP3    H1 6225   5.443   3.357   2.978
 2087TIP3    H2 6226   5.495   3.484   3.043
 2088TIP3   OH2 6227   3.668   5.064   1.562
 2088TIP3    H1 6228   3.628   4.978   1.565
 2088TIP3    H2 6229   3.609   5.120   1.614
 2089TIP3   OH2 6230   6.201   0.410   1.551
 2089TIP3    H1 6231   6.125   0.351   1.555
 2089TIP3    H2 6232   6.190   0.457   1.468
 2090TIP3   OH2 6233   4.132   4.955   3.406
 2090TIP3    H1 6234   4.167   4.866   3.409
 2090TIP3    H2 6235   4.043   4.947   3.439
 2091TIP3   OH2 6236   3.422   4.263   5.363
 2091TIP3    H1 6237   3.402   4.180   5.322
 2091TIP3    H2 6238   3.503   4.292   5.321
 2092TIP3   OH2 6239   2.195   6.851   3.103
 2092TIP3    H1 6240   2.215   6.866   3.011
 2092TIP3    H2 6241   2.260   6.786   3.131
 2093TIP3   OH2 6242   4.633   2.343   3.728
 2093TIP3    H1 6243   4.653   2.289   3.651
 2093TIP3    H2 6244   4.610   2.429   3.692
 2094TIP3   OH2 6245   5.283   6.277   5.735
 2094TIP3    H1 6246   5.249   6.355   5.690
 2094TIP3    H2 6247   5.317   6.222   5.664
 2095TIP3   OH2 6248   3.711   2.050   0.558
 2095TIP3    H1 6249   3.764   2.031   0.635
 2095TIP3    H2 6250   3.750   1.997   0.488
 2096TIP3   OH2 6251   2.363   5.463   4.924
 2096TIP3    H1 6252   2.342   5.394   4.862
 2096TIP3    H2 6253   2.321   5.436   5.006
 2097TIP3   OH2 6254   2.606   0.430   5.622
 2097TIP3    H1 6255   2.620   0.525   5.618
 2097TIP3    H2 6256   2.680   0.393   5.574
 2098TIP3   OH2 6257   1.904   4.290   0.190
 2098TIP3    H1 6258   1.838   4.241   0.239
 2098TIP3    H2 6259   1.947   4.224   0.135
 2099TIP3   OH2 6260   6.132   1.196   0.737
 2099TIP3    H1 6261   6.086   1.243   0.667
 2099TIP3    H2 6262   6.086   1.112   0.744
 2100TIP3   OH2 6263   6.459   1.913   2.504
 2100TIP3    H1 6264   6.421   1.963   2.432
 2100TIP3    H2 6265   6.529   1.862   2.464
 2101TIP3   OH2 6266   0.403   5.336   5.341
 2101TIP3    H1 6267   0.475   5.397   5.325
 2101TIP3    H2 6268   0.387   5.341   5.435
 2102TIP3   OH2 6269   2.529   1.813   2.235
 2102TIP3    H1 6270   2.494   1.816   2.324
 2102TIP3    H2 6271   2.598   1.880   2.234
 2103TIP3   OH2 6272   7.114   3.459   3.563
 2103TIP3    H1 6273   7.026   3.466   3.525
 2103TIP3    H2 6274   7.169   3.428   3.490
 2104TIP3   OH2 6275   1.173   6.677   5.569
 2104TIP3    H1 6276   1.196   6.685   5.476
 2104TIP3    H2 6277   1.078   6.663   5.569
 2105TIP3   OH2 6278   2.334   2.548   5.715
 2105TIP3    H1 6279   2.370   2.582   5.633
 2105TIP3    H2 6280   2.240   2.565   5.709
 2106TIP3   OH2 6281   6.246   1.001   2.241
 2106TIP3    H1 6282   6.274   1.048   2.162
 2106TIP3    H2 6283   6.318   1.013   2.303
 2107TIP3   OH2 6284   2.287   3.329   0.904
 2107TIP3    H1 6285   2.360   3.276   0.935
 2107TIP3    H2 6286   2.219   3.318   0.971
 2108TIP3   OH2 6287   3.394   3.264   2.805
 2108TIP3    H1 6288   3.299   3.269   2.817
 2108TIP3    H2 6289   3.422   3.196   2.866
 2109TIP3   OH2 6290   6.935   3.226   4.985
 2109TIP3    H1 6291   6.950   3.260   5.073
 2109TIP3    H2 6292   6.876   3.152   4.996
 2110TIP3   OH2 6293   4.271   0.712   0.778
 2110TIP3    H1 6294   4.256   0.694   0.871
 2110TIP3    H2 6295   4.240   0.801   0.765
 2111TIP3   OH2 6296   0.927   1.196   4.503
 2111TIP3    H1 6297   0.934   1.161   4.592
 2111TIP3    H2 6298   0.970   1.130   4.448
 2112TIP3   OH2 6299   4.473   5.584   0.767
 2112TIP3    H1 6300   4.424   5.531   0.831
 2112TIP3    H2 6301   4.564   5.577   0.795
 2113TIP3   OH2 6302   3.611   5.272   1.177
 2113TIP3    H1 6303   3.603   5.280   1.272
 2113TIP3    H2 6304   3.705   5.277   1.160
 2114TIP3   OH2 6305   3.733   2.779   0.215
 2114TIP3    H1 6306   3.745   2.874   0.212
 2114TIP3    H2 6307   3.647   2.767   0.254
 2115TIP3   OH2 6308   0.649   4.644   3.625
 2115TIP3    H1 6309   0.609   4.704   3.688
 2115TIP3    H2 6310   0.680   4.571   3.679
 2116TIP3   OH2 6311   5.914   6.244   5.925
 2116TIP3    H1 6312   5.865   6.303   5.868
 2116TIP3    H2 6313   6.003   6.280   5.928
 2117TIP3   OH2 6314   3.778   2.141   2.095
 2117TIP3    H1 6315   3.717   2.114   2.026
 2117TIP3    H2 6316   3.840   2.199   2.051
 2118TIP3   OH2 6317   4.234   2.692   3.615
 2118TIP3    H1 6318   4.179   2.692   3.536
 2118TIP3    H2 6319   4.243   2.785   3.637
 2119TIP3   OH2 6320   5.796   1.956   0.441
 2119TIP3    H1 6321   5.849   1.922   0.369
 2119TIP3    H2 6322   5.815   1.897   0.514
 2120TIP3   OH2 6323   6.585   1.124   1.345
 2120TIP3    H1 6324   6.499   1.095   1.314
 2120TIP3    H2 6325   6.565   1.192   1.410
 2121TIP3   OH2 6326   3.870   6.009   2.650
 2121TIP3    H1 6327   3.931   5.985   2.719
 2121TIP3    H2 6328   3.891   5.950   2.578
 2122TIP3   OH2 6329   4.137   2.023   5.679
 2122TIP3    H1 6330   4.217   2.075   5.684
 2122TIP3    H2 6331   4.066   2.087   5.672
 2123TIP3   OH2 6332   0.908   5.679   3.107
 2123TIP3    H1 6333   0.958   5.694   3.027
 2123TIP3    H2 6334   0.830   5.733   3.098
 2124TIP3   OH2 6335   5.560   2.136   4.250
 2124TIP3    H1 6336   5.541   2.116   4.341
 2124TIP3    H2 6337   5.582   2.051   4.211
 2125TIP3   OH2 6338   1.504   6.374   5.377
 2125TIP3    H1 6339   1.575   6.334   5.427
 2125TIP3    H2 6340   1.476   6.449   5.430
 2126TIP3   OH2 6341   1.818   6.700   0.378
 2126TIP3    H1 6342   1.733   6.738   0.356
 2126TIP3    H2 6343   1.866   6.699   0.295
 2127TIP3   OH2 6344   0.197   5.702   0.505
 2127TIP3    H1 6345   0.201   5.665   0.593
 2127TIP3    H2 6346   0.183   5.795   0.519
 2128TIP3   OH2 6347   4.565   1.243   4.141
 2128TIP3    H1 6348   4.500   1.312   4.129
 2128TIP3    H2 6349   4.563   1.193   4.059
 2129TIP3   OH2 6350   4.824   2.675   5.115
 2129TIP3    H1 6351   4.886   2.699   5.046
 2129TIP3    H2 6352   4.787   2.591   5.087
 2130TIP3   OH2 6353   6.182  -0.011   1.756
 2130TIP3    H1 6354   6.154   0.019   1.842
 2130TIP3    H2 6355   6.215   0.068   1.713
 2131TIP3   OH2 6356   0.358   6.203   2.331
 2131TIP3    H1 6357   0.360   6.122   2.383
 2131TIP3    H2 6358   0.356   6.273   2.397
 2132TIP3   OH2 6359   2.612   0.880   5.858
 2132TIP3    H1 6360   2.647   0.826   5.930
 2132TIP3    H2 6361   2.517   0.881   5.873
 2133TIP3   OH2 6362   4.533   6.193   1.542
 2133TIP3    H1 6363   4.554   6.157   1.629
 2133TIP3    H2 6364   4.464   6.136   1.508
 2134TIP3   OH2 6365   3.375   0.591   0.600
 2134TIP3    H1 6366   3.466   0.610   0.622
 2134TIP3    H2 6367   3.381   0.525   0.531
 2135TIP3   OH2 6368   6.360   3.231   0.158
 2135TIP3    H1 6369   6.374   3.142   0.190
 2135TIP3    H2 6370   6.364   3.286   0.236
 2136TIP3   OH2 6371   0.624   3.423   2.719
 2136TIP3    H1 6372   0.561   3.457   2.655
 2136TIP3    H2 6373   0.636   3.495   2.780
 2137TIP3   OH2 6374   3.215   4.072   3.031
 2137TIP3    H1 6375   3.136   4.119   3.058
 2137TIP3    H2 6376   3.287   4.134   3.046
 2138TIP3   OH2 6377   3.639   4.763   3.811
 2138TIP3    H1 6378   3.631   4.756   3.906
 2138TIP3    H2 6379   3.591   4.843   3.788
 2139TIP3   OH2 6380   4.330   4.872   3.944
 2139TIP3    H1 6381   4.418   4.894   3.974
 2139TIP3    H2 6382   4.273   4.938   3.985
 2140TIP3   OH2 6383   2.252   4.301   0.642
 2140TIP3    H1 6384   2.185   4.276   0.578
 2140TIP3    H2 6385   2.274   4.391   0.620
 2141TIP3   OH2 6386   3.232   6.405   0.393
 2141TIP3    H1 6387   3.239   6.440   0.482
 2141TIP3    H2 6388   3.320   6.372   0.374
 2142TIP3   OH2 6389   2.607   6.529   1.983
 2142TIP3    H1 6390   2.555   6.606   2.005
 2142TIP3    H2 6391   2.592   6.517   1.889
 2143TIP3   OH2 6392   5.336   4.764   3.591
 2143TIP3    H1 6393   5.307   4.679   3.623
 2143TIP3    H2 6394   5.410   4.787   3.647
 2144TIP3   OH2 6395   6.219   3.125   2.862
 2144TIP3    H1 6396   6.253   3.145   2.949
 2144TIP3    H2 6397   6.126   3.147   2.867
 2145TIP3   OH2 6398   3.584   1.498   1.246
 2145TIP3    H1 6399   3.648   1.545   1.193
 2145TIP3    H2 6400   3.500   1.536   1.221
 2146TIP3   OH2 6401   5.025   2.450   3.946
 2146TIP3    H1 6402   4.933   2.458   3.971
 2146TIP3    H2 6403   5.023   2.405   3.862
 2147TIP3   OH2 6404   6.827   0.287   4.911
 2147TIP3    H1 6405   6.904   0.230   4.914
 2147TIP3    H2 6406   6.754   0.227   4.898
 2148TIP3   OH2 6407   5.528   5.991   2.430
 2148TIP3    H1 6408   5.523   5.901   2.399
 2148TIP3    H2 6409   5.585   6.035   2.367
 2149TIP3   OH2 6410   6.038   2.144   0.328
 2149TIP3    H1 6411   5.950   2.169   0.299
 2149TIP3    H2 6412   6.076   2.226   0.362
 2150TIP3   OH2 6413   5.903   6.295   1.310
 2150TIP3    H1 6414   5.884   6.304   1.217
 2150TIP3    H2 6415   5.949   6.376   1.333
 2151TIP3   OH2 6416   6.277   0.212   2.765
 2151TIP3    H1 6417   6.190   0.172   2.766
 2151TIP3    H2 6418   6.332   0.152   2.815
 2152TIP3   OH2 6419   6.330   0.226   1.699
 2152TIP3    H1 6420   6.406   0.219   1.641
 2152TIP3    H2 6421   6.291   0.311   1.676
 2153TIP3   OH2 6422   4.625   5.703   1.010
 2153TIP3    H1 6423   4.710   5.687   0.969
 2153TIP3    H2 6424   4.643   5.701   1.104
 2154TIP3   OH2 6425   3.829   3.457   4.577
 2154TIP3    H1 6426   3.870   3.519   4.636
 2154TIP3    H2 6427   3.848   3.491   4.489
 2155TIP3   OH2 6428   0.678   6.002   4.529
 2155TIP3    H1 6429   0.764   6.045   4.534
 2155TIP3    H2 6430   0.691   5.928   4.468
 2156TIP3   OH2 6431  -0.050   5.442   3.316
 2156TIP3    H1 6432  -0.002   5.524   3.300
 2156TIP3    H2 6433  -0.138   5.460   3.284
 2157TIP3   OH2 6434   0.925   1.081   3.009
 2157TIP3    H1 6435   0.834   1.085   2.983
 2157TIP3    H2 6436   0.956   1.172   3.003
 2158TIP3   OH2 6437   1.812   5.266   2.715
 2158TIP3    H1 6438   1.884   5.273   2.778
 2158TIP3    H2 6439   1.761   5.191   2.744
 2159TIP3   OH2 6440   3.019   3.015   2.722
 2159TIP3    H1 6441   3.041   3.108   2.717
 2159TIP3    H2 6442   2.924   3.014   2.734
 2160TIP3   OH2 6443   1.720   3.803   1.766
 2160TIP3    H1 6444   1.637   3.826   1.723
 2160TIP3    H2 6445   1.777   3.877   1.748
 2161TIP3   OH2 6446   4.906   3.171   5.010
 2161TIP3    H1 6447   4.958   3.100   5.049
 2161TIP3    H2 6448   4.909   3.154   4.916
 2162TIP3   OH2 6449   4.338   1.699   0.944
 2162TIP3    H1 6450   4.398   1.628   0.925
 2162TIP3    H2 6451   4.289   1.669   1.021
 2163TIP3   OH2 6452   1.798   3.074   3.915
 2163TIP3    H1 6453   1.844   3.121   3.846
 2163TIP3    H2 6454   1.796   3.135   3.989
 2164TIP3   OH2 6455   7.107   0.778   1.966
 2164TIP3    H1 6456   7.053   0.834   1.910
 2164TIP3    H2 6457   7.066   0.692   1.961
 2165TIP3   OH2 6458   2.112   6.140   0.544
 2165TIP3    H1 6459   2.051   6.181   0.484
 2165TIP3    H2 6460   2.167   6.212   0.575
 2166TIP3   OH2 6461   5.939   6.486   1.634
 2166TIP3    H1 6462   5.930   6.577   1.660
 2166TIP3    H2 6463   5.991   6.446   1.704
 2167TIP3   OH2 6464   1.482   3.067   2.529
 2167TIP3    H1 6465   1.390   3.055   2.506
 2167TIP3    H2 6466   1.519   2.979   2.532
 2168TIP3   OH2 6467   0.277   3.574   2.192
 2168TIP3    H1 6468   0.301   3.510   2.259
 2168TIP3    H2 6469   0.181   3.572   2.190
 2169TIP3   OH2 6470   6.950   0.052   2.721
 2169TIP3    H1 6471   7.009   0.068   2.646
 2169TIP3    H2 6472   7.008   0.050   2.797
 2170TIP3   OH2 6473   2.060   3.379   2.294
 2170TIP3    H1 6474   2.031   3.381   2.203
 2170TIP3    H2 6475   2.155   3.371   2.289
 2171TIP3   OH2 6476   3.518   4.090   4.482
 2171TIP3    H1 6477   3.496   3.998   4.497
 2171TIP3    H2 6478   3.504   4.131   4.568
 2172TIP3   OH2 6479   6.877   0.162   4.485
 2172TIP3    H1 6480   6.802   0.105   4.501
 2172TIP3    H2 6481   6.927   0.159   4.567
 2173TIP3   OH2 6482   4.423   3.026   5.829
 2173TIP3    H1 6483   4.489   3.095   5.825
 2173TIP3    H2 6484   4.440   2.980   5.911
 2174TIP3   OH2 6485   4.787   3.792   3.735
 2174TIP3    H1 6486   4.714   3.787   3.797
 2174TIP3    H2 6487   4.770   3.871   3.684
 2175TIP3   OH2 6488   5.809   5.097   3.202
 2175TIP3    H1 6489   5.794   5.186   3.235
 2175TIP3    H2 6490   5.812   5.107   3.107
 2176TIP3   OH2 6491   4.375   5.693   0.121
 2176TIP3    H1 6492   4.448   5.660   0.068
 2176TIP3    H2 6493   4.375   5.637   0.199
 2177TIP3   OH2 6494   3.374   5.285   2.738
 2177TIP3    H1 6495   3.412   5.229   2.806
 2177TIP3    H2 6496   3.372   5.372   2.777
 2178TIP3   OH2 6497   4.688   3.729   4.349
 2178TIP3    H1 6498   4.595   3.750   4.354
 2178TIP3    H2 6499   4.690   3.634   4.333
 2179TIP3   OH2 6500   4.391   3.612   0.110
 2179TIP3    H1 6501   4.477   3.627   0.070
 2179TIP3    H2 6502   4.332   3.670   0.062
 2180TIP3   OH2 6503   6.535   4.745   1.015
 2180TIP3    H1 6504   6.587   4.669   0.987
 2180TIP3    H2 6505   6.460   4.707   1.061
 2181TIP3   OH2 6506   6.873   2.981   2.493
 2181TIP3    H1 6507   6.893   2.889   2.473
 2181TIP3    H2 6508   6.882   2.987   2.588
 2182TIP3   OH2 6509   1.271   5.537   2.874
 2182TIP3    H1 6510   1.242   5.476   2.942
 2182TIP3    H2 6511   1.274   5.484   2.794
 2183TIP3   OH2 6512   5.206   3.333   1.453
 2183TIP3    H1 6513   5.292   3.291   1.449
 2183TIP3    H2 6514   5.211   3.391   1.529
 2184TIP3   OH2 6515   6.151   1.973   1.399
 2184TIP3    H1 6516   6.208   1.987   1.323
 2184TIP3    H2 6517   6.108   1.889   1.381
 2185TIP3   OH2 6518   5.730   2.500   0.073
 2185TIP3    H1 6519   5.724   2.456   0.158
 2185TIP3    H2 6520   5.667   2.572   0.079
 2186TIP3   OH2 6521   2.033   0.046   3.688
 2186TIP3    H1 6522   2.036  -0.027   3.749
 2186TIP3    H2 6523   1.996   0.009   3.608
 2187TIP3   OH2 6524   3.791   3.337   0.630
 2187TIP3    H1 6525   3.714   3.393   0.625
 2187TIP3    H2 6526   3.801   3.317   0.723
 2188TIP3   OH2 6527   0.947   6.310   5.860
 2188TIP3    H1 6528   1.018   6.291   5.798
 2188TIP3    H2 6529   0.991   6.349   5.935
 2189TIP3   OH2 6530   1.610   2.778   0.297
 2189TIP3    H1 6531   1.631   2.690   0.264
 2189TIP3    H2 6532   1.628   2.773   0.391
 2190TIP3   OH2 6533   6.347   3.827   2.177
 2190TIP3    H1 6534   6.272   3.770   2.163
 2190TIP3    H2 6535   6.316   3.890   2.243
 2191TIP3   OH2 6536   0.368   0.868   4.063
 2191TIP3    H1 6537   0.326   0.836   3.983
 2191TIP3    H2 6538   0.343   0.960   4.067
 2192TIP3   OH2 6539   6.225   3.761   2.551
 2192TIP3    H1 6540   6.281   3.712   2.492
 2192TIP3    H2 6541   6.208   3.700   2.623
 2193TIP3   OH2 6542   3.527   1.271   4.242
 2193TIP3    H1 6543   3.490   1.239   4.160
 2193TIP3    H2 6544   3.566   1.193   4.283
 2194TIP3   OH2 6545   0.606   6.161   3.274
 2194TIP3    H1 6546   0.634   6.194   3.188
 2194TIP3    H2 6547   0.684   6.117   3.309
 2195TIP3   OH2 6548   3.891   3.129   1.337
 2195TIP3    H1 6549   3.822   3.094   1.394
 2195TIP3    H2 6550   3.973   3.103   1.381
 2196TIP3   OH2 6551   5.667   4.872   2.110
 2196TIP3    H1 6552   5.710   4.953   2.137
 2196TIP3    H2 6553   5.615   4.846   2.185
 2197TIP3   OH2 6554   0.204   2.434   1.415
 2197TIP3    H1 6555   0.174   2.517   1.378
 2197TIP3    H2 6556   0.195   2.371   1.343
 2198TIP3   OH2 6557   3.133   6.247   1.944
 2198TIP3    H1 6558   3.136   6.194   2.023
 2198TIP3    H2 6559   3.041   6.250   1.920
 2199TIP3   OH2 6560   3.223   1.220   1.200
 2199TIP3    H1 6561   3.195   1.310   1.218
 2199TIP3    H2 6562   3.315   1.217   1.228
 2200TIP3   OH2 6563   7.144   5.141   1.356
 2200TIP3    H1 6564   7.183   5.071   1.304
 2200TIP3    H2 6565   7.203   5.215   1.345
 2201TIP3   OH2 6566   1.042   3.957   3.877
 2201TIP3    H1 6567   0.981   3.914   3.937
 2201TIP3    H2 6568   1.038   3.905   3.797
 2202TIP3   OH2 6569   5.082   5.500   1.840
 2202TIP3    H1 6570   5.155   5.552   1.805
 2202TIP3    H2 6571   5.008   5.560   1.839
 2203TIP3   OH2 6572   3.551   3.829   5.062
 2203TIP3    H1 6573   3.538   3.736   5.080
 2203TIP3    H2 6574   3.543   3.836   4.967
 2204TIP3   OH2 6575   3.240   0.932   1.549
 2204TIP3    H1 6576   3.158   0.905   1.507
 2204TIP3    H2 6577   3.269   0.854   1.596
 2205TIP3   OH2 6578   0.239   2.659   0.378
 2205TIP3    H1 6579   0.280   2.744   0.391
 2205TIP3    H2 6580   0.282   2.601   0.440
 2206TIP3   OH2 6581   4.299   4.957   0.928
 2206TIP3    H1 6582   4.285   4.902   0.851
 2206TIP3    H2 6583   4.364   5.021   0.901
 2207TIP3   OH2 6584   2.821   5.218   1.189
 2207TIP3    H1 6585   2.761   5.186   1.122
 2207TIP3    H2 6586   2.772   5.210   1.271
 2208TIP3   OH2 6587   3.426   5.101   2.957
 2208TIP3    H1 6588   3.489   5.156   3.003
 2208TIP3    H2 6589   3.395   5.039   3.023
 2209TIP3   OH2 6590   6.991   3.668   5.521
 2209TIP3    H1 6591   7.047   3.692   5.448
 2209TIP3    H2 6592   6.977   3.750   5.569
 2210TIP3   OH2 6593   3.614   2.068   1.907
 2210TIP3    H1 6594   3.599   2.159   1.882
 2210TIP3    H2 6595   3.539   2.045   1.962
 2211TIP3   OH2 6596   1.208   3.485   5.590
 2211TIP3    H1 6597   1.220   3.557   5.527
 2211TIP3    H2 6598   1.184   3.410   5.536
 2212TIP3   OH2 6599   4.072   5.443   5.832
 2212TIP3    H1 6600   4.002   5.406   5.779
 2212TIP3    H2 6601   4.133   5.370   5.846
 2213TIP3   OH2 6602   6.531   1.071   1.788
 2213TIP3    H1 6603   6.454   1.060   1.732
 2213TIP3    H2 6604   6.590   1.001   1.762
 2214TIP3   OH2 6605   1.231   3.322   0.200
 2214TIP3    H1 6606   1.197   3.404   0.165
 2214TIP3    H2 6607   1.153   3.275   0.230
 2215TIP3   OH2 6608   6.704   1.256   1.873
 2215TIP3    H1 6609   6.622   1.211   1.856
 2215TIP3    H2 6610   6.678   1.342   1.906
 2216TIP3   OH2 6611   4.207   4.045   5.093
 2216TIP3    H1 6612   4.231   4.102   5.167
 2216TIP3    H2 6613   4.134   3.993   5.126
 2217TIP3   OH2 6614   5.493   0.079   5.421
 2217TIP3    H1 6615   5.456   0.092   5.508
 2217TIP3    H2 6616   5.587   0.090   5.432
 2218TIP3   OH2 6617   5.148   2.934   1.506
 2218TIP3    H1 6618   5.103   2.997   1.562
 2218TIP3    H2 6619   5.100   2.852   1.519
 2219TIP3   OH2 6620   2.286   0.699   3.101
 2219TIP3    H1 6621   2.239   0.671   3.179
 2219TIP3    H2 6622   2.217   0.720   3.038
 2220TIP3   OH2 6623   1.688   2.421   2.914
 2220TIP3    H1 6624   1.612   2.406   2.971
 2220TIP3    H2 6625   1.749   2.471   2.968
 2221TIP3   OH2 6626   6.387   0.119   4.717
 2221TIP3    H1 6627   6.374   0.204   4.675
 2221TIP3    H2 6628   6.306   0.103   4.765
 2222TIP3   OH2 6629   5.056   2.823   2.463
 2222TIP3    H1 6630   5.077   2.762   2.534
 2222TIP3    H2 6631   4.977   2.869   2.494
 2223TIP3   OH2 6632   1.497   0.391   5.382
 2223TIP3    H1 6633   1.548   0.464   5.349
 2223TIP3    H2 6634   1.504   0.397   5.478
 2224TIP3   OH2 6635   5.666   3.722   4.004
 2224TIP3    H1 6636   5.710   3.805   3.989
 2224TIP3    H2 6637   5.611   3.738   4.080
 2225TIP3   OH2 6638   5.498   5.551   3.940
 2225TIP3    H1 6639   5.536   5.560   3.853
 2225TIP3    H2 6640   5.445   5.471   3.935
 2226TIP3   OH2 6641   2.481   0.200   2.103
 2226TIP3    H1 6642   2.418   0.252   2.152
 2226TIP3    H2 6643   2.514   0.259   2.036
 2227TIP3   OH2 6644   5.375   2.769   1.615
 2227TIP3    H1 6645   5.415   2.834   1.672
 2227TIP3    H2 6646   5.296   2.812   1.582
 2228TIP3   OH2 6647   0.514   0.008   2.236
 2228TIP3    H1 6648   0.482  -0.078   2.209
 2228TIP3    H2 6649   0.474   0.023   2.322
 2229TIP3   OH2 6650   0.432   0.672   4.916
 2229TIP3    H1 6651   0.427   0.677   4.821
 2229TIP3    H2 6652   0.381   0.747   4.947
 2230TIP3   OH2 6653   5.857   6.597   5.319
 2230TIP3    H1 6654   5.814   6.511   5.321
 2230TIP3    H2 6655   5.897   6.601   5.232
 2231TIP3   OH2 6656   1.818   4.475   4.099
 2231TIP3    H1 6657   1.734   4.509   4.130
 2231TIP3    H2 6658   1.811   4.476   4.004
 2232TIP3   OH2 6659   7.148   3.566   3.808
 2232TIP3    H1 6660   7.058   3.596   3.795
 2232TIP3    H2 6661   7.163   3.504   3.736
 2233TIP3   OH2 6662   4.322   1.204   5.440
 2233TIP3    H1 6663   4.301   1.120   5.399
 2233TIP3    H2 6664   4.324   1.185   5.533
 2234TIP3   OH2 6665   7.244   2.320   3.554
 2234TIP3    H1 6666   7.172   2.376   3.522
 2234TIP3    H2 6667   7.204   2.233   3.562
 2235TIP3   OH2 6668   6.687   1.160   1.015
 2235TIP3    H1 6669   6.614   1.215   1.041
 2235TIP3    H2 6670   6.711   1.191   0.927
 2236TIP3   OH2 6671   1.689   0.645   5.594
 2236TIP3    H1 6672   1.654   0.556   5.599
 2236TIP3    H2 6673   1.637   0.688   5.527
 2237TIP3   OH2 6674   5.467   5.737   4.861
 2237TIP3    H1 6675   5.441   5.662   4.807
 2237TIP3    H2 6676   5.483   5.700   4.948
 2238TIP3   OH2 6677   0.444   2.967   2.713
 2238TIP3    H1 6678   0.496   3.010   2.645
 2238TIP3    H2 6679   0.413   2.887   2.671
 2239TIP3   OH2 6680   2.127   5.085   5.531
 2239TIP3    H1 6681   2.098   4.994   5.533
 2239TIP3    H2 6682   2.047   5.136   5.546
 2240TIP3   OH2 6683   6.378   5.605   0.847
 2240TIP3    H1 6684   6.298   5.657   0.845
 2240TIP3    H2 6685   6.381   5.562   0.762
 2241TIP3   OH2 6686   0.988   3.943   1.952
 2241TIP3    H1 6687   1.083   3.937   1.957
 2241TIP3    H2 6688   0.959   3.942   2.043
 2242TIP3   OH2 6689   3.189   2.734   3.053
 2242TIP3    H1 6690   3.231   2.819   3.039
 2242TIP3    H2 6691   3.099   2.747   3.020
 2243TIP3   OH2 6692   1.409   4.959   1.727
 2243TIP3    H1 6693   1.328   5.009   1.725
 2243TIP3    H2 6694   1.384   4.874   1.764
 2244TIP3   OH2 6695   1.306   3.244   5.425
 2244TIP3    H1 6696   1.389   3.249   5.376
 2244TIP3    H2 6697   1.246   3.298   5.374
 2245TIP3   OH2 6698   6.949   4.974   2.324
 2245TIP3    H1 6699   6.914   4.923   2.250
 2245TIP3    H2 6700   6.886   5.045   2.336
 2246TIP3   OH2 6701   4.447   5.488   3.287
 2246TIP3    H1 6702   4.384   5.538   3.236
 2246TIP3    H2 6703   4.512   5.553   3.314
 2247TIP3   OH2 6704   6.294   0.975   1.604
 2247TIP3    H1 6705   6.343   0.893   1.591
 2247TIP3    H2 6706   6.220   0.950   1.659
 2248TIP3   OH2 6707   6.364   2.797   1.628
 2248TIP3    H1 6708   6.438   2.796   1.567
 2248TIP3    H2 6709   6.353   2.889   1.652
 2249TIP3   OH2 6710   5.025   4.406   4.028
 2249TIP3    H1 6711   5.087   4.374   3.963
 2249TIP3    H2 6712   4.979   4.479   3.985
 2250TIP3   OH2 6713   1.705   3.477   3.128
 2250TIP3    H1 6714   1.782   3.511   3.173
 2250TIP3    H2 6715   1.720   3.383   3.121
 2251TIP3   OH2 6716   1.406   3.244   2.804
 2251TIP3    H1 6717   1.463   3.259   2.729
 2251TIP3    H2 6718   1.321   3.224   2.766
 2252TIP3   OH2 6719   4.790   0.236   4.263
 2252TIP3    H1 6720   4.862   0.205   4.318
 2252TIP3    H2 6721   4.741   0.295   4.320
 2253TIP3   OH2 6722   0.485   1.899   2.989
 2253TIP3    H1 6723   0.457   1.903   3.081
 2253TIP3    H2 6724   0.432   1.829   2.951
 2254TIP3   OH2 6725   6.360   6.821   0.636
 2254TIP3    H1 6726   6.395   6.798   0.722
 2254TIP3    H2 6727   6.427   6.876   0.596
 2255TIP3   OH2 6728   6.433   2.344   4.372
 2255TIP3    H1 6729   6.520   2.338   4.334
 2255TIP3    H2 6730   6.398   2.255   4.365
 2256TIP3   OH2 6731   3.940   3.545   3.863
 2256TIP3    H1 6732   3.864   3.590   3.899
 2256TIP3    H2 6733   4.001   3.615   3.841
 2257TIP3   OH2 6734   0.867   5.850   3.978
 2257TIP3    H1 6735   0.853   5.757   3.960
 2257TIP3    H2 6736   0.872   5.856   4.073
 2258TIP3   OH2 6737   1.403   6.300   0.923
 2258TIP3    H1 6738   1.462   6.333   0.990
 2258TIP3    H2 6739   1.428   6.208   0.913
 2259TIP3   OH2 6740   5.718   3.803   4.823
 2259TIP3    H1 6741   5.789   3.867   4.827
 2259TIP3    H2 6742   5.755   3.723   4.861
 2260TIP3   OH2 6743   2.464   1.094   2.758
 2260TIP3    H1 6744   2.534   1.049   2.804
 2260TIP3    H2 6745   2.383   1.053   2.790
 2261TIP3   OH2 6746   3.160   2.004   2.332
 2261TIP3    H1 6747   3.214   1.957   2.395
 2261TIP3    H2 6748   3.198   1.983   2.247
 2262TIP3   OH2 6749   0.216   4.956   3.767
 2262TIP3    H1 6750   0.146   4.988   3.823
 2262TIP3    H2 6751   0.198   4.863   3.756
 2263TIP3   OH2 6752   1.136   2.653   2.367
 2263TIP3    H1 6753   1.131   2.728   2.426
 2263TIP3    H2 6754   1.221   2.613   2.386
 2264TIP3   OH2 6755   4.798   6.019   5.823
 2264TIP3    H1 6756   4.891   6.003   5.837
 2264TIP3    H2 6757   4.765   5.939   5.783
 2265TIP3   OH2 6758   3.878   2.440   1.286
 2265TIP3    H1 6759   3.851   2.451   1.377
 2265TIP3    H2 6760   3.822   2.371   1.251
 2266TIP3   OH2 6761   5.196   5.711   0.569
 2266TIP3    H1 6762   5.172   5.653   0.642
 2266TIP3    H2 6763   5.129   5.694   0.503
 2267TIP3   OH2 6764   7.041   5.881   4.113
 2267TIP3    H1 6765   7.065   5.869   4.206
 2267TIP3    H2 6766   7.125   5.897   4.069
 2268TIP3   OH2 6767   6.766   0.137   3.045
 2268TIP3    H1 6768   6.688   0.081   3.052
 2268TIP3    H2 6769   6.740   0.209   2.989
 2269TIP3   OH2 6770   6.714   3.805   3.547
 2269TIP3    H1 6771   6.798   3.830   3.585
 2269TIP3    H2 6772   6.712   3.848   3.462
 2270TIP3   OH2 6773   4.138   4.158   3.276
 2270TIP3    H1 6774   4.065   4.210   3.310
 2270TIP3    H2 6775   4.117   4.068   3.300
 2271TIP3   OH2 6776   0.203   6.042   1.770
 2271TIP3    H1 6777   0.236   6.017   1.857
 2271TIP3    H2 6778   0.108   6.041   1.780
 2272TIP3   OH2 6779   6.945   2.527   1.731
 2272TIP3    H1 6780   7.031   2.568   1.723
 2272TIP3    H2 6781   6.890   2.574   1.668
 2273TIP3   OH2 6782   1.628   1.433   3.757
 2273TIP3    H1 6783   1.662   1.369   3.695
 2273TIP3    H2 6784   1.706   1.472   3.797
 2274TIP3   OH2 6785   5.075   3.079   3.908
 2274TIP3    H1 6786   5.028   3.153   3.947
 2274TIP3    H2 6787   5.066   3.008   3.972
 2275TIP3   OH2 6788   3.493   5.283   5.131
 2275TIP3    H1 6789   3.544   5.230   5.070
 2275TIP3    H2 6790   3.555   5.304   5.202
 2276TIP3   OH2 6791   2.583   0.823   0.641
 2276TIP3    H1 6792   2.630   0.902   0.669
 2276TIP3    H2 6793   2.578   0.769   0.720
 2277TIP3   OH2 6794   5.381   3.989   2.631
 2277TIP3    H1 6795   5.431   3.918   2.589
 2277TIP3    H2 6796   5.443   4.028   2.693
 2278TIP3   OH2 6797   3.634   2.361   3.709
 2278TIP3    H1 6798   3.706   2.424   3.719
 2278TIP3    H2 6799   3.582   2.397   3.636
 2279TIP3   OH2 6800   5.243   2.203   2.266
 2279TIP3    H1 6801   5.182   2.259   2.217
 2279TIP3    H2 6802   5.285   2.262   2.329
 2280TIP3   OH2 6803   2.892   6.601   4.802
 2280TIP3    H1 6804   2.827   6.533   4.782
 2280TIP3    H2 6805   2.848   6.683   4.780
 2281TIP3   OH2 6806   0.352   4.361   1.087
 2281TIP3    H1 6807   0.393   4.293   1.141
 2281TIP3    H2 6808   0.424   4.400   1.038
 2282TIP3   OH2 6809   7.084   1.296   1.591
 2282TIP3    H1 6810   7.039   1.367   1.637
 2282TIP3    H2 6811   7.090   1.327   1.500
 2283TIP3   OH2 6812   4.004   6.709   3.819
 2283TIP3    H1 6813   3.951   6.654   3.876
 2283TIP3    H2 6814   3.947   6.730   3.745
 2284TIP3   OH2 6815   3.973   2.885   3.211
 2284TIP3    H1 6816   4.045   2.869   3.150
 2284TIP3    H2 6817   4.005   2.955   3.268
 2285TIP3   OH2 6818   6.792   2.443   5.736
 2285TIP3    H1 6819   6.731   2.471   5.805
 2285TIP3    H2 6820   6.831   2.362   5.770
 2286TIP3   OH2 6821   2.232   2.265   5.943
 2286TIP3    H1 6822   2.287   2.189   5.924
 2286TIP3    H2 6823   2.221   2.309   5.859
 2287TIP3   OH2 6824   0.896   6.220   1.516
 2287TIP3    H1 6825   0.866   6.311   1.519
 2287TIP3    H2 6826   0.898   6.192   1.608
 2288TIP3   OH2 6827  -0.071   0.690   2.802
 2288TIP3    H1 6828  -0.099   0.607   2.841
 2288TIP3    H2 6829  -0.018   0.664   2.727
 2289TIP3   OH2 6830   0.971   6.113   4.178
 2289TIP3    H1 6831   1.012   6.126   4.093
 2289TIP3    H2 6832   1.041   6.076   4.232
 2290TIP3   OH2 6833   3.006   0.635   3.191
 2290TIP3    H1 6834   2.946   0.697   3.234
 2290TIP3    H2 6835   3.010   0.666   3.100
 2291TIP3   OH2 6836   5.930   0.520   2.349
 2291TIP3    H1 6837   5.955   0.428   2.357
 2291TIP3    H2 6838   5.943   0.540   2.256
 2292TIP3   OH2 6839   6.599   4.197   1.495
 2292TIP3    H1 6840   6.601   4.138   1.569
 2292TIP3    H2 6841   6.595   4.285   1.534
 2293TIP3   OH2 6842   6.828   4.168   1.986
 2293TIP3    H1 6843   6.875   4.149   1.906
 2293TIP3    H2 6844   6.855   4.257   2.010
 2294TIP3   OH2 6845   3.603   3.236   0.421
 2294TIP3    H1 6846   3.671   3.247   0.487
 2294TIP3    H2 6847   3.569   3.148   0.435
 2295TIP3   OH2 6848   6.833   2.027   3.446
 2295TIP3    H1 6849   6.879   1.972   3.383
 2295TIP3    H2 6850   6.787   2.091   3.392
 2296TIP3   OH2 6851   1.181   5.470   5.589
 2296TIP3    H1 6852   1.238   5.417   5.534
 2296TIP3    H2 6853   1.189   5.431   5.676
 2297TIP3   OH2 6854   5.966   6.456   3.782
 2297TIP3    H1 6855   5.908   6.487   3.852
 2297TIP3    H2 6856   5.961   6.524   3.715
 2298TIP3   OH2 6857   0.900   1.192   3.435
 2298TIP3    H1 6858   0.992   1.219   3.443
 2298TIP3    H2 6859   0.856   1.234   3.509
 2299TIP3   OH2 6860   1.554   2.977   1.671
 2299TIP3    H1 6861   1.553   2.992   1.765
 2299TIP3    H2 6862   1.465   2.998   1.642
 2300TIP3   OH2 6863   2.026   0.499   2.521
 2300TIP3    H1 6864   1.983   0.575   2.559
 2300TIP3    H2 6865   2.004   0.504   2.428
 2301TIP3   OH2 6866   6.672   3.228   5.330
 2301TIP3    H1 6867   6.658   3.133   5.333
 2301TIP3    H2 6868   6.633   3.261   5.411
 2302TIP3   OH2 6869   4.703   3.756   4.014
 2302TIP3    H1 6870   4.716   3.711   4.098
 2302TIP3    H2 6871   4.641   3.826   4.034
 2303TIP3   OH2 6872   3.022   4.077   1.554
 2303TIP3    H1 6873   2.945   4.132   1.567
 2303TIP3    H2 6874   3.080   4.099   1.627
 2304TIP3   OH2 6875   0.928   4.425   5.494
 2304TIP3    H1 6876   0.925   4.512   5.455
 2304TIP3    H2 6877   0.838   4.410   5.526
 2305TIP3   OH2 6878   4.590   2.631   4.367
 2305TIP3    H1 6879   4.679   2.597   4.378
 2305TIP3    H2 6880   4.600   2.726   4.370
 2306TIP3   OH2 6881   4.012   6.380   2.322
 2306TIP3    H1 6882   4.008   6.468   2.359
 2306TIP3    H2 6883   3.938   6.334   2.362
 2307TIP3   OH2 6884   7.296   1.729   4.444
 2307TIP3    H1 6885   7.288   1.717   4.538
 2307TIP3    H2 6886   7.210   1.703   4.409
 2308TIP3   OH2 6887   4.316   5.057   3.002
 2308TIP3    H1 6888   4.357   4.999   3.067
 2308TIP3    H2 6889   4.245   5.100   3.050
 2309TIP3   OH2 6890   5.473   1.278   0.072
 2309TIP3    H1 6891   5.456   1.368   0.045
 2309TIP3    H2 6892   5.446   1.275   0.164
 2310TIP3   OH2 6893   0.128   1.771   1.860
 2310TIP3    H1 6894   0.117   1.853   1.812
 2310TIP3    H2 6895   0.108   1.703   1.796
 2311TIP3   OH2 6896   6.669   4.695   3.646
 2311TIP3    H1 6897   6.628   4.614   3.675
 2311TIP3    H2 6898   6.636   4.707   3.556
 2312TIP3   OH2 6899   3.770   4.957   0.450
 2312TIP3    H1 6900   3.777   4.890   0.382
 2312TIP3    H2 6901   3.798   5.038   0.407
 2313TIP3   OH2 6902   6.079   3.233   0.109
 2313TIP3    H1 6903   6.174   3.238   0.121
 2313TIP3    H2 6904   6.064   3.144   0.076
 2314TIP3   OH2 6905   3.647   2.224   3.268
 2314TIP3    H1 6906   3.628   2.317   3.276
 2314TIP3    H2 6907   3.689   2.200   3.351
 2315TIP3   OH2 6908   4.840   6.269   2.350
 2315TIP3    H1 6909   4.871   6.347   2.304
 2315TIP3    H2 6910   4.863   6.196   2.292
 2316TIP3   OH2 6911   3.153   4.095   1.316
 2316TIP3    H1 6912   3.119   4.104   1.405
 2316TIP3    H2 6913   3.220   4.027   1.322
 2317TIP3   OH2 6914   3.125   2.541   0.965
 2317TIP3    H1 6915   3.036   2.573   0.976
 2317TIP3    H2 6916   3.144   2.554   0.872
 2318TIP3   OH2 6917   6.953   4.082   3.847
 2318TIP3    H1 6918   6.913   4.169   3.839
 2318TIP3    H2 6919   7.021   4.094   3.914
 2319TIP3   OH2 6920   1.350   2.286   5.891
 2319TIP3    H1 6921   1.410   2.339   5.838
 2319TIP3    H2 6922   1.406   2.251   5.961
 2320TIP3   OH2 6923   2.743   1.078   0.678
 2320TIP3    H1 6924   2.751   1.165   0.716
 2320TIP3    H2 6925   2.833   1.049   0.665
 2321TIP3   OH2 6926   3.335   2.205   3.925
 2321TIP3    H1 6927   3.301   2.191   3.837
 2321TIP3    H2 6928   3.328   2.299   3.939
 2322TIP3   OH2 6929   0.072   1.548   1.636
 2322TIP3    H1 6930   0.145   1.549   1.574
 2322TIP3    H2 6931  -0.003   1.580   1.585
 2323TIP3   OH2 6932   5.062   1.555   4.354
 2323TIP3    H1 6933   4.984   1.515   4.394
 2323TIP3    H2 6934   5.034   1.578   4.265
 2324TIP3   OH2 6935   4.705   0.772   2.383
 2324TIP3    H1 6936   4.776   0.729   2.432
 2324TIP3    H2 6937   4.625   0.730   2.414
 2325TIP3   OH2 6938   5.417   3.284   0.582
 2325TIP3    H1 6939   5.419   3.288   0.486
 2325TIP3    H2 6940   5.407   3.375   0.609
 2326TIP3   OH2 6941   6.841   4.868   2.082
 2326TIP3    H1 6942   6.830   4.784   2.038
 2326TIP3    H2 6943   6.826   4.933   2.013
 2327TIP3   OH2 6944   0.786   3.767   0.897
 2327TIP3    H1 6945   0.815   3.738   0.811
 2327TIP3    H2 6946   0.692   3.750   0.898
 2328TIP3   OH2 6947   6.158   1.521   5.300
 2328TIP3    H1 6948   6.111   1.438   5.301
 2328TIP3    H2 6949   6.139   1.558   5.214
 2329TIP3   OH2 6950   1.968   1.077   0.572
 2329TIP3    H1 6951   2.038   1.052   0.632
 2329TIP3    H2 6952   1.995   1.161   0.537
 2330TIP3   OH2 6953   5.115   4.796   1.505
 2330TIP3    H1 6954   5.040   4.829   1.555
 2330TIP3    H2 6955   5.112   4.701   1.517
 2331TIP3   OH2 6956   0.485   3.625  -0.010
 2331TIP3    H1 6957   0.403   3.674  -0.007
 2331TIP3    H2 6958   0.550   3.684   0.030
 2332TIP3   OH2 6959   7.075   4.721   2.684
 2332TIP3    H1 6960   7.095   4.633   2.714
 2332TIP3    H2 6961   7.089   4.718   2.589
 2333TIP3   OH2 6962   0.633   3.377   1.522
 2333TIP3    H1 6963   0.586   3.322   1.584
 2333TIP3    H2 6964   0.592   3.357   1.437
 2334TIP3   OH2 6965   1.662   6.231   1.627
 2334TIP3    H1 6966   1.669   6.218   1.533
 2334TIP3    H2 6967   1.701   6.318   1.642
 2335TIP3   OH2 6968   0.006   2.530   1.634
 2335TIP3    H1 6969   0.053   2.498   1.558
 2335TIP3    H2 6970   0.046   2.614   1.655
 2336TIP3   OH2 6971   5.984   4.250   5.004
 2336TIP3    H1 6972   5.959   4.251   5.096
 2336TIP3    H2 6973   6.078   4.269   5.003
 2337TIP3   OH2 6974   3.635   1.610   0.834
 2337TIP3    H1 6975   3.730   1.599   0.844
 2337TIP3    H2 6976   3.606   1.644   0.919
 2338TIP3   OH2 6977   4.351   5.860   4.428
 2338TIP3    H1 6978   4.321   5.951   4.420
 2338TIP3    H2 6979   4.324   5.834   4.516
 2339TIP3   OH2 6980   1.198   2.646   0.096
 2339TIP3    H1 6981   1.117   2.673   0.052
 2339TIP3    H2 6982   1.184   2.554   0.116
 2340TIP3   OH2 6983   2.320   2.099   4.916
 2340TIP3    H1 6984   2.376   2.073   4.842
 2340TIP3    H2 6985   2.359   2.055   4.992
 2341TIP3   OH2 6986   5.579   2.489   3.955
 2341TIP3    H1 6987   5.510   2.436   3.993
 2341TIP3    H2 6988   5.656   2.432   3.954
 2342TIP3   OH2 6989   3.894   4.133   1.490
 2342TIP3    H1 6990   3.908   4.177   1.406
 2342TIP3    H2 6991   3.829   4.066   1.470
 2343TIP3   OH2 6992   2.018   6.367   5.032
 2343TIP3    H1 6993   1.969   6.354   5.114
 2343TIP3    H2 6994   2.045   6.458   5.035
 2344TIP3   OH2 6995   5.691   4.910   5.843
 2344TIP3    H1 6996   5.730   4.837   5.891
 2344TIP3    H2 6997   5.746   4.921   5.766
 2345TIP3   OH2 6998   1.402   3.506   5.149
 2345TIP3    H1 6999   1.474   3.484   5.208
 2345TIP3    H2 7000   1.423   3.594   5.117
 2346TIP3   OH2 7001   3.900   0.775   5.881
 2346TIP3    H1 7002   3.852   0.696   5.905
 2346TIP3    H2 7003   3.991   0.756   5.904
 2347TIP3   OH2 7004   4.746   0.301   2.020
 2347TIP3    H1 7005   4.669   0.262   1.979
 2347TIP3    H2 7006   4.810   0.230   2.023
 2348TIP3   OH2 7007   6.785   6.324   5.133
 2348TIP3    H1 7008   6.763   6.309   5.225
 2348TIP3    H2 7009   6.715   6.381   5.101
 2349TIP3   OH2 7010   0.007   5.644   4.513
 2349TIP3    H1 7011   0.060   5.715   4.551
 2349TIP3    H2 7012   0.011   5.574   4.578
 2350TIP3   OH2 7013   3.294   0.827   4.789
 2350TIP3    H1 7014   3.332   0.904   4.746
 2350TIP3    H2 7015   3.246   0.782   4.719
 2351TIP3   OH2 7016   3.907   1.385   0.306
 2351TIP3    H1 7017   3.854   1.306   0.321
 2351TIP3    H2 7018   3.997   1.355   0.317
 2352TIP3   OH2 7019   7.231   0.324   0.144
 2352TIP3    H1 7020   7.151   0.376   0.154
 2352TIP3    H2 7021   7.200   0.234   0.140
 2353TIP3   OH2 7022   0.280   6.622   3.521
 2353TIP3    H1 7023   0.356   6.573   3.490
 2353TIP3    H2 7024   0.228   6.638   3.442
 2354TIP3   OH2 7025   2.169   2.253   1.223
 2354TIP3    H1 7026   2.242   2.277   1.166
 2354TIP3    H2 7027   2.117   2.191   1.172
 2355TIP3   OH2 7028   6.887   4.377   2.763
 2355TIP3    H1 7029   6.860   4.426   2.841
 2355TIP3    H2 7030   6.872   4.437   2.690
 2356TIP3   OH2 7031   2.697   5.539   5.755
 2356TIP3    H1 7032   2.613   5.583   5.770
 2356TIP3    H2 7033   2.712   5.490   5.836
 2357TIP3   OH2 7034   0.333   1.183   2.435
 2357TIP3    H1 7035   0.366   1.223   2.516
 2357TIP3    H2 7036   0.353   1.247   2.367
 2358TIP3   OH2 7037   0.648   1.906   2.422
 2358TIP3    H1 7038   0.656   1.869   2.510
 2358TIP3    H2 7039   0.652   2.001   2.435
 2359TIP3   OH2 7040   4.552   4.851   1.284
 2359TIP3    H1 7041   4.481   4.815   1.232
 2359TIP3    H2 7042   4.522   4.938   1.309
 2360TIP3   OH2 7043   0.479   5.646   0.656
 2360TIP3    H1 7044   0.452   5.582   0.721
 2360TIP3    H2 7045   0.469   5.731   0.700
 2361TIP3   OH2 7046   3.216  -0.053   4.241
 2361TIP3    H1 7047   3.239  -0.134   4.195
 2361TIP3    H2 7048   3.290  -0.036   4.298
 2362TIP3   OH2 7049   1.025   6.116   3.397
 2362TIP3    H1 7050   1.068   6.070   3.325
 2362TIP3    H2 7051   0.985   6.193   3.356
 2363TIP3   OH2 7052   1.175   6.572   4.560
 2363TIP3    H1 7053   1.244   6.509   4.580
 2363TIP3    H2 7054   1.219   6.642   4.511
 2364TIP3   OH2 7055   1.929   1.449   0.425
 2364TIP3    H1 7056   1.961   1.424   0.338
 2364TIP3    H2 7057   1.893   1.536   0.413
 2365TIP3   OH2 7058   3.606   5.642   3.415
 2365TIP3    H1 7059   3.618   5.558   3.458
 2365TIP3    H2 7060   3.597   5.621   3.322
 2366TIP3   OH2 7061   1.986   0.438   1.083
 2366TIP3    H1 7062   1.918   0.422   1.018
 2366TIP3    H2 7063   1.997   0.533   1.085
 2367TIP3   OH2 7064   2.346   0.175   2.674
 2367TIP3    H1 7065   2.303   0.089   2.680
 2367TIP3    H2 7066   2.354   0.203   2.765
 2368TIP3   OH2 7067   4.801   4.925   0.217
 2368TIP3    H1 7068   4.831   4.997   0.161
 2368TIP3    H2 7069   4.727   4.888   0.168
 2369TIP3   OH2 7070   0.815   0.497   2.802
 2369TIP3    H1 7071   0.775   0.424   2.847
 2369TIP3    H2 7072   0.758   0.572   2.822
 2370TIP3   OH2 7073   4.839   0.223   2.739
 2370TIP3    H1 7074   4.750   0.259   2.747
 2370TIP3    H2 7075   4.828   0.130   2.757
 2371TIP3   OH2 7076   2.035   5.665   2.446
 2371TIP3    H1 7077   2.123   5.649   2.481
 2371TIP3    H2 7078   1.976   5.645   2.519
 2372TIP3   OH2 7079   1.469   4.772   0.090
 2372TIP3    H1 7080   1.532   4.775   0.018
 2372TIP3    H2 7081   1.447   4.863   0.107
 2373TIP3   OH2 7082   5.173   2.446   1.007
 2373TIP3    H1 7083   5.163   2.533   1.045
 2373TIP3    H2 7084   5.097   2.436   0.949
 2374TIP3   OH2 7085   7.043   1.175   4.873
 2374TIP3    H1 7086   6.984   1.249   4.884
 2374TIP3    H2 7087   7.058   1.170   4.779
 2375TIP3   OH2 7088   4.493   5.267   5.756
 2375TIP3    H1 7089   4.424   5.203   5.773
 2375TIP3    H2 7090   4.467   5.309   5.674
 2376TIP3   OH2 7091   5.300   1.873   5.150
 2376TIP3    H1 7092   5.371   1.935   5.133
 2376TIP3    H2 7093   5.220   1.920   5.128
 2377TIP3   OH2 7094   4.082   5.336   3.804
 2377TIP3    H1 7095   4.154   5.390   3.773
 2377TIP3    H2 7096   4.065   5.366   3.893
 2378TIP3   OH2 7097   3.996   4.467   1.174
 2378TIP3    H1 7098   4.070   4.419   1.211
 2378TIP3    H2 7099   4.026   4.557   1.167
 2379TIP3   OH2 7100   5.141   5.029   1.931
 2379TIP3    H1 7101   5.067   5.089   1.942
 2379TIP3    H2 7102   5.176   5.050   1.844
 2380TIP3   OH2 7103   1.856   1.881   1.580
 2380TIP3    H1 7104   1.872   1.973   1.604
 2380TIP3    H2 7105   1.830   1.839   1.662
 2381TIP3   OH2 7106   6.074   1.524   4.197
 2381TIP3    H1 7107   6.084   1.451   4.258
 2381TIP3    H2 7108   5.986   1.557   4.213
 2382TIP3   OH2 7109   5.012   4.814   2.520
 2382TIP3    H1 7110   5.081   4.836   2.458
 2382TIP3    H2 7111   5.048   4.743   2.573
 2383TIP3   OH2 7112   3.560   0.392   0.434
 2383TIP3    H1 7113   3.561   0.338   0.355
 2383TIP3    H2 7114   3.566   0.330   0.507
 2384TIP3   OH2 7115   6.283   4.889   3.203
 2384TIP3    H1 7116   6.263   4.857   3.115
 2384TIP3    H2 7117   6.208   4.863   3.256
 2385TIP3   OH2 7118   5.610   3.887   5.506
 2385TIP3    H1 7119   5.650   3.871   5.592
 2385TIP3    H2 7120   5.535   3.943   5.525
 2386TIP3   OH2 7121   0.686   1.604   1.343
 2386TIP3    H1 7122   0.647   1.539   1.401
 2386TIP3    H2 7123   0.735   1.552   1.279
 2387TIP3   OH2 7124   6.613   3.201   4.936
 2387TIP3    H1 7125   6.596   3.218   4.843
 2387TIP3    H2 7126   6.632   3.287   4.973
 2388TIP3   OH2 7127   2.811   1.022   4.545
 2388TIP3    H1 7128   2.792   1.094   4.484
 2388TIP3    H2 7129   2.853   1.064   4.620
 2389TIP3   OH2 7130   0.886   6.182   4.465
 2389TIP3    H1 7131   0.815   6.187   4.402
 2389TIP3    H2 7132   0.922   6.270   4.469
 2390TIP3   OH2 7133   0.905   4.971   5.874
 2390TIP3    H1 7134   0.954   4.914   5.814
 2390TIP3    H2 7135   0.930   4.940   5.961
 2391TIP3   OH2 7136   4.704   0.061   3.424
 2391TIP3    H1 7137   4.728   0.011   3.346
 2391TIP3    H2 7138   4.766   0.133   3.426
 2392TIP3   OH2 7139   1.212   0.175   4.026
 2392TIP3    H1 7140   1.194   0.250   4.082
 2392TIP3    H2 7141   1.155   0.105   4.059
 2393TIP3   OH2 7142   6.709   0.331   2.862
 2393TIP3    H1 7143   6.775   0.337   2.792
 2393TIP3    H2 7144   6.629   0.363   2.821
 2394TIP3   OH2 7145   0.910   5.639   1.362
 2394TIP3    H1 7146   0.849   5.710   1.384
 2394TIP3    H2 7147   0.924   5.592   1.444
 2395TIP3   OH2 7148   3.330   1.523   0.460
 2395TIP3    H1 7149   3.277   1.581   0.515
 2395TIP3    H2 7150   3.418   1.530   0.497
 2396TIP3   OH2 7151   4.117   2.334   4.735
 2396TIP3    H1 7152   4.191   2.390   4.713
 2396TIP3    H2 7153   4.114   2.333   4.830
 2397TIP3   OH2 7154   0.528   5.459   2.423
 2397TIP3    H1 7155   0.557   5.537   2.471
 2397TIP3    H2 7156   0.441   5.440   2.457
 2398TIP3   OH2 7157   3.753   5.760   4.513
 2398TIP3    H1 7158   3.742   5.666   4.525
 2398TIP3    H2 7159   3.753   5.772   4.418
 2399TIP3   OH2 7160   5.828   4.803   1.206
 2399TIP3    H1 7161   5.896   4.748   1.245
 2399TIP3    H2 7162   5.752   4.745   1.199
 2400TIP3   OH2 7163   4.776   5.201   5.708
 2400TIP3    H1 7164   4.840   5.263   5.671
 2400TIP3    H2 7165   4.691   5.236   5.680
 2401TIP3   OH2 7166   1.284   3.595   0.116
 2401TIP3    H1 7167   1.249   3.684   0.116
 2401TIP3    H2 7168   1.364   3.600   0.168
 2402TIP3   OH2 7169   1.037   5.226   0.046
 2402TIP3    H1 7170   0.979   5.157   0.013
 2402TIP3    H2 7171   0.984   5.305   0.042
 2403TIP3   OH2 7172   1.352   0.625   1.797
 2403TIP3    H1 7173   1.427   0.631   1.738
 2403TIP3    H2 7174   1.282   0.590   1.743
 2404TIP3   OH2 7175   5.975   0.224   1.601
 2404TIP3    H1 7176   5.904   0.240   1.663
 2404TIP3    H2 7177   5.933   0.225   1.515
 2405TIP3   OH2 7178   3.974   3.460   4.326
 2405TIP3    H1 7179   4.010   3.469   4.238
 2405TIP3    H2 7180   4.024   3.388   4.365
 2406TIP3   OH2 7181   1.828   0.166   1.226
 2406TIP3    H1 7182   1.786   0.080   1.221
 2406TIP3    H2 7183   1.856   0.184   1.136
 2407TIP3   OH2 7184   1.878   3.531   5.040
 2407TIP3    H1 7185   1.808   3.482   5.082
 2407TIP3    H2 7186   1.882   3.614   5.087
 2408TIP3   OH2 7187   1.329   0.858   4.190
 2408TIP3    H1 7188   1.241   0.860   4.227
 2408TIP3    H2 7189   1.371   0.938   4.221
 2409TIP3   OH2 7190   6.604   6.691  -0.018
 2409TIP3    H1 7191   6.562   6.671   0.065
 2409TIP3    H2 7192   6.681   6.742   0.006
 2410TIP3   OH2 7193   5.697   1.545   4.674
 2410TIP3    H1 7194   5.781   1.506   4.648
 2410TIP3    H2 7195   5.701   1.548   4.770
 2411TIP3   OH2 7196   3.177   3.983   5.382
 2411TIP3    H1 7197   3.240   3.994   5.453
 2411TIP3    H2 7198   3.161   3.888   5.379
 2412TIP3   OH2 7199   4.961   4.138   3.392
 2412TIP3    H1 7200   5.014   4.140   3.473
 2412TIP3    H2 7201   4.987   4.057   3.349
 2413TIP3   OH2 7202   6.768   3.610   4.876
 2413TIP3    H1 7203   6.788   3.544   4.942
 2413TIP3    H2 7204   6.846   3.666   4.874
 2414TIP3   OH2 7205   2.828   3.363   5.316
 2414TIP3    H1 7206   2.759   3.423   5.287
 2414TIP3    H2 7207   2.838   3.380   5.409
 2415TIP3   OH2 7208   6.519   2.711   3.621
 2415TIP3    H1 7209   6.570   2.719   3.702
 2415TIP3    H2 7210   6.562   2.640   3.573
 2416TIP3   OH2 7211   3.633   4.764   1.583
 2416TIP3    H1 7212   3.547   4.805   1.574
 2416TIP3    H2 7213   3.629   4.688   1.525
 2417TIP3   OH2 7214   0.903   4.305   5.226
 2417TIP3    H1 7215   0.917   4.323   5.319
 2417TIP3    H2 7216   0.967   4.361   5.181
 2418TIP3   OH2 7217   5.347   5.636   0.203
 2418TIP3    H1 7218   5.426   5.640   0.149
 2418TIP3    H2 7219   5.378   5.603   0.287
 2419TIP3   OH2 7220   6.729   5.303   0.436
 2419TIP3    H1 7221   6.662   5.249   0.479
 2419TIP3    H2 7222   6.707   5.393   0.460
 2420TIP3   OH2 7223   4.541   5.920   2.888
 2420TIP3    H1 7224   4.558   6.011   2.910
 2420TIP3    H2 7225   4.619   5.892   2.841
 2421TIP3   OH2 7226   0.371   4.849   5.830
 2421TIP3    H1 7227   0.319   4.912   5.781
 2421TIP3    H2 7228   0.360   4.767   5.782
 2422TIP3   OH2 7229   2.087   5.815   3.557
 2422TIP3    H1 7230   2.122   5.804   3.468
 2422TIP3    H2 7231   2.044   5.732   3.577
 2423TIP3   OH2 7232   6.573   5.713   3.919
 2423TIP3    H1 7233   6.665   5.695   3.901
 2423TIP3    H2 7234   6.570   5.735   4.012
 2424TIP3   OH2 7235   5.419   6.304   3.311
 2424TIP3    H1 7236   5.490   6.318   3.248
 2424TIP3    H2 7237   5.447   6.352   3.389
 2425TIP3   OH2 7238   4.204   2.243   4.357
 2425TIP3    H1 7239   4.262   2.214   4.428
 2425TIP3    H2 7240   4.240   2.327   4.330
 2426TIP3   OH2 7241   1.207   1.456   4.648
 2426TIP3    H1 7242   1.170   1.519   4.709
 2426TIP3    H2 7243   1.229   1.380   4.702
 2427TIP3   OH2 7244   2.843   5.102   3.414
 2427TIP3    H1 7245   2.924   5.053   3.429
 2427TIP3    H2 7246   2.825   5.091   3.320
 2428TIP3   OH2 7247   0.372   4.322   2.312
 2428TIP3    H1 7248   0.319   4.384   2.361
 2428TIP3    H2 7249   0.428   4.376   2.256
 2429TIP3   OH2 7250   5.233   1.171   5.516
 2429TIP3    H1 7251   5.274   1.220   5.587
 2429TIP3    H2 7252   5.306   1.144   5.460
 2430TIP3   OH2 7253   3.955   1.549   4.017
 2430TIP3    H1 7254   3.904   1.471   3.995
 2430TIP3    H2 7255   3.981   1.534   4.108
 2431TIP3   OH2 7256   7.148   4.410   3.904
 2431TIP3    H1 7257   7.138   4.364   3.988
 2431TIP3    H2 7258   7.194   4.491   3.927
 2432TIP3   OH2 7259   1.437   0.839   3.932
 2432TIP3    H1 7260   1.412   0.886   4.011
 2432TIP3    H2 7261   1.531   0.823   3.943
 2433TIP3   OH2 7262   5.128   1.512   2.992
 2433TIP3    H1 7263   5.222   1.492   2.998
 2433TIP3    H2 7264   5.100   1.468   2.911
 2434TIP3   OH2 7265   3.005   5.729   1.360
 2434TIP3    H1 7266   2.911   5.737   1.342
 2434TIP3    H2 7267   3.037   5.819   1.361
 2435TIP3   OH2 7268   1.492   1.700   1.955
 2435TIP3    H1 7269   1.477   1.716   2.048
 2435TIP3    H2 7270   1.415   1.650   1.927
 2436TIP3   OH2 7271   2.372   5.164  -0.002
 2436TIP3    H1 7272   2.441   5.225  -0.028
 2436TIP3    H2 7273   2.382   5.156   0.093
 2437TIP3   OH2 7274   3.166   0.813   3.842
 2437TIP3    H1 7275   3.098   0.787   3.780
 2437TIP3    H2 7276   3.225   0.869   3.792
 2438TIP3   OH2 7277   5.525   0.228   2.589
 2438TIP3    H1 7278   5.458   0.194   2.648
 2438TIP3    H2 7279   5.478   0.288   2.531
 2439TIP3   OH2 7280   1.709   3.592   4.395
 2439TIP3    H1 7281   1.624   3.585   4.353
 2439TIP3    H2 7282   1.712   3.518   4.456
 2440TIP3   OH2 7283   0.852   5.268   0.318
 2440TIP3    H1 7284   0.871   5.225   0.401
 2440TIP3    H2 7285   0.928   5.323   0.302
 2441TIP3   OH2 7286   1.257   4.597   3.570
 2441TIP3    H1 7287   1.265   4.686   3.534
 2441TIP3    H2 7288   1.216   4.609   3.656
 2442TIP3   OH2 7289   2.237   5.732   1.682
 2442TIP3    H1 7290   2.182   5.661   1.647
 2442TIP3    H2 7291   2.261   5.784   1.605
 2443TIP3   OH2 7292   0.657   4.366   4.053
 2443TIP3    H1 7293   0.668   4.406   4.140
 2443TIP3    H2 7294   0.704   4.283   4.059
 2444TIP3   OH2 7295   6.743   0.670   5.711
 2444TIP3    H1 7296   6.787   0.719   5.641
 2444TIP3    H2 7297   6.651   0.668   5.685
 2445TIP3   OH2 7298   7.052   3.977   5.083
 2445TIP3    H1 7299   7.040   4.071   5.093
 2445TIP3    H2 7300   7.124   3.956   5.142
 2446TIP3   OH2 7301   2.797   6.741   2.837
 2446TIP3    H1 7302   2.735   6.674   2.809
 2446TIP3    H2 7303   2.763   6.772   2.921
 2447TIP3   OH2 7304   5.710   6.037   0.865
 2447TIP3    H1 7305   5.736   6.063   0.776
 2447TIP3    H2 7306   5.735   5.945   0.872
 2448TIP3   OH2 7307   6.122   4.309   4.440
 2448TIP3    H1 7308   6.205   4.268   4.417
 2448TIP3    H2 7309   6.065   4.290   4.366
 2449TIP3   OH2 7310   1.903   5.929   2.348
 2449TIP3    H1 7311   1.868   5.915   2.260
 2449TIP3    H2 7312   1.938   5.844   2.374
 2450TIP3   OH2 7313   3.950   6.214   2.879
 2450TIP3    H1 7314   4.000   6.183   2.803
 2450TIP3    H2 7315   3.866   6.240   2.843
 2451TIP3   OH2 7316   0.619   4.304   3.696
 2451TIP3    H1 7317   0.561   4.334   3.765
 2451TIP3    H2 7318   0.563   4.255   3.636
 2452TIP3   OH2 7319   5.354   2.852   2.709
 2452TIP3    H1 7320   5.442   2.832   2.740
 2452TIP3    H2 7321   5.296   2.827   2.781
 2453TIP3   OH2 7322   7.158   1.811   4.107
 2453TIP3    H1 7323   7.152   1.757   4.186
 2453TIP3    H2 7324   7.167   1.900   4.140
 2454TIP3   OH2 7325   0.895   6.707   5.573
 2454TIP3    H1 7326   0.866   6.631   5.623
 2454TIP3    H2 7327   0.814   6.745   5.538
 2455TIP3   OH2 7328   4.252   5.281   5.594
 2455TIP3    H1 7329   4.220   5.369   5.574
 2455TIP3    H2 7330   4.220   5.227   5.521
 2456TIP3   OH2 7331   0.134   4.722   3.160
 2456TIP3    H1 7332   0.132   4.756   3.070
 2456TIP3    H2 7333   0.112   4.629   3.151
 2457TIP3   OH2 7334   2.695  -0.025   4.370
 2457TIP3    H1 7335   2.689  -0.050   4.278
 2457TIP3    H2 7336   2.710   0.069   4.369
 2458TIP3   OH2 7337   7.052   3.539   0.981
 2458TIP3    H1 7338   6.966   3.542   0.940
 2458TIP3    H2 7339   7.085   3.629   0.974
 2459TIP3   OH2 7340   4.898   0.700   4.209
 2459TIP3    H1 7341   4.901   0.633   4.141
 2459TIP3    H2 7342   4.861   0.777   4.166
 2460TIP3   OH2 7343   4.696   3.697   5.386
 2460TIP3    H1 7344   4.616   3.649   5.365
 2460TIP3    H2 7345   4.754   3.680   5.312
 2461TIP3   OH2 7346   2.808   0.881   3.206
 2461TIP3    H1 7347   2.717   0.854   3.191
 2461TIP3    H2 7348   2.827   0.856   3.296
 2462TIP3   OH2 7349   1.386   2.921   4.543
 2462TIP3    H1 7350   1.355   2.931   4.632
 2462TIP3    H2 7351   1.308   2.932   4.488
 2463TIP3   OH2 7352   1.967   2.160   1.723
 2463TIP3    H1 7353   1.976   2.188   1.632
 2463TIP3    H2 7354   1.907   2.224   1.762
 2464TIP3   OH2 7355   3.800   6.561   3.958
 2464TIP3    H1 7356   3.762   6.484   4.000
 2464TIP3    H2 7357   3.754   6.635   3.998
 2465TIP3   OH2 7358   3.159   0.136   2.909
 2465TIP3    H1 7359   3.214   0.073   2.956
 2465TIP3    H2 7360   3.160   0.214   2.965
 2466TIP3   OH2 7361   0.531   1.885   1.868
 2466TIP3    H1 7362   0.596   1.954   1.864
 2466TIP3    H2 7363   0.469   1.914   1.936
 2467TIP3   OH2 7364   2.260   3.524   3.028
 2467TIP3    H1 7365   2.237   3.456   2.964
 2467TIP3    H2 7366   2.341   3.562   2.993
 2468TIP3   OH2 7367   3.423   3.337   0.804
 2468TIP3    H1 7368   3.453   3.251   0.775
 2468TIP3    H2 7369   3.478   3.356   0.881
 2469TIP3   OH2 7370   4.404   3.042   4.358
 2469TIP3    H1 7371   4.393   3.137   4.359
 2469TIP3    H2 7372   4.355   3.012   4.282
 2470TIP3   OH2 7373   5.764   3.573   1.121
 2470TIP3    H1 7374   5.754   3.569   1.025
 2470TIP3    H2 7375   5.778   3.665   1.140
 2471TIP3   OH2 7376   5.847   4.155   3.655
 2471TIP3    H1 7377   5.820   4.219   3.589
 2471TIP3    H2 7378   5.804   4.184   3.735
 2472TIP3   OH2 7379   6.562   0.075   5.625
 2472TIP3    H1 7380   6.514   0.154   5.648
 2472TIP3    H2 7381   6.496   0.017   5.587
 2473TIP3   OH2 7382   4.568   3.289   4.847
 2473TIP3    H1 7383   4.612   3.283   4.932
 2473TIP3    H2 7384   4.488   3.238   4.859
 2474TIP3   OH2 7385   2.855   2.364   5.419
 2474TIP3    H1 7386   2.898   2.286   5.383
 2474TIP3    H2 7387   2.899   2.438   5.376
 2475TIP3   OH2 7388   5.392   2.623   3.757
 2475TIP3    H1 7389   5.374   2.622   3.663
 2475TIP3    H2 7390   5.313   2.660   3.797
 2476TIP3   OH2 7391   2.394   3.181   5.470
 2476TIP3    H1 7392   2.339   3.259   5.462
 2476TIP3    H2 7393   2.451   3.183   5.393
 2477TIP3   OH2 7394   4.058   6.850   5.324
 2477TIP3    H1 7395   4.069   6.758   5.299
 2477TIP3    H2 7396   4.143   6.890   5.305
 2478TIP3   OH2 7397   2.741   0.778   0.437
 2478TIP3    H1 7398   2.807   0.847   0.441
 2478TIP3    H2 7399   2.675   0.804   0.501
 2479TIP3   OH2 7400   1.178   2.041   0.359
 2479TIP3    H1 7401   1.115   1.977   0.392
 2479TIP3    H2 7402   1.160   2.046   0.265
 2480TIP3   OH2 7403   4.365   5.930   5.598
 2480TIP3    H1 7404   4.419   5.949   5.522
 2480TIP3    H2 7405   4.416   5.866   5.648
 2481TIP3   OH2 7406   6.060   1.466   3.746
 2481TIP3    H1 7407   6.052   1.379   3.707
 2481TIP3    H2 7408   5.984   1.514   3.713
 2482TIP3   OH2 7409   6.481   1.425   3.808
 2482TIP3    H1 7410   6.553   1.484   3.788
 2482TIP3    H2 7411   6.463   1.380   3.726
 2483TIP3   OH2 7412   5.131   1.736   0.240
 2483TIP3    H1 7413   5.221   1.767   0.249
 2483TIP3    H2 7414   5.137   1.641   0.253
 2484TIP3   OH2 7415   1.826   4.526   3.497
 2484TIP3    H1 7416   1.769   4.495   3.427
 2484TIP3    H2 7417   1.886   4.452   3.513
 2485TIP3   OH2 7418   3.780   6.725   1.472
 2485TIP3    H1 7419   3.813   6.698   1.386
 2485TIP3    H2 7420   3.771   6.820   1.465
 2486TIP3   OH2 7421   4.308   0.047   2.218
 2486TIP3    H1 7422   4.294   0.002   2.301
 2486TIP3    H2 7423   4.221   0.056   2.180
 2487TIP3   OH2 7424   0.797   3.202   2.706
 2487TIP3    H1 7425   0.780   3.155   2.625
 2487TIP3    H2 7426   0.728   3.268   2.712
 2488TIP3   OH2 7427   5.553   4.968   4.509
 2488TIP3    H1 7428   5.502   4.972   4.428
 2488TIP3    H2 7429   5.518   5.040   4.563
 2489TIP3   OH2 7430   6.039   6.349   1.851
 2489TIP3    H1 7431   5.982   6.272   1.841
 2489TIP3    H2 7432   6.087   6.332   1.933
 2490TIP3   OH2 7433   6.543   4.274   4.702
 2490TIP3    H1 7434   6.574   4.299   4.615
 2490TIP3    H2 7435   6.525   4.357   4.746
 2491TIP3   OH2 7436   4.722   5.442   0.774
 2491TIP3    H1 7437   4.789   5.438   0.706
 2491TIP3    H2 7438   4.744   5.372   0.834
 2492TIP3   OH2 7439   5.122   6.175   1.602
 2492TIP3    H1 7440   5.028   6.181   1.618
 2492TIP3    H2 7441   5.147   6.262   1.572
 2493TIP3   OH2 7442   6.365   0.014   0.590
 2493TIP3    H1 7443   6.320  -0.070   0.591
 2493TIP3    H2 7444   6.406   0.020   0.676
 2494TIP3   OH2 7445   4.531   1.384   1.924
 2494TIP3    H1 7446   4.520   1.292   1.901
 2494TIP3    H2 7447   4.464   1.430   1.872
 2495TIP3   OH2 7448   0.534   3.295   0.270
 2495TIP3    H1 7449   0.566   3.380   0.299
 2495TIP3    H2 7450   0.517   3.247   0.351
 2496TIP3   OH2 7451   5.932   4.368   1.035
 2496TIP3    H1 7452   5.897   4.402   1.117
 2496TIP3    H2 7453   5.855   4.339   0.986
 2497TIP3   OH2 7454   7.040   6.312   2.603
 2497TIP3    H1 7455   6.972   6.331   2.668
 2497TIP3    H2 7456   7.052   6.394   2.556
 2498TIP3   OH2 7457   5.654   4.956   5.465
 2498TIP3    H1 7458   5.737   4.989   5.430
 2498TIP3    H2 7459   5.674   4.869   5.497
 2499TIP3   OH2 7460   0.450   0.128   2.777
 2499TIP3    H1 7461   0.442   0.224   2.778
 2499TIP3    H2 7462   0.527   0.112   2.722
 2500TIP3   OH2 7463   5.654   0.797   2.357
 2500TIP3    H1 7464   5.575   0.746   2.368
 2500TIP3    H2 7465   5.649   0.831   2.267
 2501TIP3   OH2 7466   0.476   5.079   5.482
 2501TIP3    H1 7467   0.533   5.040   5.416
 2501TIP3    H2 7468   0.433   5.152   5.437
 2502TIP3   OH2 7469   2.054   6.794   0.872
 2502TIP3    H1 7470   2.064   6.888   0.856
 2502TIP3    H2 7471   2.024   6.789   0.963
 2503TIP3   OH2 7472   2.997   3.137   1.114
 2503TIP3    H1 7473   2.906   3.158   1.096
 2503TIP3    H2 7474   3.005   3.044   1.090
 2504TIP3   OH2 7475   6.374   5.631   5.411
 2504TIP3    H1 7476   6.417   5.701   5.362
 2504TIP3    H2 7477   6.441   5.562   5.417
 2505TIP3   OH2 7478   6.444   4.040   3.456
 2505TIP3    H1 7479   6.491   4.048   3.538
 2505TIP3    H2 7480   6.435   4.131   3.424
 2506TIP3   OH2 7481   4.519   2.783   4.000
 2506TIP3    H1 7482   4.515   2.830   3.916
 2506TIP3    H2 7483   4.445   2.818   4.050
 2507TIP3   OH2 7484   4.380   2.339   0.459
 2507TIP3    H1 7485   4.334   2.360   0.541
 2507TIP3    H2 7486   4.312   2.308   0.401
 2508TIP3   OH2 7487   0.081   4.322   1.087
 2508TIP3    H1 7488   0.175   4.325   1.070
 2508TIP3    H2 7489   0.070   4.251   1.151
 2509TIP3   OH2 7490   4.663   4.974   4.602
 2509TIP3    H1 7491   4.734   4.919   4.569
 2509TIP3    H2 7492   4.622   5.011   4.524
 2510TIP3   OH2 7493   1.333   0.376   3.845
 2510TIP3    H1 7494   1.342   0.366   3.940
 2510TIP3    H2 7495   1.344   0.287   3.811
 2511TIP3   OH2 7496   2.945   4.838   2.522
 2511TIP3    H1 7497   2.966   4.745   2.529
 2511TIP3    H2 7498   2.930   4.852   2.428
 2512TIP3   OH2 7499   4.176   2.467   2.388
 2512TIP3    H1 7500   4.214   2.382   2.365
 2512TIP3    H2 7501   4.086   2.446   2.415
 2513TIP3   OH2 7502   1.725   0.543   3.986
 2513TIP3    H1 7503   1.819   0.529   3.993
 2513TIP3    H2 7504   1.716   0.638   3.973
 2514TIP3   OH2 7505   5.248   0.889   0.805
 2514TIP3    H1 7506   5.315   0.895   0.874
 2514TIP3    H2 7507   5.166   0.883   0.853
 2515TIP3   OH2 7508   0.208   0.453   4.382
 2515TIP3    H1 7509   0.262   0.379   4.410
 2515TIP3    H2 7510   0.120   0.416   4.375
 2516TIP3   OH2 7511   3.336   5.751   3.839
 2516TIP3    H1 7512   3.379   5.824   3.795
 2516TIP3    H2 7513   3.375   5.673   3.800
 2517TIP3   OH2 7514   3.784   1.338   3.919
 2517TIP3    H1 7515   3.742   1.263   3.876
 2517TIP3    H2 7516   3.828   1.384   3.848
 2518TIP3   OH2 7517   6.467   2.384   5.351
 2518TIP3    H1 7518   6.540   2.406   5.409
 2518TIP3    H2 7519   6.427   2.468   5.329
 2519TIP3   OH2 7520   5.203   2.552   3.225
 2519TIP3    H1 7521   5.136   2.619   3.228
 2519TIP3    H2 7522   5.187   2.504   3.144
 2520TIP3   OH2 7523   6.606   0.235   2.219
 2520TIP3    H1 7524   6.615   0.188   2.301
 2520TIP3    H2 7525   6.630   0.326   2.240
 2521TIP3   OH2 7526   2.700   3.938   3.515
 2521TIP3    H1 7527   2.794   3.946   3.500
 2521TIP3    H2 7528   2.669   4.028   3.522
 2522TIP3   OH2 7529   5.947   6.581   5.048
 2522TIP3    H1 7530   5.962   6.599   4.955
 2522TIP3    H2 7531   5.871   6.523   5.049
 2523TIP3   OH2 7532   4.434   6.145   5.166
 2523TIP3    H1 7533   4.504   6.210   5.162
 2523TIP3    H2 7534   4.415   6.135   5.259
 2524TIP3   OH2 7535   4.772   3.200   1.762
 2524TIP3    H1 7536   4.687   3.227   1.797
 2524TIP3    H2 7537   4.784   3.255   1.684
 2525TIP3   OH2 7538   2.453   3.303   5.792
 2525TIP3    H1 7539   2.512   3.288   5.718
 2525TIP3    H2 7540   2.431   3.215   5.823
 2526TIP3   OH2 7541   1.626   2.919   4.709
 2526TIP3    H1 7542   1.546   2.916   4.657
 2526TIP3    H2 7543   1.691   2.873   4.657
 2527TIP3   OH2 7544   1.854   5.064   5.773
 2527TIP3    H1 7545   1.832   5.149   5.812
 2527TIP3    H2 7546   1.902   5.017   5.841
 2528TIP3   OH2 7547   0.117   4.449   2.408
 2528TIP3    H1 7548   0.132   4.363   2.370
 2528TIP3    H2 7549   0.049   4.434   2.475
 2529TIP3   OH2 7550   2.905   6.192   3.120
 2529TIP3    H1 7551   2.860   6.173   3.038
 2529TIP3    H2 7552   2.906   6.288   3.126
 2530TIP3   OH2 7553   6.358   3.781   4.500
 2530TIP3    H1 7554   6.318   3.746   4.579
 2530TIP3    H2 7555   6.423   3.716   4.474
 2531TIP3   OH2 7556   5.078   2.525   0.757
 2531TIP3    H1 7557   4.987   2.544   0.736
 2531TIP3    H2 7558   5.094   2.438   0.721
 2532TIP3   OH2 7559   6.738   5.123   4.821
 2532TIP3    H1 7560   6.826   5.158   4.839
 2532TIP3    H2 7561   6.735   5.114   4.726
 2533TIP3   OH2 7562   5.735   6.366   5.019
 2533TIP3    H1 7563   5.717   6.291   4.962
 2533TIP3    H2 7564   5.650   6.408   5.030
 2534TIP3   OH2 7565   5.766   4.349   3.205
 2534TIP3    H1 7566   5.787   4.294   3.280
 2534TIP3    H2 7567   5.808   4.433   3.224
 2535TIP3   OH2 7568   4.370   5.263   2.333
 2535TIP3    H1 7569   4.390   5.171   2.348
 2535TIP3    H2 7570   4.427   5.289   2.261
 2536TIP3   OH2 7571   1.703   4.691   3.793
 2536TIP3    H1 7572   1.671   4.615   3.745
 2536TIP3    H2 7573   1.717   4.758   3.726
 2537TIP3   OH2 7574   3.853   2.159   3.520
 2537TIP3    H1 7575   3.909   2.089   3.485
 2537TIP3    H2 7576   3.908   2.202   3.585
 2538TIP3   OH2 7577   3.151   6.441   4.763
 2538TIP3    H1 7578   3.239   6.456   4.796
 2538TIP3    H2 7579   3.109   6.527   4.768
 2539TIP3   OH2 7580   1.524   4.293   4.343
 2539TIP3    H1 7581   1.532   4.363   4.278
 2539TIP3    H2 7582   1.614   4.271   4.366
 2540TIP3   OH2 7583   1.050   3.479   3.674
 2540TIP3    H1 7584   1.103   3.538   3.621
 2540TIP3    H2 7585   1.081   3.392   3.651
 2541TIP3   OH2 7586   2.508   2.462   2.325
 2541TIP3    H1 7587   2.458   2.474   2.245
 2541TIP3    H2 7588   2.574   2.396   2.303
 2542TIP3   OH2 7589   2.807   1.805   1.724
 2542TIP3    H1 7590   2.833   1.719   1.689
 2542TIP3    H2 7591   2.728   1.786   1.776
 2543TIP3   OH2 7592   1.230   3.869   1.510
 2543TIP3    H1 7593   1.238   3.814   1.588
 2543TIP3    H2 7594   1.216   3.807   1.438
 2544TIP3   OH2 7595   2.876   2.050   5.013
 2544TIP3    H1 7596   2.958   2.081   5.053
 2544TIP3    H2 7597   2.885   1.955   5.012
 2545TIP3   OH2 7598   1.818   4.640   0.829
 2545TIP3    H1 7599   1.723   4.635   0.816
 2545TIP3    H2 7600   1.834   4.731   0.852
 2546TIP3   OH2 7601   1.174   0.932   2.753
 2546TIP3    H1 7602   1.214   0.975   2.829
 2546TIP3    H2 7603   1.132   0.854   2.790
 2547TIP3   OH2 7604   3.984   3.396   2.102
 2547TIP3    H1 7605   4.032   3.330   2.051
 2547TIP3    H2 7606   3.893   3.383   2.077
 2548TIP3   OH2 7607   2.523   3.689   5.748
 2548TIP3    H1 7608   2.454   3.646   5.697
 2548TIP3    H2 7609   2.498   3.676   5.839
 2549TIP3   OH2 7610   0.823   0.189   0.207
 2549TIP3    H1 7611   0.788   0.114   0.255
 2549TIP3    H2 7612   0.845   0.154   0.120
 2550TIP3   OH2 7613  -0.012   4.506   2.770
 2550TIP3    H1 7614  -0.032   4.442   2.701
 2550TIP3    H2 7615   0.070   4.475   2.808
 2551TIP3   OH2 7616   3.616   2.355   4.618
 2551TIP3    H1 7617   3.591   2.448   4.621
 2551TIP3    H2 7618   3.648   2.342   4.528
 2552TIP3   OH2 7619   2.688   0.425   5.172
 2552TIP3    H1 7620   2.758   0.425   5.237
 2552TIP3    H2 7621   2.728   0.461   5.093
 2553TIP3   OH2 7622   3.430   2.023   2.098
 2553TIP3    H1 7623   3.439   1.942   2.148
 2553TIP3    H2 7624   3.450   2.093   2.160
 2554TIP3   OH2 7625   5.704   4.559   0.039
 2554TIP3    H1 7626   5.658   4.476   0.055
 2554TIP3    H2 7627   5.735   4.586   0.126
 2555TIP3   OH2 7628   4.726   2.108   4.310
 2555TIP3    H1 7629   4.665   2.125   4.239
 2555TIP3    H2 7630   4.671   2.094   4.387
 2556TIP3   OH2 7631   0.288   2.928   0.377
 2556TIP3    H1 7632   0.296   2.978   0.296
 2556TIP3    H2 7633   0.280   2.995   0.445
 2557TIP3   OH2 7634   4.539   4.896   5.298
 2557TIP3    H1 7635   4.486   4.915   5.220
 2557TIP3    H2 7636   4.542   4.800   5.302
 2558TIP3   OH2 7637   1.865   3.417   0.482
 2558TIP3    H1 7638   1.961   3.424   0.480
 2558TIP3    H2 7639   1.843   3.372   0.400
 2559TIP3   OH2 7640   1.052   0.110   5.049
 2559TIP3    H1 7641   0.988   0.082   4.984
 2559TIP3    H2 7642   1.014   0.083   5.133
 2560TIP3   OH2 7643   3.721   0.235   3.020
 2560TIP3    H1 7644   3.806   0.279   3.028
 2560TIP3    H2 7645   3.664   0.300   2.978
 2561TIP3   OH2 7646   4.750   5.697   1.274
 2561TIP3    H1 7647   4.792   5.754   1.339
 2561TIP3    H2 7648   4.685   5.648   1.324
 2562TIP3   OH2 7649   1.199   2.317   4.101
 2562TIP3    H1 7650   1.168   2.343   4.188
 2562TIP3    H2 7651   1.245   2.394   4.068
 2563TIP3   OH2 7652   1.926   1.608   0.164
 2563TIP3    H1 7653   1.979   1.565   0.096
 2563TIP3    H2 7654   1.989   1.661   0.213
 2564TIP3   OH2 7655   3.897   0.856   1.735
 2564TIP3    H1 7656   3.913   0.817   1.821
 2564TIP3    H2 7657   3.805   0.835   1.716
 2565TIP3   OH2 7658   3.525   6.633   1.668
 2565TIP3    H1 7659   3.453   6.629   1.605
 2565TIP3    H2 7660   3.483   6.635   1.753
 2566TIP3   OH2 7661   7.144   1.154   0.495
 2566TIP3    H1 7662   7.183   1.105   0.567
 2566TIP3    H2 7663   7.211   1.218   0.470
 2567TIP3   OH2 7664   6.658   3.592   4.171
 2567TIP3    H1 7665   6.724   3.628   4.112
 2567TIP3    H2 7666   6.683   3.624   4.258
 2568TIP3   OH2 7667   0.949   0.230   0.556
 2568TIP3    H1 7668   1.009   0.179   0.610
 2568TIP3    H2 7669   1.007   0.285   0.503
 2569TIP3   OH2 7670   0.994   3.331   1.269
 2569TIP3    H1 7671   0.946   3.395   1.320
 2569TIP3    H2 7672   1.079   3.324   1.313
 2570TIP3   OH2 7673   6.089   1.942   2.654
 2570TIP3    H1 7674   6.086   2.038   2.652
 2570TIP3    H2 7675   6.047   1.919   2.737
 2571TIP3   OH2 7676   1.488   0.504   4.127
 2571TIP3    H1 7677   1.555   0.541   4.069
 2571TIP3    H2 7678   1.414   0.563   4.119
 2572TIP3   OH2 7679   4.432   4.341   2.786
 2572TIP3    H1 7680   4.356   4.296   2.751
 2572TIP3    H2 7681   4.411   4.434   2.777
 2573TIP3   OH2 7682   0.916   1.634   5.048
 2573TIP3    H1 7683   0.870   1.551   5.030
 2573TIP3    H2 7684   0.847   1.700   5.049
 2574TIP3   OH2 7685   1.368   2.502   3.936
 2574TIP3    H1 7686   1.314   2.579   3.955
 2574TIP3    H2 7687   1.335   2.470   3.852
 2575TIP3   OH2 7688   1.702   6.160   5.859
 2575TIP3    H1 7689   1.676   6.125   5.944
 2575TIP3    H2 7690   1.632   6.222   5.836
 2576TIP3   OH2 7691   5.905   0.789   4.875
 2576TIP3    H1 7692   5.973   0.738   4.919
 2576TIP3    H2 7693   5.829   0.780   4.932
 2577TIP3   OH2 7694   2.077   5.759   2.851
 2577TIP3    H1 7695   2.172   5.748   2.851
 2577TIP3    H2 7696   2.053   5.762   2.944
 2578TIP3   OH2 7697   1.737   5.921   4.825
 2578TIP3    H1 7698   1.777   6.006   4.845
 2578TIP3    H2 7699   1.665   5.943   4.766
 2579TIP3   OH2 7700   2.599   3.639   3.206
 2579TIP3    H1 7701   2.610   3.734   3.199
 2579TIP3    H2 7702   2.564   3.613   3.121
 2580TIP3   OH2 7703   2.165   6.318   5.442
 2580TIP3    H1 7704   2.133   6.397   5.398
 2580TIP3    H2 7705   2.105   6.305   5.515
 2581TIP3   OH2 7706   1.933   0.803   5.041
 2581TIP3    H1 7707   1.989   0.786   4.966
 2581TIP3    H2 7708   1.877   0.726   5.048
 2582TIP3   OH2 7709   4.334   4.333   5.293
 2582TIP3    H1 7710   4.299   4.420   5.278
 2582TIP3    H2 7711   4.424   4.348   5.321
 2583TIP3   OH2 7712   1.401   5.434   0.072
 2583TIP3    H1 7713   1.407   5.394   0.159
 2583TIP3    H2 7714   1.308   5.456   0.063
 2584TIP3   OH2 7715   3.330   6.188   2.230
 2584TIP3    H1 7716   3.279   6.269   2.230
 2584TIP3    H2 7717   3.277   6.126   2.280
 2585TIP3   OH2 7718   5.316   0.430   3.945
 2585TIP3    H1 7719   5.250   0.499   3.935
 2585TIP3    H2 7720   5.395   0.466   3.907
 2586TIP3   OH2 7721   5.704   4.288   0.852
 2586TIP3    H1 7722   5.626   4.244   0.886
 2586TIP3    H2 7723   5.670   4.359   0.796
 2587TIP3   OH2 7724   4.059   2.263   4.105
 2587TIP3    H1 7725   4.128   2.325   4.081
 2587TIP3    H2 7726   4.087   2.225   4.188
 2588TIP3   OH2 7727   0.942   1.464   5.602
 2588TIP3    H1 7728   0.968   1.372   5.612
 2588TIP3    H2 7729   0.921   1.492   5.691
 2589TIP3   OH2 7730   4.493   2.017   1.872
 2589TIP3    H1 7731   4.537   2.032   1.956
 2589TIP3    H2 7732   4.556   1.965   1.821
 2590TIP3   OH2 7733   7.117   0.620   5.099
 2590TIP3    H1 7734   7.112   0.549   5.163
 2590TIP3    H2 7735   7.095   0.699   5.149
 2591TIP3   OH2 7736   7.066   1.099   4.564
 2591TIP3    H1 7737   7.006   1.087   4.491
 2591TIP3    H2 7738   7.110   1.014   4.574
 2592TIP3   OH2 7739   5.806   4.528   4.276
 2592TIP3    H1 7740   5.827   4.575   4.196
 2592TIP3    H2 7741   5.710   4.524   4.278
 2593TIP3   OH2 7742   2.511   6.352   5.295
 2593TIP3    H1 7743   2.603   6.351   5.320
 2593TIP3    H2 7744   2.474   6.272   5.334
 2594TIP3   OH2 7745   0.206   4.980   0.697
 2594TIP3    H1 7746   0.185   4.941   0.612
 2594TIP3    H2 7747   0.184   5.073   0.686
 2595TIP3   OH2 7748   2.059   4.980   4.330
 2595TIP3    H1 7749   2.066   4.907   4.268
 2595TIP3    H2 7750   2.030   5.054   4.276
 2596TIP3   OH2 7751   3.232   2.656   4.720
 2596TIP3    H1 7752   3.199   2.576   4.680
 2596TIP3    H2 7753   3.294   2.626   4.787
 2597TIP3   OH2 7754   4.122   2.118   3.881
 2597TIP3    H1 7755   4.094   2.028   3.894
 2597TIP3    H2 7756   4.078   2.167   3.950
 2598TIP3   OH2 7757   2.262   2.039   5.728
 2598TIP3    H1 7758   2.283   1.950   5.697
 2598TIP3    H2 7759   2.317   2.096   5.675
 2599TIP3   OH2 7760   5.124   2.769   0.847
 2599TIP3    H1 7761   5.124   2.681   0.810
 2599TIP3    H2 7762   5.133   2.827   0.772
 2600TIP3   OH2 7763   4.596   3.724   2.944
 2600TIP3    H1 7764   4.596   3.712   2.849
 2600TIP3    H2 7765   4.515   3.770   2.963
 2601TIP3   OH2 7766   5.590   0.163   1.924
 2601TIP3    H1 7767   5.544   0.245   1.907
 2601TIP3    H2 7768   5.591   0.117   1.840
 2602TIP3   OH2 7769   1.715   1.638   2.932
 2602TIP3    H1 7770   1.749   1.617   2.845
 2602TIP3    H2 7771   1.635   1.586   2.939
 2603TIP3   OH2 7772   3.257   3.926   0.225
 2603TIP3    H1 7773   3.223   3.907   0.313
 2603TIP3    H2 7774   3.338   3.875   0.219
 2604TIP3   OH2 7775   5.444   6.023   2.845
 2604TIP3    H1 7776   5.499   6.043   2.769
 2604TIP3    H2 7777   5.355   6.045   2.817
 2605TIP3   OH2 7778   5.826   5.377   3.262
 2605TIP3    H1 7779   5.825   5.423   3.178
 2605TIP3    H2 7780   5.855   5.443   3.325
 2606TIP3   OH2 7781   5.291   6.049   0.708
 2606TIP3    H1 7782   5.382   6.053   0.678
 2606TIP3    H2 7783   5.255   5.970   0.667
 2607TIP3   OH2 7784   7.119   2.530   0.252
 2607TIP3    H1 7785   7.164   2.605   0.290
 2607TIP3    H2 7786   7.031   2.562   0.232
 2608TIP3   OH2 7787   1.250   3.500   2.413
 2608TIP3    H1 7788   1.190   3.427   2.430
 2608TIP3    H2 7789   1.276   3.490   2.322
 2609TIP3   OH2 7790   1.999   4.969   3.692
 2609TIP3    H1 7791   1.996   4.879   3.659
 2609TIP3    H2 7792   2.075   5.008   3.649
 2610TIP3   OH2 7793   4.581   2.821   4.956
 2610TIP3    H1 7794   4.490   2.846   4.943
 2610TIP3    H2 7795   4.580   2.765   5.034
 2611TIP3   OH2 7796   5.583   4.340   5.372
 2611TIP3    H1 7797   5.678   4.338   5.383
 2611TIP3    H2 7798   5.567   4.296   5.289
 2612TIP3   OH2 7799   0.907   2.485   1.453
 2612TIP3    H1 7800   0.983   2.527   1.493
 2612TIP3    H2 7801   0.854   2.454   1.526
 2613TIP3   OH2 7802   4.717   0.498   0.498
 2613TIP3    H1 7803   4.661   0.423   0.476
 2613TIP3    H2 7804   4.656   0.562   0.537
 2614TIP3   OH2 7805   2.239   0.191   3.022
 2614TIP3    H1 7806   2.331   0.202   3.046
 2614TIP3    H2 7807   2.228   0.096   3.011
 2615TIP3   OH2 7808   5.464   1.935   1.247
 2615TIP3    H1 7809   5.488   2.016   1.202
 2615TIP3    H2 7810   5.507   1.941   1.332
 2616TIP3   OH2 7811   0.061   6.768   5.769
 2616TIP3    H1 7812   0.100   6.772   5.856
 2616TIP3    H2 7813   0.109   6.832   5.717
 2617TIP3   OH2 7814   2.114   0.901   1.421
 2617TIP3    H1 7815   2.087   0.845   1.348
 2617TIP3    H2 7816   2.102   0.990   1.388
 2618TIP3   OH2 7817   3.882   1.593   0.458
 2618TIP3    H1 7818   3.797   1.574   0.498
 2618TIP3    H2 7819   3.901   1.516   0.405
 2619TIP3   OH2 7820   3.429   2.165   4.263
 2619TIP3    H1 7821   3.433   2.254   4.228
 2619TIP3    H2 7822   3.342   2.159   4.302
 2620TIP3   OH2 7823   6.654   2.495   1.897
 2620TIP3    H1 7824   6.574   2.446   1.915
 2620TIP3    H2 7825   6.625   2.584   1.877
 2621TIP3   OH2 7826   4.169   1.956   0.416
 2621TIP3    H1 7827   4.206   1.994   0.336
 2621TIP3    H2 7828   4.131   2.031   0.462
 2622TIP3   OH2 7829   6.787   2.473   2.138
 2622TIP3    H1 7830   6.726   2.499   2.068
 2622TIP3    H2 7831   6.869   2.457   2.092
 2623TIP3   OH2 7832   0.613   3.332   1.243
 2623TIP3    H1 7833   0.583   3.299   1.158
 2623TIP3    H2 7834   0.661   3.258   1.282
 2624TIP3   OH2 7835   2.638   4.943   2.167
 2624TIP3    H1 7836   2.600   4.909   2.086
 2624TIP3    H2 7837   2.605   5.032   2.174
 2625TIP3   OH2 7838   6.158   2.670   3.009
 2625TIP3    H1 7839   6.222   2.605   3.038
 2625TIP3    H2 7840   6.195   2.706   2.929
 2626TIP3   OH2 7841   1.150   2.640   4.013
 2626TIP3    H1 7842   1.185   2.680   4.093
 2626TIP3    H2 7843   1.129   2.715   3.957
 2627TIP3   OH2 7844   1.195   5.047   4.521
 2627TIP3    H1 7845   1.211   5.036   4.427
 2627TIP3    H2 7846   1.148   4.968   4.547
 2628TIP3   OH2 7847   2.713   4.938   0.553
 2628TIP3    H1 7848   2.734   4.845   0.564
 2628TIP3    H2 7849   2.734   4.956   0.461
 2629TIP3   OH2 7850   1.938   2.811   1.462
 2629TIP3    H1 7851   1.921   2.718   1.450
 2629TIP3    H2 7852   1.963   2.842   1.375
 2630TIP3   OH2 7853   1.083   5.445   0.347
 2630TIP3    H1 7854   1.116   5.428   0.259
 2630TIP3    H2 7855   1.121   5.529   0.371
 2631TIP3   OH2 7856   2.006   0.947   5.582
 2631TIP3    H1 7857   2.008   0.977   5.491
 2631TIP3    H2 7858   2.084   0.892   5.591
 2632TIP3   OH2 7859   4.070   2.358   2.922
 2632TIP3    H1 7860   4.132   2.377   2.992
 2632TIP3    H2 7861   4.091   2.269   2.894
 2633TIP3   OH2 7862   6.849   2.464   3.834
 2633TIP3    H1 7863   6.897   2.437   3.913
 2633TIP3    H2 7864   6.805   2.384   3.805
 2634TIP3   OH2 7865   1.357   0.091   0.911
 2634TIP3    H1 7866   1.387   0.167   0.861
 2634TIP3    H2 7867   1.436   0.039   0.926
 2635TIP3   OH2 7868   3.540   4.745   0.846
 2635TIP3    H1 7869   3.594   4.677   0.806
 2635TIP3    H2 7870   3.485   4.698   0.909
 2636TIP3   OH2 7871   0.344   2.852   3.261
 2636TIP3    H1 7872   0.254   2.848   3.293
 2636TIP3    H2 7873   0.369   2.760   3.249
 2637TIP3   OH2 7874   0.914   6.500   3.849
 2637TIP3    H1 7875   0.979   6.493   3.779
 2637TIP3    H2 7876   0.851   6.431   3.830
 2638TIP3   OH2 7877   5.334   3.871   2.930
 2638TIP3    H1 7878   5.341   3.885   2.835
 2638TIP3    H2 7879   5.302   3.955   2.964
 2639TIP3   OH2 7880   2.520   2.101   4.102
 2639TIP3    H1 7881   2.534   2.179   4.157
 2639TIP3    H2 7882   2.435   2.067   4.130
 2640TIP3   OH2 7883   4.526   1.222   5.893
 2640TIP3    H1 7884   4.463   1.292   5.913
 2640TIP3    H2 7885   4.610   1.267   5.889
 2641TIP3   OH2 7886   3.221   0.873   5.508
 2641TIP3    H1 7887   3.305   0.919   5.509
 2641TIP3    H2 7888   3.173   0.912   5.581
 2642TIP3   OH2 7889   0.909   1.800   1.254
 2642TIP3    H1 7890   0.898   1.849   1.173
 2642TIP3    H2 7891   0.865   1.716   1.238
 2643TIP3   OH2 7892   4.187   2.339   0.709
 2643TIP3    H1 7893   4.253   2.336   0.779
 2643TIP3    H2 7894   4.134   2.416   0.730
 2644TIP3   OH2 7895   6.895   1.047   4.334
 2644TIP3    H1 7896   6.854   0.960   4.336
 2644TIP3    H2 7897   6.920   1.059   4.243
 2645TIP3   OH2 7898   4.723   5.082   2.236
 2645TIP3    H1 7899   4.678   5.099   2.319
 2645TIP3    H2 7900   4.772   5.001   2.252
 2646TIP3   OH2 7901   4.107   1.401   3.169
 2646TIP3    H1 7902   4.130   1.391   3.261
 2646TIP3    H2 7903   4.011   1.394   3.168
 2647TIP3   OH2 7904   2.449   5.435   0.807
 2647TIP3    H1 7905   2.490   5.416   0.892
 2647TIP3    H2 7906   2.394   5.358   0.790
 2648TIP3   OH2 7907   3.440   2.092   5.054
 2648TIP3    H1 7908   3.493   2.019   5.022
 2648TIP3    H2 7909   3.473   2.168   5.008
 2649TIP3   OH2 7910   5.194   5.691   2.147
 2649TIP3    H1 7911   5.286   5.689   2.170
 2649TIP3    H2 7912   5.156   5.614   2.190
 2650TIP3   OH2 7913   4.374   4.474   0.823
 2650TIP3    H1 7914   4.399   4.423   0.747
 2650TIP3    H2 7915   4.341   4.409   0.886
 2651TIP3   OH2 7916   5.906   0.645   3.164
 2651TIP3    H1 7917   5.884   0.681   3.078
 2651TIP3    H2 7918   5.997   0.672   3.178
 2652TIP3   OH2 7919   6.052   3.116   1.935
 2652TIP3    H1 7920   6.067   3.102   1.842
 2652TIP3    H2 7921   5.971   3.068   1.954
 2653TIP3   OH2 7922   4.243   4.699   0.504
 2653TIP3    H1 7923   4.216   4.613   0.473
 2653TIP3    H2 7924   4.258   4.750   0.424
 2654TIP3   OH2 7925   2.944   2.990   3.997
 2654TIP3    H1 7926   3.007   3.058   4.021
 2654TIP3    H2 7927   2.904   3.021   3.916
 2655TIP3   OH2 7928   6.320   3.138   0.655
 2655TIP3    H1 7929   6.286   3.222   0.685
 2655TIP3    H2 7930   6.246   3.096   0.611
 2656TIP3   OH2 7931   0.331   3.464   3.453
 2656TIP3    H1 7932   0.310   3.484   3.362
 2656TIP3    H2 7933   0.426   3.465   3.457
 2657TIP3   OH2 7934   1.384   5.845   2.885
 2657TIP3    H1 7935   1.412   5.805   2.803
 2657TIP3    H2 7936   1.395   5.777   2.951
 2658TIP3   OH2 7937   6.532   6.703   5.488
 2658TIP3    H1 7938   6.565   6.674   5.573
 2658TIP3    H2 7939   6.582   6.783   5.469
 2659TIP3   OH2 7940   1.198   3.027   0.467
 2659TIP3    H1 7941   1.237   3.022   0.554
 2659TIP3    H2 7942   1.162   2.940   0.452
 2660TIP3   OH2 7943   5.649   1.815   0.202
 2660TIP3    H1 7944   5.726   1.848   0.155
 2660TIP3    H2 7945   5.670   1.723   0.220
 2661TIP3   OH2 7946   0.480   3.217   1.010
 2661TIP3    H1 7947   0.459   3.125   1.026
 2661TIP3    H2 7948   0.397   3.264   1.022
 2662TIP3   OH2 7949   4.681   2.078   2.628
 2662TIP3    H1 7950   4.733   2.036   2.559
 2662TIP3    H2 7951   4.613   2.013   2.649
 2663TIP3   OH2 7952   4.214   6.496   3.898
 2663TIP3    H1 7953   4.310   6.488   3.893
 2663TIP3    H2 7954   4.187   6.515   3.808
 2664TIP3   OH2 7955   0.670   4.351   5.535
 2664TIP3    H1 7956   0.598   4.398   5.577
 2664TIP3    H2 7957   0.662   4.261   5.569
 2665TIP3   OH2 7958   3.139   4.578   4.629
 2665TIP3    H1 7959   3.228   4.561   4.599
 2665TIP3    H2 7960   3.087   4.507   4.593
 2666TIP3   OH2 7961   1.643   5.874   5.177
 2666TIP3    H1 7962   1.610   5.853   5.264
 2666TIP3    H2 7963   1.717   5.814   5.165
 2667TIP3   OH2 7964   4.799   0.488   4.956
 2667TIP3    H1 7965   4.819   0.486   4.862
 2667TIP3    H2 7966   4.871   0.538   4.994
 2668TIP3   OH2 7967   6.335   2.537   3.394
 2668TIP3    H1 7968   6.352   2.554   3.301
 2668TIP3    H2 7969   6.413   2.491   3.425
 2669TIP3   OH2 7970   4.941   6.734   0.423
 2669TIP3    H1 7971   4.852   6.721   0.458
 2669TIP3    H2 7972   4.978   6.646   0.420
 2670TIP3   OH2 7973   2.810   0.521   0.851
 2670TIP3    H1 7974   2.806   0.448   0.788
 2670TIP3    H2 7975   2.798   0.479   0.936
 2671TIP3   OH2 7976   1.120   3.720   1.758
 2671TIP3    H1 7977   1.051   3.658   1.782
 2671TIP3    H2 7978   1.087   3.805   1.788
 2672TIP3   OH2 7979   3.257   0.367   3.681
 2672TIP3    H1 7980   3.309   0.442   3.653
 2672TIP3    H2 7981   3.282   0.354   3.773
 2673TIP3   OH2 7982   4.481   5.238   3.225
 2673TIP3    H1 7983   4.478   5.327   3.260
 2673TIP3    H2 7984   4.395   5.225   3.185
 2674TIP3   OH2 7985   4.868   0.812   3.586
 2674TIP3    H1 7986   4.878   0.797   3.492
 2674TIP3    H2 7987   4.864   0.724   3.624
 2675TIP3   OH2 7988   6.418   5.571   0.363
 2675TIP3    H1 7989   6.372   5.504   0.312
 2675TIP3    H2 7990   6.442   5.638   0.299
 2676TIP3   OH2 7991   0.001   6.145   4.664
 2676TIP3    H1 7992  -0.071   6.189   4.621
 2676TIP3    H2 7993   0.070   6.211   4.670
 2677TIP3   OH2 7994   0.433   2.196   4.960
 2677TIP3    H1 7995   0.355   2.142   4.974
 2677TIP3    H2 7996   0.433   2.214   4.866
 2678TIP3   OH2 7997   5.920   1.348   1.002
 2678TIP3    H1 7998   5.869   1.276   1.040
 2678TIP3    H2 7999   5.904   1.342   0.908
 2679TIP3   OH2 8000   4.603   6.722   5.245
 2679TIP3    H1 8001   4.528   6.694   5.192
 2679TIP3    H2 8002   4.617   6.649   5.306
 2680TIP3   OH2 8003   6.066   4.666   1.285
 2680TIP3    H1 8004   6.140   4.668   1.225
 2680TIP3    H2 8005   6.105   4.648   1.371
 2681TIP3   OH2 8006   0.732   3.103   5.611
 2681TIP3    H1 8007   0.759   3.016   5.583
 2681TIP3    H2 8008   0.636   3.100   5.610
 2682TIP3   OH2 8009   1.560   4.050   1.117
 2682TIP3    H1 8010   1.492   4.113   1.136
 2682TIP3    H2 8011   1.642   4.093   1.143
 2683TIP3   OH2 8012   6.635   5.790   2.297
 2683TIP3    H1 8013   6.551   5.755   2.268
 2683TIP3    H2 8014   6.681   5.715   2.333
 2684TIP3   OH2 8015   6.742   1.336   5.587
 2684TIP3    H1 8016   6.828   1.366   5.557
 2684TIP3    H2 8017   6.747   1.342   5.683
 2685TIP3   OH2 8018   5.131   1.177   2.532
 2685TIP3    H1 8019   5.161   1.121   2.604
 2685TIP3    H2 8020   5.049   1.215   2.563
 2686TIP3   OH2 8021   6.381   0.096   4.238
 2686TIP3    H1 8022   6.473   0.080   4.216
 2686TIP3    H2 8023   6.332   0.065   4.162
 2687TIP3   OH2 8024   3.269   1.618   3.695
 2687TIP3    H1 8025   3.363   1.615   3.677
 2687TIP3    H2 8026   3.254   1.706   3.729
 2688TIP3   OH2 8027   5.519   2.397   4.310
 2688TIP3    H1 8028   5.561   2.318   4.276
 2688TIP3    H2 8029   5.445   2.413   4.252
 2689TIP3   OH2 8030   2.935   6.155   1.158
 2689TIP3    H1 8031   2.887   6.109   1.227
 2689TIP3    H2 8032   2.971   6.233   1.202
 2690TIP3   OH2 8033   3.433   4.814   4.452
 2690TIP3    H1 8034   3.360   4.777   4.402
 2690TIP3    H2 8035   3.401   4.901   4.479
 2691TIP3   OH2 8036   0.438   2.418   5.706
 2691TIP3    H1 8037   0.441   2.500   5.755
 2691TIP3    H2 8038   0.480   2.354   5.764
 2692TIP3   OH2 8039   5.653   2.140   0.300
 2692TIP3    H1 8040   5.656   2.085   0.222
 2692TIP3    H2 8041   5.663   2.079   0.373
 2693TIP3   OH2 8042   3.256   2.861   2.067
 2693TIP3    H1 8043   3.182   2.871   2.007
 2693TIP3    H2 8044   3.218   2.866   2.154
 2694TIP3   OH2 8045   4.395   6.182   5.428
 2694TIP3    H1 8046   4.304   6.157   5.445
 2694TIP3    H2 8047   4.438   6.173   5.513
 2695TIP3   OH2 8048   3.005   0.178   5.116
 2695TIP3    H1 8049   3.054   0.224   5.048
 2695TIP3    H2 8050   3.059   0.102   5.137
 2696TIP3   OH2 8051   0.283   5.845   4.324
 2696TIP3    H1 8052   0.300   5.881   4.411
 2696TIP3    H2 8053   0.291   5.920   4.265
 2697TIP3   OH2 8054   4.835   4.686   1.705
 2697TIP3    H1 8055   4.767   4.663   1.769
 2697TIP3    H2 8056   4.787   4.723   1.632
 2698TIP3   OH2 8057   2.334   1.545   3.855
 2698TIP3    H1 8058   2.392   1.518   3.784
 2698TIP3    H2 8059   2.325   1.639   3.844
 2699TIP3   OH2 8060   4.523   0.541   1.673
 2699TIP3    H1 8061   4.432   0.533   1.644
 2699TIP3    H2 8062   4.520   0.524   1.767
 2700TIP3   OH2 8063   1.081   5.251   2.435
 2700TIP3    H1 8064   1.014   5.188   2.462
 2700TIP3    H2 8065   1.038   5.304   2.367
 2701TIP3   OH2 8066   0.557   3.006   3.362
 2701TIP3    H1 8067   0.526   3.022   3.451
 2701TIP3    H2 8068   0.481   2.971   3.316
 2702TIP3   OH2 8069   6.003   2.012   0.831
 2702TIP3    H1 8070   5.960   2.034   0.749
 2702TIP3    H2 8071   6.042   1.926   0.816
 2703TIP3   OH2 8072   2.459   2.094   0.708
 2703TIP3    H1 8073   2.433   2.102   0.800
 2703TIP3    H2 8074   2.487   2.182   0.683
 2704TIP3   OH2 8075   4.861   0.581   0.710
 2704TIP3    H1 8076   4.942   0.625   0.683
 2704TIP3    H2 8077   4.828   0.540   0.630
 2705TIP3   OH2 8078   6.405   3.302   4.422
 2705TIP3    H1 8079   6.415   3.370   4.356
 2705TIP3    H2 8080   6.343   3.240   4.383
 2706TIP3   OH2 8081   5.431   3.802   1.554
 2706TIP3    H1 8082   5.353   3.804   1.499
 2706TIP3    H2 8083   5.473   3.887   1.539
 2707TIP3   OH2 8084   5.738   5.216   2.964
 2707TIP3    H1 8085   5.746   5.311   2.980
 2707TIP3    H2 8086   5.645   5.201   2.950
 2708TIP3   OH2 8087   6.107   0.095   2.022
 2708TIP3    H1 8088   6.192   0.118   2.058
 2708TIP3    H2 8089   6.044   0.134   2.082
 2709TIP3   OH2 8090   4.096   4.976   2.155
 2709TIP3    H1 8091   4.159   5.037   2.115
 2709TIP3    H2 8092   4.142   4.892   2.156
 2710TIP3   OH2 8093   5.755   0.192   4.471
 2710TIP3    H1 8094   5.770   0.134   4.545
 2710TIP3    H2 8095   5.666   0.224   4.483
 2711TIP3   OH2 8096   3.405   0.612   4.474
 2711TIP3    H1 8097   3.325   0.574   4.509
 2711TIP3    H2 8098   3.378   0.653   4.392
 2712TIP3   OH2 8099   4.598   2.910   3.753
 2712TIP3    H1 8100   4.647   2.836   3.788
 2712TIP3    H2 8101   4.657   2.985   3.763
 2713TIP3   OH2 8102   2.371   5.754   1.119
 2713TIP3    H1 8103   2.373   5.737   1.213
 2713TIP3    H2 8104   2.451   5.713   1.085
 2714TIP3   OH2 8105   2.317   5.179   0.734
 2714TIP3    H1 8106   2.298   5.098   0.781
 2714TIP3    H2 8107   2.376   5.153   0.664
 2715TIP3   OH2 8108   4.849   3.613   2.879
 2715TIP3    H1 8109   4.933   3.637   2.919
 2715TIP3    H2 8110   4.783   3.657   2.934
 2716TIP3   OH2 8111   2.803   5.625   0.803
 2716TIP3    H1 8112   2.712   5.639   0.778
 2716TIP3    H2 8113   2.852   5.628   0.721
 2717TIP3   OH2 8114  -0.005   0.150   2.667
 2717TIP3    H1 8115   0.065   0.174   2.727
 2717TIP3    H2 8116  -0.039   0.234   2.635
 2718TIP3   OH2 8117   3.520   6.457   2.475
 2718TIP3    H1 8118   3.584   6.505   2.527
 2718TIP3    H2 8119   3.551   6.465   2.385
 2719TIP3   OH2 8120   1.360   5.733   3.810
 2719TIP3    H1 8121   1.336   5.817   3.850
 2719TIP3    H2 8122   1.373   5.675   3.885
 2720TIP3   OH2 8123   3.553   4.092   0.645
 2720TIP3    H1 8124   3.526   4.033   0.715
 2720TIP3    H2 8125   3.491   4.075   0.574
 2721TIP3   OH2 8126   4.564   0.624   4.228
 2721TIP3    H1 8127   4.497   0.584   4.283
 2721TIP3    H2 8128   4.638   0.639   4.288
 2722TIP3   OH2 8129   2.290   2.531   3.314
 2722TIP3    H1 8130   2.313   2.450   3.360
 2722TIP3    H2 8131   2.372   2.558   3.272
 2723TIP3   OH2 8132   2.660   3.143   2.860
 2723TIP3    H1 8133   2.667   3.084   2.935
 2723TIP3    H2 8134   2.566   3.152   2.844
 2724TIP3   OH2 8135   1.748   0.823   4.169
 2724TIP3    H1 8136   1.723   0.871   4.247
 2724TIP3    H2 8137   1.745   0.888   4.099
 2725TIP3   OH2 8138   6.429   1.550   2.411
 2725TIP3    H1 8139   6.344   1.584   2.442
 2725TIP3    H2 8140   6.484   1.628   2.402
 2726TIP3   OH2 8141   3.818   3.341   4.071
 2726TIP3    H1 8142   3.796   3.394   4.148
 2726TIP3    H2 8143   3.745   3.355   4.010
 2727TIP3   OH2 8144   3.041   4.897   3.538
 2727TIP3    H1 8145   3.035   4.854   3.452
 2727TIP3    H2 8146   3.123   4.946   3.535
 2728TIP3   OH2 8147   5.567   3.330   4.286
 2728TIP3    H1 8148   5.477   3.352   4.265
 2728TIP3    H2 8149   5.618   3.363   4.212
 2729TIP3   OH2 8150   4.079   4.161   1.968
 2729TIP3    H1 8151   4.035   4.230   2.018
 2729TIP3    H2 8152   4.029   4.155   1.887
 2730TIP3   OH2 8153   5.329   4.771   2.078
 2730TIP3    H1 8154   5.277   4.711   2.025
 2730TIP3    H2 8155   5.352   4.720   2.156
 2731TIP3   OH2 8156   1.744   0.383   3.093
 2731TIP3    H1 8157   1.797   0.399   3.014
 2731TIP3    H2 8158   1.687   0.460   3.099
 2732TIP3   OH2 8159   5.760   6.789   2.834
 2732TIP3    H1 8160   5.783   6.725   2.902
 2732TIP3    H2 8161   5.763   6.739   2.752
 2733TIP3   OH2 8162   1.251   5.654   1.143
 2733TIP3    H1 8163   1.245   5.676   1.236
 2733TIP3    H2 8164   1.172   5.603   1.125
 2734TIP3   OH2 8165   6.731   5.184   4.554
 2734TIP3    H1 8166   6.825   5.180   4.536
 2734TIP3    H2 8167   6.690   5.149   4.475
 2735TIP3   OH2 8168   3.031   3.393   1.287
 2735TIP3    H1 8169   3.075   3.360   1.209
 2735TIP3    H2 8170   2.944   3.417   1.257
 2736TIP3   OH2 8171   3.155   4.618   2.813
 2736TIP3    H1 8172   3.071   4.649   2.848
 2736TIP3    H2 8173   3.209   4.602   2.890
 2737TIP3   OH2 8174   3.078   2.280   5.702
 2737TIP3    H1 8175   3.085   2.185   5.705
 2737TIP3    H2 8176   2.985   2.298   5.721
 2738TIP3   OH2 8177   4.581   5.620   1.499
 2738TIP3    H1 8178   4.553   5.702   1.538
 2738TIP3    H2 8179   4.501   5.582   1.462
 2739TIP3   OH2 8180   0.863   0.442   2.521
 2739TIP3    H1 8181   0.854   0.475   2.610
 2739TIP3    H2 8182   0.941   0.386   2.524
 2740TIP3   OH2 8183   0.699   4.944   2.358
 2740TIP3    H1 8184   0.689   4.970   2.266
 2740TIP3    H2 8185   0.689   4.849   2.357
 2741TIP3   OH2 8186   3.657   4.303   2.945
 2741TIP3    H1 8187   3.673   4.337   3.033
 2741TIP3    H2 8188   3.673   4.209   2.952
 2742TIP3   OH2 8189   1.356   6.286   1.466
 2742TIP3    H1 8190   1.299   6.261   1.393
 2742TIP3    H2 8191   1.358   6.210   1.523
 2743TIP3   OH2 8192   2.190   4.896   1.215
 2743TIP3    H1 8193   2.285   4.896   1.205
 2743TIP3    H2 8194   2.173   4.951   1.291
 2744TIP3   OH2 8195   0.966   6.619   2.897
 2744TIP3    H1 8196   0.990   6.686   2.961
 2744TIP3    H2 8197   1.042   6.561   2.893
 2745TIP3   OH2 8198   0.971   4.723   3.495
 2745TIP3    H1 8199   0.959   4.672   3.575
 2745TIP3    H2 8200   1.017   4.665   3.435
 2746TIP3   OH2 8201   0.180   0.600   5.145
 2746TIP3    H1 8202   0.092   0.603   5.108
 2746TIP3    H2 8203   0.236   0.577   5.071
 2747TIP3   OH2 8204   6.857   6.397   2.775
 2747TIP3    H1 8205   6.778   6.347   2.756
 2747TIP3    H2 8206   6.826   6.485   2.796
 2748TIP3   OH2 8207   0.368   2.483   0.057
 2748TIP3    H1 8208   0.412   2.481  -0.028
 2748TIP3    H2 8209   0.366   2.576   0.081
 2749TIP3   OH2 8210   2.349   3.921   5.456
 2749TIP3    H1 8211   2.432   3.969   5.455
 2749TIP3    H2 8212   2.301   3.954   5.380
 2750TIP3   OH2 8213   5.429   2.123   0.664
 2750TIP3    H1 8214   5.378   2.189   0.709
 2750TIP3    H2 8215   5.515   2.163   0.653
 2751TIP3   OH2 8216   0.977   1.049   1.647
 2751TIP3    H1 8217   0.983   0.967   1.598
 2751TIP3    H2 8218   0.986   1.023   1.739
 2752TIP3   OH2 8219   6.371   2.401   4.051
 2752TIP3    H1 8220   6.366   2.351   4.132
 2752TIP3    H2 8221   6.437   2.356   3.999
 2753TIP3   OH2 8222   6.159   1.594   1.819
 2753TIP3    H1 8223   6.104   1.595   1.897
 2753TIP3    H2 8224   6.160   1.685   1.788
 2754TIP3   OH2 8225   5.244   4.578   5.623
 2754TIP3    H1 8226   5.237   4.595   5.529
 2754TIP3    H2 8227   5.187   4.502   5.636
 2755TIP3   OH2 8228   3.611   5.849   2.694
 2755TIP3    H1 8229   3.628   5.783   2.626
 2755TIP3    H2 8230   3.659   5.926   2.666
 2756TIP3   OH2 8231   5.544   5.145   3.603
 2756TIP3    H1 8232   5.528   5.191   3.520
 2756TIP3    H2 8233   5.583   5.211   3.660
 2757TIP3   OH2 8234   2.448   5.805   3.814
 2757TIP3    H1 8235   2.453   5.728   3.758
 2757TIP3    H2 8236   2.388   5.780   3.885
 2758TIP3   OH2 8237   6.870   2.859   4.453
 2758TIP3    H1 8238   6.900   2.823   4.370
 2758TIP3    H2 8239   6.861   2.782   4.510
 2759TIP3   OH2 8240   4.545   0.960   1.537
 2759TIP3    H1 8241   4.635   0.992   1.534
 2759TIP3    H2 8242   4.496   1.023   1.482
 2760TIP3   OH2 8243   0.753   1.253   0.570
 2760TIP3    H1 8244   0.682   1.207   0.526
 2760TIP3    H2 8245   0.828   1.241   0.511
 2761TIP3   OH2 8246   1.225   1.283   0.556
 2761TIP3    H1 8247   1.201   1.362   0.604
 2761TIP3    H2 8248   1.311   1.304   0.518
 2762TIP3   OH2 8249   0.269   6.702   4.109
 2762TIP3    H1 8250   0.363   6.719   4.111
 2762TIP3    H2 8251   0.249   6.687   4.017
 2763TIP3   OH2 8252   5.170   1.028   4.649
 2763TIP3    H1 8253   5.116   0.993   4.577
 2763TIP3    H2 8254   5.220   0.952   4.680
 2764TIP3   OH2 8255   6.216   5.371   1.403
 2764TIP3    H1 8256   6.163   5.413   1.471
 2764TIP3    H2 8257   6.187   5.413   1.322
 2765TIP3   OH2 8258   2.894   3.706   2.199
 2765TIP3    H1 8259   2.861   3.636   2.142
 2765TIP3    H2 8260   2.815   3.752   2.228
 2766TIP3   OH2 8261   2.313   2.213   3.230
 2766TIP3    H1 8262   2.348   2.266   3.301
 2766TIP3    H2 8263   2.226   2.249   3.214
 2767TIP3   OH2 8264   2.291   4.602   1.866
 2767TIP3    H1 8265   2.215   4.659   1.879
 2767TIP3    H2 8266   2.367   4.657   1.884
 2768TIP3   OH2 8267   0.842   2.766   5.029
 2768TIP3    H1 8268   0.887   2.803   5.105
 2768TIP3    H2 8269   0.749   2.766   5.054
 2769TIP3   OH2 8270   4.358   4.641   5.023
 2769TIP3    H1 8271   4.434   4.607   5.070
 2769TIP3    H2 8272   4.390   4.655   4.934
 2770TIP3   OH2 8273   5.523   4.995   3.833
 2770TIP3    H1 8274   5.605   4.946   3.834
 2770TIP3    H2 8275   5.515   5.027   3.743
 2771TIP3   OH2 8276   1.458   6.234   1.855
 2771TIP3    H1 8277   1.507   6.217   1.775
 2771TIP3    H2 8278   1.398   6.159   1.864
 2772TIP3   OH2 8279   5.548   5.386   2.424
 2772TIP3    H1 8280   5.587   5.391   2.511
 2772TIP3    H2 8281   5.607   5.437   2.369
 2773TIP3   OH2 8282   0.708   5.048   3.944
 2773TIP3    H1 8283   0.699   5.125   3.887
 2773TIP3    H2 8284   0.618   5.021   3.962
 2774TIP3   OH2 8285   7.214   4.501   4.443
 2774TIP3    H1 8286   7.178   4.429   4.494
 2774TIP3    H2 8287   7.142   4.531   4.389
 2775TIP3   OH2 8288   5.415   3.639   1.259
 2775TIP3    H1 8289   5.375   3.653   1.173
 2775TIP3    H2 8290   5.342   3.645   1.321
 2776TIP3   OH2 8291   4.794   0.234   4.682
 2776TIP3    H1 8292   4.723   0.180   4.718
 2776TIP3    H2 8293   4.861   0.170   4.655
 2777TIP3   OH2 8294   6.638   4.483   2.395
 2777TIP3    H1 8295   6.617   4.501   2.303
 2777TIP3    H2 8296   6.729   4.510   2.404
 2778TIP3   OH2 8297   6.829   1.450   2.160
 2778TIP3    H1 8298   6.870   1.376   2.116
 2778TIP3    H2 8299   6.737   1.445   2.133
 2779TIP3   OH2 8300   4.341   5.894   3.762
 2779TIP3    H1 8301   4.342   5.798   3.762
 2779TIP3    H2 8302   4.430   5.919   3.739
 2780TIP3   OH2 8303   6.444   6.819   2.618
 2780TIP3    H1 8304   6.417   6.903   2.582
 2780TIP3    H2 8305   6.426   6.756   2.548
 2781TIP3   OH2 8306   1.682   0.483   4.995
 2781TIP3    H1 8307   1.660   0.398   5.033
 2781TIP3    H2 8308   1.662   0.473   4.901
 2782TIP3   OH2 8309   0.722   6.103   2.308
 2782TIP3    H1 8310   0.683   6.143   2.385
 2782TIP3    H2 8311   0.808   6.074   2.337
 2783TIP3   OH2 8312   6.839   5.926   1.488
 2783TIP3    H1 8313   6.787   5.857   1.530
 2783TIP3    H2 8314   6.881   5.971   1.560
 2784TIP3   OH2 8315   2.733   3.029   2.643
 2784TIP3    H1 8316   2.688   3.070   2.717
 2784TIP3    H2 8317   2.708   3.083   2.567
 2785TIP3   OH2 8318   0.997   1.935   2.189
 2785TIP3    H1 8319   0.974   1.846   2.216
 2785TIP3    H2 8320   0.975   1.939   2.096
 2786TIP3   OH2 8321   1.379   2.616   0.875
 2786TIP3    H1 8322   1.300   2.651   0.834
 2786TIP3    H2 8323   1.450   2.670   0.839
 2787TIP3   OH2 8324   4.746   2.543   2.914
 2787TIP3    H1 8325   4.752   2.546   3.010
 2787TIP3    H2 8326   4.686   2.471   2.896
 2788TIP3   OH2 8327   6.412   2.669   0.859
 2788TIP3    H1 8328   6.388   2.736   0.923
 2788TIP3    H2 8329   6.369   2.697   0.778
 2789TIP3   OH2 8330   2.495   5.410   2.909
 2789TIP3    H1 8331   2.584   5.434   2.885
 2789TIP3    H2 8332   2.504   5.327   2.955
 2790TIP3   OH2 8333   1.409   6.435   4.691
 2790TIP3    H1 8334   1.426   6.446   4.785
 2790TIP3    H2 8335   1.401   6.340   4.680
 2791TIP3   OH2 8336   2.375   4.433   4.007
 2791TIP3    H1 8337   2.292   4.480   4.012
 2791TIP3    H2 8338   2.423   4.462   4.085
 2792TIP3   OH2 8339   4.600   0.427   3.215
 2792TIP3    H1 8340   4.546   0.348   3.215
 2792TIP3    H2 8341   4.690   0.394   3.210
 2793TIP3   OH2 8342   5.597   2.895   4.531
 2793TIP3    H1 8343   5.624   2.930   4.447
 2793TIP3    H2 8344   5.656   2.821   4.547
 2794TIP3   OH2 8345   2.922   0.260   3.780
 2794TIP3    H1 8346   2.833   0.226   3.790
 2794TIP3    H2 8347   2.922   0.298   3.692
 2795TIP3   OH2 8348   3.087   6.616   0.277
 2795TIP3    H1 8349   3.132   6.559   0.339
 2795TIP3    H2 8350   3.155   6.642   0.214
 2796TIP3   OH2 8351   6.156   0.157   1.325
 2796TIP3    H1 8352   6.074   0.194   1.291
 2796TIP3    H2 8353   6.224   0.216   1.295
 2797TIP3   OH2 8354   3.806   1.145   4.126
 2797TIP3    H1 8355   3.901   1.152   4.120
 2797TIP3    H2 8356   3.773   1.203   4.057
 2798TIP3   OH2 8357   2.488   4.546   3.776
 2798TIP3    H1 8358   2.464   4.464   3.732
 2798TIP3    H2 8359   2.465   4.531   3.867
 2799TIP3   OH2 8360   2.301   0.007   5.026
 2799TIP3    H1 8361   2.387   0.029   4.988
 2799TIP3    H2 8362   2.246  -0.011   4.950
 2800TIP3   OH2 8363   2.844   3.758   5.060
 2800TIP3    H1 8364   2.902   3.795   4.993
 2800TIP3    H2 8365   2.887   3.676   5.085
 2801TIP3   OH2 8366   0.151   2.280   5.001
 2801TIP3    H1 8367   0.066   2.275   4.957
 2801TIP3    H2 8368   0.206   2.332   4.942
 2802TIP3   OH2 8369   5.775   2.250   1.724
 2802TIP3    H1 8370   5.683   2.257   1.749
 2802TIP3    H2 8371   5.819   2.319   1.774
 2803TIP3   OH2 8372   7.053   4.717   1.540
 2803TIP3    H1 8373   7.057   4.748   1.630
 2803TIP3    H2 8374   6.979   4.764   1.501
 2804TIP3   OH2 8375   4.856   3.599   4.934
 2804TIP3    H1 8376   4.898   3.659   4.873
 2804TIP3    H2 8377   4.819   3.530   4.878
 2805TIP3   OH2 8378   0.275   2.421   4.417
 2805TIP3    H1 8379   0.353   2.405   4.470
 2805TIP3    H2 8380   0.305   2.479   4.347
 2806TIP3   OH2 8381   2.163   3.214   5.700
 2806TIP3    H1 8382   2.123   3.144   5.648
 2806TIP3    H2 8383   2.239   3.242   5.649
 2807TIP3   OH2 8384   4.169   4.751   1.920
 2807TIP3    H1 8385   4.161   4.706   1.836
 2807TIP3    H2 8386   4.119   4.832   1.909
 2808TIP3   OH2 8387   2.591   6.362   0.794
 2808TIP3    H1 8388   2.643   6.320   0.726
 2808TIP3    H2 8389   2.655   6.393   0.858
 2809TIP3   OH2 8390   3.591   4.724   0.070
 2809TIP3    H1 8391   3.528   4.656   0.093
 2809TIP3    H2 8392   3.646   4.683   0.003
 2810TIP3   OH2 8393   3.394   4.529   4.584
 2810TIP3    H1 8394   3.389   4.490   4.672
 2810TIP3    H2 8395   3.466   4.592   4.589
 2811TIP3   OH2 8396   0.018   4.240   3.132
 2811TIP3    H1 8397  -0.042   4.173   3.100
 2811TIP3    H2 8398   0.005   4.242   3.227
 2812TIP3   OH2 8399   1.014   3.216   0.509
 2812TIP3    H1 8400   1.082   3.151   0.491
 2812TIP3    H2 8401   1.011   3.222   0.604
 2813TIP3   OH2 8402   4.786   6.465   0.011
 2813TIP3    H1 8403   4.691   6.456   0.020
 2813TIP3    H2 8404   4.818   6.375   0.004
 2814TIP3   OH2 8405   3.542   1.426   3.082
 2814TIP3    H1 8406   3.548   1.453   2.990
 2814TIP3    H2 8407   3.492   1.496   3.124
 2815TIP3   OH2 8408   2.912   1.663   3.378
 2815TIP3    H1 8409   2.955   1.710   3.307
 2815TIP3    H2 8410   2.942   1.573   3.369
 2816TIP3   OH2 8411   0.515   2.184   3.565
 2816TIP3    H1 8412   0.577   2.122   3.525
 2816TIP3    H2 8413   0.570   2.250   3.606
 2817TIP3   OH2 8414   6.535   1.508   2.673
 2817TIP3    H1 8415   6.605   1.566   2.643
 2817TIP3    H2 8416   6.495   1.474   2.593
 2818TIP3   OH2 8417   6.358   5.305   4.457
 2818TIP3    H1 8418   6.415   5.379   4.477
 2818TIP3    H2 8419   6.357   5.300   4.362
 2819TIP3   OH2 8420   3.165   5.338   3.514
 2819TIP3    H1 8421   3.147   5.419   3.563
 2819TIP3    H2 8422   3.127   5.269   3.568
 2820TIP3   OH2 8423   2.747   0.450   2.071
 2820TIP3    H1 8424   2.738   0.491   2.157
 2820TIP3    H2 8425   2.658   0.445   2.038
 2821TIP3   OH2 8426   2.631   0.756   0.156
 2821TIP3    H1 8427   2.698   0.816   0.125
 2821TIP3    H2 8428   2.653   0.741   0.248
 2822TIP3   OH2 8429   4.065   6.773   3.084
 2822TIP3    H1 8430   4.040   6.839   3.148
 2822TIP3    H2 8431   4.003   6.784   3.012
 2823TIP3   OH2 8432   3.220   4.173   0.955
 2823TIP3    H1 8433   3.243   4.237   1.022
 2823TIP3    H2 8434   3.145   4.211   0.910
 2824TIP3   OH2 8435   4.524   0.032   5.311
 2824TIP3    H1 8436   4.554   0.109   5.359
 2824TIP3    H2 8437   4.442   0.007   5.353
 2825TIP3   OH2 8438   6.421   4.190   1.278
 2825TIP3    H1 8439   6.503   4.207   1.325
 2825TIP3    H2 8440   6.445   4.198   1.185
 2826TIP3   OH2 8441   3.016   0.566   2.106
 2826TIP3    H1 8442   3.005   0.661   2.107
 2826TIP3    H2 8443   2.931   0.532   2.080
 2827TIP3   OH2 8444   3.048   3.726   1.196
 2827TIP3    H1 8445   3.008   3.757   1.278
 2827TIP3    H2 8446   3.142   3.741   1.208
 2828TIP3   OH2 8447   6.159   1.170   1.806
 2828TIP3    H1 8448   6.178   1.076   1.817
 2828TIP3    H2 8449   6.064   1.175   1.797
 2829TIP3   OH2 8450   6.856   1.290   3.957
 2829TIP3    H1 8451   6.796   1.361   3.981
 2829TIP3    H2 8452   6.798   1.219   3.929
 2830TIP3   OH2 8453   6.825   6.600   1.350
 2830TIP3    H1 8454   6.818   6.654   1.428
 2830TIP3    H2 8455   6.912   6.561   1.356
 2831TIP3   OH2 8456   6.576   4.199   0.048
 2831TIP3    H1 8457   6.659   4.164   0.015
 2831TIP3    H2 8458   6.601   4.276   0.099
 2832TIP3   OH2 8459   2.396   2.670   0.463
 2832TIP3    H1 8460   2.386   2.649   0.370
 2832TIP3    H2 8461   2.306   2.675   0.496
 2833TIP3   OH2 8462   3.447   2.822   2.754
 2833TIP3    H1 8463   3.359   2.823   2.717
 2833TIP3    H2 8464   3.443   2.886   2.825
 2834TIP3   OH2 8465   3.785   2.890   2.371
 2834TIP3    H1 8466   3.719   2.876   2.439
 2834TIP3    H2 8467   3.764   2.824   2.305
 2835TIP3   OH2 8468   6.394   2.686   1.256
 2835TIP3    H1 8469   6.320   2.636   1.290
 2835TIP3    H2 8470   6.444   2.623   1.205
 2836TIP3   OH2 8471   5.610   0.748   0.280
 2836TIP3    H1 8472   5.643   0.759   0.369
 2836TIP3    H2 8473   5.515   0.762   0.288
 2837TIP3   OH2 8474   1.685   4.471   5.122
 2837TIP3    H1 8475   1.621   4.412   5.161
 2837TIP3    H2 8476   1.730   4.511   5.197
 2838TIP3   OH2 8477   3.594   6.162   2.249
 2838TIP3    H1 8478   3.623   6.250   2.271
 2838TIP3    H2 8479   3.507   6.174   2.210
 2839TIP3   OH2 8480   1.896   0.218   4.661
 2839TIP3    H1 8481   1.963   0.251   4.721
 2839TIP3    H2 8482   1.823   0.279   4.672
 2840TIP3   OH2 8483   3.886   0.311   1.197
 2840TIP3    H1 8484   3.914   0.392   1.240
 2840TIP3    H2 8485   3.917   0.241   1.255
 2841TIP3   OH2 8486   3.944   4.163   3.041
 2841TIP3    H1 8487   4.000   4.197   3.111
 2841TIP3    H2 8488   3.965   4.218   2.965
 2842TIP3   OH2 8489   4.367   2.075   4.707
 2842TIP3    H1 8490   4.322   2.069   4.791
 2842TIP3    H2 8491   4.300   2.058   4.642
 2843TIP3   OH2 8492   1.990   4.832   5.562
 2843TIP3    H1 8493   1.980   4.839   5.468
 2843TIP3    H2 8494   1.936   4.757   5.587
 2844TIP3   OH2 8495   6.177   6.751   4.623
 2844TIP3    H1 8496   6.116   6.815   4.661
 2844TIP3    H2 8497   6.263   6.789   4.635
 2845TIP3   OH2 8498   2.406   6.651   4.380
 2845TIP3    H1 8499   2.453   6.600   4.447
 2845TIP3    H2 8500   2.345   6.589   4.341
 2846TIP3   OH2 8501   0.217   4.953   4.446
 2846TIP3    H1 8502   0.177   4.866   4.450
 2846TIP3    H2 8503   0.149   5.012   4.480
 2847TIP3   OH2 8504   7.213   0.043   0.112
 2847TIP3    H1 8505   7.226  -0.018   0.038
 2847TIP3    H2 8506   7.165  -0.008   0.177
 2848TIP3   OH2 8507   2.401   0.128   1.501
 2848TIP3    H1 8508   2.490   0.131   1.467
 2848TIP3    H2 8509   2.385   0.215   1.537
 2849TIP3   OH2 8510   2.974   0.849   3.440
 2849TIP3    H1 8511   2.954   0.776   3.498
 2849TIP3    H2 8512   2.992   0.922   3.500
 2850TIP3   OH2 8513   2.039   2.297   3.222
 2850TIP3    H1 8514   2.037   2.391   3.210
 2850TIP3    H2 8515   2.022   2.284   3.315
 2851TIP3   OH2 8516   3.625   0.186   2.264
 2851TIP3    H1 8517   3.539   0.196   2.304
 2851TIP3    H2 8518   3.673   0.265   2.289
 2852TIP3   OH2 8519   6.899   4.965   1.019
 2852TIP3    H1 8520   6.909   4.924   0.933
 2852TIP3    H2 8521   6.986   4.960   1.058
 2853TIP3   OH2 8522   5.161   1.265   3.876
 2853TIP3    H1 8523   5.176   1.177   3.842
 2853TIP3    H2 8524   5.210   1.322   3.818
 2854TIP3   OH2 8525   6.970   5.838   2.338
 2854TIP3    H1 8526   7.040   5.799   2.286
 2854TIP3    H2 8527   6.930   5.765   2.384
 2855TIP3   OH2 8528   4.560   6.780   5.820
 2855TIP3    H1 8529   4.554   6.797   5.914
 2855TIP3    H2 8530   4.624   6.709   5.812
 2856TIP3   OH2 8531   6.055   2.495   4.793
 2856TIP3    H1 8532   5.962   2.476   4.799
 2856TIP3    H2 8533   6.072   2.556   4.865
 2857TIP3   OH2 8534   1.460   4.177   3.167
 2857TIP3    H1 8535   1.524   4.111   3.195
 2857TIP3    H2 8536   1.387   4.165   3.228
 2858TIP3   OH2 8537   0.926   1.757   2.479
 2858TIP3    H1 8538   0.882   1.771   2.395
 2858TIP3    H2 8539   0.882   1.817   2.540
 2859TIP3   OH2 8540   3.635   2.558   4.109
 2859TIP3    H1 8541   3.552   2.531   4.147
 2859TIP3    H2 8542   3.687   2.477   4.106
 2860TIP3   OH2 8543   3.597   4.463   2.493
 2860TIP3    H1 8544   3.581   4.520   2.418
 2860TIP3    H2 8545   3.659   4.511   2.548
 2861TIP3   OH2 8546   0.831   1.440   4.415
 2861TIP3    H1 8547   0.813   1.432   4.321
 2861TIP3    H2 8548   0.868   1.356   4.440
 2862TIP3   OH2 8549   6.943   1.695   4.017
 2862TIP3    H1 8550   6.930   1.665   4.107
 2862TIP3    H2 8551   7.017   1.756   4.023
 2863TIP3   OH2 8552   5.274   5.577   5.100
 2863TIP3    H1 8553   5.237   5.615   5.020
 2863TIP3    H2 8554   5.216   5.503   5.120
 2864TIP3   OH2 8555   3.522   6.485   1.039
 2864TIP3    H1 8556   3.507   6.391   1.049
 2864TIP3    H2 8557   3.617   6.495   1.048
 2865TIP3   OH2 8558   6.741   6.266   0.720
 2865TIP3    H1 8559   6.685   6.333   0.682
 2865TIP3    H2 8560   6.777   6.306   0.799
 2866TIP3   OH2 8561   0.547   2.893   5.053
 2866TIP3    H1 8562   0.499   2.821   5.012
 2866TIP3    H2 8563   0.481   2.940   5.104
 2867TIP3   OH2 8564   2.809   4.016   5.134
 2867TIP3    H1 8565   2.800   3.924   5.109
 2867TIP3    H2 8566   2.863   4.014   5.213
 2868TIP3   OH2 8567   1.552   3.463   5.399
 2868TIP3    H1 8568   1.534   3.441   5.490
 2868TIP3    H2 8569   1.635   3.511   5.402
 2869TIP3   OH2 8570   1.625   2.447   0.822
 2869TIP3    H1 8571   1.551   2.503   0.844
 2869TIP3    H2 8572   1.587   2.360   0.811
 2870TIP3   OH2 8573   7.002   3.000   4.683
 2870TIP3    H1 8574   7.000   2.943   4.606
 2870TIP3    H2 8575   7.050   3.077   4.655
 2871TIP3   OH2 8576   0.260   2.013   5.186
 2871TIP3    H1 8577   0.222   2.088   5.140
 2871TIP3    H2 8578   0.190   1.983   5.244
 2872TIP3   OH2 8579   3.673   3.093   3.446
 2872TIP3    H1 8580   3.765   3.079   3.468
 2872TIP3    H2 8581   3.626   3.073   3.526
 2873TIP3   OH2 8582   4.371   6.568   2.541
 2873TIP3    H1 8583   4.310   6.636   2.569
 2873TIP3    H2 8584   4.343   6.490   2.589
 2874TIP3   OH2 8585   0.211   5.348   1.055
 2874TIP3    H1 8586   0.264   5.301   1.119
 2874TIP3    H2 8587   0.190   5.431   1.097
 2875TIP3   OH2 8588   0.565   6.451   0.599
 2875TIP3    H1 8589   0.472   6.473   0.595
 2875TIP3    H2 8590   0.581   6.399   0.520
 2876TIP3   OH2 8591   6.835   2.466   0.611
 2876TIP3    H1 8592   6.789   2.547   0.588
 2876TIP3    H2 8593   6.909   2.495   0.664
 2877TIP3   OH2 8594   3.483   5.193   3.246
 2877TIP3    H1 8595   3.403   5.181   3.298
 2877TIP3    H2 8596   3.553   5.155   3.299
 2878TIP3   OH2 8597   0.063   6.211   5.629
 2878TIP3    H1 8598  -0.031   6.196   5.644
 2878TIP3    H2 8599   0.105   6.132   5.664
 2879TIP3   OH2 8600   3.033   4.671   4.034
 2879TIP3    H1 8601   3.078   4.592   4.003
 2879TIP3    H2 8602   3.000   4.647   4.120
 2880TIP3   OH2 8603   3.224   1.933   4.409
 2880TIP3    H1 8604   3.139   1.891   4.395
 2880TIP3    H2 8605   3.281   1.896   4.341
 2881TIP3   OH2 8606   1.107   3.168   5.217
 2881TIP3    H1 8607   1.101   3.260   5.239
 2881TIP3    H2 8608   1.023   3.131   5.244
 2882TIP3   OH2 8609   4.906   6.782   4.003
 2882TIP3    H1 8610   4.831   6.728   4.028
 2882TIP3    H2 8611   4.956   6.794   4.083
 2883TIP3   OH2 8612   2.988   4.354   5.663
 2883TIP3    H1 8613   3.011   4.445   5.643
 2883TIP3    H2 8614   3.071   4.306   5.656
 2884TIP3   OH2 8615   1.279   4.078   3.849
 2884TIP3    H1 8616   1.193   4.042   3.874
 2884TIP3    H2 8617   1.338   4.002   3.852
 2885TIP3   OH2 8618   4.348   4.876   3.198
 2885TIP3    H1 8619   4.279   4.882   3.263
 2885TIP3    H2 8620   4.417   4.826   3.240
 2886TIP3   OH2 8621   2.824   3.881   3.248
 2886TIP3    H1 8622   2.864   3.914   3.167
 2886TIP3    H2 8623   2.843   3.948   3.313
 2887TIP3   OH2 8624   4.131   0.607   3.084
 2887TIP3    H1 8625   4.167   0.669   3.021
 2887TIP3    H2 8626   4.131   0.655   3.167
 2888TIP3   OH2 8627   5.698   3.162   0.442
 2888TIP3    H1 8628   5.695   3.199   0.530
 2888TIP3    H2 8629   5.673   3.234   0.385
 2889TIP3   OH2 8630   3.493   1.235   1.291
 2889TIP3    H1 8631   3.519   1.322   1.263
 2889TIP3    H2 8632   3.439   1.250   1.369
 2890TIP3   OH2 8633   2.874   1.768   5.078
 2890TIP3    H1 8634   2.860   1.678   5.048
 2890TIP3    H2 8635   2.822   1.775   5.158
 2891TIP3   OH2 8636   6.472   0.813   1.100
 2891TIP3    H1 8637   6.473   0.795   1.006
 2891TIP3    H2 8638   6.410   0.884   1.110
 2892TIP3   OH2 8639   0.201   0.662   1.827
 2892TIP3    H1 8640   0.265   0.604   1.869
 2892TIP3    H2 8641   0.117   0.637   1.866
 2893TIP3   OH2 8642   1.298   3.455   2.146
 2893TIP3    H1 8643   1.333   3.372   2.113
 2893TIP3    H2 8644   1.291   3.510   2.068
 2894TIP3   OH2 8645   4.956   5.900   4.208
 2894TIP3    H1 8646   4.952   5.808   4.181
 2894TIP3    H2 8647   5.006   5.943   4.138
 2895TIP3   OH2 8648   4.936   4.565   1.925
 2895TIP3    H1 8649   4.859   4.512   1.945
 2895TIP3    H2 8650   4.926   4.588   1.833
 2896TIP3   OH2 8651   5.789   0.366   4.127
 2896TIP3    H1 8652   5.778   0.365   4.222
 2896TIP3    H2 8653   5.878   0.335   4.113
 2897TIP3   OH2 8654   5.579   6.106   0.249
 2897TIP3    H1 8655   5.564   6.046   0.176
 2897TIP3    H2 8656   5.672   6.127   0.244
 2898TIP3   OH2 8657   2.070   4.759   4.188
 2898TIP3    H1 8658   2.149   4.703   4.185
 2898TIP3    H2 8659   2.039   4.761   4.098
 2899TIP3   OH2 8660   3.261   5.357   1.079
 2899TIP3    H1 8661   3.207   5.298   1.026
 2899TIP3    H2 8662   3.215   5.364   1.162
 2900TIP3   OH2 8663   2.018   2.612   3.333
 2900TIP3    H1 8664   2.106   2.574   3.336
 2900TIP3    H2 8665   2.005   2.650   3.420
 2901TIP3   OH2 8666   5.744   6.769   2.545
 2901TIP3    H1 8667   5.781   6.857   2.542
 2901TIP3    H2 8668   5.767   6.730   2.460
 2902TIP3   OH2 8669   5.760   4.872   1.843
 2902TIP3    H1 8670   5.805   4.793   1.812
 2902TIP3    H2 8671   5.705   4.841   1.915
 2903TIP3   OH2 8672   5.567   3.474   4.529
 2903TIP3    H1 8673   5.486   3.443   4.569
 2903TIP3    H2 8674   5.567   3.433   4.442
 2904TIP3   OH2 8675   6.871   3.192   1.569
 2904TIP3    H1 8676   6.800   3.137   1.535
 2904TIP3    H2 8677   6.846   3.281   1.543
 2905TIP3   OH2 8678   6.100   2.390   5.730
 2905TIP3    H1 8679   6.025   2.442   5.759
 2905TIP3    H2 8680   6.089   2.383   5.635
 2906TIP3   OH2 8681   2.176   2.972   1.056
 2906TIP3    H1 8682   2.268   2.991   1.070
 2906TIP3    H2 8683   2.154   2.907   1.122
 2907TIP3   OH2 8684   3.549   2.800   5.795
 2907TIP3    H1 8685   3.510   2.812   5.882
 2907TIP3    H2 8686   3.634   2.842   5.802
 2908TIP3   OH2 8687   1.207   3.654   3.512
 2908TIP3    H1 8688   1.242   3.630   3.426
 2908TIP3    H2 8689   1.279   3.698   3.557
 2909TIP3   OH2 8690   4.550   1.428   2.477
 2909TIP3    H1 8691   4.496   1.437   2.399
 2909TIP3    H2 8692   4.498   1.465   2.547
 2910TIP3   OH2 8693   6.921   6.424   1.977
 2910TIP3    H1 8694   6.873   6.354   2.022
 2910TIP3    H2 8695   7.005   6.384   1.953
 2911TIP3   OH2 8696   3.958   1.437   2.191
 2911TIP3    H1 8697   3.921   1.503   2.133
 2911TIP3    H2 8698   4.045   1.420   2.156
 2912TIP3   OH2 8699   1.430   1.378   1.367
 2912TIP3    H1 8700   1.495   1.407   1.303
 2912TIP3    H2 8701   1.458   1.420   1.449
 2913TIP3   OH2 8702   0.082   4.984   0.965
 2913TIP3    H1 8703   0.147   4.999   0.896
 2913TIP3    H2 8704   0.016   5.053   0.950
 2914TIP3   OH2 8705   6.693   1.292   5.861
 2914TIP3    H1 8706   6.638   1.223   5.899
 2914TIP3    H2 8707   6.636   1.368   5.855
 2915TIP3   OH2 8708   2.617   5.087   1.841
 2915TIP3    H1 8709   2.667   5.041   1.773
 2915TIP3    H2 8710   2.662   5.171   1.850
 2916TIP3   OH2 8711   3.034   1.803   4.758
 2916TIP3    H1 8712   2.978   1.864   4.709
 2916TIP3    H2 8713   3.123   1.823   4.730
 2917TIP3   OH2 8714   1.788   6.141   2.474
 2917TIP3    H1 8715   1.715   6.091   2.511
 2917TIP3    H2 8716   1.838   6.076   2.424
 2918TIP3   OH2 8717   3.410   5.226   3.546
 2918TIP3    H1 8718   3.395   5.132   3.561
 2918TIP3    H2 8719   3.325   5.260   3.517
 2919TIP3   OH2 8720   2.308   2.080   2.874
 2919TIP3    H1 8721   2.230   2.083   2.930
 2919TIP3    H2 8722   2.381   2.096   2.934
 2920TIP3   OH2 8723   3.666   2.796   0.805
 2920TIP3    H1 8724   3.688   2.709   0.838
 2920TIP3    H2 8725   3.633   2.843   0.882
 2921TIP3   OH2 8726   0.750   4.647   3.365
 2921TIP3    H1 8727   0.701   4.646   3.448
 2921TIP3    H2 8728   0.839   4.672   3.390
 2922TIP3   OH2 8729   2.381   0.168   0.214
 2922TIP3    H1 8730   2.305   0.134   0.167
 2922TIP3    H2 8731   2.454   0.112   0.187
 2923TIP3   OH2 8732   2.973   4.581   4.289
 2923TIP3    H1 8733   2.926   4.498   4.293
 2923TIP3    H2 8734   2.923   4.640   4.347
 2924TIP3   OH2 8735   0.975   0.053   3.722
 2924TIP3    H1 8736   1.024   0.042   3.804
 2924TIP3    H2 8737   1.042   0.076   3.658
 2925TIP3   OH2 8738   0.330   5.493   2.641
 2925TIP3    H1 8739   0.284   5.418   2.680
 2925TIP3    H2 8740   0.386   5.526   2.711
 2926TIP3   OH2 8741   5.012   5.220   4.933
 2926TIP3    H1 8742   5.042   5.241   5.021
 2926TIP3    H2 8743   4.969   5.301   4.903
 2927TIP3   OH2 8744   4.002   4.118   3.996
 2927TIP3    H1 8745   3.937   4.171   3.949
 2927TIP3    H2 8746   4.008   4.158   4.082
 2928TIP3   OH2 8747   5.806   5.233   3.987
 2928TIP3    H1 8748   5.893   5.274   3.995
 2928TIP3    H2 8749   5.764   5.250   4.071
 2929TIP3   OH2 8750   4.500   4.906   4.328
 2929TIP3    H1 8751   4.407   4.892   4.314
 2929TIP3    H2 8752   4.521   4.983   4.275
 2930TIP3   OH2 8753   0.693   1.378   4.663
 2930TIP3    H1 8754   0.657   1.304   4.615
 2930TIP3    H2 8755   0.736   1.432   4.596
 2931TIP3   OH2 8756   1.616   2.016   1.318
 2931TIP3    H1 8757   1.704   1.991   1.290
 2931TIP3    H2 8758   1.561   1.996   1.242
 2932TIP3   OH2 8759   1.269   5.582   1.410
 2932TIP3    H1 8760   1.279   5.487   1.402
 2932TIP3    H2 8761   1.359   5.614   1.416
 2933TIP3   OH2 8762   6.477   1.424   0.935
 2933TIP3    H1 8763   6.422   1.379   0.999
 2933TIP3    H2 8764   6.434   1.408   0.851
 2934TIP3   OH2 8765   1.378   5.556   4.354
 2934TIP3    H1 8766   1.348   5.516   4.435
 2934TIP3    H2 8767   1.425   5.486   4.308
 2935TIP3   OH2 8768   5.509   3.441   1.721
 2935TIP3    H1 8769   5.533   3.386   1.796
 2935TIP3    H2 8770   5.495   3.379   1.650
 2936TIP3   OH2 8771   2.420   5.777   1.397
 2936TIP3    H1 8772   2.455   5.702   1.445
 2936TIP3    H2 8773   2.498   5.825   1.367
 2937TIP3   OH2 8774   7.166   0.137   1.023
 2937TIP3    H1 8775   7.075   0.110   1.030
 2937TIP3    H2 8776   7.212   0.081   1.086
 2938TIP3   OH2 8777   7.148   3.923   5.770
 2938TIP3    H1 8778   7.133   3.961   5.683
 2938TIP3    H2 8779   7.236   3.886   5.765
 2939TIP3   OH2 8780   5.013   3.046   5.535
 2939TIP3    H1 8781   4.957   3.070   5.461
 2939TIP3    H2 8782   5.100   3.034   5.496
 2940TIP3   OH2 8783   0.605   0.867   0.282
 2940TIP3    H1 8784   0.567   0.795   0.231
 2940TIP3    H2 8785   0.605   0.941   0.222
 2941TIP3   OH2 8786   3.701   3.650   4.859
 2941TIP3    H1 8787   3.785   3.648   4.813
 2941TIP3    H2 8788   3.682   3.559   4.879
 2942TIP3   OH2 8789   1.845   2.673   2.194
 2942TIP3    H1 8790   1.809   2.613   2.259
 2942TIP3    H2 8791   1.936   2.645   2.183
 2943TIP3   OH2 8792   4.033   5.023   5.755
 2943TIP3    H1 8793   4.081   4.949   5.792
 2943TIP3    H2 8794   4.088   5.099   5.772
 2944TIP3   OH2 8795   3.353   0.720   0.939
 2944TIP3    H1 8796   3.329   0.769   0.861
 2944TIP3    H2 8797   3.336   0.780   1.012
 2945TIP3   OH2 8798   6.340   1.372   4.761
 2945TIP3    H1 8799   6.373   1.343   4.676
 2945TIP3    H2 8800   6.252   1.335   4.766
 2946TIP3   OH2 8801   6.112   2.090   5.615
 2946TIP3    H1 8802   6.177   2.124   5.554
 2946TIP3    H2 8803   6.035   2.145   5.601
 2947TIP3   OH2 8804   0.927   4.048   5.612
 2947TIP3    H1 8805   0.941   4.054   5.517
 2947TIP3    H2 8806   0.961   4.131   5.646
 2948TIP3   OH2 8807   2.497   5.710   2.339
 2948TIP3    H1 8808   2.456   5.700   2.253
 2948TIP3    H2 8809   2.571   5.649   2.338
 2949TIP3   OH2 8810   4.892   3.528   5.530
 2949TIP3    H1 8811   4.961   3.558   5.472
 2949TIP3    H2 8812   4.811   3.563   5.491
 2950TIP3   OH2 8813   5.176   6.212   2.858
 2950TIP3    H1 8814   5.167   6.133   2.806
 2950TIP3    H2 8815   5.091   6.257   2.849
 2951TIP3   OH2 8816   0.199   5.623   1.114
 2951TIP3    H1 8817   0.176   5.716   1.113
 2951TIP3    H2 8818   0.274   5.617   1.055
 2952TIP3   OH2 8819   0.291   4.557   5.842
 2952TIP3    H1 8820   0.263   4.573   5.932
 2952TIP3    H2 8821   0.211   4.531   5.797
 2953TIP3   OH2 8822  -0.043   5.807   1.963
 2953TIP3    H1 8823   0.041   5.771   1.932
 2953TIP3    H2 8824  -0.065   5.874   1.898
 2954TIP3   OH2 8825   4.608   5.115   3.624
 2954TIP3    H1 8826   4.627   5.093   3.532
 2954TIP3    H2 8827   4.676   5.069   3.673
 2955TIP3   OH2 8828   3.286   4.299   5.595
 2955TIP3    H1 8829   3.295   4.305   5.500
 2955TIP3    H2 8830   3.322   4.213   5.617
 2956TIP3   OH2 8831   3.189   3.924   1.836
 2956TIP3    H1 8832   3.271   3.880   1.812
 2956TIP3    H2 8833   3.201   4.014   1.808
 2957TIP3   OH2 8834   5.217   4.084   5.764
 2957TIP3    H1 8835   5.263   4.137   5.829
 2957TIP3    H2 8836   5.133   4.127   5.753
 2958TIP3   OH2 8837   3.674   2.071   4.349
 2958TIP3    H1 8838   3.586   2.100   4.325
 2958TIP3    H2 8839   3.726   2.084   4.270
 2959TIP3   OH2 8840   3.394   6.481   4.223
 2959TIP3    H1 8841   3.403   6.444   4.310
 2959TIP3    H2 8842   3.353   6.566   4.236
 2960TIP3   OH2 8843   2.007   6.188   1.958
 2960TIP3    H1 8844   1.941   6.256   1.973
 2960TIP3    H2 8845   2.078   6.210   2.019
 2961TIP3   OH2 8846   3.411   4.290   1.162
 2961TIP3    H1 8847   3.341   4.354   1.153
 2961TIP3    H2 8848   3.466   4.304   1.084
 2962TIP3   OH2 8849   2.270   0.546   1.965
 2962TIP3    H1 8850   2.338   0.589   2.017
 2962TIP3    H2 8851   2.311   0.529   1.881
 2963TIP3   OH2 8852   3.882   3.788   2.855
 2963TIP3    H1 8853   3.795   3.750   2.844
 2963TIP3    H2 8854   3.912   3.805   2.766
 2964TIP3   OH2 8855   6.930   0.629   3.941
 2964TIP3    H1 8856   6.998   0.565   3.920
 2964TIP3    H2 8857   6.888   0.647   3.856
 2965TIP3   OH2 8858   1.373   6.332   3.636
 2965TIP3    H1 8859   1.437   6.319   3.566
 2965TIP3    H2 8860   1.315   6.256   3.630
 2966TIP3   OH2 8861   2.377   1.282   0.477
 2966TIP3    H1 8862   2.295   1.314   0.515
 2966TIP3    H2 8863   2.380   1.320   0.390
 2967TIP3   OH2 8864   0.428   5.731   4.910
 2967TIP3    H1 8865   0.412   5.824   4.924
 2967TIP3    H2 8866   0.509   5.713   4.959
 2968TIP3   OH2 8867   2.021   0.326   0.087
 2968TIP3    H1 8868   2.110   0.353   0.066
 2968TIP3    H2 8869   1.985   0.294   0.004
 2969TIP3   OH2 8870   6.579   3.672   4.424
 2969TIP3    H1 8871   6.603   3.583   4.451
 2969TIP3    H2 8872   6.608   3.728   4.495
 2970TIP3   OH2 8873   6.249   1.058   3.752
 2970TIP3    H1 8874   6.332   1.104   3.749
 2970TIP3    H2 8875   6.226   1.055   3.845
 2971TIP3   OH2 8876   5.783   6.123   4.847
 2971TIP3    H1 8877   5.729   6.066   4.793
 2971TIP3    H2 8878   5.872   6.112   4.813
 2972TIP3   OH2 8879   5.881   4.350   2.630
 2972TIP3    H1 8880   5.867   4.380   2.720
 2972TIP3    H2 8881   5.923   4.264   2.639
 2973TIP3   OH2 8882   3.408   3.548   2.730
 2973TIP3    H1 8883   3.410   3.468   2.783
 2973TIP3    H2 8884   3.388   3.518   2.641
 2974TIP3   OH2 8885   5.146   2.416   2.997
 2974TIP3    H1 8886   5.210   2.345   2.996
 2974TIP3    H2 8887   5.085   2.395   2.926
 2975TIP3   OH2 8888   2.685   1.731   3.552
 2975TIP3    H1 8889   2.688   1.645   3.595
 2975TIP3    H2 8890   2.768   1.737   3.505
 2976TIP3   OH2 8891   0.650   1.715   5.584
 2976TIP3    H1 8892   0.624   1.805   5.565
 2976TIP3    H2 8893   0.618   1.664   5.510
 2977TIP3   OH2 8894   4.552   4.060   2.846
 2977TIP3    H1 8895   4.587   4.025   2.927
 2977TIP3    H2 8896   4.528   4.150   2.867
 2978TIP3   OH2 8897   5.860   3.226   5.656
 2978TIP3    H1 8898   5.923   3.247   5.587
 2978TIP3    H2 8899   5.865   3.300   5.716
 2979TIP3   OH2 8900   0.819   3.306   4.340
 2979TIP3    H1 8901   0.904   3.294   4.382
 2979TIP3    H2 8902   0.764   3.237   4.377
 2980TIP3   OH2 8903   2.295   3.607   5.224
 2980TIP3    H1 8904   2.357   3.672   5.258
 2980TIP3    H2 8905   2.220   3.613   5.284
 2981TIP3   OH2 8906   6.912   5.363   1.616
 2981TIP3    H1 8907   6.891   5.422   1.688
 2981TIP3    H2 8908   6.907   5.416   1.538
 2982TIP3   OH2 8909   0.097   2.706   1.350
 2982TIP3    H1 8910   0.061   2.767   1.415
 2982TIP3    H2 8911   0.060   2.736   1.267
 2983TIP3   OH2 8912   6.955   2.512   3.079
 2983TIP3    H1 8913   6.912   2.450   3.020
 2983TIP3    H2 8914   7.030   2.544   3.030
 2984TIP3   OH2 8915   5.352   5.704   1.480
 2984TIP3    H1 8916   5.273   5.755   1.499
 2984TIP3    H2 8917   5.342   5.678   1.388
 2985TIP3   OH2 8918   1.000   6.219   2.279
 2985TIP3    H1 8919   1.037   6.180   2.199
 2985TIP3    H2 8920   1.030   6.310   2.277
 2986TIP3   OH2 8921   4.379   5.554   2.882
 2986TIP3    H1 8922   4.307   5.502   2.918
 2986TIP3    H2 8923   4.372   5.544   2.787
 2987TIP3   OH2 8924   0.937   1.347   3.005
 2987TIP3    H1 8925   1.016   1.396   3.029
 2987TIP3    H2 8926   0.874   1.415   2.980
 2988TIP3   OH2 8927   2.098   0.214   2.534
 2988TIP3    H1 8928   2.178   0.195   2.582
 2988TIP3    H2 8929   2.089   0.309   2.538
 2989TIP3   OH2 8930   4.290   2.631   2.198
 2989TIP3    H1 8931   4.294   2.718   2.237
 2989TIP3    H2 8932   4.251   2.575   2.265
 2990TIP3   OH2 8933   5.087   4.896   3.516
 2990TIP3    H1 8934   5.177   4.890   3.549
 2990TIP3    H2 8935   5.079   4.823   3.454
 2991TIP3   OH2 8936   1.631   2.306   1.384
 2991TIP3    H1 8937   1.675   2.279   1.303
 2991TIP3    H2 8938   1.681   2.263   1.453
 2992TIP3   OH2 8939   6.011   1.275   5.245
 2992TIP3    H1 8940   5.990   1.310   5.158
 2992TIP3    H2 8941   6.057   1.193   5.227
 2993TIP3   OH2 8942   1.565   6.643   0.000
 2993TIP3    H1 8943   1.580   6.654   0.094
 2993TIP3    H2 8944   1.470   6.634  -0.008
 2994TIP3   OH2 8945   0.782   1.385   3.568
 2994TIP3    H1 8946   0.720   1.347   3.631
 2994TIP3    H2 8947   0.727   1.425   3.501
 2995TIP3   OH2 8948   3.488   0.389   1.500
 2995TIP3    H1 8949   3.451   0.456   1.559
 2995TIP3    H2 8950   3.466   0.420   1.412
 2996TIP3   OH2 8951   6.523   0.783   3.678
 2996TIP3    H1 8952   6.454   0.726   3.645
 2996TIP3    H2 8953   6.553   0.739   3.758
 2997TIP3   OH2 8954   2.419   4.317   0.375
 2997TIP3    H1 8955   2.500   4.318   0.425
 2997TIP3    H2 8956   2.440   4.270   0.294
 2998TIP3   OH2 8957   0.068   2.284   5.453
 2998TIP3    H1 8958   0.010   2.208   5.461
 2998TIP3    H2 8959   0.076   2.317   5.542
 2999TIP3   OH2 8960   2.819   1.275   4.016
 2999TIP3    H1 8961   2.746   1.247   4.072
 2999TIP3    H2 8962   2.778   1.329   3.949
 3000TIP3   OH2 8963   3.048   0.489   5.708
 3000TIP3    H1 8964   3.076   0.507   5.618
 3000TIP3    H2 8965   2.981   0.555   5.725
 3001TIP3   OH2 8966   6.662   2.036   1.809
 3001TIP3    H1 8967   6.730   2.104   1.814
 3001TIP3    H2 8968   6.708   1.959   1.775
 3002TIP3   OH2 8969   5.963   6.090   1.903
 3002TIP3    H1 8970   5.982   6.091   1.997
 3002TIP3    H2 8971   6.048   6.085   1.861
 3003TIP3   OH2 8972   5.139   4.505   0.555
 3003TIP3    H1 8973   5.050   4.516   0.523
 3003TIP3    H2 8974   5.129   4.482   0.647
 3004TIP3   OH2 8975   0.782   2.399   1.219
 3004TIP3    H1 8976   0.750   2.310   1.229
 3004TIP3    H2 8977   0.836   2.414   1.297
 3005TIP3   OH2 8978   3.248   5.840   1.183
 3005TIP3    H1 8979   3.179   5.810   1.124
 3005TIP3    H2 8980   3.204   5.854   1.267
 3006TIP3   OH2 8981   0.626   4.010   4.471
 3006TIP3    H1 8982   0.676   4.002   4.552
 3006TIP3    H2 8983   0.534   4.015   4.499
 3007TIP3   OH2 8984   2.983   0.161   2.202
 3007TIP3    H1 8985   2.946   0.240   2.242
 3007TIP3    H2 8986   2.917   0.094   2.213
 3008TIP3   OH2 8987   0.721   0.838   2.571
 3008TIP3    H1 8988   0.743   0.831   2.663
 3008TIP3    H2 8989   0.734   0.931   2.550
 3009TIP3   OH2 8990   6.720   6.201   2.039
 3009TIP3    H1 8991   6.643   6.258   2.042
 3009TIP3    H2 8992   6.709   6.148   1.960
 3010TIP3   OH2 8993   5.705   6.396   5.397
 3010TIP3    H1 8994   5.622   6.383   5.351
 3010TIP3    H2 8995   5.721   6.314   5.442
 3011TIP3   OH2 8996   2.091   3.140   4.187
 3011TIP3    H1 8997   2.173   3.148   4.237
 3011TIP3    H2 8998   2.046   3.066   4.227
 3012TIP3   OH2 8999   1.148   4.110   4.141
 3012TIP3    H1 9000   1.243   4.112   4.152
 3012TIP3    H2 9001   1.119   4.039   4.198
 3013TIP3   OH2 9002   5.118   5.707   3.783
 3013TIP3    H1 9003   5.147   5.658   3.859
 3013TIP3    H2 9004   5.044   5.658   3.749
 3014TIP3   OH2 9005   1.793   4.912   1.978
 3014TIP3    H1 9006   1.860   4.976   1.954
 3014TIP3    H2 9007   1.711   4.952   1.952
 3015TIP3   OH2 9008   3.096   2.686   1.258
 3015TIP3    H1 9009   3.119   2.593   1.260
 3015TIP3    H2 9010   3.026   2.695   1.323
 3016TIP3   OH2 9011   1.287   5.311   1.365
 3016TIP3    H1 9012   1.293   5.304   1.270
 3016TIP3    H2 9013   1.199   5.280   1.386
 3017TIP3   OH2 9014   2.996   2.843   4.449
 3017TIP3    H1 9015   2.956   2.899   4.516
 3017TIP3    H2 9016   2.976   2.754   4.477
 3018TIP3   OH2 9017   3.674   0.846   5.687
 3018TIP3    H1 9018   3.729   0.846   5.765
 3018TIP3    H2 9019   3.590   0.882   5.716
 3019TIP3   OH2 9020   2.809   3.487   2.922
 3019TIP3    H1 9021   2.741   3.459   2.861
 3019TIP3    H2 9022   2.826   3.409   2.975
 3020TIP3   OH2 9023   2.540   5.468   5.444
 3020TIP3    H1 9024   2.602   5.414   5.494
 3020TIP3    H2 9025   2.536   5.426   5.358
 3021TIP3   OH2 9026   4.417   2.689   1.366
 3021TIP3    H1 9027   4.439   2.599   1.388
 3021TIP3    H2 9028   4.403   2.688   1.271
 3022TIP3   OH2 9029   4.266   3.012   2.861
 3022TIP3    H1 9030   4.287   3.052   2.777
 3022TIP3    H2 9031   4.197   3.068   2.898
 3023TIP3   OH2 9032   3.605   2.377   5.480
 3023TIP3    H1 9033   3.526   2.409   5.522
 3023TIP3    H2 9034   3.584   2.287   5.455
 3024TIP3   OH2 9035   1.054   5.212   5.087
 3024TIP3    H1 9036   1.003   5.133   5.101
 3024TIP3    H2 9037   1.103   5.195   5.006
 3025TIP3   OH2 9038   6.940   1.443   3.427
 3025TIP3    H1 9039   6.925   1.518   3.485
 3025TIP3    H2 9040   6.988   1.479   3.353
 3026TIP3   OH2 9041   3.360   0.065   1.457
 3026TIP3    H1 9042   3.442   0.030   1.491
 3026TIP3    H2 9043   3.295   0.043   1.524
 3027TIP3   OH2 9044   1.740   3.961   5.680
 3027TIP3    H1 9045   1.758   3.884   5.733
 3027TIP3    H2 9046   1.656   3.943   5.638
 3028TIP3   OH2 9047   1.022   4.570   0.760
 3028TIP3    H1 9048   1.066   4.652   0.741
 3028TIP3    H2 9049   0.946   4.569   0.702
 3029TIP3   OH2 9050   3.507   2.579   2.196
 3029TIP3    H1 9051   3.493   2.599   2.104
 3029TIP3    H2 9052   3.496   2.663   2.241
 3030TIP3   OH2 9053   5.495   3.590   3.435
 3030TIP3    H1 9054   5.488   3.501   3.400
 3030TIP3    H2 9055   5.486   3.579   3.529
 3031TIP3   OH2 9056   5.570   4.305   3.011
 3031TIP3    H1 9057   5.497   4.366   3.020
 3031TIP3    H2 9058   5.629   4.328   3.083
 3032TIP3   OH2 9059   0.234   3.018   5.365
 3032TIP3    H1 9060   0.225   3.107   5.398
 3032TIP3    H2 9061   0.157   2.972   5.398
 3033TIP3   OH2 9062   1.522   6.788   3.242
 3033TIP3    H1 9063   1.521   6.873   3.286
 3033TIP3    H2 9064   1.572   6.731   3.300
 3034TIP3   OH2 9065   5.157   6.460   4.576
 3034TIP3    H1 9066   5.070   6.496   4.595
 3034TIP3    H2 9067   5.139   6.371   4.545
 3035TIP3   OH2 9068   1.885   6.077   4.375
 3035TIP3    H1 9069   1.903   6.135   4.301
 3035TIP3    H2 9070   1.807   6.116   4.416
 3036TIP3   OH2 9071   6.945   1.725   3.548
 3036TIP3    H1 9072   6.897   1.740   3.629
 3036TIP3    H2 9073   6.880   1.736   3.479
 3037TIP3   OH2 9074   2.212   2.839   4.939
 3037TIP3    H1 9075   2.170   2.884   4.866
 3037TIP3    H2 9076   2.249   2.909   4.993
 3038TIP3   OH2 9077   5.718   5.642   1.225
 3038TIP3    H1 9078   5.632   5.602   1.228
 3038TIP3    H2 9079   5.741   5.656   1.317
 3039TIP3   OH2 9080   6.017   5.135   4.868
 3039TIP3    H1 9081   6.105   5.157   4.898
 3039TIP3    H2 9082   6.022   5.140   4.773
 3040TIP3   OH2 9083   2.727   6.269   0.558
 3040TIP3    H1 9084   2.666   6.314   0.501
 3040TIP3    H2 9085   2.724   6.177   0.529
 3041TIP3   OH2 9086   3.899   6.469   0.172
 3041TIP3    H1 9087   3.833   6.406   0.142
 3041TIP3    H2 9088   3.926   6.437   0.258
 3042TIP3   OH2 9089   2.337   2.267   3.734
 3042TIP3    H1 9090   2.253   2.312   3.734
 3042TIP3    H2 9091   2.376   2.291   3.819
 3043TIP3   OH2 9092   5.320   6.152   2.511
 3043TIP3    H1 9093   5.360   6.238   2.502
 3043TIP3    H2 9094   5.390   6.090   2.489
 3044TIP3   OH2 9095   5.000   3.057   0.086
 3044TIP3    H1 9096   5.092   3.054   0.115
 3044TIP3    H2 9097   4.973   2.965   0.084
 3045TIP3   OH2 9098   2.114   5.947   4.893
 3045TIP3    H1 9099   2.083   5.974   4.807
 3045TIP3    H2 9100   2.146   5.858   4.880
 3046TIP3   OH2 9101   5.957   2.323   5.224
 3046TIP3    H1 9102   6.004   2.403   5.200
 3046TIP3    H2 9103   5.874   2.353   5.260
 3047TIP3   OH2 9104   2.149   6.804   4.449
 3047TIP3    H1 9105   2.131   6.721   4.405
 3047TIP3    H2 9106   2.236   6.791   4.489
 3048TIP3   OH2 9107   0.726   5.831   5.362
 3048TIP3    H1 9108   0.767   5.810   5.445
 3048TIP3    H2 9109   0.799   5.841   5.300
 3049TIP3   OH2 9110   5.706   0.832   4.085
 3049TIP3    H1 9111   5.694   0.906   4.145
 3049TIP3    H2 9112   5.712   0.756   4.143
 3050TIP3   OH2 9113   5.505   1.141   5.413
 3050TIP3    H1 9114   5.466   1.191   5.341
 3050TIP3    H2 9115   5.598   1.134   5.389
 3051TIP3   OH2 9116   1.011   6.643   0.280
 3051TIP3    H1 9117   0.983   6.562   0.322
 3051TIP3    H2 9118   0.948   6.658   0.210
 3052TIP3   OH2 9119   2.508   3.621   2.948
 3052TIP3    H1 9120   2.558   3.548   2.912
 3052TIP3    H2 9121   2.461   3.657   2.873
 3053TIP3   OH2 9122   4.655   0.359   5.137
 3053TIP3    H1 9123   4.699   0.341   5.220
 3053TIP3    H2 9124   4.722   0.400   5.082
 3054TIP3   OH2 9125   1.255   6.637   2.131
 3054TIP3    H1 9126   1.274   6.681   2.048
 3054TIP3    H2 9127   1.328   6.576   2.143
 3055TIP3   OH2 9128   3.616   4.274   5.814
 3055TIP3    H1 9129   3.602   4.300   5.905
 3055TIP3    H2 9130   3.545   4.213   5.796
 3056TIP3   OH2 9131   5.488   6.342   1.300
 3056TIP3    H1 9132   5.533   6.258   1.294
 3056TIP3    H2 9133   5.395   6.318   1.310
 3057TIP3   OH2 9134   1.892   2.617   4.762
 3057TIP3    H1 9135   1.953   2.553   4.798
 3057TIP3    H2 9136   1.853   2.658   4.840
 3058TIP3   OH2 9137   5.020   5.941   0.791
 3058TIP3    H1 9138   5.029   5.947   0.696
 3058TIP3    H2 9139   5.026   5.847   0.810
 3059TIP3   OH2 9140   2.538   0.398   1.903
 3059TIP3    H1 9141   2.447   0.381   1.880
 3059TIP3    H2 9142   2.576   0.434   1.822
 3060TIP3   OH2 9143   4.692   0.056   4.079
 3060TIP3    H1 9144   4.761   0.094   4.025
 3060TIP3    H2 9145   4.687   0.112   4.156
 3061TIP3   OH2 9146   6.200   1.877   1.733
 3061TIP3    H1 9147   6.125   1.929   1.703
 3061TIP3    H2 9148   6.274   1.938   1.728
 3062TIP3   OH2 9149   4.636   3.004   2.671
 3062TIP3    H1 9150   4.567   2.996   2.606
 3062TIP3    H2 9151   4.698   2.935   2.649
 3063TIP3   OH2 9152   3.849   1.170   2.290
 3063TIP3    H1 9153   3.929   1.117   2.290
 3063TIP3    H2 9154   3.878   1.257   2.262
 3064TIP3   OH2 9155   4.363   1.627   1.780
 3064TIP3    H1 9156   4.401   1.569   1.714
 3064TIP3    H2 9157   4.274   1.593   1.794
 3065TIP3   OH2 9158   0.558   3.879   1.151
 3065TIP3    H1 9159   0.579   3.794   1.190
 3065TIP3    H2 9160   0.475   3.904   1.193
 3066TIP3   OH2 9161   2.622   4.546   5.174
 3066TIP3    H1 9162   2.696   4.572   5.229
 3066TIP3    H2 9163   2.627   4.450   5.172
 3067TIP3   OH2 9164   5.884   1.053   1.873
 3067TIP3    H1 9165   5.880   1.094   1.960
 3067TIP3    H2 9166   5.797   1.065   1.837
 3068TIP3   OH2 9167   2.028   1.755   2.349
 3068TIP3    H1 9168   2.000   1.664   2.332
 3068TIP3    H2 9169   1.961   1.789   2.408
 3069TIP3   OH2 9170   5.199   4.495   4.729
 3069TIP3    H1 9171   5.194   4.574   4.675
 3069TIP3    H2 9172   5.253   4.519   4.804
 3070TIP3   OH2 9173   1.326   0.125   5.098
 3070TIP3    H1 9174   1.236   0.111   5.068
 3070TIP3    H2 9175   1.377   0.057   5.053
 3071TIP3   OH2 9176   3.168   4.347   2.744
 3071TIP3    H1 9177   3.093   4.294   2.717
 3071TIP3    H2 9178   3.242   4.287   2.741
 3072TIP3   OH2 9179   0.563   0.679   3.779
 3072TIP3    H1 9180   0.635   0.741   3.774
 3072TIP3    H2 9181   0.563   0.634   3.695
 3073TIP3   OH2 9182   5.478   2.389   5.211
 3073TIP3    H1 9183   5.561   2.414   5.171
 3073TIP3    H2 9184   5.477   2.433   5.296
 3074TIP3   OH2 9185   3.256   4.467   5.803
 3074TIP3    H1 9186   3.261   4.393   5.742
 3074TIP3    H2 9187   3.343   4.505   5.802
 3075TIP3   OH2 9188   0.254   3.330   2.351
 3075TIP3    H1 9189   0.164   3.361   2.347
 3075TIP3    H2 9190   0.255   3.268   2.424
 3076TIP3   OH2 9191   6.397   0.481   2.900
 3076TIP3    H1 9192   6.314   0.494   2.946
 3076TIP3    H2 9193   6.377   0.419   2.830
 3077TIP3   OH2 9194   6.137   2.016   1.999
 3077TIP3    H1 9195   6.187   2.096   2.012
 3077TIP3    H2 9196   6.190   1.964   1.938
 3078TIP3   OH2 9197   3.663   3.096   5.193
 3078TIP3    H1 9198   3.579   3.076   5.151
 3078TIP3    H2 9199   3.654   3.061   5.282
 3079TIP3   OH2 9200   5.777   4.276   0.343
 3079TIP3    H1 9201   5.682   4.270   0.356
 3079TIP3    H2 9202   5.790   4.256   0.250
 3080TIP3   OH2 9203   0.776   3.469   5.954
 3080TIP3    H1 9204   0.830   3.507   5.885
 3080TIP3    H2 9205   0.823   3.390   5.981
 3081TIP3   OH2 9206   3.919   6.628   3.429
 3081TIP3    H1 9207   3.977   6.586   3.493
 3081TIP3    H2 9208   3.831   6.617   3.464
 3082TIP3   OH2 9209   3.660   1.496   4.672
 3082TIP3    H1 9210   3.570   1.512   4.701
 3082TIP3    H2 9211   3.711   1.567   4.713
 3083TIP3   OH2 9212   3.328   4.172   3.324
 3083TIP3    H1 9213   3.335   4.094   3.269
 3083TIP3    H2 9214   3.384   4.237   3.281
 3084TIP3   OH2 9215   5.269   5.874   4.533
 3084TIP3    H1 9216   5.180   5.853   4.559
 3084TIP3    H2 9217   5.263   5.892   4.439
 3085TIP3   OH2 9218   5.871   1.414   1.970
 3085TIP3    H1 9219   5.884   1.406   1.876
 3085TIP3    H2 9220   5.954   1.383   2.008
 3086TIP3   OH2 9221   3.975   0.493   0.026
 3086TIP3    H1 9222   4.025   0.416   0.052
 3086TIP3    H2 9223   4.028   0.567   0.057
 3087TIP3   OH2 9224   0.466   0.439   5.514
 3087TIP3    H1 9225   0.553   0.451   5.552
 3087TIP3    H2 9226   0.482   0.412   5.424
 3088TIP3   OH2 9227   2.141   1.255   1.385
 3088TIP3    H1 9228   2.086   1.326   1.418
 3088TIP3    H2 9229   2.170   1.284   1.299
 3089TIP3   OH2 9230   6.514   3.435   3.838
 3089TIP3    H1 9231   6.545   3.488   3.765
 3089TIP3    H2 9232   6.536   3.485   3.916
 3090TIP3   OH2 9233   7.086   4.316   0.623
 3090TIP3    H1 9234   7.140   4.357   0.690
 3090TIP3    H2 9235   7.003   4.297   0.667
 3091TIP3   OH2 9236   4.246   3.678   1.366
 3091TIP3    H1 9237   4.255   3.772   1.349
 3091TIP3    H2 9238   4.265   3.636   1.282
 3092TIP3   OH2 9239   4.973   5.304   3.640
 3092TIP3    H1 9240   4.934   5.331   3.557
 3092TIP3    H2 9241   4.931   5.360   3.706
 3093TIP3   OH2 9242   0.176   0.711   1.541
 3093TIP3    H1 9243   0.162   0.616   1.538
 3093TIP3    H2 9244   0.190   0.731   1.634
 3094TIP3   OH2 9245   6.417   1.783   1.996
 3094TIP3    H1 9246   6.322   1.785   2.008
 3094TIP3    H2 9247   6.444   1.875   2.002
 3095TIP3   OH2 9248   3.353   4.866   1.508
 3095TIP3    H1 9249   3.327   4.933   1.444
 3095TIP3    H2 9250   3.304   4.788   1.481
 3096TIP3   OH2 9251   5.442   5.996   1.350
 3096TIP3    H1 9252   5.394   5.968   1.428
 3096TIP3    H2 9253   5.434   5.922   1.289
 3097TIP3   OH2 9254   0.170   0.265   1.448
 3097TIP3    H1 9255   0.244   0.229   1.401
 3097TIP3    H2 9256   0.123   0.189   1.482
 3098TIP3   OH2 9257   3.104   4.082   3.872
 3098TIP3    H1 9258   3.076   4.090   3.963
 3098TIP3    H2 9259   3.023   4.084   3.822
 3099TIP3   OH2 9260   5.586   0.183   5.055
 3099TIP3    H1 9261   5.527   0.112   5.028
 3099TIP3    H2 9262   5.534   0.235   5.117
 3100TIP3   OH2 9263   0.253   2.862   2.322
 3100TIP3    H1 9264   0.158   2.879   2.321
 3100TIP3    H2 9265   0.273   2.843   2.413
 3101TIP3   OH2 9266   4.169   2.600   1.961
 3101TIP3    H1 9267   4.222   2.595   2.040
 3101TIP3    H2 9268   4.210   2.538   1.901
 3102TIP3   OH2 9269   5.353   2.326   0.829
 3102TIP3    H1 9270   5.298   2.384   0.882
 3102TIP3    H2 9271   5.389   2.263   0.892
 3103TIP3   OH2 9272   2.812   2.604   5.246
 3103TIP3    H1 9273   2.768   2.660   5.309
 3103TIP3    H2 9274   2.747   2.589   5.177
 3104TIP3   OH2 9275   4.812   0.751   1.589
 3104TIP3    H1 9276   4.838   0.714   1.673
 3104TIP3    H2 9277   4.735   0.804   1.608
 3105TIP3   OH2 9278   6.147   6.499   3.469
 3105TIP3    H1 9279   6.174   6.407   3.473
 3105TIP3    H2 9280   6.144   6.519   3.376
 3106TIP3   OH2 9281   3.608   5.212   2.270
 3106TIP3    H1 9282   3.602   5.117   2.277
 3106TIP3    H2 9283   3.612   5.229   2.176
 3107TIP3   OH2 9284   1.547   1.571   0.249
 3107TIP3    H1 9285   1.611   1.642   0.251
 3107TIP3    H2 9286   1.576   1.511   0.318
 3108TIP3   OH2 9287   0.528   3.679   0.912
 3108TIP3    H1 9288   0.474   3.739   0.862
 3108TIP3    H2 9289   0.517   3.706   1.003
 3109TIP3   OH2 9290   1.609   0.545   1.915
 3109TIP3    H1 9291   1.582   0.522   1.826
 3109TIP3    H2 9292   1.702   0.526   1.918
 3110TIP3   OH2 9293   4.620   4.750   3.895
 3110TIP3    H1 9294   4.603   4.835   3.937
 3110TIP3    H2 9295   4.565   4.751   3.817
 3111TIP3   OH2 9296   3.759   3.720   4.354
 3111TIP3    H1 9297   3.682   3.765   4.388
 3111TIP3    H2 9298   3.724   3.657   4.291
 3112TIP3   OH2 9299   1.505   6.538   3.400
 3112TIP3    H1 9300   1.474   6.584   3.478
 3112TIP3    H2 9301   1.439   6.472   3.383
 3113TIP3   OH2 9302   6.326   5.178   5.337
 3113TIP3    H1 9303   6.392   5.139   5.280
 3113TIP3    H2 9304   6.284   5.246   5.283
 3114TIP3   OH2 9305   2.001   5.800   4.170
 3114TIP3    H1 9306   2.023   5.885   4.133
 3114TIP3    H2 9307   2.066   5.740   4.132
 3115TIP3   OH2 9308   0.087   5.412   1.973
 3115TIP3    H1 9309   0.051   5.338   1.923
 3115TIP3    H2 9310   0.164   5.376   2.017
 3116TIP3   OH2 9311   1.643   6.508   4.574
 3116TIP3    H1 9312   1.568   6.509   4.633
 3116TIP3    H2 9313   1.650   6.597   4.541
 3117TIP3   OH2 9314   2.316   5.897   0.545
 3117TIP3    H1 9315   2.246   5.873   0.605
 3117TIP3    H2 9316   2.281   5.970   0.494
 3118TIP3   OH2 9317   4.473   3.764   0.598
 3118TIP3    H1 9318   4.452   3.691   0.540
 3118TIP3    H2 9319   4.421   3.749   0.676
 3119TIP3   OH2 9320   4.429   3.862   5.245
 3119TIP3    H1 9321   4.362   3.822   5.300
 3119TIP3    H2 9322   4.387   3.871   5.159
 3120TIP3   OH2 9323   2.667   3.557   3.907
 3120TIP3    H1 9324   2.611   3.538   3.832
 3120TIP3    H2 9325   2.756   3.546   3.874
 3121TIP3   OH2 9326   4.876   4.987   5.921
 3121TIP3    H1 9327   4.882   4.918   5.854
 3121TIP3    H2 9328   4.828   5.057   5.879
 3122TIP3   OH2 9329   4.282   1.409   3.385
 3122TIP3    H1 9330   4.288   1.323   3.427
 3122TIP3    H2 9331   4.329   1.468   3.444
 3123TIP3   OH2 9332   3.010   5.502  -0.039
 3123TIP3    H1 9333   3.058   5.584  -0.038
 3123TIP3    H2 9334   3.073   5.437  -0.008
 3124TIP3   OH2 9335   4.660   4.384   2.954
 3124TIP3    H1 9336   4.593   4.410   3.017
 3124TIP3    H2 9337   4.611   4.354   2.877
 3125TIP3   OH2 9338   5.790   0.254   2.642
 3125TIP3    H1 9339   5.702   0.238   2.608
 3125TIP3    H2 9340   5.793   0.206   2.725
 3126TIP3   OH2 9341   1.454   6.619   4.311
 3126TIP3    H1 9342   1.531   6.626   4.368
 3126TIP3    H2 9343   1.444   6.525   4.298
 3127TIP3   OH2 9344   0.533   2.567   5.239
 3127TIP3    H1 9345   0.578   2.650   5.256
 3127TIP3    H2 9346   0.482   2.550   5.319
 3128TIP3   OH2 9347   2.329   5.005   5.792
 3128TIP3    H1 9348   2.258   5.062   5.764
 3128TIP3    H2 9349   2.299   4.917   5.768
 3129TIP3   OH2 9350   5.590   1.027   0.762
 3129TIP3    H1 9351   5.567   1.118   0.744
 3129TIP3    H2 9352   5.546   0.977   0.693
 3130TIP3   OH2 9353   2.354   6.643   4.783
 3130TIP3    H1 9354   2.286   6.706   4.803
 3130TIP3    H2 9355   2.337   6.569   4.841
 3131TIP3   OH2 9356   2.946   5.317   0.795
 3131TIP3    H1 9357   2.898   5.345   0.718
 3131TIP3    H2 9358   3.006   5.249   0.764
 3132TIP3   OH2 9359   5.561   1.114   1.617
 3132TIP3    H1 9360   5.505   1.069   1.554
 3132TIP3    H2 9361   5.640   1.060   1.621
 3133TIP3   OH2 9362   1.295   0.968   4.908
 3133TIP3    H1 9363   1.386   0.940   4.896
 3133TIP3    H2 9364   1.284   0.972   5.003
 3134TIP3   OH2 9365   3.956   4.675   5.212
 3134TIP3    H1 9366   3.930   4.592   5.174
 3134TIP3    H2 9367   3.997   4.723   5.140
 3135TIP3   OH2 9368   6.280   2.764   2.338
 3135TIP3    H1 9369   6.356   2.706   2.338
 3135TIP3    H2 9370   6.295   2.824   2.266
 3136TIP3   OH2 9371   1.022   6.772   3.122
 3136TIP3    H1 9372   1.006   6.851   3.174
 3136TIP3    H2 9373   1.114   6.779   3.097
 3137TIP3   OH2 9374   0.910   4.762   1.409
 3137TIP3    H1 9375   0.935   4.774   1.501
 3137TIP3    H2 9376   0.819   4.791   1.405
 3138TIP3   OH2 9377   5.280   0.145   2.699
 3138TIP3    H1 9378   5.237   0.061   2.713
 3138TIP3    H2 9379   5.249   0.201   2.770
 3139TIP3   OH2 9380   4.917   1.285   0.458
 3139TIP3    H1 9381   4.861   1.211   0.483
 3139TIP3    H2 9382   4.943   1.265   0.368
 3140TIP3   OH2 9383   2.389   3.712   1.679
 3140TIP3    H1 9384   2.466   3.761   1.651
 3140TIP3    H2 9385   2.316   3.754   1.632
 3141TIP3   OH2 9386   2.286   4.119   1.655
 3141TIP3    H1 9387   2.227   4.190   1.680
 3141TIP3    H2 9388   2.230   4.042   1.649
 3142TIP3   OH2 9389   6.573   5.307   5.475
 3142TIP3    H1 9390   6.488   5.278   5.442
 3142TIP3    H2 9391   6.565   5.303   5.570
 3143TIP3   OH2 9392   4.687   1.545   2.196
 3143TIP3    H1 9393   4.669   1.556   2.289
 3143TIP3    H2 9394   4.618   1.594   2.152
 3144TIP3   OH2 9395   5.383   2.387   2.430
 3144TIP3    H1 9396   5.383   2.476   2.465
 3144TIP3    H2 9397   5.447   2.340   2.484
 3145TIP3   OH2 9398   1.024   0.672   3.300
 3145TIP3    H1 9399   1.010   0.646   3.391
 3145TIP3    H2 9400   0.939   0.661   3.258
 3146TIP3   OH2 9401   0.555   2.386   0.304
 3146TIP3    H1 9402   0.496   2.431   0.244
 3146TIP3    H2 9403   0.606   2.327   0.247
 3147TIP3   OH2 9404   5.923   4.184   2.202
 3147TIP3    H1 9405   5.970   4.147   2.127
 3147TIP3    H2 9406   5.842   4.132   2.207
 3148TIP3   OH2 9407   2.927   5.906   2.967
 3148TIP3    H1 9408   3.011   5.863   2.981
 3148TIP3    H2 9409   2.897   5.928   3.055
 3149TIP3   OH2 9410   5.767   2.976   5.309
 3149TIP3    H1 9411   5.727   3.031   5.243
 3149TIP3    H2 9412   5.854   3.014   5.323
 3150TIP3   OH2 9413  -0.002   4.531   3.651
 3150TIP3    H1 9414   0.079   4.480   3.647
 3150TIP3    H2 9415  -0.048   4.496   3.727
 3151TIP3   OH2 9416   5.237   3.055   1.270
 3151TIP3    H1 9417   5.205   3.024   1.354
 3151TIP3    H2 9418   5.326   3.020   1.263
 3152TIP3   OH2 9419   0.096   6.119   1.271
 3152TIP3    H1 9420   0.049   6.188   1.317
 3152TIP3    H2 9421   0.182   6.157   1.253
 3153TIP3   OH2 9422   0.503   5.974   0.526
 3153TIP3    H1 9423   0.573   5.924   0.568
 3153TIP3    H2 9424   0.543   6.012   0.449
 3154TIP3   OH2 9425   2.228   2.351   0.255
 3154TIP3    H1 9426   2.223   2.444   0.232
 3154TIP3    H2 9427   2.136   2.324   0.263
 3155TIP3   OH2 9428   5.928   3.356   0.318
 3155TIP3    H1 9429   5.982   3.319   0.248
 3155TIP3    H2 9430   5.980   3.428   0.354
 3156TIP3   OH2 9431   0.535   2.785   0.366
 3156TIP3    H1 9432   0.465   2.835   0.409
 3156TIP3    H2 9433   0.613   2.838   0.381
 3157TIP3   OH2 9434   4.612   4.332   5.364
 3157TIP3    H1 9435   4.701   4.359   5.385
 3157TIP3    H2 9436   4.617   4.238   5.352
 3158TIP3   OH2 9437   6.586   3.466   2.700
 3158TIP3    H1 9438   6.679   3.454   2.682
 3158TIP3    H2 9439   6.559   3.536   2.640
 3159TIP3   OH2 9440   1.333   3.308   3.353
 3159TIP3    H1 9441   1.426   3.332   3.357
 3159TIP3    H2 9442   1.323   3.268   3.266
 3160TIP3   OH2 9443   7.180   0.845   2.268
 3160TIP3    H1 9444   7.202   0.907   2.337
 3160TIP3    H2 9445   7.169   0.761   2.314
 3161TIP3   OH2 9446   4.589   4.157   5.039
 3161TIP3    H1 9447   4.616   4.222   4.973
 3161TIP3    H2 9448   4.503   4.128   5.009
 3162TIP3   OH2 9449   5.152   2.705   3.889
 3162TIP3    H1 9450   5.107   2.735   3.810
 3162TIP3    H2 9451   5.133   2.611   3.894
 3163TIP3   OH2 9452   6.883   4.068   5.688
 3163TIP3    H1 9453   6.892   4.064   5.593
 3163TIP3    H2 9454   6.798   4.029   5.706
 3164TIP3   OH2 9455   4.021   3.377   1.295
 3164TIP3    H1 9456   3.970   3.316   1.349
 3164TIP3    H2 9457   4.108   3.376   1.333
 3165TIP3   OH2 9458   0.428   2.810   5.440
 3165TIP3    H1 9459   0.362   2.865   5.397
 3165TIP3    H2 9460   0.390   2.722   5.438
 3166TIP3   OH2 9461   7.203   5.230   1.763
 3166TIP3    H1 9462   7.114   5.218   1.796
 3166TIP3    H2 9463   7.193   5.282   1.683
 3167TIP3   OH2 9464   2.418   0.407   1.465
 3167TIP3    H1 9465   2.339   0.461   1.469
 3167TIP3    H2 9466   2.465   0.438   1.388
 3168TIP3   OH2 9467   2.618   2.703   0.834
 3168TIP3    H1 9468   2.630   2.757   0.755
 3168TIP3    H2 9469   2.642   2.614   0.806
 3169TIP3   OH2 9470   4.352   4.161   0.422
 3169TIP3    H1 9471   4.436   4.116   0.409
 3169TIP3    H2 9472   4.316   4.121   0.501
 3170TIP3   OH2 9473   5.927   5.443   2.341
 3170TIP3    H1 9474   5.906   5.408   2.255
 3170TIP3    H2 9475   5.970   5.371   2.386
 3171TIP3   OH2 9476   1.638   1.614   1.433
 3171TIP3    H1 9477   1.679   1.539   1.476
 3171TIP3    H2 9478   1.590   1.659   1.503
 3172TIP3   OH2 9479   5.565   5.580   0.398
 3172TIP3    H1 9480   5.637   5.626   0.354
 3172TIP3    H2 9481   5.566   5.492   0.359
 3173TIP3   OH2 9482   4.599   2.868   0.369
 3173TIP3    H1 9483   4.578   2.833   0.456
 3173TIP3    H2 9484   4.582   2.795   0.309
 3174TIP3   OH2 9485   3.927   0.669   4.690
 3174TIP3    H1 9486   3.852   0.683   4.632
 3174TIP3    H2 9487   3.907   0.720   4.768
 3175TIP3   OH2 9488   6.468   5.569   2.955
 3175TIP3    H1 9489   6.526   5.645   2.954
 3175TIP3    H2 9490   6.394   5.596   3.010
 3176TIP3   OH2 9491   6.956   0.575   4.246
 3176TIP3    H1 9492   6.934   0.487   4.278
 3176TIP3    H2 9493   6.938   0.632   4.321
 3177TIP3   OH2 9494   3.024   6.414   0.945
 3177TIP3    H1 9495   3.059   6.325   0.942
 3177TIP3    H2 9496   2.987   6.428   0.857
 3178TIP3   OH2 9497   5.150   3.408   2.329
 3178TIP3    H1 9498   5.199   3.378   2.252
 3178TIP3    H2 9499   5.073   3.351   2.332
 3179TIP3   OH2 9500   7.103   3.726   2.182
 3179TIP3    H1 9501   7.146   3.810   2.169
 3179TIP3    H2 9502   7.010   3.744   2.172
 3180TIP3   OH2 9503   4.025   6.137   4.626
 3180TIP3    H1 9504   3.947   6.086   4.650
 3180TIP3    H2 9505   4.073   6.081   4.567
 3181TIP3   OH2 9506   3.310   2.278   3.667
 3181TIP3    H1 9507   3.286   2.281   3.574
 3181TIP3    H2 9508   3.393   2.324   3.672
 3182TIP3   OH2 9509   6.361   5.267   4.162
 3182TIP3    H1 9510   6.438   5.292   4.111
 3182TIP3    H2 9511   6.309   5.347   4.168
 3183TIP3   OH2 9512   4.561   5.392   0.526
 3183TIP3    H1 9513   4.548   5.435   0.611
 3183TIP3    H2 9514   4.507   5.313   0.531
 3184TIP3   OH2 9515   1.950   5.176   0.172
 3184TIP3    H1 9516   1.991   5.123   0.103
 3184TIP3    H2 9517   1.864   5.137   0.184
 3185TIP3   OH2 9518   6.450   5.760   4.932
 3185TIP3    H1 9519   6.518   5.800   4.986
 3185TIP3    H2 9520   6.386   5.725   4.995
 3186TIP3   OH2 9521   2.851   3.435   4.260
 3186TIP3    H1 9522   2.866   3.517   4.212
 3186TIP3    H2 9523   2.819   3.375   4.193
 3187TIP3   OH2 9524   0.582   6.420   1.353
 3187TIP3    H1 9525   0.586   6.510   1.320
 3187TIP3    H2 9526   0.656   6.413   1.414
 3188TIP3   OH2 9527   2.811   4.650   0.064
 3188TIP3    H1 9528   2.718   4.647   0.038
 3188TIP3    H2 9529   2.838   4.740   0.047
 3189TIP3   OH2 9530   0.564   6.337   4.261
 3189TIP3    H1 9531   0.574   6.423   4.301
 3189TIP3    H2 9532   0.477   6.308   4.288
 3190TIP3   OH2 9533   6.114   6.024   4.197
 3190TIP3    H1 9534   6.156   6.103   4.232
 3190TIP3    H2 9535   6.055   6.057   4.129
 3191TIP3   OH2 9536   2.789   1.100   1.524
 3191TIP3    H1 9537   2.862   1.077   1.582
 3191TIP3    H2 9538   2.830   1.109   1.438
 3192TIP3   OH2 9539   3.653   1.754   5.580
 3192TIP3    H1 9540   3.603   1.674   5.563
 3192TIP3    H2 9541   3.744   1.726   5.576
 3193TIP3   OH2 9542   4.234   3.039   5.197
 3193TIP3    H1 9543   4.286   3.045   5.277
 3193TIP3    H2 9544   4.293   2.996   5.134
 3194TIP3   OH2 9545   6.837   5.801   5.081
 3194TIP3    H1 9546   6.859   5.839   4.996
 3194TIP3    H2 9547   6.889   5.851   5.144
 3195TIP3   OH2 9548   5.240   5.000   3.873
 3195TIP3    H1 9549   5.236   5.076   3.816
 3195TIP3    H2 9550   5.318   4.952   3.844
 3196TIP3   OH2 9551   1.607   6.208   3.451
 3196TIP3    H1 9552   1.545   6.239   3.385
 3196TIP3    H2 9553   1.663   6.146   3.404
 3197TIP3   OH2 9554   0.489   4.932   0.807
 3197TIP3    H1 9555   0.397   4.911   0.795
 3197TIP3    H2 9556   0.504   4.922   0.902
 3198TIP3   OH2 9557   5.496   3.090   5.586
 3198TIP3    H1 9558   5.402   3.106   5.589
 3198TIP3    H2 9559   5.530   3.157   5.527
 3199TIP3   OH2 9560   6.093   2.539   3.509
 3199TIP3    H1 9561   6.182   2.540   3.473
 3199TIP3    H2 9562   6.105   2.535   3.604
 3200TIP3   OH2 9563   3.709   1.062   1.940
 3200TIP3    H1 9564   3.620   1.091   1.921
 3200TIP3    H2 9565   3.698   0.979   1.986
 3201TIP3   OH2 9566   2.299   0.324   1.764
 3201TIP3    H1 9567   2.241   0.248   1.760
 3201TIP3    H2 9568   2.261   0.386   1.702
 3202TIP3   OH2 9569   5.945   6.411   0.161
 3202TIP3    H1 9570   5.854   6.430   0.184
 3202TIP3    H2 9571   5.958   6.453   0.077
 3203TIP3   OH2 9572   1.485   2.338   3.043
 3203TIP3    H1 9573   1.519   2.335   3.133
 3203TIP3    H2 9574   1.450   2.250   3.028
 3204TIP3   OH2 9575   7.256   5.097   4.205
 3204TIP3    H1 9576   7.252   5.075   4.298
 3204TIP3    H2 9577   7.224   5.018   4.160
 3205TIP3   OH2 9578   2.145   2.017   2.251
 3205TIP3    H1 9579   2.126   2.005   2.158
 3205TIP3    H2 9580   2.131   1.931   2.290
 3206TIP3   OH2 9581   2.075   3.043   4.730
 3206TIP3    H1 9582   2.006   3.075   4.672
 3206TIP3    H2 9583   2.156   3.074   4.688
 3207TIP3   OH2 9584   0.286   1.380   0.168
 3207TIP3    H1 9585   0.241   1.431   0.235
 3207TIP3    H2 9586   0.218   1.324   0.131
 3208TIP3   OH2 9587   4.572   3.812   5.602
 3208TIP3    H1 9588   4.625   3.788   5.526
 3208TIP3    H2 9589   4.516   3.736   5.616
 3209TIP3   OH2 9590   4.568   5.791   0.303
 3209TIP3    H1 9591   4.584   5.794   0.209
 3209TIP3    H2 9592   4.610   5.711   0.333
 3210TIP3   OH2 9593   0.050   3.924   5.233
 3210TIP3    H1 9594   0.126   3.875   5.201
 3210TIP3    H2 9595   0.079   4.016   5.233
 3211TIP3   OH2 9596   4.762   4.216   0.342
 3211TIP3    H1 9597   4.784   4.138   0.392
 3211TIP3    H2 9598   4.785   4.194   0.252
 3212TIP3   OH2 9599   6.141   0.566   3.451
 3212TIP3    H1 9600   6.114   0.654   3.425
 3212TIP3    H2 9601   6.100   0.553   3.536
 3213TIP3   OH2 9602   3.014   5.014   0.810
 3213TIP3    H1 9603   2.919   5.029   0.812
 3213TIP3    H2 9604   3.028   4.961   0.732
 3214TIP3   OH2 9605   6.121   1.278   3.031
 3214TIP3    H1 9606   6.039   1.293   2.985
 3214TIP3    H2 9607   6.174   1.356   3.010
 3215TIP3   OH2 9608   2.442   6.032   0.104
 3215TIP3    H1 9609   2.389   6.056   0.027
 3215TIP3    H2 9610   2.424   5.939   0.118
 3216TIP3   OH2 9611   0.913   2.891   3.930
 3216TIP3    H1 9612   0.851   2.882   4.003
 3216TIP3    H2 9613   0.989   2.934   3.969
 3217TIP3   OH2 9614   3.940   2.704   0.408
 3217TIP3    H1 9615   4.014   2.703   0.348
 3217TIP3    H2 9616   3.880   2.769   0.372
 3218TIP3   OH2 9617   1.620   0.060   4.673
 3218TIP3    H1 9618   1.709   0.027   4.686
 3218TIP3    H2 9619   1.627   0.154   4.688
 3219TIP3   OH2 9620   2.946   5.677   3.284
 3219TIP3    H1 9621   2.905   5.596   3.253
 3219TIP3    H2 9622   2.882   5.745   3.262
 3220TIP3   OH2 9623   6.232   2.551   4.381
 3220TIP3    H1 9624   6.309   2.507   4.418
 3220TIP3    H2 9625   6.172   2.479   4.358
 3221TIP3   OH2 9626   4.339   6.227   2.898
 3221TIP3    H1 9627   4.434   6.221   2.908
 3221TIP3    H2 9628   4.310   6.278   2.974
 3222TIP3   OH2 9629   5.453   5.807   0.510
 3222TIP3    H1 9630   5.476   5.728   0.459
 3222TIP3    H2 9631   5.374   5.782   0.558
 3223TIP3   OH2 9632   3.430   3.994   1.200
 3223TIP3    H1 9633   3.502   3.980   1.261
 3223TIP3    H2 9634   3.415   4.089   1.203
 3224TIP3   OH2 9635   4.575   3.225   3.612
 3224TIP3    H1 9636   4.627   3.228   3.693
 3224TIP3    H2 9637   4.596   3.308   3.568
 3225TIP3   OH2 9638   7.204   5.769   3.472
 3225TIP3    H1 9639   7.268   5.756   3.401
 3225TIP3    H2 9640   7.248   5.738   3.551
 3226TIP3   OH2 9641   2.373   2.948   0.511
 3226TIP3    H1 9642   2.346   2.972   0.600
 3226TIP3    H2 9643   2.413   2.861   0.521
 3227TIP3   OH2 9644   6.828   2.871   0.119
 3227TIP3    H1 9645   6.842   2.902   0.208
 3227TIP3    H2 9646   6.912   2.886   0.075
 3228TIP3   OH2 9647   6.609   4.748   3.397
 3228TIP3    H1 9648   6.602   4.839   3.367
 3228TIP3    H2 9649   6.680   4.711   3.345
 3229TIP3   OH2 9650   4.430   5.154   0.491
 3229TIP3    H1 9651   4.338   5.129   0.487
 3229TIP3    H2 9652   4.470   5.111   0.415
 3230TIP3   OH2 9653   4.946   3.262   1.315
 3230TIP3    H1 9654   5.026   3.304   1.347
 3230TIP3    H2 9655   4.937   3.292   1.225
 3231TIP3   OH2 9656   2.462   5.893   5.749
 3231TIP3    H1 9657   2.421   5.807   5.744
 3231TIP3    H2 9658   2.458   5.917   5.842
 3232TIP3   OH2 9659   5.376   1.422   0.594
 3232TIP3    H1 9660   5.330   1.484   0.651
 3232TIP3    H2 9661   5.433   1.373   0.654
 3233TIP3   OH2 9662   5.849   5.997   3.693
 3233TIP3    H1 9663   5.868   5.955   3.609
 3233TIP3    H2 9664   5.888   6.084   3.686
 3234TIP3   OH2 9665   3.686   0.775   2.554
 3234TIP3    H1 9666   3.652   0.863   2.540
 3234TIP3    H2 9667   3.723   0.750   2.469
 3235TIP3   OH2 9668   3.891   0.971   2.724
 3235TIP3    H1 9669   3.800   0.974   2.694
 3235TIP3    H2 9670   3.921   1.062   2.718
 3236TIP3   OH2 9671   2.574   2.954   3.433
 3236TIP3    H1 9672   2.598   3.045   3.421
 3236TIP3    H2 9673   2.629   2.906   3.369
 3237TIP3   OH2 9674   1.432   3.470   0.948
 3237TIP3    H1 9675   1.345   3.439   0.973
 3237TIP3    H2 9676   1.440   3.449   0.855
 3238TIP3   OH2 9677   3.502   0.296   4.423
 3238TIP3    H1 9678   3.591   0.281   4.390
 3238TIP3    H2 9679   3.514   0.330   4.512
 3239TIP3   OH2 9680   2.757   3.343   2.183
 3239TIP3    H1 9681   2.819   3.329   2.255
 3239TIP3    H2 9682   2.675   3.305   2.215
 3240TIP3   OH2 9683   6.017   5.249   5.559
 3240TIP3    H1 9684   6.062   5.307   5.620
 3240TIP3    H2 9685   6.060   5.164   5.571
 3241TIP3   OH2 9686   3.194   5.336   5.383
 3241TIP3    H1 9687   3.153   5.258   5.345
 3241TIP3    H2 9688   3.284   5.334   5.351
 3242TIP3   OH2 9689   6.085   3.773   3.817
 3242TIP3    H1 9690   5.997   3.810   3.811
 3242TIP3    H2 9691   6.144   3.845   3.793
 3243TIP3   OH2 9692   1.384   1.635   1.192
 3243TIP3    H1 9693   1.337   1.706   1.148
 3243TIP3    H2 9694   1.369   1.651   1.285
 3244TIP3   OH2 9695   3.231   5.701   2.161
 3244TIP3    H1 9696   3.268   5.766   2.221
 3244TIP3    H2 9697   3.303   5.679   2.102
 3245TIP3   OH2 9698   4.573   3.997   4.095
 3245TIP3    H1 9699   4.605   4.066   4.153
 3245TIP3    H2 9700   4.558   4.040   4.012
 3246TIP3   OH2 9701   5.109   5.117   2.998
 3246TIP3    H1 9702   5.093   5.135   2.905
 3246TIP3    H2 9703   5.090   5.200   3.042
 3247TIP3   OH2 9704   0.894   3.807   1.610
 3247TIP3    H1 9705   0.896   3.746   1.684
 3247TIP3    H2 9706   0.843   3.881   1.641
 3248TIP3   OH2 9707   5.929   0.052   0.362
 3248TIP3    H1 9708   5.950   0.060   0.268
 3248TIP3    H2 9709   5.852   0.107   0.374
 3249TIP3   OH2 9710   2.837   2.507   2.300
 3249TIP3    H1 9711   2.787   2.445   2.247
 3249TIP3    H2 9712   2.788   2.589   2.293
 3250TIP3   OH2 9713   0.046   3.000   5.098
 3250TIP3    H1 9714  -0.013   3.039   5.163
 3250TIP3    H2 9715   0.039   3.058   5.022
 3251TIP3   OH2 9716   3.620   5.529   5.349
 3251TIP3    H1 9717   3.550   5.588   5.379
 3251TIP3    H2 9718   3.670   5.581   5.286
 3252TIP3   OH2 9719   2.515   4.621   5.945
 3252TIP3    H1 9720   2.496   4.584   5.859
 3252TIP3    H2 9721   2.474   4.561   6.007
 3253TIP3   OH2 9722   7.129   5.034   3.004
 3253TIP3    H1 9723   7.091   5.101   2.947
 3253TIP3    H2 9724   7.056   4.979   3.029
 3254TIP3   OH2 9725   3.482   5.972   1.986
 3254TIP3    H1 9726   3.491   5.929   2.071
 3254TIP3    H2 9727   3.408   6.032   1.997
 3255TIP3   OH2 9728   5.195   3.892   5.425
 3255TIP3    H1 9729   5.269   3.940   5.462
 3255TIP3    H2 9730   5.133   3.960   5.399
 3256TIP3   OH2 9731   6.859   5.937   0.717
 3256TIP3    H1 9732   6.854   5.868   0.783
 3256TIP3    H2 9733   6.827   6.015   0.762
 3257TIP3   OH2 9734   4.517   0.376   4.723
 3257TIP3    H1 9735   4.592   0.326   4.756
 3257TIP3    H2 9736   4.456   0.310   4.692
 3258TIP3   OH2 9737   2.706   3.734   2.552
 3258TIP3    H1 9738   2.801   3.737   2.559
 3258TIP3    H2 9739   2.681   3.823   2.527
 3259TIP3   OH2 9740   1.754   5.829   2.913
 3259TIP3    H1 9741   1.791   5.918   2.915
 3259TIP3    H2 9742   1.750   5.803   3.005
 3260TIP3   OH2 9743   4.765   3.868   0.210
 3260TIP3    H1 9744   4.670   3.877   0.206
 3260TIP3    H2 9745   4.784   3.796   0.150
 3261TIP3   OH2 9746   0.101   6.754   0.104
 3261TIP3    H1 9747   0.131   6.679   0.156
 3261TIP3    H2 9748   0.165   6.761   0.033
 3262TIP3   OH2 9749   0.651   4.739   4.562
 3262TIP3    H1 9750   0.710   4.810   4.587
 3262TIP3    H2 9751   0.572   4.784   4.532
 3263TIP3   OH2 9752   3.615   0.624   3.084
 3263TIP3    H1 9753   3.573   0.680   3.018
 3263TIP3    H2 9754   3.709   0.638   3.070
 3264TIP3   OH2 9755   4.450   4.792   4.787
 3264TIP3    H1 9756   4.494   4.875   4.767
 3264TIP3    H2 9757   4.468   4.736   4.711
 3265TIP3   OH2 9758   1.449   0.304   4.426
 3265TIP3    H1 9759   1.490   0.301   4.340
 3265TIP3    H2 9760   1.520   0.324   4.486
 3266TIP3   OH2 9761   1.062   0.962   4.689
 3266TIP3    H1 9762   0.997   0.920   4.633
 3266TIP3    H2 9763   1.141   0.966   4.635
 3267TIP3   OH2 9764   2.583   5.224   5.653
 3267TIP3    H1 9765   2.596   5.248   5.745
 3267TIP3    H2 9766   2.501   5.267   5.628
 3268TIP3   OH2 9767   4.030   6.132   0.882
 3268TIP3    H1 9768   4.097   6.075   0.919
 3268TIP3    H2 9769   3.992   6.081   0.811
 3269TIP3   OH2 9770   5.328   6.180   4.360
 3269TIP3    H1 9771   5.412   6.177   4.405
 3269TIP3    H2 9772   5.326   6.098   4.310
 3270TIP3   OH2 9773   4.977   6.201   0.402
 3270TIP3    H1 9774   4.922   6.163   0.471
 3270TIP3    H2 9775   4.988   6.131   0.338
 3271TIP3   OH2 9776   5.041   4.646   1.215
 3271TIP3    H1 9777   5.065   4.590   1.289
 3271TIP3    H2 9778   5.082   4.730   1.236
 3272TIP3   OH2 9779   3.201   5.347   5.757
 3272TIP3    H1 9780   3.216   5.412   5.826
 3272TIP3    H2 9781   3.203   5.263   5.803
 3273TIP3   OH2 9782   0.244   6.380   5.413
 3273TIP3    H1 9783   0.269   6.300   5.365
 3273TIP3    H2 9784   0.243   6.448   5.347
 3274TIP3   OH2 9785   4.157   0.431   5.099
 3274TIP3    H1 9786   4.244   0.467   5.079
 3274TIP3    H2 9787   4.101   0.464   5.028
 3275TIP3   OH2 9788   4.277   3.691   5.391
 3275TIP3    H1 9789   4.243   3.730   5.471
 3275TIP3    H2 9790   4.206   3.636   5.359
 3276TIP3   OH2 9791   4.509   6.392   3.657
 3276TIP3    H1 9792   4.505   6.433   3.743
 3276TIP3    H2 9793   4.429   6.341   3.649
 3277TIP3   OH2 9794   1.552   3.317   0.547
 3277TIP3    H1 9795   1.478   3.377   0.542
 3277TIP3    H2 9796   1.541   3.258   0.472
 3278TIP3   OH2 9797   3.885   2.125   5.042
 3278TIP3    H1 9798   3.914   2.150   4.955
 3278TIP3    H2 9799   3.917   2.195   5.099
 3279TIP3   OH2 9800   1.468   1.111   1.335
 3279TIP3    H1 9801   1.474   1.207   1.337
 3279TIP3    H2 9802   1.468   1.089   1.242
 3280TIP3   OH2 9803   5.799   1.449   0.229
 3280TIP3    H1 9804   5.800   1.355   0.212
 3280TIP3    H2 9805   5.871   1.462   0.291
 3281TIP3   OH2 9806   3.936   4.722   0.926
 3281TIP3    H1 9807   4.016   4.730   0.978
 3281TIP3    H2 9808   3.881   4.795   0.954
 3282TIP3   OH2 9809   6.722   2.800   3.380
 3282TIP3    H1 9810   6.742   2.811   3.473
 3282TIP3    H2 9811   6.645   2.743   3.378
 3283TIP3   OH2 9812   4.863   5.405   5.539
 3283TIP3    H1 9813   4.935   5.343   5.554
 3283TIP3    H2 9814   4.907   5.489   5.526
 3284TIP3   OH2 9815   3.335   4.411   4.831
 3284TIP3    H1 9816   3.268   4.478   4.818
 3284TIP3    H2 9817   3.338   4.398   4.926
 3285TIP3   OH2 9818   2.096   2.264   0.629
 3285TIP3    H1 9819   2.164   2.323   0.660
 3285TIP3    H2 9820   2.126   2.235   0.542
 3286TIP3   OH2 9821   2.393   2.659   2.058
 3286TIP3    H1 9822   2.402   2.564   2.063
 3286TIP3    H2 9823   2.405   2.680   1.966
 3287TIP3   OH2 9824   4.129   1.235   0.463
 3287TIP3    H1 9825   4.068   1.202   0.528
 3287TIP3    H2 9826   4.198   1.170   0.459
 3288TIP3   OH2 9827   0.766   2.186   1.370
 3288TIP3    H1 9828   0.833   2.206   1.436
 3288TIP3    H2 9829   0.710   2.121   1.411
 3289TIP3   OH2 9830   4.497   4.599   5.257
 3289TIP3    H1 9831   4.404   4.583   5.270
 3289TIP3    H2 9832   4.541   4.528   5.303
 3290TIP3   OH2 9833   7.076   1.806   1.677
 3290TIP3    H1 9834   7.077   1.763   1.592
 3290TIP3    H2 9835   7.147   1.870   1.672
 3291TIP3   OH2 9836   0.256   0.497   0.145
 3291TIP3    H1 9837   0.193   0.434   0.108
 3291TIP3    H2 9838   0.271   0.560   0.075
 3292TIP3   OH2 9839   4.373   1.655   4.202
 3292TIP3    H1 9840   4.308   1.674   4.270
 3292TIP3    H2 9841   4.356   1.721   4.135
 3293TIP3   OH2 9842   1.799   3.297   0.262
 3293TIP3    H1 9843   1.793   3.306   0.167
 3293TIP3    H2 9844   1.799   3.202   0.277
 3294TIP3   OH2 9845   2.158   1.821   3.878
 3294TIP3    H1 9846   2.083   1.784   3.831
 3294TIP3    H2 9847   2.204   1.872   3.812
 3295TIP3   OH2 9848   0.645   3.133   1.655
 3295TIP3    H1 9849   0.724   3.101   1.613
 3295TIP3    H2 9850   0.631   3.073   1.729
 3296TIP3   OH2 9851   3.356   0.423   3.938
 3296TIP3    H1 9852   3.398   0.400   4.021
 3296TIP3    H2 9853   3.288   0.486   3.962
 3297TIP3   OH2 9854   3.685   5.559   2.225
 3297TIP3    H1 9855   3.765   5.571   2.174
 3297TIP3    H2 9856   3.656   5.470   2.204
 3298TIP3   OH2 9857   4.435   4.904   5.839
 3298TIP3    H1 9858   4.502   4.962   5.801
 3298TIP3    H2 9859   4.473   4.817   5.833
 3299TIP3   OH2 9860   1.834   1.243   1.414
 3299TIP3    H1 9861   1.866   1.318   1.364
 3299TIP3    H2 9862   1.831   1.171   1.351
 3300TIP3   OH2 9863   3.208   2.962   5.130
 3300TIP3    H1 9864   3.264   3.038   5.115
 3300TIP3    H2 9865   3.150   2.960   5.054
 3301TIP3   OH2 9866   0.651   3.026   1.296
 3301TIP3    H1 9867   0.607   2.946   1.266
 3301TIP3    H2 9868   0.679   3.005   1.385
 3302TIP3   OH2 9869   4.487   6.538   3.882
 3302TIP3    H1 9870   4.553   6.607   3.881
 3302TIP3    H2 9871   4.483   6.509   3.973
 3303TIP3   OH2 9872   2.238   1.308   1.650
 3303TIP3    H1 9873   2.204   1.225   1.685
 3303TIP3    H2 9874   2.183   1.325   1.573
 3304TIP3   OH2 9875   5.058   6.657   0.985
 3304TIP3    H1 9876   5.104   6.576   0.962
 3304TIP3    H2 9877   4.965   6.634   0.980
 3305TIP3   OH2 9878   3.846   4.999   4.081
 3305TIP3    H1 9879   3.792   4.953   4.145
 3305TIP3    H2 9880   3.897   5.062   4.132
 3306TIP3   OH2 9881   3.171   1.891   1.689
 3306TIP3    H1 9882   3.240   1.828   1.707
 3306TIP3    H2 9883   3.210   1.976   1.707
 3307TIP3   OH2 9884   6.094   0.838   3.638
 3307TIP3    H1 9885   6.124   0.908   3.696
 3307TIP3    H2 9886   6.087   0.761   3.694
 3308TIP3   OH2 9887   6.584   6.301   3.633
 3308TIP3    H1 9888   6.491   6.283   3.620
 3308TIP3    H2 9889   6.622   6.217   3.657
 3309TIP3   OH2 9890   6.577   6.449   1.405
 3309TIP3    H1 9891   6.641   6.520   1.395
 3309TIP3    H2 9892   6.574   6.407   1.319
 3310TIP3   OH2 9893   6.411   5.803   0.577
 3310TIP3    H1 9894   6.443   5.717   0.552
 3310TIP3    H2 9895   6.322   5.807   0.540
 3311TIP3   OH2 9896   6.960   5.823   3.568
 3311TIP3    H1 9897   6.918   5.740   3.591
 3311TIP3    H2 9898   7.037   5.798   3.518
 3312TIP3   OH2 9899   2.137   0.397   2.842
 3312TIP3    H1 9900   2.157   0.334   2.912
 3312TIP3    H2 9901   2.042   0.405   2.843
 3313TIP3   OH2 9902   5.471   0.629   1.330
 3313TIP3    H1 9903   5.397   0.572   1.352
 3313TIP3    H2 9904   5.535   0.571   1.289
 3314TIP3   OH2 9905   6.059   3.812   0.658
 3314TIP3    H1 9906   5.992   3.879   0.674
 3314TIP3    H2 9907   6.142   3.859   0.664
 3315TIP3   OH2 9908   7.134   4.094   0.950
 3315TIP3    H1 9909   7.160   4.061   1.035
 3315TIP3    H2 9910   7.215   4.099   0.900
 3316TIP3   OH2 9911   5.357   3.979   1.763
 3316TIP3    H1 9912   5.398   3.895   1.741
 3316TIP3    H2 9913   5.263   3.964   1.749
 3317TIP3   OH2 9914   1.072   1.337   1.872
 3317TIP3    H1 9915   1.126   1.270   1.829
 3317TIP3    H2 9916   1.128   1.415   1.875
 3318TIP3   OH2 9917   3.591   1.321   0.466
 3318TIP3    H1 9918   3.623   1.404   0.500
 3318TIP3    H2 9919   3.581   1.335   0.372
 3319TIP3   OH2 9920   3.651   6.118   4.920
 3319TIP3    H1 9921   3.556   6.123   4.912
 3319TIP3    H2 9922   3.675   6.038   4.873
 3320TIP3   OH2 9923   0.108   3.663   0.383
 3320TIP3    H1 9924   0.082   3.710   0.462
 3320TIP3    H2 9925   0.097   3.726   0.312
 3321TIP3   OH2 9926   6.743   3.087   4.403
 3321TIP3    H1 9927   6.803   3.155   4.371
 3321TIP3    H2 9928   6.798   3.011   4.419
 3322TIP3   OH2 9929   2.316   6.422   2.241
 3322TIP3    H1 9930   2.271   6.497   2.202
 3322TIP3    H2 9931   2.281   6.346   2.195
 3323TIP3   OH2 9932   0.428   4.513   4.875
 3323TIP3    H1 9933   0.520   4.537   4.881
 3323TIP3    H2 9934   0.381   4.585   4.917
 3324TIP3   OH2 9935   3.043   5.799   0.337
 3324TIP3    H1 9936   2.960   5.758   0.311
 3324TIP3    H2 9937   3.058   5.867   0.271
 3325TIP3   OH2 9938   5.531   4.700   0.952
 3325TIP3    H1 9939   5.546   4.689   1.046
 3325TIP3    H2 9940   5.488   4.785   0.944
 3326TIP3   OH2 9941   4.146   5.197   2.707
 3326TIP3    H1 9942   4.234   5.233   2.717
 3326TIP3    H2 9943   4.116   5.181   2.796
 3327TIP3   OH2 9944   2.909   2.589   0.612
 3327TIP3    H1 9945   2.851   2.598   0.687
 3327TIP3    H2 9946   2.856   2.616   0.537
 3328TIP3   OH2 9947   1.329   1.290   2.859
 3328TIP3    H1 9948   1.289   1.258   2.940
 3328TIP3    H2 9949   1.377   1.214   2.825
 3329TIP3   OH2 9950   2.546   1.390   5.260
 3329TIP3    H1 9951   2.480   1.321   5.244
 3329TIP3    H2 9952   2.606   1.352   5.324
 3330TIP3   OH2 9953   4.140   3.286   5.430
 3330TIP3    H1 9954   4.120   3.264   5.339
 3330TIP3    H2 9955   4.218   3.235   5.450
 3331TIP3   OH2 9956   4.679   3.157   1.377
 3331TIP3    H1 9957   4.689   3.073   1.421
 3331TIP3    H2 9958   4.756   3.164   1.321
 3332TIP3   OH2 9959   1.129   5.232   3.364
 3332TIP3    H1 9960   1.209   5.244   3.415
 3332TIP3    H2 9961   1.078   5.310   3.381
 3333TIP3   OH2 9962   6.164   2.536   1.308
 3333TIP3    H1 9963   6.118   2.486   1.240
 3333TIP3    H2 9964   6.141   2.490   1.389
 3334TIP3   OH2 9965   3.482   2.029   1.462
 3334TIP3    H1 9966   3.471   1.945   1.507
 3334TIP3    H2 9967   3.496   2.005   1.370
 3335TIP3   OH2 9968   0.324   2.512   2.427
 3335TIP3    H1 9969   0.268   2.438   2.403
 3335TIP3    H2 9970   0.364   2.539   2.344
 3336TIP3   OH2 9971   1.594   0.717   0.442
 3336TIP3    H1 9972   1.544   0.690   0.519
 3336TIP3    H2 9973   1.569   0.808   0.428
 3337TIP3   OH2 9974   6.593   1.611   0.471
 3337TIP3    H1 9975   6.669   1.634   0.525
 3337TIP3    H2 9976   6.606   1.520   0.447
 3338TIP3   OH2 9977   5.568   1.480   5.205
 3338TIP3    H1 9978   5.498   1.422   5.175
 3338TIP3    H2 9979   5.524   1.562   5.227
 3339TIP3   OH2 9980   4.661   0.383   4.461
 3339TIP3    H1 9981   4.698   0.362   4.547
 3339TIP3    H2 9982   4.628   0.473   4.471
 3340TIP3   OH2 9983   6.169   4.998   5.473
 3340TIP3    H1 9984   6.223   4.947   5.533
 3340TIP3    H2 9985   6.230   5.056   5.428
 3341TIP3   OH2 9986   4.743   2.598   1.539
 3341TIP3    H1 9987   4.691   2.558   1.609
 3341TIP3    H2 9988   4.770   2.523   1.485
 3342TIP3   OH2 9989   0.325   0.377   4.126
 3342TIP3    H1 9990   0.267   0.430   4.180
 3342TIP3    H2 9991   0.381   0.440   4.081
 3343TIP3   OH2 9992   3.015   2.051   4.099
 3343TIP3    H1 9993   2.957   2.028   4.026
 3343TIP3    H2 9994   3.017   2.147   4.098
 3344TIP3   OH2 9995   2.367   3.298   4.878
 3344TIP3    H1 9996   2.323   3.365   4.930
 3344TIP3    H2 9997   2.341   3.315   4.788
 3345TIP3   OH2 9998   5.912   1.362   2.879
 3345TIP3    H1 9999   5.963   1.389   2.802
 3345TIP3    H210000   5.853   1.295   2.846
 3346TIP3   OH210001   6.278   3.570   5.234
 3346TIP3    H110002   6.233   3.643   5.275
 3346TIP3    H210003   6.314   3.607   5.153
 3347TIP3   OH210004   1.054   4.136   1.288
 3347TIP3    H110005   1.036   4.059   1.234
 3347TIP3    H210006   1.055   4.209   1.227
 3348TIP3   OH210007   5.649   0.186   2.189
 3348TIP3    H110008   5.632   0.157   2.099
 3348TIP3    H210009   5.628   0.110   2.243
 3349TIP3   OH210010   3.667   5.847   5.343
 3349TIP3    H110011   3.592   5.868   5.288
 3349TIP3    H210012   3.662   5.908   5.416
 3350TIP3   OH210013   1.520   3.458   4.196
 3350TIP3    H110014   1.568   3.457   4.114
 3350TIP3    H210015   1.433   3.490   4.173
 3351TIP3   OH210016   6.483   2.338   2.535
 3351TIP3    H110017   6.409   2.357   2.593
 3351TIP3    H210018   6.446   2.347   2.447
 3352TIP3   OH210019   1.063   0.391   0.828
 3352TIP3    H110020   1.085   0.300   0.808
 3352TIP3    H210021   1.147   0.437   0.821
 3353TIP3   OH210022   6.474   1.047   4.416
 3353TIP3    H110023   6.398   1.010   4.460
 3353TIP3    H210024   6.540   0.978   4.418
 3354TIP3   OH210025   0.385   3.263   3.221
 3354TIP3    H110026   0.307   3.225   3.261
 3354TIP3    H210027   0.446   3.276   3.294
 3355TIP3   OH210028   3.723   5.506   5.078
 3355TIP3    H110029   3.631   5.515   5.057
 3355TIP3    H210030   3.753   5.432   5.025
 3356TIP3   OH210031   4.267   0.798   2.247
 3356TIP3    H110032   4.215   0.733   2.294
 3356TIP3    H210033   4.289   0.755   2.164
 3357TIP3   OH210034   2.279   6.026   1.611
 3357TIP3    H110035   2.273   5.992   1.701
 3357TIP3    H210036   2.236   6.112   1.615
 3358TIP3   OH210037   4.148   3.633   2.395
 3358TIP3    H110038   4.219   3.621   2.457
 3358TIP3    H210039   4.145   3.728   2.381
 3359TIP3   OH210040   0.941   3.152   3.133
 3359TIP3    H110041   0.969   3.206   3.208
 3359TIP3    H210042   0.991   3.186   3.059
 3360TIP3   OH210043   0.021   3.177   1.195
 3360TIP3    H110044   0.012   3.082   1.189
 3360TIP3    H210045   0.038   3.205   1.105
 3361TIP3   OH210046   4.736   5.552   0.375
 3361TIP3    H110047   4.694   5.476   0.414
 3361TIP3    H210048   4.789   5.517   0.304
 3362TIP3   OH210049   5.245   5.180   4.124
 3362TIP3    H110050   5.268   5.088   4.113
 3362TIP3    H210051   5.309   5.213   4.188
 3363TIP3   OH210052   1.748   0.352   0.061
 3363TIP3    H110053   1.737   0.389  -0.026
 3363TIP3    H210054   1.839   0.369   0.084
 3364TIP3   OH210055   0.355   4.380   4.170
 3364TIP3    H110056   0.271   4.347   4.204
 3364TIP3    H210057   0.417   4.309   4.186
 3365TIP3   OH210058   7.075   1.036   1.090
 3365TIP3    H110059   7.096   1.117   1.044
 3365TIP3    H210060   6.998   1.058   1.143
 3366TIP3   OH210061   4.094   6.614   1.754
 3366TIP3    H110062   4.003   6.643   1.749
 3366TIP3    H210063   4.091   6.532   1.804
 3367TIP3   OH210064   5.320   6.791   3.603
 3367TIP3    H110065   5.276   6.749   3.676
 3367TIP3    H210066   5.287   6.746   3.525
 3368TIP3   OH210067   4.846   5.352   3.403
 3368TIP3    H110068   4.892   5.272   3.377
 3368TIP3    H210069   4.809   5.386   3.321
 3369TIP3   OH210070   4.303   5.261   0.072
 3369TIP3    H110071   4.382   5.211   0.092
 3369TIP3    H210072   4.295   5.323   0.144
 3370TIP3   OH210073   6.190   5.540   1.800
 3370TIP3    H110074   6.260   5.567   1.860
 3370TIP3    H210075   6.202   5.595   1.723
 3371TIP3   OH210076   0.277   4.067   1.056
 3371TIP3    H110077   0.208   4.003   1.039
 3371TIP3    H210078   0.261   4.095   1.146
 3372TIP3   OH210079   2.243   2.011   3.694
 3372TIP3    H110080   2.285   2.097   3.695
 3372TIP3    H210081   2.203   2.005   3.608
 3373TIP3   OH210082   1.293   2.753   3.363
 3373TIP3    H110083   1.210   2.731   3.320
 3373TIP3    H210084   1.324   2.831   3.317
 3374TIP3   OH210085   6.273   5.291   2.762
 3374TIP3    H110086   6.338   5.221   2.765
 3374TIP3    H210087   6.321   5.371   2.782
 3375TIP3   OH210088   6.296   3.547   0.046
 3375TIP3    H110089   6.378   3.497   0.057
 3375TIP3    H210090   6.297   3.610   0.118
 3376TIP3   OH210091   3.925   2.917   2.906
 3376TIP3    H110092   3.949   2.872   2.987
 3376TIP3    H210093   4.001   2.972   2.885
 3377TIP3   OH210094   2.084   3.654   5.378
 3377TIP3    H110095   1.989   3.640   5.376
 3377TIP3    H210096   2.094   3.749   5.382
 3378TIP3   OH210097   5.907   2.499   4.329
 3378TIP3    H110098   5.945   2.451   4.403
 3378TIP3    H210099   5.974   2.495   4.261
 3379TIP3   OH210100   0.289   0.567   0.995
 3379TIP3    H110101   0.222   0.633   1.013
 3379TIP3    H210102   0.326   0.546   1.081
 3380TIP3   OH210103   0.320   1.939   4.603
 3380TIP3    H110104   0.309   1.858   4.554
 3380TIP3    H210105   0.366   1.998   4.543
 3381TIP3   OH210106   0.779   5.099   2.126
 3381TIP3    H110107   0.707   5.159   2.141
 3381TIP3    H210108   0.841   5.149   2.073
 3382TIP3   OH210109   0.006   4.382   0.837
 3382TIP3    H110110   0.013   4.341   0.923
 3382TIP3    H210111   0.088   4.431   0.827
 3383TIP3   OH210112   2.443   5.721   2.611
 3383TIP3    H110113   2.516   5.681   2.659
 3383TIP3    H210114   2.460   5.699   2.519
 3384TIP3   OH210115   0.857   0.231   0.935
 3384TIP3    H110116   0.927   0.171   0.909
 3384TIP3    H210117   0.886   0.316   0.903
 3385TIP3   OH210118   1.053   2.783   0.450
 3385TIP3    H110119   0.980   2.771   0.390
 3385TIP3    H210120   1.103   2.702   0.442
 3386TIP3   OH210121   2.683   1.359   0.170
 3386TIP3    H110122   2.642   1.365   0.084
 3386TIP3    H210123   2.612   1.330   0.228
 3387TIP3   OH210124   0.094   1.088   5.679
 3387TIP3    H110125   0.034   1.104   5.606
 3387TIP3    H210126   0.094   1.170   5.729
 3388TIP3   OH210127   6.698   3.632   2.473
 3388TIP3    H110128   6.708   3.715   2.520
 3388TIP3    H210129   6.784   3.591   2.480
 3389TIP3   OH210130   1.096   0.437   5.266
 3389TIP3    H110131   1.074   0.517   5.313
 3389TIP3    H210132   1.134   0.380   5.332
 3390TIP3   OH210133   5.747   0.191   1.185
 3390TIP3    H110134   5.746   0.133   1.109
 3390TIP3    H210135   5.746   0.132   1.261
 3391TIP3   OH210136   5.289   5.755   5.679
 3391TIP3    H110137   5.247   5.758   5.765
 3391TIP3    H210138   5.374   5.714   5.695
 3392TIP3   OH210139   6.730   6.544   2.495
 3392TIP3    H110140   6.646   6.517   2.533
 3392TIP3    H210141   6.787   6.468   2.506
 3393TIP3   OH210142   6.512   1.726   0.225
 3393TIP3    H110143   6.479   1.653   0.173
 3393TIP3    H210144   6.534   1.688   0.310
 3394TIP3   OH210145   3.062   4.971   0.327
 3394TIP3    H110146   3.022   4.900   0.277
 3394TIP3    H210147   3.067   4.938   0.417
 3395TIP3   OH210148   4.495   0.501   5.389
 3395TIP3    H110149   4.564   0.566   5.374
 3395TIP3    H210150   4.539   0.428   5.432
 3396TIP3   OH210151   6.292   1.344   0.440
 3396TIP3    H110152   6.201   1.321   0.422
 3396TIP3    H210153   6.343   1.283   0.385
 3397TIP3   OH210154   2.521   2.918   0.955
 3397TIP3    H110155   2.498   2.890   1.043
 3397TIP3    H210156   2.565   2.842   0.916
 3398TIP3   OH210157   3.219   0.485   4.759
 3398TIP3    H110158   3.298   0.520   4.801
 3398TIP3    H210159   3.250   0.447   4.677
 3399TIP3   OH210160   3.390   3.415   0.538
 3399TIP3    H110161   3.380   3.374   0.624
 3399TIP3    H210162   3.452   3.487   0.553
 3400TIP3   OH210163   0.708   0.060   2.642
 3400TIP3    H110164   0.781   0.016   2.598
 3400TIP3    H210165   0.709   0.149   2.606
 3401TIP3   OH210166   0.446   0.993   1.326
 3401TIP3    H110167   0.526   0.988   1.273
 3401TIP3    H210168   0.430   0.903   1.354
 3402TIP3   OH210169   3.995   5.737   3.327
 3402TIP3    H110170   4.057   5.805   3.353
 3402TIP3    H210171   3.962   5.702   3.409
 3403TIP3   OH210172   4.917   6.507   2.728
 3403TIP3    H110173   4.949   6.446   2.662
 3403TIP3    H210174   4.879   6.579   2.678
 3404TIP3   OH210175   1.533   0.285   2.581
 3404TIP3    H110176   1.537   0.251   2.670
 3404TIP3    H210177   1.551   0.378   2.590
 3405TIP3   OH210178   5.105   0.897   1.238
 3405TIP3    H110179   5.084   0.829   1.303
 3405TIP3    H210180   5.128   0.849   1.159
 3406TIP3   OH210181   0.874   3.489   3.017
 3406TIP3    H110182   0.821   3.424   3.062
 3406TIP3    H210183   0.933   3.438   2.961
 3407TIP3   OH210184   0.859   2.956   1.604
 3407TIP3    H110185   0.884   2.865   1.588
 3407TIP3    H210186   0.916   3.007   1.546
 3408TIP3   OH210187   5.528   2.727   1.372
 3408TIP3    H110188   5.482   2.740   1.455
 3408TIP3    H210189   5.597   2.793   1.372
 3409TIP3   OH210190   3.837   1.117   0.352
 3409TIP3    H110191   3.904   1.067   0.304
 3409TIP3    H210192   3.768   1.054   0.370
 3410TIP3   OH210193   4.709   6.094   0.700
 3410TIP3    H110194   4.770   6.158   0.737
 3410TIP3    H210195   4.719   6.016   0.755
 3411TIP3   OH210196   0.319   3.000   5.871
 3411TIP3    H110197   0.362   2.921   5.903
 3411TIP3    H210198   0.285   3.043   5.950
 3412TIP3   OH210199   2.848   2.080   2.705
 3412TIP3    H110200   2.866   2.023   2.780
 3412TIP3    H210201   2.799   2.154   2.742
 3413TIP3   OH210202   1.581   0.148   0.131
 3413TIP3    H110203   1.545   0.188   0.211
 3413TIP3    H210204   1.650   0.208   0.104
 3414TIP3   OH210205   6.163   6.285   2.080
 3414TIP3    H110206   6.220   6.237   2.019
 3414TIP3    H210207   6.162   6.231   2.159
 3415TIP3   OH210208   6.394   1.218   3.283
 3415TIP3    H110209   6.411   1.280   3.213
 3415TIP3    H210210   6.478   1.210   3.328
 3416TIP3   OH210211   0.298   4.992   2.921
 3416TIP3    H110212   0.274   5.031   3.005
 3416TIP3    H210213   0.224   4.934   2.900
 3417TIP3   OH210214   0.202   5.068   1.790
 3417TIP3    H110215   0.278   5.126   1.798
 3417TIP3    H210216   0.129   5.128   1.775
 3418TIP3   OH210217   5.427   0.657   5.495
 3418TIP3    H110218   5.427   0.564   5.518
 3418TIP3    H210219   5.351   0.692   5.542
 3419TIP3   OH210220   5.310   1.304   4.105
 3419TIP3    H110221   5.277   1.269   4.023
 3419TIP3    H210222   5.268   1.389   4.114
 3420TIP3   OH210223   5.776   1.146   1.110
 3420TIP3    H110224   5.735   1.231   1.127
 3420TIP3    H210225   5.740   1.088   1.178
 3421TIP3   OH210226   5.453   1.110   1.994
 3421TIP3    H110227   5.500   1.172   2.048
 3421TIP3    H210228   5.514   1.037   1.981
 3422TIP3   OH210229   2.683   3.025   1.884
 3422TIP3    H110230   2.752   2.968   1.850
 3422TIP3    H210231   2.715   3.114   1.868
 3423TIP3   OH210232   2.795   2.186   1.702
 3423TIP3    H110233   2.881   2.202   1.663
 3423TIP3    H210234   2.787   2.090   1.701
 3424TIP3   OH210235   0.871   3.979   0.109
 3424TIP3    H110236   0.816   4.056   0.123
 3424TIP3    H210237   0.923   3.971   0.189
 3425TIP3   OH210238   1.986   2.191   4.631
 3425TIP3    H110239   2.058   2.218   4.574
 3425TIP3    H210240   2.016   2.108   4.670
 3426TIP3   OH210241   7.212   2.250   4.785
 3426TIP3    H110242   7.202   2.158   4.808
 3426TIP3    H210243   7.253   2.250   4.699
 3427TIP3   OH210244   5.678   5.419   2.694
 3427TIP3    H110245   5.727   5.339   2.674
 3427TIP3    H210246   5.746   5.482   2.721
 3428TIP3   OH210247   2.494   5.005   5.084
 3428TIP3    H110248   2.452   4.971   5.005
 3428TIP3    H210249   2.423   5.015   5.147
 3429TIP3   OH210250   3.599   0.381   5.870
 3429TIP3    H110251   3.658   0.445   5.911
 3429TIP3    H210252   3.657   0.320   5.825
 3430TIP3   OH210253   1.506   6.686   0.553
 3430TIP3    H110254   1.471   6.612   0.603
 3430TIP3    H210255   1.437   6.706   0.489
 3431TIP3   OH210256   1.535   4.144   0.046
 3431TIP3    H110257   1.466   4.097   0.093
 3431TIP3    H210258   1.613   4.136   0.102
 3432TIP3   OH210259   2.815   1.528   1.966
 3432TIP3    H110260   2.910   1.537   1.953
 3432TIP3    H210261   2.806   1.510   2.060
 3433TIP3   OH210262   4.294   2.220   2.750
 3433TIP3    H110263   4.334   2.305   2.735
 3433TIP3    H210264   4.269   2.190   2.662
 3434TIP3   OH210265   3.570   2.907   4.622
 3434TIP3    H110266   3.613   2.827   4.651
 3434TIP3    H210267   3.576   2.966   4.698
 3435TIP3   OH210268   4.899   1.516   0.966
 3435TIP3    H110269   4.872   1.426   0.946
 3435TIP3    H210270   4.832   1.571   0.925
 3436TIP3   OH210271   3.873   2.870   4.467
 3436TIP3    H110272   3.782   2.850   4.445
 3436TIP3    H210273   3.868   2.952   4.517
 3437TIP3   OH210274   0.530   6.734   0.781
 3437TIP3    H110275   0.552   6.724   0.874
 3437TIP3    H210276   0.607   6.699   0.735
 3438TIP3   OH210277   2.727   6.684   3.170
 3438TIP3    H110278   2.774   6.767   3.161
 3438TIP3    H210279   2.793   6.623   3.203
 3439TIP3   OH210280   2.126   1.381   4.185
 3439TIP3    H110281   2.140   1.358   4.276
 3439TIP3    H210282   2.104   1.475   4.187
 3440TIP3   OH210283   1.433   3.833   5.080
 3440TIP3    H110284   1.346   3.810   5.048
 3440TIP3    H210285   1.472   3.883   5.008
 3441TIP3   OH210286   2.198   1.642   4.100
 3441TIP3    H110287   2.257   1.575   4.066
 3441TIP3    H210288   2.210   1.716   4.040
 3442TIP3   OH210289   5.831   4.607   3.475
 3442TIP3    H110290   5.798   4.677   3.418
 3442TIP3    H210291   5.858   4.652   3.555
 3443TIP3   OH210292   3.454   0.988   1.016
 3443TIP3    H110293   3.362   1.013   1.024
 3443TIP3    H210294   3.495   1.063   0.974
 3444TIP3   OH210295   5.875   0.495   0.415
 3444TIP3    H110296   5.928   0.492   0.335
 3444TIP3    H210297   5.913   0.428   0.471
 3445TIP3   OH210298   3.550   0.818   1.204
 3445TIP3    H110299   3.565   0.737   1.157
 3445TIP3    H210300   3.509   0.876   1.139
 3446TIP3   OH210301   3.783   2.135   2.697
 3446TIP3    H110302   3.795   2.230   2.693
 3446TIP3    H210303   3.804   2.111   2.787
 3447TIP3   OH210304   3.984   1.543   4.908
 3447TIP3    H110305   3.993   1.481   4.980
 3447TIP3    H210306   4.055   1.606   4.921
 3448TIP3   OH210307   4.085   5.357   1.600
 3448TIP3    H110308   4.052   5.274   1.567
 3448TIP3    H210309   4.179   5.345   1.610
 3449TIP3   OH210310   4.742   1.754   5.554
 3449TIP3    H110311   4.803   1.684   5.533
 3449TIP3    H210312   4.784   1.833   5.520
 3450TIP3   OH210313   1.111   5.303   0.574
 3450TIP3    H110314   1.093   5.356   0.497
 3450TIP3    H210315   1.121   5.214   0.540
 3451TIP3   OH210316   5.158   0.642   0.367
 3451TIP3    H110317   5.188   0.562   0.324
 3451TIP3    H210318   5.232   0.703   0.360
 3452TIP3   OH210319   6.831   2.263   1.775
 3452TIP3    H110320   6.888   2.272   1.852
 3452TIP3    H210321   6.783   2.346   1.772
 3453TIP3   OH210322   6.222   1.704   2.483
 3453TIP3    H110323   6.209   1.765   2.556
 3453TIP3    H210324   6.172   1.743   2.410
 3454TIP3   OH210325   1.639   2.608   4.131
 3454TIP3    H110326   1.626   2.703   4.129
 3454TIP3    H210327   1.703   2.591   4.062
 3455TIP3   OH210328   4.764   1.629   5.018
 3455TIP3    H110329   4.760   1.618   4.923
 3455TIP3    H210330   4.768   1.540   5.052
 3456TIP3   OH210331   6.458   1.254   4.975
 3456TIP3    H110332   6.437   1.273   5.066
 3456TIP3    H210333   6.414   1.323   4.925
 3457TIP3   OH210334   0.695   1.852   5.011
 3457TIP3    H110335   0.646   1.860   5.093
 3457TIP3    H210336   0.631   1.872   4.943
 3458TIP3   OH210337   3.641   0.408   5.272
 3458TIP3    H110338   3.672   0.394   5.361
 3458TIP3    H210339   3.712   0.376   5.216
 3459TIP3   OH210340   1.656   3.795   3.687
 3459TIP3    H110341   1.695   3.708   3.677
 3459TIP3    H210342   1.724   3.856   3.659
 3460TIP3   OH210343   2.215   4.779   5.681
 3460TIP3    H110344   2.127   4.802   5.651
 3460TIP3    H210345   2.266   4.765   5.601
 3461TIP3   OH210346   5.215   3.216   2.835
 3461TIP3    H110347   5.130   3.261   2.837
 3461TIP3    H210348   5.193   3.124   2.845
 3462TIP3   OH210349   3.788   6.333   5.591
 3462TIP3    H110350   3.749   6.350   5.676
 3462TIP3    H210351   3.735   6.263   5.554
 3463TIP3   OH210352   4.362   2.258   1.297
 3463TIP3    H110353   4.380   2.245   1.204
 3463TIP3    H210354   4.285   2.316   1.299
 3464TIP3   OH210355   5.469   0.574   4.760
 3464TIP3    H110356   5.525   0.643   4.795
 3464TIP3    H210357   5.421   0.541   4.836
 3465TIP3   OH210358   1.733   3.130   1.505
 3465TIP3    H110359   1.788   3.181   1.564
 3465TIP3    H210360   1.702   3.057   1.559
 3466TIP3   OH210361   3.277   5.300   4.224
 3466TIP3    H110362   3.218   5.242   4.272
 3466TIP3    H210363   3.222   5.372   4.195
 3467TIP3   OH210364   1.597   1.001   0.093
 3467TIP3    H110365   1.503   0.995   0.109
 3467TIP3    H210366   1.636   0.983   0.178
 3468TIP3   OH210367   7.153   6.698   4.569
 3468TIP3    H110368   7.130   6.611   4.601
 3468TIP3    H210369   7.107   6.707   4.486
 3469TIP3   OH210370   2.814   5.971   0.738
 3469TIP3    H110371   2.786   5.970   0.646
 3469TIP3    H210372   2.865   5.891   0.748
 3470TIP3   OH210373   4.947   0.509   2.076
 3470TIP3    H110374   4.903   0.438   2.031
 3470TIP3    H210375   5.022   0.468   2.120
 3471TIP3   OH210376   3.315   1.214   4.971
 3471TIP3    H110377   3.334   1.224   4.878
 3471TIP3    H210378   3.392   1.249   5.016
 3472TIP3   OH210379   5.250   0.499   1.450
 3472TIP3    H110380   5.190   0.573   1.440
 3472TIP3    H210381   5.254   0.484   1.545
 3473TIP3   OH210382   2.022   0.914   4.198
 3473TIP3    H110383   2.063   0.896   4.114
 3473TIP3    H210384   1.934   0.878   4.191
 3474TIP3   OH210385   6.995   1.855   2.675
 3474TIP3    H110386   7.040   1.787   2.625
 3474TIP3    H210387   7.064   1.916   2.701
 3475TIP3   OH210388   6.972   2.265   0.929
 3475TIP3    H110389   7.000   2.356   0.922
 3475TIP3    H210390   7.019   2.231   1.005
 3476TIP3   OH210391   4.429   4.521   3.733
 3476TIP3    H110392   4.427   4.438   3.685
 3476TIP3    H210393   4.482   4.579   3.678
 3477TIP3   OH210394   7.136   3.619   5.274
 3477TIP3    H110395   7.186   3.694   5.306
 3477TIP3    H210396   7.198   3.546   5.278
 3478TIP3   OH210397   6.336   2.941   4.111
 3478TIP3    H110398   6.399   3.009   4.085
 3478TIP3    H210399   6.363   2.864   4.061
 3479TIP3   OH210400   5.378   1.647   3.438
 3479TIP3    H110401   5.391   1.687   3.352
 3479TIP3    H210402   5.378   1.720   3.499
 3480TIP3   OH210403   5.032   2.717   4.939
 3480TIP3    H110404   5.041   2.631   4.898
 3480TIP3    H210405   4.975   2.766   4.880
 3481TIP3   OH210406   6.696   5.223   1.532
 3481TIP3    H110407   6.763   5.277   1.575
 3481TIP3    H210408   6.670   5.159   1.599
 3482TIP3   OH210409   0.491   2.690   4.720
 3482TIP3    H110410   0.430   2.751   4.763
 3482TIP3    H210411   0.524   2.635   4.792
 3483TIP3   OH210412   5.703   0.593   5.175
 3483TIP3    H110413   5.770   0.535   5.140
 3483TIP3    H210414   5.688   0.561   5.264
 3484TIP3   OH210415   6.404   5.071   2.933
 3484TIP3    H110416   6.411   5.132   3.006
 3484TIP3    H210417   6.310   5.052   2.926
 3485TIP3   OH210418   6.892   2.127   2.974
 3485TIP3    H110419   6.972   2.174   2.999
 3485TIP3    H210420   6.866   2.169   2.892
 3486TIP3   OH210421   6.951   3.832   1.211
 3486TIP3    H110422   7.034   3.861   1.248
 3486TIP3    H210423   6.963   3.837   1.116
 3487TIP3   OH210424   2.986   4.267   4.928
 3487TIP3    H110425   3.014   4.189   4.881
 3487TIP3    H210426   3.045   4.273   5.003
 3488TIP3   OH210427   5.488   0.411   5.532
 3488TIP3    H110428   5.542   0.382   5.605
 3488TIP3    H210429   5.512   0.353   5.460
 3489TIP3   OH210430   5.943   3.669   2.292
 3489TIP3    H110431   5.936   3.757   2.331
 3489TIP3    H210432   5.896   3.676   2.209
 3490TIP3   OH210433   2.389   4.678   3.491
 3490TIP3    H110434   2.350   4.601   3.449
 3490TIP3    H210435   2.484   4.665   3.482
 3491TIP3   OH210436   3.101   0.347   5.429
 3491TIP3    H110437   3.132   0.327   5.340
 3491TIP3    H210438   3.181   0.352   5.482
 3492TIP3   OH210439   7.154   2.630   4.693
 3492TIP3    H110440   7.141   2.687   4.770
 3492TIP3    H210441   7.247   2.638   4.674
 3493TIP3   OH210442   2.992   4.543   1.322
 3493TIP3    H110443   2.920   4.536   1.384
 3493TIP3    H210444   3.053   4.474   1.347
 3494TIP3   OH210445   5.095   5.702   3.201
 3494TIP3    H110446   5.112   5.653   3.282
 3494TIP3    H210447   5.092   5.794   3.228
 3495TIP3   OH210448   5.366   0.791   2.497
 3495TIP3    H110449   5.364   0.883   2.470
 3495TIP3    H210450   5.282   0.777   2.541
 3496TIP3   OH210451   1.121   4.843   0.722
 3496TIP3    H110452   1.055   4.878   0.662
 3496TIP3    H210453   1.204   4.862   0.680
 3497TIP3   OH210454   1.575   4.607   5.611
 3497TIP3    H110455   1.544   4.698   5.606
 3497TIP3    H210456   1.511   4.563   5.667
 3498TIP3   OH210457   0.354   6.382   4.020
 3498TIP3    H110458   0.365   6.474   3.994
 3498TIP3    H210459   0.272   6.355   3.979
 3499TIP3   OH210460   6.708   6.822   4.983
 3499TIP3    H110461   6.669   6.865   5.060
 3499TIP3    H210462   6.706   6.729   5.004
 3500TIP3   OH210463   3.537   4.104   0.026
 3500TIP3    H110464   3.595   4.145  -0.038
 3500TIP3    H210465   3.544   4.010   0.007
 3501TIP3   OH210466   1.104   4.433   2.788
 3501TIP3    H110467   1.013   4.432   2.758
 3501TIP3    H210468   1.128   4.340   2.794
 3502TIP3   OH210469   6.315   5.367   0.208
 3502TIP3    H110470   6.308   5.286   0.260
 3502TIP3    H210471   6.391   5.353   0.152
 3503TIP3   OH210472   2.979   4.160   3.136
 3503TIP3    H110473   2.936   4.182   3.219
 3503TIP3    H210474   2.999   4.245   3.096
 3504TIP3   OH210475   0.026   6.626   4.222
 3504TIP3    H110476  -0.031   6.635   4.145
 3504TIP3    H210477   0.097   6.689   4.207
 3505TIP3   OH210478   5.228   6.538   4.828
 3505TIP3    H110479   5.165   6.549   4.899
 3505TIP3    H210480   5.174   6.526   4.750
 3506TIP3   OH210481   5.162   1.838   3.147
 3506TIP3    H110482   5.071   1.808   3.145
 3506TIP3    H210483   5.212   1.763   3.113
 3507TIP3   OH210484   2.531   5.934   1.632
 3507TIP3    H110485   2.524   5.849   1.676
 3507TIP3    H210486   2.440   5.960   1.617
 3508TIP3   OH210487   5.979   6.002   3.948
 3508TIP3    H110488   5.926   5.985   3.871
 3508TIP3    H210489   6.030   6.080   3.926
 3509TIP3   OH210490   5.781   5.822   2.103
 3509TIP3    H110491   5.853   5.774   2.061
 3509TIP3    H210492   5.825   5.895   2.148
 3510TIP3   OH210493   5.729   2.460   5.447
 3510TIP3    H110494   5.660   2.399   5.423
 3510TIP3    H210495   5.690   2.514   5.516
 3511TIP3   OH210496   6.853   5.447   1.096
 3511TIP3    H110497   6.776   5.505   1.092
 3511TIP3    H210498   6.834   5.388   1.170
 3512TIP3   OH210499   4.922   4.161   1.722
 3512TIP3    H110500   4.831   4.166   1.752
 3512TIP3    H210501   4.973   4.152   1.802
 3513TIP3   OH210502   4.315   0.413   5.842
 3513TIP3    H110503   4.229   0.410   5.801
 3513TIP3    H210504   4.304   0.365   5.924
 3514TIP3   OH210505   1.971   0.475   5.853
 3514TIP3    H110506   2.052   0.508   5.814
 3514TIP3    H210507   1.939   0.410   5.791
 3515TIP3   OH210508   7.167   5.318   2.221
 3515TIP3    H110509   7.181   5.225   2.238
 3515TIP3    H210510   7.246   5.346   2.175
 3516TIP3   OH210511   0.495   0.861   1.662
 3516TIP3    H110512   0.446   0.891   1.586
 3516TIP3    H210513   0.534   0.940   1.699
 3517TIP3   OH210514   6.753   5.205   0.881
 3517TIP3    H110515   6.782   5.119   0.909
 3517TIP3    H210516   6.779   5.264   0.952
 3518TIP3   OH210517   4.533   2.020   4.495
 3518TIP3    H110518   4.514   2.071   4.574
 3518TIP3    H210519   4.447   1.996   4.461
 3519TIP3   OH210520   4.370   3.896   2.707
 3519TIP3    H110521   4.324   3.868   2.786
 3519TIP3    H210522   4.432   3.962   2.737
 3520TIP3   OH210523   5.670   1.651   3.904
 3520TIP3    H110524   5.663   1.732   3.853
 3520TIP3    H210525   5.585   1.608   3.892
 3521TIP3   OH210526   6.416   0.795   0.828
 3521TIP3    H110527   6.357   0.808   0.754
 3521TIP3    H210528   6.504   0.800   0.790
 3522TIP3   OH210529   1.375   3.787   3.665
 3522TIP3    H110530   1.466   3.796   3.693
 3522TIP3    H210531   1.350   3.875   3.636
 3523TIP3   OH210532   0.264   0.156   0.232
 3523TIP3    H110533   0.223   0.222   0.175
 3523TIP3    H210534   0.193   0.095   0.253
 3524TIP3   OH210535   1.820   4.882   4.811
 3524TIP3    H110536   1.843   4.810   4.751
 3524TIP3    H210537   1.803   4.838   4.895
 3525TIP3   OH210538   0.201   4.215   5.809
 3525TIP3    H110539   0.132   4.281   5.816
 3525TIP3    H210540   0.157   4.139   5.771
 3526TIP3   OH210541   0.583   5.001   5.200
 3526TIP3    H110542   0.488   4.994   5.212
 3526TIP3    H210543   0.599   4.960   5.115
 3527TIP3   OH210544   5.862   1.038   0.438
 3527TIP3    H110545   5.769   1.020   0.428
 3527TIP3    H210546   5.868   1.133   0.448
 3528TIP3   OH210547   1.478   4.567   2.907
 3528TIP3    H110548   1.456   4.474   2.900
 3528TIP3    H210549   1.396   4.612   2.887
 3529TIP3   OH210550   4.441   1.514   3.836
 3529TIP3    H110551   4.387   1.462   3.896
 3529TIP3    H210552   4.485   1.577   3.892
 3530TIP3   OH210553   6.809   0.743   4.944
 3530TIP3    H110554   6.842   0.680   5.008
 3530TIP3    H210555   6.730   0.780   4.985
 3531TIP3   OH210556   6.530   2.747   1.867
 3531TIP3    H110557   6.551   2.827   1.915
 3531TIP3    H210558   6.479   2.777   1.792
 3532TIP3   OH210559   4.314   6.041   1.435
 3532TIP3    H110560   4.225   6.050   1.471
 3532TIP3    H210561   4.308   6.080   1.348
 3533TIP3   OH210562   5.188   2.026   3.625
 3533TIP3    H110563   5.128   2.063   3.690
 3533TIP3    H210564   5.141   2.033   3.542
 3534TIP3   OH210565   4.720   1.162   0.142
 3534TIP3    H110566   4.671   1.219   0.083
 3534TIP3    H210567   4.800   1.210   0.162
 3535TIP3   OH210568   3.475   3.682   2.200
 3535TIP3    H110569   3.460   3.625   2.125
 3535TIP3    H210570   3.390   3.723   2.216
 3536TIP3   OH210571   0.246   3.535   4.275
 3536TIP3    H110572   0.196   3.455   4.261
 3536TIP3    H210573   0.261   3.570   4.187
 3537TIP3   OH210574   6.650   2.913   5.242
 3537TIP3    H110575   6.622   2.955   5.161
 3537TIP3    H210576   6.640   2.819   5.226
 3538TIP3   OH210577   4.394   5.376   4.481
 3538TIP3    H110578   4.348   5.301   4.445
 3538TIP3    H210579   4.413   5.352   4.572
 3539TIP3   OH210580   2.355   4.322   5.452
 3539TIP3    H110581   2.294   4.268   5.401
 3539TIP3    H210582   2.389   4.385   5.389
 3540TIP3   OH210583   2.485   1.611   0.453
 3540TIP3    H110584   2.570   1.567   0.447
 3540TIP3    H210585   2.472   1.627   0.546
 3541TIP3   OH210586   0.293   3.415   1.012
 3541TIP3    H110587   0.198   3.429   1.006
 3541TIP3    H210588   0.328   3.500   1.039
 3542TIP3   OH210589   7.113   6.207   1.929
 3542TIP3    H110590   7.139   6.152   2.002
 3542TIP3    H210591   7.063   6.148   1.872
 3543TIP3   OH210592   0.037   0.719   3.655
 3543TIP3    H110593   0.021   0.797   3.709
 3543TIP3    H210594   0.111   0.675   3.696
 3544TIP3   OH210595   4.459   0.223   1.169
 3544TIP3    H110596   4.492   0.218   1.079
 3544TIP3    H210597   4.536   0.213   1.224
 3545TIP3   OH210598   5.384   4.140   0.578
 3545TIP3    H110599   5.439   4.063   0.566
 3545TIP3    H210600   5.386   4.156   0.673
 3546TIP3   OH210601   5.727   2.313   1.016
 3546TIP3    H110602   5.691   2.393   0.978
 3546TIP3    H210603   5.744   2.335   1.108
 3547TIP3   OH210604   5.347   1.382   2.495
 3547TIP3    H110605   5.378   1.354   2.409
 3547TIP3    H210606   5.253   1.365   2.494
 3548TIP3   OH210607   5.009   2.410   1.671
 3548TIP3    H110608   4.975   2.497   1.692
 3548TIP3    H210609   5.104   2.422   1.666
 3549TIP3   OH210610   0.538   3.708   2.393
 3549TIP3    H110611   0.632   3.724   2.402
 3549TIP3    H210612   0.516   3.742   2.306
 3550TIP3   OH210613   2.598   5.794   4.817
 3550TIP3    H110614   2.598   5.869   4.876
 3550TIP3    H210615   2.582   5.833   4.730
 3551TIP3   OH210616   6.643   4.951   0.458
 3551TIP3    H110617   6.665   4.996   0.539
 3551TIP3    H210618   6.587   4.878   0.485
 3552TIP3   OH210619   5.269   3.154   3.211
 3552TIP3    H110620   5.288   3.069   3.173
 3552TIP3    H210621   5.281   3.142   3.305
 3553TIP3   OH210622   0.045   3.568   0.066
 3553TIP3    H110623   0.105   3.625   0.018
 3553TIP3    H210624   0.101   3.517   0.125
 3554TIP3   OH210625   6.142   0.795   3.035
 3554TIP3    H110626   6.093   0.768   2.957
 3554TIP3    H210627   6.196   0.720   3.057
 3555TIP3   OH210628   5.366   5.335   3.893
 3555TIP3    H110629   5.325   5.294   3.817
 3555TIP3    H210630   5.335   5.283   3.967
 3556TIP3   OH210631   4.659   2.403   4.240
 3556TIP3    H110632   4.686   2.382   4.329
 3556TIP3    H210633   4.627   2.494   4.245
 3557TIP3   OH210634   4.393   0.243   1.861
 3557TIP3    H110635   4.402   0.215   1.770
 3557TIP3    H210636   4.317   0.301   1.862
 3558TIP3   OH210637   4.353   5.331   3.680
 3558TIP3    H110638   4.322   5.241   3.670
 3558TIP3    H210639   4.417   5.343   3.610
 3559TIP3   OH210640   1.648   2.363   4.424
 3559TIP3    H110641   1.733   2.368   4.380
 3559TIP3    H210642   1.646   2.439   4.482
 3560TIP3   OH210643   1.052   0.654   2.815
 3560TIP3    H110644   0.966   0.619   2.791
 3560TIP3    H210645   1.036   0.703   2.895
 3561TIP3   OH210646   6.807   1.596   2.382
 3561TIP3    H110647   6.808   1.523   2.321
 3561TIP3    H210648   6.760   1.666   2.336
 3562TIP3   OH210649   0.907   5.444   5.918
 3562TIP3    H110650   0.868   5.423   5.833
 3562TIP3    H210651   0.972   5.511   5.898
 3563TIP3   OH210652   4.738   6.599   5.692
 3563TIP3    H110653   4.780   6.519   5.723
 3563TIP3    H210654   4.810   6.650   5.654
 3564TIP3   OH210655   2.953   5.154   1.780
 3564TIP3    H110656   2.886   5.214   1.811
 3564TIP3    H210657   3.032   5.207   1.771
 3565TIP3   OH210658   4.782   5.459   2.585
 3565TIP3    H110659   4.699   5.505   2.589
 3565TIP3    H210660   4.846   5.526   2.560
 3566TIP3   OH210661   2.492   0.392   0.289
 3566TIP3    H110662   2.445   0.310   0.277
 3566TIP3    H210663   2.562   0.391   0.223
 3567TIP3   OH210664   3.499   4.597   5.787
 3567TIP3    H110665   3.588   4.562   5.790
 3567TIP3    H210666   3.497   4.663   5.857
 3568TIP3   OH210667   3.597   2.571   1.353
 3568TIP3    H110668   3.625   2.532   1.270
 3568TIP3    H210669   3.514   2.615   1.331
 3569TIP3   OH210670   4.074   3.113   1.539
 3569TIP3    H110671   4.069   3.032   1.589
 3569TIP3    H210672   4.168   3.131   1.532
 3570TIP3   OH210673   0.438   2.817   4.471
 3570TIP3    H110674   0.470   2.821   4.561
 3570TIP3    H210675   0.503   2.763   4.425
 3571TIP3   OH210676   3.439   0.634   2.442
 3571TIP3    H110677   3.451   0.729   2.440
 3571TIP3    H210678   3.345   0.621   2.425
 3572TIP3   OH210679   3.603   4.378   4.465
 3572TIP3    H110680   3.574   4.286   4.464
 3572TIP3    H210681   3.557   4.416   4.540
 3573TIP3   OH210682   2.888   6.538   1.207
 3573TIP3    H110683   2.972   6.524   1.163
 3573TIP3    H210684   2.886   6.472   1.276
 3574TIP3   OH210685   4.125   5.049   2.427
 3574TIP3    H110686   4.044   4.999   2.416
 3574TIP3    H210687   4.143   5.084   2.340
 3575TIP3   OH210688   1.305   4.049   4.711
 3575TIP3    H110689   1.395   4.061   4.679
 3575TIP3    H210690   1.294   4.119   4.776
 3576TIP3   OH210691   1.320   5.871   4.049
 3576TIP3    H110692   1.249   5.890   4.110
 3576TIP3    H210693   1.395   5.920   4.082
 3577TIP3   OH210694   1.964   0.874   3.683
 3577TIP3    H110695   1.919   0.952   3.653
 3577TIP3    H210696   1.901   0.803   3.669
 3578TIP3   OH210697   1.147   1.580   2.445
 3578TIP3    H110698   1.086   1.650   2.464
 3578TIP3    H210699   1.130   1.514   2.513
 3579TIP3   OH210700   7.155   1.916   3.458
 3579TIP3    H110701   7.121   1.988   3.512
 3579TIP3    H210702   7.107   1.839   3.489
 3580TIP3   OH210703   0.929   1.704   1.867
 3580TIP3    H110704   0.843   1.662   1.862
 3580TIP3    H210705   0.919   1.786   1.820
 3581TIP3   OH210706   4.940   6.809   1.163
 3581TIP3    H110707   5.012   6.805   1.099
 3581TIP3    H210708   4.941   6.723   1.206
 3582TIP3   OH210709   5.113   2.902   0.593
 3582TIP3    H110710   5.156   2.849   0.525
 3582TIP3    H210711   5.021   2.906   0.565
 3583TIP3   OH210712   1.326   0.279   1.526
 3583TIP3    H110713   1.412   0.250   1.494
 3583TIP3    H210714   1.336   0.373   1.538
 3584TIP3   OH210715   4.883   1.785   0.544
 3584TIP3    H110716   4.878   1.701   0.498
 3584TIP3    H210717   4.973   1.790   0.576
 3585TIP3   OH210718   7.137   6.048   0.745
 3585TIP3    H110719   7.138   6.142   0.728
 3585TIP3    H210720   7.071   6.037   0.814
 3586TIP3   OH210721   3.901   3.203   5.562
 3586TIP3    H110722   3.978   3.234   5.515
 3586TIP3    H210723   3.894   3.262   5.637
 3587TIP3   OH210724   4.332   4.674   4.532
 3587TIP3    H110725   4.339   4.586   4.568
 3587TIP3    H210726   4.382   4.671   4.451
 3588TIP3   OH210727   5.159   2.164   5.303
 3588TIP3    H110728   5.111   2.246   5.295
 3588TIP3    H210729   5.175   2.136   5.212
 3589TIP3   OH210730   3.333   1.090   2.945
 3589TIP3    H110731   3.287   1.119   3.024
 3589TIP3    H210732   3.291   1.008   2.922
 3590TIP3   OH210733   1.175   0.798   0.835
 3590TIP3    H110734   1.195   0.849   0.757
 3590TIP3    H210735   1.260   0.761   0.862
 3591TIP3   OH210736   4.724   5.145   0.563
 3591TIP3    H110737   4.711   5.236   0.534
 3591TIP3    H210738   4.810   5.121   0.529
 3592TIP3   OH210739   5.267   4.265   4.404
 3592TIP3    H110740   5.305   4.289   4.319
 3592TIP3    H210741   5.173   4.278   4.393
 3593TIP3   OH210742   1.615   2.502   0.260
 3593TIP3    H110743   1.615   2.515   0.355
 3593TIP3    H210744   1.704   2.527   0.233
 3594TIP3   OH210745   2.432   3.715   4.648
 3594TIP3    H110746   2.476   3.786   4.696
 3594TIP3    H210747   2.386   3.760   4.577
 3595TIP3   OH210748   7.182   4.885   4.068
 3595TIP3    H110749   7.095   4.887   4.028
 3595TIP3    H210750   7.224   4.807   4.031
 3596TIP3   OH210751   0.657   2.698   0.644
 3596TIP3    H110752   0.563   2.689   0.631
 3596TIP3    H210753   0.666   2.765   0.712
 3597TIP3   OH210754   6.546   0.467   3.118
 3597TIP3    H110755   6.506   0.479   3.032
 3597TIP3    H210756   6.569   0.555   3.147
 3598TIP3   OH210757   3.213   3.463   4.452
 3598TIP3    H110758   3.154   3.491   4.522
 3598TIP3    H210759   3.278   3.533   4.446
 3599TIP3   OH210760   1.533   0.164   1.234
 3599TIP3    H110761   1.601   0.148   1.300
 3599TIP3    H210762   1.570   0.233   1.179
 3600TIP3   OH210763   2.498   3.432   1.465
 3600TIP3    H110764   2.445   3.400   1.538
 3600TIP3    H210765   2.553   3.500   1.503
 3601TIP3   OH210766   1.176   3.029   2.076
 3601TIP3    H110767   1.141   3.110   2.113
 3601TIP3    H210768   1.119   3.011   2.001
 3602TIP3   OH210769   0.747   6.232   1.007
 3602TIP3    H110770   0.683   6.161   0.995
 3602TIP3    H210771   0.701   6.310   0.974
 3603TIP3   OH210772   0.119   1.413   0.518
 3603TIP3    H110773   0.189   1.360   0.554
 3603TIP3    H210774   0.090   1.469   0.591
 3604TIP3   OH210775   1.062   5.241   3.929
 3604TIP3    H110776   1.021   5.170   3.979
 3604TIP3    H210777   1.043   5.220   3.838
 3605TIP3   OH210778  -0.008   3.528   2.069
 3605TIP3    H110779  -0.028   3.438   2.095
 3605TIP3    H210780  -0.052   3.582   2.135
 3606TIP3   OH210781   3.773   1.793   1.861
 3606TIP3    H110782   3.721   1.865   1.896
 3606TIP3    H210783   3.745   1.786   1.770
 3607TIP3   OH210784   2.837   1.361   0.702
 3607TIP3    H110785   2.756   1.409   0.719
 3607TIP3    H210786   2.859   1.382   0.611
 3608TIP3   OH210787   3.246   0.977   4.037
 3608TIP3    H110788   3.251   0.923   3.958
 3608TIP3    H210789   3.166   1.028   4.026
 3609TIP3   OH210790   5.644   0.331   0.931
 3609TIP3    H110791   5.663   0.248   0.886
 3609TIP3    H210792   5.730   0.371   0.945
 3610TIP3   OH210793   4.023   0.139   4.994
 3610TIP3    H110794   4.091   0.180   5.047
 3610TIP3    H210795   4.069   0.102   4.919
 3611TIP3   OH210796   6.351   0.215   2.467
 3611TIP3    H110797   6.308   0.208   2.552
 3611TIP3    H210798   6.366   0.309   2.456
 3612TIP3   OH210799   5.771   1.837   4.990
 3612TIP3    H110800   5.748   1.895   5.062
 3612TIP3    H210801   5.699   1.775   4.985
 3613TIP3   OH210802   0.474   5.414   5.595
 3613TIP3    H110803   0.466   5.335   5.648
 3613TIP3    H210804   0.558   5.452   5.622
 3614TIP3   OH210805   1.628   4.162   2.064
 3614TIP3    H110806   1.561   4.106   2.023
 3614TIP3    H210807   1.581   4.242   2.088
 3615TIP3   OH210808   4.952   4.052   4.909
 3615TIP3    H110809   4.971   4.128   4.963
 3615TIP3    H210810   4.874   4.076   4.859
 3616TIP3   OH210811   4.183   5.715   2.264
 3616TIP3    H110812   4.112   5.737   2.205
 3616TIP3    H210813   4.152   5.637   2.311
 3617TIP3   OH210814   0.894   0.795   2.211
 3617TIP3    H110815   0.915   0.762   2.299
 3617TIP3    H210816   0.817   0.850   2.225
 3618TIP3   OH210817   5.965   1.056   1.417
 3618TIP3    H110818   5.882   1.022   1.451
 3618TIP3    H210819   5.963   1.149   1.438
 3619TIP3   OH210820   5.017   2.744   2.185
 3619TIP3    H110821   4.959   2.809   2.146
 3619TIP3    H210822   5.018   2.765   2.279
 3620TIP3   OH210823   5.624   6.330   2.036
 3620TIP3    H110824   5.621   6.282   1.953
 3620TIP3    H210825   5.714   6.316   2.068
 3621TIP3   OH210826   5.526   6.555   1.498
 3621TIP3    H110827   5.593   6.596   1.443
 3621TIP3    H210828   5.495   6.481   1.447
 3622TIP3   OH210829   0.256   4.498   0.849
 3622TIP3    H110830   0.283   4.470   0.937
 3622TIP3    H210831   0.235   4.590   0.858
 3623TIP3   OH210832   4.859   4.730   5.594
 3623TIP3    H110833   4.864   4.757   5.502
 3623TIP3    H210834   4.807   4.798   5.636
 3624TIP3   OH210835   1.458   1.321   2.057
 3624TIP3    H110836   1.532   1.351   2.004
 3624TIP3    H210837   1.391   1.297   1.993
 3625TIP3   OH210838   1.129   4.694   5.419
 3625TIP3    H110839   1.042   4.704   5.381
 3625TIP3    H210840   1.173   4.630   5.362
 3626TIP3   OH210841   4.064   5.989   4.939
 3626TIP3    H110842   4.016   6.071   4.951
 3626TIP3    H210843   4.153   6.016   4.915
 3627TIP3   OH210844   2.020   1.866   5.084
 3627TIP3    H110845   1.939   1.881   5.133
 3627TIP3    H210846   2.054   1.784   5.119
 3628TIP3   OH210847   2.838   2.612   3.691
 3628TIP3    H110848   2.891   2.655   3.758
 3628TIP3    H210849   2.809   2.531   3.733
 3629TIP3   OH210850   0.997   3.236   2.873
 3629TIP3    H110851   0.936   3.197   2.810
 3629TIP3    H210852   1.084   3.215   2.839
 3630TIP3   OH210853   0.908   3.204   3.933
 3630TIP3    H110854   0.875   3.163   3.853
 3630TIP3    H210855   0.993   3.161   3.948
 3631TIP3   OH210856   4.030   0.244   3.220
 3631TIP3    H110857   4.093   0.172   3.229
 3631TIP3    H210858   4.052   0.284   3.136
 3632TIP3   OH210859   0.349   1.841   5.653
 3632TIP3    H110860   0.407   1.815   5.725
 3632TIP3    H210861   0.394   1.914   5.611
 3633TIP3   OH210862   3.680   6.028   4.064
 3633TIP3    H110863   3.587   6.049   4.068
 3633TIP3    H210864   3.706   6.015   4.155
 3634TIP3   OH210865   0.541   4.814   3.397
 3634TIP3    H110866   0.588   4.858   3.467
 3634TIP3    H210867   0.605   4.754   3.358
 3635TIP3   OH210868   0.448   1.855   3.544
 3635TIP3    H110869   0.411   1.773   3.579
 3635TIP3    H210870   0.375   1.896   3.498
 3636TIP3   OH210871   5.539   3.569   2.715
 3636TIP3    H110872   5.610   3.552   2.777
 3636TIP3    H210873   5.462   3.531   2.756
 3637TIP3   OH210874   0.929   2.727   0.225
 3637TIP3    H110875   0.852   2.750   0.174
 3637TIP3    H210876   0.927   2.632   0.231
 3638TIP3   OH210877   2.908   2.951   0.389
 3638TIP3    H110878   2.867   2.912   0.312
 3638TIP3    H210879   2.864   3.036   0.398
 3639TIP3   OH210880   6.119   6.288   3.966
 3639TIP3    H110881   6.090   6.313   3.878
 3639TIP3    H210882   6.171   6.362   3.996
 3640TIP3   OH210883   0.426   0.615   5.731
 3640TIP3    H110884   0.466   0.544   5.781
 3640TIP3    H210885   0.407   0.577   5.645
 3641TIP3   OH210886   3.650   1.757   4.149
 3641TIP3    H110887   3.654   1.662   4.135
 3641TIP3    H210888   3.650   1.767   4.244
 3642TIP3   OH210889   0.196   0.245   2.469
 3642TIP3    H110890   0.187   0.268   2.561
 3642TIP3    H210891   0.279   0.285   2.442
 3643TIP3   OH210892   6.081   2.348   1.105
 3643TIP3    H110893   5.996   2.374   1.069
 3643TIP3    H210894   6.076   2.252   1.111
 3644TIP3   OH210895   2.108   4.124   1.412
 3644TIP3    H110896   2.146   4.040   1.438
 3644TIP3    H210897   2.162   4.153   1.339
 3645TIP3   OH210898   3.022   1.582   0.073
 3645TIP3    H110899   2.967   1.508   0.046
 3645TIP3    H210900   3.112   1.553   0.056
 3646TIP3   OH210901   2.155   4.901   4.582
 3646TIP3    H110902   2.250   4.892   4.583
 3646TIP3    H210903   2.129   4.885   4.492
 3647TIP3   OH210904   6.386   4.117   2.348
 3647TIP3    H110905   6.477   4.091   2.333
 3647TIP3    H210906   6.363   4.078   2.432
 3648TIP3   OH210907   0.546   1.344   3.080
 3648TIP3    H110908   0.466   1.354   3.029
 3648TIP3    H210909   0.600   1.282   3.031
 3649TIP3   OH210910   4.249   3.717   0.803
 3649TIP3    H110911   4.185   3.705   0.874
 3649TIP3    H210912   4.266   3.629   0.770
 3650TIP3   OH210913   4.363   5.241   4.712
 3650TIP3    H110914   4.419   5.232   4.788
 3650TIP3    H210915   4.302   5.311   4.735
 3651TIP3   OH210916   0.976   3.375   0.062
 3651TIP3    H110917   0.983   3.443  -0.004
 3651TIP3    H210918   0.992   3.293   0.014
 3652TIP3   OH210919   1.343   0.359   2.901
 3652TIP3    H110920   1.270   0.303   2.877
 3652TIP3    H210921   1.417   0.299   2.913
 3653TIP3   OH210922   6.443   2.007   1.663
 3653TIP3    H110923   6.475   2.057   1.588
 3653TIP3    H210924   6.506   2.024   1.732
 3654TIP3   OH210925   1.309   2.148   3.916
 3654TIP3    H110926   1.394   2.124   3.953
 3654TIP3    H210927   1.268   2.203   3.983
 3655TIP3   OH210928   5.718   5.679   4.130
 3655TIP3    H110929   5.723   5.701   4.037
 3655TIP3    H210930   5.650   5.612   4.136
 3656TIP3   OH210931   3.174   2.193   4.538
 3656TIP3    H110932   3.093   2.148   4.559
 3656TIP3    H210933   3.200   2.159   4.453
 3657TIP3   OH210934   4.496   1.994   2.391
 3657TIP3    H110935   4.531   2.059   2.330
 3657TIP3    H210936   4.453   1.929   2.336
 3658TIP3   OH210937   6.910   2.361   3.317
 3658TIP3    H110938   6.948   2.389   3.400
 3658TIP3    H210939   6.925   2.435   3.258
 3659TIP3   OH210940   3.349   0.297   2.361
 3659TIP3    H110941   3.295   0.232   2.317
 3659TIP3    H210942   3.305   0.312   2.445
 3660TIP3   OH210943   1.987   6.221   1.189
 3660TIP3    H110944   1.913   6.162   1.177
 3660TIP3    H210945   2.064   6.165   1.179
 3661TIP3   OH210946   1.807   0.370   0.877
 3661TIP3    H110947   1.839   0.280   0.882
 3661TIP3    H210948   1.854   0.408   0.803
 3662TIP3   OH210949   1.065   4.334   4.283
 3662TIP3    H110950   1.100   4.263   4.230
 3662TIP3    H210951   0.998   4.293   4.338
 3663TIP3   OH210952   2.146   2.584   4.964
 3663TIP3    H110953   2.177   2.673   4.948
 3663TIP3    H210954   2.169   2.536   4.885
 3664TIP3   OH210955   6.861   5.625   5.433
 3664TIP3    H110956   6.839   5.718   5.420
 3664TIP3    H210957   6.797   5.595   5.498
 3665TIP3   OH210958   6.297   6.664   1.331
 3665TIP3    H110959   6.365   6.644   1.267
 3665TIP3    H210960   6.277   6.756   1.315
 3666TIP3   OH210961   3.047   4.395   3.858
 3666TIP3    H110962   3.095   4.380   3.939
 3666TIP3    H210963   3.114   4.391   3.789
 3667TIP3   OH210964   5.272   1.996   0.221
 3667TIP3    H110965   5.280   1.987   0.316
 3667TIP3    H210966   5.180   2.018   0.206
 3668TIP3   OH210967   4.855   2.936   2.071
 3668TIP3    H110968   4.785   2.995   2.097
 3668TIP3    H210969   4.841   2.922   1.977
 3669TIP3   OH210970   0.623   3.824   0.112
 3669TIP3    H110971   0.563   3.863   0.176
 3669TIP3    H210972   0.695   3.886   0.106
 3670TIP3   OH210973   2.705   1.517   5.073
 3670TIP3    H110974   2.628   1.497   5.127
 3670TIP3    H210975   2.767   1.447   5.093
 3671TIP3   OH210976   5.726   2.484   5.112
 3671TIP3    H110977   5.745   2.528   5.029
 3671TIP3    H210978   5.794   2.515   5.172
 3672TIP3   OH210979   5.957   5.483   1.468
 3672TIP3    H110980   5.879   5.467   1.521
 3672TIP3    H210981   5.942   5.432   1.388
 3673TIP3   OH210982   2.096   4.476   5.292
 3673TIP3    H110983   2.084   4.410   5.360
 3673TIP3    H210984   2.189   4.498   5.295
 3674TIP3   OH210985   3.469   0.913   2.321
 3674TIP3    H110986   3.559   0.880   2.313
 3674TIP3    H210987   3.479   1.008   2.328
 3675TIP3   OH210988   2.998   2.134   5.311
 3675TIP3    H110989   3.044   2.097   5.235
 3675TIP3    H210990   3.034   2.085   5.386
 3676TIP3   OH210991   1.930   0.324   3.667
 3676TIP3    H110992   1.962   0.234   3.665
 3676TIP3    H210993   1.853   0.323   3.609
 3677TIP3   OH210994   1.810   5.112   1.111
 3677TIP3    H110995   1.806   5.204   1.137
 3677TIP3    H210996   1.744   5.069   1.165
 3678TIP3   OH210997   3.124   0.329   3.096
 3678TIP3    H110998   3.187   0.380   3.148
 3678TIP3    H210999   3.054   0.308   3.157
 3679TIP3   OH211000   1.877   4.255   5.167
 3679TIP3    H111001   1.953   4.294   5.125
 3679TIP3    H211002   1.803   4.306   5.134
 3680TIP3   OH211003   5.948   1.480   2.540
 3680TIP3    H111004   5.859   1.458   2.569
 3680TIP3    H211005   5.936   1.515   2.451
 3681TIP3   OH211006   6.748   1.038   2.307
 3681TIP3    H111007   6.806   1.034   2.383
 3681TIP3    H211008   6.805   1.061   2.234
 3682TIP3   OH211009   5.225   5.373   0.594
 3682TIP3    H111010   5.298   5.410   0.643
 3682TIP3    H211011   5.215   5.284   0.629
 3683TIP3   OH211012   6.850   1.870   1.138
 3683TIP3    H111013   6.834   1.831   1.224
 3683TIP3    H211014   6.764   1.898   1.108
 3684TIP3   OH211015   4.191   0.777   4.206
 3684TIP3    H111016   4.103   0.787   4.172
 3684TIP3    H211017   4.198   0.684   4.228
 3685TIP3   OH211018   3.543   1.514   5.551
 3685TIP3    H111019   3.522   1.464   5.630
 3685TIP3    H211020   3.537   1.450   5.480
 3686TIP3   OH211021   1.771   0.249   5.801
 3686TIP3    H111022   1.836   0.187   5.767
 3686TIP3    H211023   1.719   0.198   5.863
 3687TIP3   OH211024   4.704   6.696   3.784
 3687TIP3    H111025   4.784   6.747   3.777
 3687TIP3    H211026   4.730   6.606   3.762
 3688TIP3   OH211027   4.439   1.736   0.107
 3688TIP3    H111028   4.389   1.808   0.146
 3688TIP3    H211029   4.510   1.720   0.170
 3689TIP3   OH211030   4.126   3.718   3.797
 3689TIP3    H111031   4.185   3.767   3.855
 3689TIP3    H211032   4.143   3.754   3.710
 3690TIP3   OH211033   7.201   0.544   0.721
 3690TIP3    H111034   7.212   0.639   0.723
 3690TIP3    H211035   7.184   0.524   0.629
 3691TIP3   OH211036   1.852   3.985   1.454
 3691TIP3    H111037   1.928   4.036   1.427
 3691TIP3    H211038   1.851   3.992   1.550
 3692TIP3   OH211039   7.074   3.939   3.075
 3692TIP3    H111040   7.145   3.876   3.090
 3692TIP3    H211041   7.040   3.957   3.162
 3693TIP3   OH211042   3.257   2.482   3.948
 3693TIP3    H111043   3.239   2.553   4.010
 3693TIP3    H211044   3.316   2.521   3.883
 3694TIP3   OH211045   4.929   4.686   5.144
 3694TIP3    H111046   4.922   4.596   5.174
 3694TIP3    H211047   4.854   4.697   5.085
 3695TIP3   OH211048   6.339   2.863   4.383
 3695TIP3    H111049   6.322   2.898   4.296
 3695TIP3    H211050   6.328   2.769   4.374
 3696TIP3   OH211051   5.865   1.599   3.007
 3696TIP3    H111052   5.859   1.510   2.972
 3696TIP3    H211053   5.925   1.593   3.081
 3697TIP3   OH211054   2.793   5.768   5.377
 3697TIP3    H111055   2.806   5.733   5.289
 3697TIP3    H211056   2.854   5.842   5.383
 3698TIP3   OH211057   5.625   4.830   4.146
 3698TIP3    H111058   5.684   4.774   4.096
 3698TIP3    H211059   5.593   4.774   4.217
 3699TIP3   OH211060   0.968   3.591   0.226
 3699TIP3    H111061   0.958   3.506   0.183
 3699TIP3    H211062   0.973   3.654   0.153
 3700TIP3   OH211063   1.606   3.375   2.134
 3700TIP3    H111064   1.552   3.362   2.212
 3700TIP3    H211065   1.694   3.391   2.168
 3701TIP3   OH211066   2.257   4.446   2.626
 3701TIP3    H111067   2.165   4.469   2.644
 3701TIP3    H211068   2.256   4.411   2.537
 3702TIP3   OH211069   0.294   2.999   1.889
 3702TIP3    H111070   0.349   2.995   1.967
 3702TIP3    H211071   0.269   2.908   1.873
 3703TIP3   OH211072   2.425   4.300   3.180
 3703TIP3    H111073   2.376   4.360   3.125
 3703TIP3    H211074   2.423   4.217   3.133
 3704TIP3   OH211075   2.969   3.654   3.054
 3704TIP3    H111076   2.916   3.591   3.005
 3704TIP3    H211077   2.934   3.739   3.029
 3705TIP3   OH211078   6.300   0.335   0.423
 3705TIP3    H111079   6.393   0.342   0.444
 3705TIP3    H211080   6.263   0.281   0.493
 3706TIP3   OH211081   5.441   0.568   5.059
 3706TIP3    H111082   5.380   0.610   5.120
 3706TIP3    H211083   5.528   0.586   5.095
 3707TIP3   OH211084   2.015   2.509   4.491
 3707TIP3    H111085   1.969   2.587   4.461
 3707TIP3    H211086   2.102   2.515   4.450
 3708TIP3   OH211087   4.753   2.421   0.178
 3708TIP3    H111088   4.778   2.472   0.255
 3708TIP3    H211089   4.761   2.330   0.207
 3709TIP3   OH211090   2.083   4.747   2.330
 3709TIP3    H111091   2.030   4.827   2.334
 3709TIP3    H211092   2.153   4.761   2.393
 3710TIP3   OH211093   2.468   6.379   2.657
 3710TIP3    H111094   2.497   6.397   2.568
 3710TIP3    H211095   2.373   6.365   2.649
 3711TIP3   OH211096   0.111   4.166   3.790
 3711TIP3    H111097   0.198   4.158   3.830
 3711TIP3    H211098   0.053   4.118   3.850
 3712TIP3   OH211099   4.120   6.819   3.425
 3712TIP3    H111100   4.042   6.768   3.404
 3712TIP3    H211101   4.088   6.909   3.436
 3713TIP3   OH211102   4.547   6.479   1.052
 3713TIP3    H111103   4.477   6.443   0.998
 3713TIP3    H211104   4.505   6.548   1.103
 3714TIP3   OH211105   6.960   0.466   4.615
 3714TIP3    H111106   6.993   0.504   4.696
 3714TIP3    H211107   6.865   0.479   4.619
 3715TIP3   OH211108   5.284   6.431   0.095
 3715TIP3    H111109   5.199   6.472   0.112
 3715TIP3    H211110   5.348   6.495   0.127
 3716TIP3   OH211111   1.842   2.247   0.718
 3716TIP3    H111112   1.819   2.340   0.725
 3716TIP3    H211113   1.933   2.247   0.689
 3717TIP3   OH211114   6.367   4.813   4.963
 3717TIP3    H111115   6.273   4.807   4.948
 3717TIP3    H211116   6.405   4.748   4.903
 3718TIP3   OH211117   3.105   3.732   5.305
 3718TIP3    H111118   3.052   3.704   5.379
 3718TIP3    H211119   3.150   3.653   5.276
 3719TIP3   OH211120   3.689   3.276   5.874
 3719TIP3    H111121   3.710   3.292   5.966
 3719TIP3    H211122   3.758   3.321   5.826
 3720TIP3   OH211123   4.183   6.367   1.104
 3720TIP3    H111124   4.229   6.287   1.126
 3720TIP3    H211125   4.093   6.339   1.088
 3721TIP3   OH211126   2.642   2.575   4.408
 3721TIP3    H111127   2.617   2.646   4.349
 3721TIP3    H211128   2.665   2.618   4.490
 3722TIP3   OH211129   0.155   1.482   4.236
 3722TIP3    H111130   0.231   1.446   4.282
 3722TIP3    H211131   0.080   1.440   4.276
 3723TIP3   OH211132   7.240   1.832   3.226
 3723TIP3    H111133   7.163   1.789   3.190
 3723TIP3    H211134   7.215   1.856   3.315
 3724TIP3   OH211135   2.795   5.022   5.593
 3724TIP3    H111136   2.821   5.114   5.593
 3724TIP3    H211137   2.738   5.012   5.669
 3725TIP3   OH211138   0.108   0.357   5.814
 3725TIP3    H111139   0.113   0.266   5.787
 3725TIP3    H211140   0.017   0.370   5.841
 3726TIP3   OH211141   4.033   5.881   2.842
 3726TIP3    H111142   3.998   5.802   2.801
 3726TIP3    H211143   4.118   5.854   2.876
 3727TIP3   OH211144   6.518   1.636   5.433
 3727TIP3    H111145   6.432   1.645   5.474
 3727TIP3    H211146   6.577   1.681   5.493
 3728TIP3   OH211147   4.990   3.845   1.288
 3728TIP3    H111148   4.920   3.903   1.258
 3728TIP3    H211149   5.053   3.903   1.331
 3729TIP3   OH211150   3.660   0.433   2.375
 3729TIP3    H111151   3.708   0.441   2.458
 3729TIP3    H211152   3.574   0.472   2.393
 3730TIP3   OH211153   5.485   1.436   2.879
 3730TIP3    H111154   5.493   1.360   2.822
 3730TIP3    H211155   5.461   1.400   2.964
 3731TIP3   OH211156   2.722   3.065   1.110
 3731TIP3    H111157   2.722   3.042   1.017
 3731TIP3    H211158   2.706   2.982   1.156
 3732TIP3   OH211159   6.423   5.241   1.186
 3732TIP3    H111160   6.420   5.222   1.280
 3732TIP3    H211161   6.516   5.247   1.166
 3733TIP3   OH211162   0.930   6.055   5.579
 3733TIP3    H111163   0.950   6.141   5.616
 3733TIP3    H211164   0.835   6.049   5.582
 3734TIP3   OH211165   2.902   3.257   3.912
 3734TIP3    H111166   2.824   3.264   3.966
 3734TIP3    H211167   2.930   3.347   3.898
 3735TIP3   OH211168   1.316   1.715   0.189
 3735TIP3    H111169   1.396   1.663   0.192
 3735TIP3    H211170   1.329   1.775   0.114
 3736TIP3   OH211171   6.830   2.029   1.467
 3736TIP3    H111172   6.916   2.070   1.475
 3736TIP3    H211173   6.773   2.084   1.520
 3737TIP3   OH211174   3.828   4.875   2.158
 3737TIP3    H111175   3.771   4.944   2.128
 3737TIP3    H211176   3.915   4.899   2.126
 3738TIP3   OH211177   2.709   4.194   4.208
 3738TIP3    H111178   2.724   4.219   4.117
 3738TIP3    H211179   2.709   4.098   4.207
 3739TIP3   OH211180   6.411   4.771   4.239
 3739TIP3    H111181   6.477   4.834   4.270
 3739TIP3    H211182   6.348   4.765   4.310
 3740TIP3   OH211183   0.316   1.959   4.240
 3740TIP3    H111184   0.331   1.890   4.305
 3740TIP3    H211185   0.325   1.915   4.156
 3741TIP3   OH211186   3.398   4.857   2.736
 3741TIP3    H111187   3.375   4.881   2.826
 3741TIP3    H211188   3.385   4.762   2.733
 3742TIP3   OH211189   0.938   5.401   2.233
 3742TIP3    H111190   0.892   5.463   2.289
 3742TIP3    H211191   0.925   5.435   2.144
 3743TIP3   OH211192   2.678   5.355   0.661
 3743TIP3    H111193   2.632   5.383   0.740
 3743TIP3    H211194   2.608   5.325   0.602
 3744TIP3   OH211195   6.061   3.405   5.095
 3744TIP3    H111196   6.130   3.345   5.066
 3744TIP3    H211197   6.100   3.452   5.169
 3745TIP3   OH211198   4.904   6.391   5.001
 3745TIP3    H111199   4.992   6.355   4.992
 3745TIP3    H211200   4.917   6.485   5.006
 3746TIP3   OH211201   4.412   4.424   0.198
 3746TIP3    H111202   4.346   4.475   0.151
 3746TIP3    H211203   4.419   4.343   0.149
 3747TIP3   OH211204   2.299   4.119   2.773
 3747TIP3    H111205   2.217   4.091   2.732
 3747TIP3    H211206   2.362   4.123   2.701
 3748TIP3   OH211207   1.746   3.689   2.522
 3748TIP3    H111208   1.725   3.649   2.606
 3748TIP3    H211209   1.663   3.726   2.491
 3749TIP3   OH211210   3.743   1.408   0.010
 3749TIP3    H111211   3.837   1.392   0.016
 3749TIP3    H211212   3.735   1.500  -0.014
 3750TIP3   OH211213   5.800   2.972   1.061
 3750TIP3    H111214   5.811   2.904   1.127
 3750TIP3    H211215   5.889   2.991   1.032
 3751TIP3   OH211216   2.492   3.143   2.242
 3751TIP3    H111217   2.487   3.172   2.151
 3751TIP3    H211218   2.498   3.047   2.236
 3752TIP3   OH211219   0.688   1.870   0.736
 3752TIP3    H111220   0.760   1.933   0.731
 3752TIP3    H211221   0.646   1.874   0.651
 3753TIP3   OH211222   4.464   3.889   3.618
 3753TIP3    H111223   4.450   3.829   3.691
 3753TIP3    H211224   4.515   3.961   3.656
 3754TIP3   OH211225   3.668   6.138   2.898
 3754TIP3    H111226   3.577   6.167   2.889
 3754TIP3    H211227   3.663   6.049   2.931
 3755TIP3   OH211228   0.941   6.459   4.124
 3755TIP3    H111229   0.859   6.442   4.170
 3755TIP3    H211230   0.915   6.473   4.033
 3756TIP3   OH211231   0.047   5.208   0.671
 3756TIP3    H111232   0.090   5.255   0.599
 3756TIP3    H211233  -0.044   5.199   0.643
 3757TIP3   OH211234   2.322   3.946   3.516
 3757TIP3    H111235   2.339   4.032   3.478
 3757TIP3    H211236   2.244   3.958   3.569
 3758TIP3   OH211237   5.606   1.695   4.293
 3758TIP3    H111238   5.633   1.772   4.241
 3758TIP3    H211239   5.671   1.628   4.272
 3759TIP3   OH211240   3.090   3.932   2.374
 3759TIP3    H111241   3.005   3.959   2.341
 3759TIP3    H211242   3.119   3.864   2.313
 3760TIP3   OH211243   1.340   4.543   5.295
 3760TIP3    H111244   1.333   4.580   5.207
 3760TIP3    H211245   1.399   4.603   5.341
 3761TIP3   OH211246   5.475   2.436   3.234
 3761TIP3    H111247   5.402   2.469   3.182
 3761TIP3    H211248   5.548   2.432   3.172
 3762TIP3   OH211249   0.946   3.536   5.761
 3762TIP3    H111250   0.972   3.608   5.705
 3762TIP3    H211251   0.996   3.461   5.729
 3763TIP3   OH211252   7.167   5.437   0.522
 3763TIP3    H111253   7.085   5.486   0.510
 3763TIP3    H211254   7.201   5.469   0.605
 3764TIP3   OH211255   6.661   6.081   1.339
 3764TIP3    H111256   6.576   6.093   1.381
 3764TIP3    H211257   6.706   6.017   1.394
 3765TIP3   OH211258   6.939   2.560   5.137
 3765TIP3    H111259   6.994   2.541   5.213
 3765TIP3    H211260   6.972   2.502   5.068
 3766TIP3   OH211261   5.362   6.322   2.194
 3766TIP3    H111262   5.417   6.304   2.118
 3766TIP3    H211263   5.418   6.298   2.269
 3767TIP3   OH211264   6.236   6.523   5.063
 3767TIP3    H111265   6.240   6.435   5.024
 3767TIP3    H211266   6.143   6.535   5.085
 3768TIP3   OH211267   2.353   1.555   5.166
 3768TIP3    H111268   2.436   1.508   5.160
 3768TIP3    H211269   2.313   1.546   5.080
 3769TIP3   OH211270   6.797   5.538   2.444
 3769TIP3    H111271   6.849   5.544   2.524
 3769TIP3    H211272   6.861   5.516   2.375
 3770TIP3   OH211273   6.592   6.518   3.809
 3770TIP3    H111274   6.548   6.455   3.752
 3770TIP3    H211275   6.580   6.602   3.765
 3771TIP3   OH211276   2.517   0.174   4.117
 3771TIP3    H111277   2.516   0.268   4.098
 3771TIP3    H211278   2.424   0.151   4.127
 3772TIP3   OH211279   4.394   5.178   4.258
 3772TIP3    H111280   4.360   5.112   4.318
 3772TIP3    H211281   4.345   5.166   4.177
 3773TIP3   OH211282   5.940   5.422   4.265
 3773TIP3    H111283   5.850   5.453   4.256
 3773TIP3    H211284   5.932   5.337   4.308
 3774TIP3   OH211285   3.850   0.746   3.420
 3774TIP3    H111286   3.928   0.784   3.378
 3774TIP3    H211287   3.828   0.671   3.365
 3775TIP3   OH211288   0.709   0.421   5.662
 3775TIP3    H111289   0.805   0.421   5.654
 3775TIP3    H211290   0.691   0.479   5.736
 3776TIP3   OH211291   6.691   1.732   3.061
 3776TIP3    H111292   6.676   1.657   3.003
 3776TIP3    H211293   6.749   1.789   3.012
 3777TIP3   OH211294   0.182   0.230   2.877
 3777TIP3    H111295   0.222   0.304   2.922
 3777TIP3    H211296   0.204   0.154   2.931
 3778TIP3   OH211297   1.474   5.245   3.212
 3778TIP3    H111298   1.548   5.186   3.227
 3778TIP3    H211299   1.401   5.186   3.192
 3779TIP3   OH211300   3.334   2.735   3.405
 3779TIP3    H111301   3.253   2.699   3.442
 3779TIP3    H211302   3.368   2.794   3.472
 3780TIP3   OH211303   2.218   1.745   3.510
 3780TIP3    H111304   2.174   1.796   3.442
 3780TIP3    H211305   2.150   1.731   3.576
 3781TIP3   OH211306   5.785   0.911   5.525
 3781TIP3    H111307   5.871   0.882   5.556
 3781TIP3    H211308   5.724   0.845   5.559
 3782TIP3   OH211309   7.151   4.183   5.342
 3782TIP3    H111310   7.238   4.178   5.301
 3782TIP3    H211311   7.098   4.233   5.280
 3783TIP3   OH211312   6.643   5.607   1.129
 3783TIP3    H111313   6.653   5.665   1.053
 3783TIP3    H211314   6.552   5.580   1.127
 3784TIP3   OH211315   6.368   6.538   4.294
 3784TIP3    H111316   6.412   6.584   4.365
 3784TIP3    H211317   6.360   6.602   4.224
 3785TIP3   OH211318   0.622   3.220   0.531
 3785TIP3    H111319   0.664   3.302   0.556
 3785TIP3    H211320   0.608   3.174   0.613
 3786TIP3   OH211321   6.305   0.683   4.750
 3786TIP3    H111322   6.327   0.639   4.668
 3786TIP3    H211323   6.294   0.775   4.726
 3787TIP3   OH211324   4.374   0.705   4.579
 3787TIP3    H111325   4.444   0.689   4.642
 3787TIP3    H211326   4.382   0.633   4.516
 3788TIP3   OH211327   2.921   2.798   4.186
 3788TIP3    H111328   2.939   2.829   4.275
 3788TIP3    H211329   2.940   2.874   4.131
 3789TIP3   OH211330   4.221   0.207   5.253
 3789TIP3    H111331   4.200   0.260   5.330
 3789TIP3    H211332   4.212   0.267   5.179
 3790TIP3   OH211333   7.147   5.958   1.755
 3790TIP3    H111334   7.073   6.006   1.716
 3790TIP3    H211335   7.197   5.926   1.680
 3791TIP3   OH211336   1.549   6.692   0.256
 3791TIP3    H111337   1.546   6.777   0.300
 3791TIP3    H211338   1.463   6.654   0.271
 3792TIP3   OH211339   0.076   5.881   3.124
 3792TIP3    H111340   0.102   5.937   3.051
 3792TIP3    H211341  -0.017   5.899   3.136
 3793TIP3   OH211342   2.941   2.672   5.696
 3793TIP3    H111343   2.876   2.729   5.739
 3793TIP3    H211344   2.888   2.609   5.646
 3794TIP3   OH211345   6.838   3.376   0.083
 3794TIP3    H111346   6.832   3.295   0.033
 3794TIP3    H211347   6.805   3.352   0.170
 3795TIP3   OH211348   0.427   0.388   2.419
 3795TIP3    H111349   0.428   0.466   2.474
 3795TIP3    H211350   0.518   0.359   2.417
 3796TIP3   OH211351   6.827   3.352   3.931
 3796TIP3    H111352   6.904   3.383   3.882
 3796TIP3    H211353   6.792   3.431   3.972
 3797TIP3   OH211354   0.940   0.695   4.306
 3797TIP3    H111355   0.882   0.650   4.245
 3797TIP3    H211356   0.943   0.638   4.382
 3798TIP3   OH211357   1.773   5.255   5.021
 3798TIP3    H111358   1.847   5.312   4.999
 3798TIP3    H211359   1.707   5.277   4.955
 3799TIP3   OH211360   1.144   1.559   1.599
 3799TIP3    H111361   1.187   1.474   1.595
 3799TIP3    H211362   1.074   1.548   1.663
 3800TIP3   OH211363   6.611   5.121   2.008
 3800TIP3    H111364   6.647   5.192   2.061
 3800TIP3    H211365   6.565   5.065   2.072
 3801TIP3   OH211366   6.740   3.778   0.680
 3801TIP3    H111367   6.808   3.781   0.613
 3801TIP3    H211368   6.663   3.743   0.635
 3802TIP3   OH211369   5.432   6.094   2.006
 3802TIP3    H111370   5.433   6.047   1.923
 3802TIP3    H211371   5.498   6.050   2.059
 3803TIP3   OH211372   0.604   0.907   3.001
 3803TIP3    H111373   0.531   0.924   3.061
 3803TIP3    H211374   0.606   0.983   2.943
 3804TIP3   OH211375   0.044   2.872   4.125
 3804TIP3    H111376   0.120   2.818   4.148
 3804TIP3    H211377   0.081   2.957   4.101
 3805TIP3   OH211378   3.644   0.090   5.798
 3805TIP3    H111379   3.633  -0.005   5.801
 3805TIP3    H211380   3.719   0.107   5.855
 3806TIP3   OH211381   5.169   4.263   1.627
 3806TIP3    H111382   5.079   4.245   1.652
 3806TIP3    H211383   5.217   4.264   1.709
 3807TIP3   OH211384   0.282   6.270   5.135
 3807TIP3    H111385   0.348   6.339   5.126
 3807TIP3    H211386   0.242   6.263   5.048
 3808TIP3   OH211387   3.717   3.681   2.377
 3808TIP3    H111388   3.762   3.602   2.408
 3808TIP3    H211389   3.656   3.648   2.311
 3809TIP3   OH211390   4.706   0.735   5.238
 3809TIP3    H111391   4.636   0.794   5.209
 3809TIP3    H211392   4.771   0.739   5.167
 3810TIP3   OH211393   5.891   4.048   4.840
 3810TIP3    H111394   5.825   4.102   4.797
 3810TIP3    H211395   5.928   4.105   4.907
 3811TIP3   OH211396   4.104   1.816   3.922
 3811TIP3    H111397   4.187   1.844   3.960
 3811TIP3    H211398   4.061   1.766   3.992
 3812TIP3   OH211399   4.280   6.219   1.663
 3812TIP3    H111400   4.210   6.200   1.601
 3812TIP3    H211401   4.358   6.234   1.609
 3813TIP3   OH211402   7.040   5.426   5.425
 3813TIP3    H111403   7.116   5.484   5.429
 3813TIP3    H211404   6.966   5.484   5.410
 3814TIP3   OH211405   1.951  -0.009   3.140
 3814TIP3    H111406   1.962   0.083   3.165
 3814TIP3    H211407   2.021  -0.055   3.185
 3815TIP3   OH211408   1.720   6.385   5.552
 3815TIP3    H111409   1.666   6.354   5.624
 3815TIP3    H211410   1.810   6.362   5.578
 3816TIP3   OH211411   6.466   2.665   0.524
 3816TIP3    H111412   6.497   2.596   0.466
 3816TIP3    H211413   6.376   2.640   0.545
 3817TIP3   OH211414   0.439   4.955   3.946
 3817TIP3    H111415   0.407   4.933   4.034
 3817TIP3    H211416   0.359   4.959   3.893
 3818TIP3   OH211417   3.280   5.828   1.869
 3818TIP3    H111418   3.239   5.914   1.872
 3818TIP3    H211419   3.372   5.845   1.889
 3819TIP3   OH211420   3.190   2.388   4.711
 3819TIP3    H111421   3.177   2.330   4.635
 3819TIP3    H211422   3.260   2.347   4.761
 3820TIP3   OH211423   1.193   3.783   2.696
 3820TIP3    H111424   1.272   3.732   2.681
 3820TIP3    H211425   1.187   3.841   2.620
 3821TIP3   OH211426   6.743   6.229   2.526
 3821TIP3    H111427   6.744   6.173   2.448
 3821TIP3    H211428   6.673   6.292   2.509
 3822TIP3   OH211429   2.916   6.375   2.326
 3822TIP3    H111430   2.872   6.420   2.397
 3822TIP3    H211431   2.866   6.294   2.314
 3823TIP3   OH211432   5.965   3.511   4.335
 3823TIP3    H111433   5.941   3.500   4.427
 3823TIP3    H211434   6.031   3.581   4.336
 3824TIP3   OH211435  -0.007   1.617   5.264
 3824TIP3    H111436  -0.078   1.561   5.297
 3824TIP3    H211437   0.052   1.556   5.220
 3825TIP3   OH211438   1.152   2.859   3.683
 3825TIP3    H111439   1.141   2.770   3.650
 3825TIP3    H211440   1.090   2.865   3.756
 3826TIP3   OH211441   0.889   5.473   3.306
 3826TIP3    H111442   0.947   5.515   3.370
 3826TIP3    H211443   0.896   5.527   3.228
 3827TIP3   OH211444   7.065   6.077   0.164
 3827TIP3    H111445   7.101   6.007   0.219
 3827TIP3    H211446   7.089   6.157   0.210
 3828TIP3   OH211447   1.012   3.382   4.598
 3828TIP3    H111448   0.953   3.307   4.600
 3828TIP3    H211449   1.095   3.345   4.567
 3829TIP3   OH211450   1.213   1.482   5.030
 3829TIP3    H111451   1.254   1.404   5.068
 3829TIP3    H211452   1.120   1.460   5.026
 3830TIP3   OH211453   3.299   5.981   2.515
 3830TIP3    H111454   3.234   6.005   2.449
 3830TIP3    H211455   3.314   6.061   2.565
 3831TIP3   OH211456   1.093   4.617   3.029
 3831TIP3    H111457   1.040   4.692   3.002
 3831TIP3    H211458   1.096   4.560   2.952
 3832TIP3   OH211459   6.175  -0.006   5.640
 3832TIP3    H111460   6.082  -0.025   5.628
 3832TIP3    H211461   6.178   0.067   5.701
 3833TIP3   OH211462   4.132   2.242   5.014
 3833TIP3    H111463   4.198   2.173   5.007
 3833TIP3    H211464   4.159   2.293   5.090
 3834TIP3   OH211465   2.888   4.489   4.773
 3834TIP3    H111466   2.953   4.559   4.778
 3834TIP3    H211467   2.904   4.435   4.850
 3835TIP3   OH211468   0.328   2.552   5.435
 3835TIP3    H111469   0.281   2.495   5.373
 3835TIP3    H211470   0.306   2.517   5.521
 3836TIP3   OH211471   2.015   2.997   2.744
 3836TIP3    H111472   2.094   2.988   2.691
 3836TIP3    H211473   2.005   2.911   2.787
 3837TIP3   OH211474   4.843   4.188   3.826
 3837TIP3    H111475   4.927   4.150   3.852
 3837TIP3    H211476   4.856   4.283   3.835
 3838TIP3   OH211477   4.700   2.578   5.453
 3838TIP3    H111478   4.755   2.656   5.458
 3838TIP3    H211479   4.703   2.541   5.541
 3839TIP3   OH211480   7.132   4.437   4.874
 3839TIP3    H111481   7.181   4.502   4.925
 3839TIP3    H211482   7.196   4.367   4.858
 3840TIP3   OH211483   2.049   3.825   4.951
 3840TIP3    H111484   2.039   3.907   4.903
 3840TIP3    H211485   2.103   3.771   4.893
 3841TIP3   OH211486   5.768   3.826   1.217
 3841TIP3    H111487   5.812   3.911   1.216
 3841TIP3    H211488   5.676   3.846   1.198
 3842TIP3   OH211489   2.120   0.763   1.805
 3842TIP3    H111490   2.179   0.805   1.742
 3842TIP3    H211491   2.174   0.696   1.847
 3843TIP3   OH211492   1.882   5.660   0.226
 3843TIP3    H111493   1.823   5.610   0.169
 3843TIP3    H211494   1.839   5.661   0.311
 3844TIP3   OH211495   4.098   0.648   1.539
 3844TIP3    H111496   4.117   0.740   1.557
 3844TIP3    H211497   4.004   0.640   1.555
 3845TIP3   OH211498   1.253   1.013   3.279
 3845TIP3    H111499   1.240   1.084   3.215
 3845TIP3    H211500   1.296   1.055   3.353
 3846TIP3   OH211501   0.370   4.978   3.554
 3846TIP3    H111502   0.328   4.924   3.487
 3846TIP3    H211503   0.306   4.985   3.624
 3847TIP3   OH211504   6.992   0.150   5.612
 3847TIP3    H111505   7.061   0.133   5.547
 3847TIP3    H211506   7.019   0.100   5.689
 3848TIP3   OH211507   4.301   5.032   1.664
 3848TIP3    H111508   4.295   4.942   1.695
 3848TIP3    H211509   4.379   5.067   1.706
 3849TIP3   OH211510   5.517   1.327   4.345
 3849TIP3    H111511   5.525   1.308   4.438
 3849TIP3    H211512   5.599   1.371   4.322
 3850TIP3   OH211513   4.567   4.975   4.050
 3850TIP3    H111514   4.549   5.047   3.990
 3850TIP3    H211515   4.651   4.997   4.090
 3851TIP3   OH211516   5.650   1.133   5.651
 3851TIP3    H111517   5.738   1.101   5.631
 3851TIP3    H211518   5.609   1.144   5.565
 3852TIP3   OH211519   5.513   2.469   1.486
 3852TIP3    H111520   5.556   2.547   1.449
 3852TIP3    H211521   5.444   2.448   1.423
 3853TIP3   OH211522   2.594   1.151   0.431
 3853TIP3    H111523   2.518   1.191   0.474
 3853TIP3    H211524   2.637   1.102   0.501
 3854TIP3   OH211525   3.894   4.913   2.456
 3854TIP3    H111526   3.916   4.821   2.440
 3854TIP3    H211527   3.801   4.920   2.432
 3855TIP3   OH211528   1.029   3.670   2.135
 3855TIP3    H111529   0.958   3.678   2.071
 3855TIP3    H211530   1.077   3.591   2.108
 3856TIP3   OH211531   1.416   1.382   0.092
 3856TIP3    H111532   1.456   1.447   0.150
 3856TIP3    H211533   1.426   1.419   0.004
 3857TIP3   OH211534   5.132   4.070   3.027
 3857TIP3    H111535   5.084   4.033   3.101
 3857TIP3    H211536   5.150   4.160   3.052
 3858TIP3   OH211537   4.477   3.520   5.433
 3858TIP3    H111538   4.494   3.441   5.381
 3858TIP3    H211539   4.412   3.569   5.382
 3859TIP3   OH211540   1.759   5.184   4.265
 3859TIP3    H111541   1.832   5.204   4.207
 3859TIP3    H211542   1.799   5.175   4.351
 3860TIP3   OH211543   4.504   6.179   5.705
 3860TIP3    H111544   4.457   6.247   5.753
 3860TIP3    H211545   4.489   6.099   5.754
 3861TIP3   OH211546   2.968   1.353   3.551
 3861TIP3    H111547   2.935   1.357   3.462
 3861TIP3    H211548   2.913   1.414   3.600
 3862TIP3   OH211549   1.588   0.520   1.140
 3862TIP3    H111550   1.678   0.511   1.106
 3862TIP3    H211551   1.598   0.570   1.221
 3863TIP3   OH211552   1.343   4.675   1.780
 3863TIP3    H111553   1.402   4.618   1.729
 3863TIP3    H211554   1.257   4.660   1.742
 3864TIP3   OH211555   7.187   2.257   1.079
 3864TIP3    H111556   7.147   2.262   1.166
 3864TIP3    H211557   7.270   2.302   1.087
 3865TIP3   OH211558   1.093   2.990   3.383
 3865TIP3    H111559   1.121   2.959   3.469
 3865TIP3    H211560   1.174   3.006   3.335
 3866TIP3   OH211561   4.376   2.506   2.678
 3866TIP3    H111562   4.353   2.586   2.631
 3866TIP3    H211563   4.443   2.465   2.623
 3867TIP3   OH211564   5.808   4.951   0.389
 3867TIP3    H111565   5.774   4.877   0.439
 3867TIP3    H211566   5.766   5.027   0.428
 3868TIP3   OH211567   5.113   2.625   2.700
 3868TIP3    H111568   5.057   2.547   2.701
 3868TIP3    H211569   5.127   2.646   2.792
 3869TIP3   OH211570   3.891   3.491   2.384
 3869TIP3    H111571   3.967   3.546   2.370
 3869TIP3    H211572   3.914   3.407   2.344
 3870TIP3   OH211573   5.950   4.985   1.500
 3870TIP3    H111574   6.024   5.016   1.553
 3870TIP3    H211575   5.942   4.893   1.523
 3871TIP3   OH211576   3.406   5.649   4.761
 3871TIP3    H111577   3.453   5.636   4.678
 3871TIP3    H211578   3.346   5.722   4.744
 3872TIP3   OH211579   4.517   2.551   5.132
 3872TIP3    H111580   4.579   2.555   5.205
 3872TIP3    H211581   4.552   2.483   5.075
 3873TIP3   OH211582   3.712   4.455   4.761
 3873TIP3    H111583   3.696   4.434   4.853
 3873TIP3    H211584   3.715   4.550   4.758
 3874TIP3   OH211585   6.715   0.173   0.331
 3874TIP3    H111586   6.663   0.197   0.408
 3874TIP3    H211587   6.666   0.102   0.290
 3875TIP3   OH211588   4.809   4.475   5.850
 3875TIP3    H111589   4.756   4.403   5.815
 3875TIP3    H211590   4.796   4.471   5.945
 3876TIP3   OH211591   1.846   4.819   0.589
 3876TIP3    H111592   1.915   4.759   0.616
 3876TIP3    H211593   1.819   4.863   0.670
 3877TIP3   OH211594   2.762   2.759   2.606
 3877TIP3    H111595   2.709   2.742   2.529
 3877TIP3    H211596   2.763   2.854   2.615
 3878TIP3   OH211597   0.023   5.864   3.931
 3878TIP3    H111598  -0.008   5.875   3.841
 3878TIP3    H211599   0.014   5.770   3.948
 3879TIP3   OH211600   5.004   2.019   3.386
 3879TIP3    H111601   4.922   1.970   3.380
 3879TIP3    H211602   5.011   2.065   3.302
 3880TIP3   OH211603   7.061   1.451   3.885
 3880TIP3    H111604   6.990   1.387   3.890
 3880TIP3    H211605   7.023   1.532   3.920
 3881TIP3   OH211606   2.132   1.926   0.658
 3881TIP3    H111607   2.051   1.893   0.621
 3881TIP3    H211608   2.125   2.021   0.652
 3882TIP3   OH211609   3.876   1.567   0.950
 3882TIP3    H111610   3.950   1.550   0.892
 3882TIP3    H211611   3.913   1.620   1.021
 3883TIP3   OH211612   5.949   5.226   0.971
 3883TIP3    H111613   5.933   5.145   1.018
 3883TIP3    H211614   6.039   5.219   0.938
 3884TIP3   OH211615   1.186   4.742  -0.005
 3884TIP3    H111616   1.269   4.758   0.040
 3884TIP3    H211617   1.211   4.729  -0.097
 3885TIP3   OH211618   0.484   2.202   0.629
 3885TIP3    H111619   0.550   2.173   0.567
 3885TIP3    H211620   0.427   2.126   0.641
 3886TIP3   OH211621   0.937   1.072   4.927
 3886TIP3    H111622   0.980   1.027   4.854
 3886TIP3    H211623   0.853   1.027   4.936
 3887TIP3   OH211624   0.437   1.098   5.468
 3887TIP3    H111625   0.469   1.019   5.511
 3887TIP3    H211626   0.424   1.161   5.539
 3888TIP3   OH211627   6.861   6.396   3.074
 3888TIP3    H111628   6.774   6.383   3.110
 3888TIP3    H211629   6.856   6.359   2.985
 3889TIP3   OH211630   3.358   1.116   0.066
 3889TIP3    H111631   3.383   1.119  -0.026
 3889TIP3    H211632   3.376   1.026   0.093
 3890TIP3   OH211633   3.727   5.038   3.349
 3890TIP3    H111634   3.753   5.024   3.258
 3890TIP3    H211635   3.793   4.991   3.400
 3891TIP3   OH211636   3.690   1.413   5.022
 3891TIP3    H111637   3.776   1.397   5.061
 3891TIP3    H211638   3.634   1.344   5.058
 3892TIP3   OH211639   3.954   2.427   3.456
 3892TIP3    H111640   3.864   2.449   3.478
 3892TIP3    H211641   3.993   2.401   3.540
 3893TIP3   OH211642   3.795   0.925   3.143
 3893TIP3    H111643   3.838   0.840   3.135
 3893TIP3    H211644   3.708   0.904   3.178
 3894TIP3   OH211645   4.919   1.686   3.051
 3894TIP3    H111646   4.959   1.697   2.965
 3894TIP3    H211647   4.961   1.609   3.087
 3895TIP3   OH211648   4.112   3.123   3.255
 3895TIP3    H111649   4.128   3.200   3.201
 3895TIP3    H211650   4.089   3.159   3.341
 3896TIP3   OH211651   4.947   4.843   3.022
 3896TIP3    H111652   4.928   4.832   2.929
 3896TIP3    H211653   4.988   4.930   3.028
 3897TIP3   OH211654   3.220   6.057   3.777
 3897TIP3    H111655   3.156   6.082   3.711
 3897TIP3    H211656   3.253   6.140   3.811
 3898TIP3   OH211657   7.068   2.084   3.677
 3898TIP3    H111658   7.108   2.141   3.743
 3898TIP3    H211659   6.978   2.074   3.705
 3899TIP3   OH211660   4.517   0.640   4.833
 3899TIP3    H111661   4.532   0.553   4.795
 3899TIP3    H211662   4.552   0.633   4.922
 3900TIP3   OH211663   3.315   2.249   2.917
 3900TIP3    H111664   3.401   2.290   2.926
 3900TIP3    H211665   3.306   2.234   2.822
 3901TIP3   OH211666   1.228   4.395   0.831
 3901TIP3    H111667   1.285   4.430   0.899
 3901TIP3    H211668   1.161   4.463   0.817
 3902TIP3   OH211669   4.493   0.854   2.913
 3902TIP3    H111670   4.431   0.893   2.850
 3902TIP3    H211671   4.443   0.786   2.957
 3903TIP3   OH211672   4.927   2.826   3.747
 3903TIP3    H111673   4.945   2.799   3.657
 3903TIP3    H211674   4.956   2.917   3.751
 3904TIP3   OH211675   5.798   2.778   4.175
 3904TIP3    H111676   5.817   2.697   4.223
 3904TIP3    H211677   5.858   2.842   4.213
 3905TIP3   OH211678   6.216   4.683   1.514
 3905TIP3    H111679   6.214   4.766   1.562
 3905TIP3    H211680   6.309   4.666   1.499
 3906TIP3   OH211681   1.426   1.687   5.057
 3906TIP3    H111682   1.482   1.646   4.991
 3906TIP3    H211683   1.348   1.631   5.061
 3907TIP3   OH211684   6.863   1.010   2.862
 3907TIP3    H111685   6.773   1.013   2.896
 3907TIP3    H211686   6.884   1.101   2.843
 3908TIP3   OH211687   0.028   3.899   1.434
 3908TIP3    H111688  -0.035   3.827   1.422
 3908TIP3    H211689   0.061   3.888   1.523
 3909TIP3   OH211690   4.871   1.208   2.613
 3909TIP3    H111691   4.809   1.160   2.669
 3909TIP3    H211692   4.841   1.298   2.616
 3910TIP3   OH211693   4.978   5.207   3.999
 3910TIP3    H111694   5.061   5.217   4.045
 3910TIP3    H211695   4.934   5.291   4.009
 3911TIP3   OH211696   3.058   2.875   1.049
 3911TIP3    H111697   3.073   2.829   1.132
 3911TIP3    H211698   3.003   2.815   0.999
 3912TIP3   OH211699   0.326   5.673   0.264
 3912TIP3    H111700   0.323   5.700   0.356
 3912TIP3    H211701   0.252   5.614   0.254
 3913TIP3   OH211702   4.774   6.535   3.520
 3913TIP3    H111703   4.759   6.616   3.469
 3913TIP3    H211704   4.691   6.520   3.564
 3914TIP3   OH211705   3.693   0.016   4.455
 3914TIP3    H111706   3.739   0.098   4.475
 3914TIP3    H211707   3.754  -0.032   4.399
 3915TIP3   OH211708   2.261   0.103   3.472
 3915TIP3    H111709   2.172   0.069   3.477
 3915TIP3    H211710   2.307   0.060   3.544
 3916TIP3   OH211711   2.500   5.991   3.525
 3916TIP3    H111712   2.509   6.055   3.455
 3916TIP3    H211713   2.527   6.037   3.604
 3917TIP3   OH211714   4.344   4.406   4.593
 3917TIP3    H111715   4.410   4.368   4.535
 3917TIP3    H211716   4.293   4.331   4.624
 3918TIP3   OH211717   5.327   3.820   5.877
 3918TIP3    H111718   5.302   3.768   5.800
 3918TIP3    H211719   5.299   3.909   5.856
 3919TIP3   OH211720   5.771   5.269   5.416
 3919TIP3    H111721   5.763   5.311   5.501
 3919TIP3    H211722   5.842   5.206   5.427
 3920TIP3   OH211723   1.458   0.761   5.478
 3920TIP3    H111724   1.391   0.716   5.427
 3920TIP3    H211725   1.429   0.852   5.482
 3921TIP3   OH211726   1.877   2.523   0.723
 3921TIP3    H111727   1.785   2.518   0.750
 3921TIP3    H211728   1.885   2.608   0.681
 3922TIP3   OH211729   6.163   6.392   5.878
 3922TIP3    H111730   6.234   6.416   5.818
 3922TIP3    H211731   6.098   6.462   5.867
 3923TIP3   OH211732   6.028   5.976   0.302
 3923TIP3    H111733   6.065   5.938   0.222
 3923TIP3    H211734   6.034   5.906   0.367
 3924TIP3   OH211735   6.284   4.183   5.251
 3924TIP3    H111736   6.259   4.238   5.176
 3924TIP3    H211737   6.209   4.124   5.263
 3925TIP3   OH211738   5.755   0.187   5.465
 3925TIP3    H111739   5.840   0.154   5.438
 3925TIP3    H211740   5.766   0.282   5.469
 3926TIP3   OH211741   5.145   3.870   4.569
 3926TIP3    H111742   5.224   3.837   4.526
 3926TIP3    H211743   5.103   3.926   4.504
 3927TIP3   OH211744   0.090   2.465   4.131
 3927TIP3    H111745   0.125   2.379   4.110
 3927TIP3    H211746   0.123   2.522   4.061
 3928TIP3   OH211747   2.906   4.279   4.389
 3928TIP3    H111748   2.878   4.246   4.475
 3928TIP3    H211749   2.835   4.253   4.330
 3929TIP3   OH211750   0.268   4.061   2.562
 3929TIP3    H111751   0.178   4.033   2.546
 3929TIP3    H211752   0.260   4.134   2.624
 3930TIP3   OH211753   6.154   3.713   4.288
 3930TIP3    H111754   6.172   3.798   4.329
 3930TIP3    H211755   6.233   3.661   4.305
 3931TIP3   OH211756   5.994   0.481   0.151
 3931TIP3    H111757   6.069   0.520   0.195
 3931TIP3    H211758   5.964   0.549   0.090
 3932TIP3   OH211759   2.656   1.547   2.203
 3932TIP3    H111760   2.592   1.495   2.155
 3932TIP3    H211761   2.625   1.637   2.194
 3933TIP3   OH211762   3.535   1.344   0.202
 3933TIP3    H111763   3.538   1.253   0.170
 3933TIP3    H211764   3.605   1.388   0.155
 3934TIP3   OH211765   5.207   1.008   3.058
 3934TIP3    H111766   5.301   1.018   3.077
 3934TIP3    H211767   5.188   1.080   2.997
 3935TIP3   OH211768   1.976   1.189   3.515
 3935TIP3    H111769   1.890   1.185   3.474
 3935TIP3    H211770   2.031   1.132   3.460
 3936TIP3   OH211771   1.051   2.290   4.614
 3936TIP3    H111772   1.037   2.369   4.665
 3936TIP3    H211773   1.023   2.219   4.671
 3937TIP3   OH211774   2.133   0.311   4.730
 3937TIP3    H111775   2.198   0.247   4.700
 3937TIP3    H211776   2.173   0.353   4.806
 3938TIP3   OH211777   2.167   3.978   4.281
 3938TIP3    H111778   2.142   4.029   4.204
 3938TIP3    H211779   2.158   3.887   4.253
 3939TIP3   OH211780   0.449   5.651   4.228
 3939TIP3    H111781   0.518   5.617   4.286
 3939TIP3    H211782   0.392   5.701   4.286
 3940TIP3   OH211783   2.411   1.872   0.400
 3940TIP3    H111784   2.453   1.786   0.394
 3940TIP3    H211785   2.441   1.907   0.484
 3941TIP3   OH211786   3.086   3.841   0.416
 3941TIP3    H111787   3.033   3.905   0.463
 3941TIP3    H211788   3.116   3.780   0.483
 3942TIP3   OH211789   0.039   1.072   2.385
 3942TIP3    H111790   0.108   1.130   2.352
 3942TIP3    H211791   0.073   1.039   2.468
 3943TIP3   OH211792   2.016   0.419   1.369
 3943TIP3    H111793   2.058   0.505   1.377
 3943TIP3    H211794   1.990   0.414   1.277
 3944TIP3   OH211795   0.293   2.951   3.008
 3944TIP3    H111796   0.205   2.987   3.020
 3944TIP3    H211797   0.323   2.932   3.097
 3945TIP3   OH211798   5.143   2.654   4.349
 3945TIP3    H111799   5.173   2.576   4.302
 3945TIP3    H211800   5.217   2.715   4.343
 3946TIP3   OH211801   6.722   6.253   5.380
 3946TIP3    H111802   6.637   6.276   5.417
 3946TIP3    H211803   6.785   6.280   5.447
 3947TIP3   OH211804   0.690   6.477   5.268
 3947TIP3    H111805   0.720   6.387   5.286
 3947TIP3    H211806   0.679   6.516   5.355
 3948TIP3   OH211807   3.854   0.100   5.353
 3948TIP3    H111808   3.917   0.170   5.338
 3948TIP3    H211809   3.787   0.138   5.409
 3949TIP3   OH211810   5.730   4.414   1.652
 3949TIP3    H111811   5.683   4.346   1.700
 3949TIP3    H211812   5.664   4.483   1.637
 3950TIP3   OH211813   5.388   5.335   4.312
 3950TIP3    H111814   5.334   5.414   4.304
 3950TIP3    H211815   5.379   5.309   4.403
 3951TIP3   OH211816   4.300   4.829   1.181
 3951TIP3    H111817   4.300   4.842   1.086
 3951TIP3    H211818   4.208   4.831   1.206
 3952TIP3   OH211819   6.331   0.381   4.738
 3952TIP3    H111820   6.273   0.344   4.804
 3952TIP3    H211821   6.385   0.444   4.785
 3953TIP3   OH211822   2.929   0.122   3.283
 3953TIP3    H111823   2.986   0.085   3.350
 3953TIP3    H211824   2.891   0.199   3.325
 3954TIP3   OH211825   4.388   5.554   4.047
 3954TIP3    H111826   4.444   5.510   4.110
 3954TIP3    H211827   4.299   5.537   4.079
 3955TIP3   OH211828   5.306   5.731   3.489
 3955TIP3    H111829   5.234   5.709   3.548
 3955TIP3    H211830   5.362   5.654   3.490
 3956TIP3   OH211831   0.494   0.824   0.555
 3956TIP3    H111832   0.549   0.871   0.493
 3956TIP3    H211833   0.420   0.793   0.503
 3957TIP3   OH211834   1.614   4.567   4.879
 3957TIP3    H111835   1.648   4.515   4.952
 3957TIP3    H211836   1.593   4.504   4.811
 3958TIP3   OH211837   0.270   6.868   1.033
 3958TIP3    H111838   0.208   6.811   0.987
 3958TIP3    H211839   0.324   6.809   1.085
 3959TIP3   OH211840   1.204   1.027   0.656
 3959TIP3    H111841   1.294   0.998   0.668
 3959TIP3    H211842   1.212   1.116   0.622
 3960TIP3   OH211843   1.910   6.156   4.902
 3960TIP3    H111844   1.937   6.246   4.923
 3960TIP3    H211845   1.977   6.101   4.942
 3961TIP3   OH211846   5.840   4.427   2.876
 3961TIP3    H111847   5.786   4.370   2.931
 3961TIP3    H211848   5.925   4.429   2.921
 3962TIP3   OH211849   3.907   5.814   2.474
 3962TIP3    H111850   3.867   5.842   2.391
 3962TIP3    H211851   3.853   5.742   2.504
 3963TIP3   OH211852   2.657   1.482   3.922
 3963TIP3    H111853   2.675   1.518   4.008
 3963TIP3    H211854   2.562   1.487   3.913
 3964TIP3   OH211855   5.755   5.497   3.046
 3964TIP3    H111856   5.814   5.570   3.030
 3964TIP3    H211857   5.670   5.529   3.015
 3965TIP3   OH211858   4.393   3.996   2.425
 3965TIP3    H111859   4.320   3.951   2.383
 3965TIP3    H211860   4.390   3.967   2.516
 3966TIP3   OH211861   5.691   5.423   0.601
 3966TIP3    H111862   5.659   5.497   0.549
 3966TIP3    H211863   5.699   5.352   0.538
 3967TIP3   OH211864   4.803   3.807   2.430
 3967TIP3    H111865   4.758   3.846   2.506
 3967TIP3    H211866   4.743   3.739   2.399
 3968TIP3   OH211867   2.838   4.875   4.025
 3968TIP3    H111868   2.850   4.883   3.930
 3968TIP3    H211869   2.874   4.789   4.046
 3969TIP3   OH211870   6.385   1.280   1.157
 3969TIP3    H111871   6.321   1.225   1.112
 3969TIP3    H211872   6.387   1.246   1.247
 3970TIP3   OH211873   1.989   0.975   3.304
 3970TIP3    H111874   1.912   1.032   3.301
 3970TIP3    H211875   1.953   0.886   3.294
 3971TIP3   OH211876   6.099   4.371   2.991
 3971TIP3    H111877   6.113   4.321   3.072
 3971TIP3    H211878   6.179   4.357   2.940
 3972TIP3   OH211879   0.328   6.209   4.362
 3972TIP3    H111880   0.374   6.158   4.428
 3972TIP3    H211881   0.241   6.169   4.358
 3973TIP3   OH211882   7.226   6.350   4.219
 3973TIP3    H111883   7.145   6.374   4.263
 3973TIP3    H211884   7.277   6.431   4.215
 3974TIP3   OH211885   5.810   6.796   0.107
 3974TIP3    H111886   5.869   6.860   0.067
 3974TIP3    H211887   5.827   6.803   0.201
 3975TIP3   OH211888   0.104   6.278   4.918
 3975TIP3    H111889   0.016   6.253   4.891
 3975TIP3    H211890   0.155   6.273   4.837
 3976TIP3   OH211891   6.348   5.317   5.069
 3976TIP3    H111892   6.442   5.303   5.058
 3976TIP3    H211893   6.307   5.251   5.013
 3977TIP3   OH211894   2.880   6.450   3.086
 3977TIP3    H111895   2.925   6.435   3.002
 3977TIP3    H211896   2.936   6.513   3.132
 3978TIP3   OH211897   1.648   2.603   0.542
 3978TIP3    H111898   1.594   2.524   0.541
 3978TIP3    H211899   1.608   2.658   0.609
 3979TIP3   OH211900   7.077   1.556   1.169
 3979TIP3    H111901   7.023   1.605   1.106
 3979TIP3    H211902   7.013   1.511   1.224
 3980TIP3   OH211903   5.462   2.225   1.984
 3980TIP3    H111904   5.508   2.246   1.903
 3980TIP3    H211905   5.529   2.229   2.052
 3981TIP3   OH211906   5.051   3.874   0.247
 3981TIP3    H111907   4.956   3.870   0.252
 3981TIP3    H211908   5.069   3.930   0.172
 3982TIP3   OH211909   6.111   4.801   4.865
 3982TIP3    H111910   6.123   4.857   4.789
 3982TIP3    H211911   6.107   4.712   4.830
 3983TIP3   OH211912   6.625   0.512   4.215
 3983TIP3    H111913   6.671   0.509   4.298
 3983TIP3    H211914   6.683   0.466   4.154
 3984TIP3   OH211915   2.711   0.014   0.401
 3984TIP3    H111916   2.773   0.063   0.347
 3984TIP3    H211917   2.642   0.077   0.421
 3985TIP3   OH211918   0.487   0.565   3.316
 3985TIP3    H111919   0.544   0.584   3.242
 3985TIP3    H211920   0.402   0.603   3.292
 3986TIP3   OH211921   1.326   2.866   1.819
 3986TIP3    H111922   1.330   2.933   1.887
 3986TIP3    H211923   1.312   2.914   1.738
 3987TIP3   OH211924   4.662   1.920   0.768
 3987TIP3    H111925   4.601   1.897   0.698
 3987TIP3    H211926   4.726   1.849   0.768
 3988TIP3   OH211927   3.774   1.716   5.129
 3988TIP3    H111928   3.869   1.712   5.142
 3988TIP3    H211929   3.761   1.681   5.041
 3989TIP3   OH211930   3.654   1.996   0.918
 3989TIP3    H111931   3.704   1.947   0.853
 3989TIP3    H211932   3.564   1.995   0.886
 3990TIP3   OH211933   6.866   6.188   4.663
 3990TIP3    H111934   6.905   6.224   4.743
 3990TIP3    H211935   6.774   6.214   4.666
 3991TIP3   OH211936   4.979   4.314   2.230
 3991TIP3    H111937   5.043   4.384   2.217
 3991TIP3    H211938   4.981   4.298   2.324
 3992TIP3   OH211939   5.465   2.189   1.398
 3992TIP3    H111940   5.481   2.283   1.397
 3992TIP3    H211941   5.439   2.167   1.309
 3993TIP3   OH211942   4.630   1.771   4.555
 3993TIP3    H111943   4.631   1.762   4.460
 3993TIP3    H211944   4.644   1.865   4.571
 3994TIP3   OH211945   4.230   4.725   0.163
 3994TIP3    H111946   4.221   4.664   0.089
 3994TIP3    H211947   4.156   4.784   0.154
 3995TIP3   OH211948   3.178   0.215   1.301
 3995TIP3    H111949   3.248   0.165   1.343
 3995TIP3    H211950   3.104   0.207   1.361
 3996TIP3   OH211951   0.226   1.579   3.259
 3996TIP3    H111952   0.130   1.577   3.265
 3996TIP3    H211953   0.255   1.593   3.349
 3997TIP3   OH211954   2.451   1.671   5.889
 3997TIP3    H111955   2.404   1.682   5.806
 3997TIP3    H211956   2.543   1.662   5.864
 3998TIP3   OH211957   4.890   0.740   5.449
 3998TIP3    H111958   4.860   0.749   5.539
 3998TIP3    H211959   4.809   0.731   5.397
 3999TIP3   OH211960   3.818   3.870   4.598
 3999TIP3    H111961   3.817   3.825   4.513
 3999TIP3    H211962   3.727   3.866   4.627
 4000TIP3   OH211963   4.982   4.236   5.128
 4000TIP3    H111964   4.913   4.301   5.141
 4000TIP3    H211965   4.992   4.194   5.214
 4001TIP3   OH211966   1.498   2.058   5.627
 4001TIP3    H111967   1.468   2.148   5.640
 4001TIP3    H211968   1.571   2.048   5.687
 4002TIP3   OH211969   2.153   3.022   0.105
 4002TIP3    H111970   2.235   3.030   0.055
 4002TIP3    H211971   2.087   3.003   0.038
 4003TIP3   OH211972   3.438   6.615   0.501
 4003TIP3    H111973   3.367   6.620   0.565
 4003TIP3    H211974   3.442   6.702   0.462
 4004TIP3   OH211975   6.086   5.610   0.274
 4004TIP3    H111976   6.107   5.539   0.334
 4004TIP3    H211977   6.078   5.568   0.188
 4005TIP3   OH211978   4.862   4.835   4.334
 4005TIP3    H111979   4.850   4.905   4.270
 4005TIP3    H211980   4.898   4.879   4.411
 4006TIP3   OH211981   1.704   0.455   0.478
 4006TIP3    H111982   1.765   0.475   0.549
 4006TIP3    H211983   1.674   0.540   0.446
 4007TIP3   OH211984   1.334   3.697   5.758
 4007TIP3    H111985   1.331   3.679   5.852
 4007TIP3    H211986   1.279   3.629   5.719
 4008TIP3   OH211987   1.725   2.295   1.754
 4008TIP3    H111988   1.698   2.328   1.839
 4008TIP3    H211989   1.659   2.229   1.731
 4009TIP3   OH211990   5.357   1.205   0.427
 4009TIP3    H111991   5.287   1.149   0.461
 4009TIP3    H211992   5.367   1.274   0.493
 4010TIP3   OH211993   2.388   1.824   0.756
 4010TIP3    H111994   2.442   1.901   0.736
 4010TIP3    H211995   2.300   1.849   0.731
 4011TIP3   OH211996   4.865   5.865   1.452
 4011TIP3    H111997   4.949   5.839   1.489
 4011TIP3    H211998   4.879   5.956   1.423
 4012TIP3   OH211999   6.378   5.196   3.715
 4012TIP3    H112000   6.334   5.279   3.700
 4012TIP3    H212001   6.307   5.131   3.717
 4013TIP3   OH212002   2.321   5.400   2.707
 4013TIP3    H112003   2.387   5.390   2.775
 4013TIP3    H212004   2.284   5.312   2.695
 4014TIP3   OH212005   3.710   2.056   5.583
 4014TIP3    H112006   3.618   2.074   5.604
 4014TIP3    H212007   3.713   1.961   5.569
 4015TIP3   OH212008   0.785   2.736   1.357
 4015TIP3    H112009   0.702   2.726   1.403
 4015TIP3    H212010   0.817   2.646   1.347
 4016TIP3   OH212011   2.663   4.862   3.063
 4016TIP3    H112012   2.583   4.883   3.014
 4016TIP3    H212013   2.633   4.805   3.134
 4017TIP3   OH212014   2.567   3.085   0.302
 4017TIP3    H112015   2.644   3.118   0.349
 4017TIP3    H212016   2.505   3.061   0.371
 4018TIP3   OH212017   1.735   0.644   0.747
 4018TIP3    H112018   1.758   0.653   0.840
 4018TIP3    H212019   1.814   0.671   0.701
 4019TIP3   OH212020   5.538   5.268   3.334
 4019TIP3    H112021   5.629   5.295   3.325
 4019TIP3    H212022   5.491   5.323   3.272
 4020TIP3   OH212023   1.542   5.354   1.878
 4020TIP3    H112024   1.635   5.361   1.901
 4020TIP3    H212025   1.526   5.260   1.872
 4021TIP3   OH212026   2.896   2.980   4.675
 4021TIP3    H112027   2.829   3.029   4.723
 4021TIP3    H212028   2.929   2.917   4.738
 4022TIP3   OH212029   5.933   1.301   1.509
 4022TIP3    H112030   5.965   1.354   1.436
 4022TIP3    H212031   5.922   1.364   1.581
 4023TIP3   OH212032   4.351   4.341   5.862
 4023TIP3    H112033   4.374   4.263   5.913
 4023TIP3    H212034   4.260   4.327   5.836
 4024TIP3   OH212035   5.327   1.230   4.739
 4024TIP3    H112036   5.404   1.218   4.684
 4024TIP3    H212037   5.258   1.179   4.695
 4025TIP3   OH212038   3.047   4.955   1.403
 4025TIP3    H112039   3.029   4.947   1.497
 4025TIP3    H212040   3.088   5.040   1.393
 4026TIP3   OH212041   2.983   6.662   2.311
 4026TIP3    H112042   2.945   6.691   2.229
 4026TIP3    H212043   2.970   6.567   2.312
 4027TIP3   OH212044   4.947   5.914   0.224
 4027TIP3    H112045   5.017   5.907   0.288
 4027TIP3    H212046   4.991   5.933   0.141
 4028TIP3   OH212047   1.859   3.297   3.702
 4028TIP3    H112048   1.897   3.328   3.620
 4028TIP3    H212049   1.771   3.267   3.679
 4029TIP3   OH212050   5.848   3.052   3.796
 4029TIP3    H112051   5.853   3.118   3.865
 4029TIP3    H212052   5.856   2.968   3.841
 4030TIP3   OH212053   7.055   0.446   5.315
 4030TIP3    H112054   7.117   0.380   5.345
 4030TIP3    H212055   7.049   0.508   5.388
 4031TIP3   OH212056   0.605   6.355   0.294
 4031TIP3    H112057   0.627   6.358   0.201
 4031TIP3    H212058   0.516   6.319   0.297
 4032TIP3   OH212059   6.475   6.841   5.936
 4032TIP3    H112060   6.474   6.749   5.964
 4032TIP3    H212061   6.398   6.849   5.880
 4033TIP3   OH212062   5.186   3.933   0.812
 4033TIP3    H112063   5.114   3.921   0.750
 4033TIP3    H212064   5.162   3.877   0.887
 4034TIP3   OH212065   2.346   2.053   1.838
 4034TIP3    H112066   2.351   2.030   1.746
 4034TIP3    H212067   2.402   2.130   1.847
 4035TIP3   OH212068   2.247   5.425   3.534
 4035TIP3    H112069   2.300   5.346   3.523
 4035TIP3    H212070   2.183   5.402   3.601
 4036TIP3   OH212071   2.066   4.500   2.257
 4036TIP3    H112072   1.974   4.475   2.244
 4036TIP3    H212073   2.063   4.592   2.282
 4037TIP3   OH212074   6.568   6.048   3.041
 4037TIP3    H112075   6.637   6.052   3.107
 4037TIP3    H212076   6.570   6.134   2.999
 4038TIP3   OH212077   0.864   2.664   3.553
 4038TIP3    H112078   0.956   2.644   3.571
 4038TIP3    H212079   0.844   2.615   3.473
 4039TIP3   OH212080   6.246   6.124   0.488
 4039TIP3    H112081   6.188   6.115   0.413
 4039TIP3    H212082   6.326   6.079   0.461
 4040TIP3   OH212083   2.681   2.980   4.435
 4040TIP3    H112084   2.773   2.997   4.414
 4040TIP3    H212085   2.643   3.067   4.449
 4041TIP3   OH212086   5.571   2.604   2.289
 4041TIP3    H112087   5.551   2.693   2.260
 4041TIP3    H212088   5.593   2.614   2.381
 4042TIP3   OH212089   4.336   2.780   0.238
 4042TIP3    H112090   4.291   2.845   0.184
 4042TIP3    H212091   4.410   2.752   0.184
 4043TIP3   OH212092   2.629   1.835   1.468
 4043TIP3    H112093   2.658   1.836   1.559
 4043TIP3    H212094   2.707   1.809   1.418
 4044TIP3   OH212095   5.096   6.655   3.743
 4044TIP3    H112096   5.040   6.583   3.769
 4044TIP3    H212097   5.038   6.731   3.739
 4045TIP3   OH212098   5.682   1.639   5.868
 4045TIP3    H112099   5.590   1.657   5.891
 4045TIP3    H212100   5.683   1.546   5.848
 4046TIP3   OH212101   6.331   1.696   3.771
 4046TIP3    H112102   6.271   1.710   3.698
 4046TIP3    H212103   6.377   1.615   3.749
 4047TIP3   OH212104   1.750   5.197   2.131
 4047TIP3    H112105   1.743   5.156   2.217
 4047TIP3    H212106   1.670   5.171   2.085
 4048TIP3   OH212107   6.645   1.330   0.445
 4048TIP3    H112108   6.730   1.308   0.406
 4048TIP3    H212109   6.630   1.260   0.510
 4049TIP3   OH212110   0.777   2.935   4.424
 4049TIP3    H112111   0.819   2.862   4.469
 4049TIP3    H212112   0.839   3.007   4.431
 4050TIP3   OH212113   6.877   4.247   3.065
 4050TIP3    H112114   6.850   4.286   2.981
 4050TIP3    H212115   6.795   4.221   3.107
 4051TIP3   OH212116   3.957   3.209   0.445
 4051TIP3    H112117   3.925   3.268   0.514
 4051TIP3    H212118   3.938   3.256   0.363
 4052TIP3   OH212119   1.897   3.025   3.170
 4052TIP3    H112120   1.901   2.949   3.112
 4052TIP3    H212121   1.966   3.083   3.139
 4053TIP3   OH212122   3.298   4.988  -0.051
 4053TIP3    H112123   3.383   4.993  -0.008
 4053TIP3    H212124   3.236   5.023   0.013
 4054TIP3   OH212125   3.238   6.048   5.233
 4054TIP3    H112126   3.165   6.065   5.174
 4054TIP3    H212127   3.215   6.094   5.313
 4055TIP3   OH212128   4.950   0.311   0.130
 4055TIP3    H112129   4.996   0.382   0.085
 4055TIP3    H212130   5.019   0.252   0.160
 4056TIP3   OH212131   5.498   2.280   1.713
 4056TIP3    H112132   5.508   2.336   1.636
 4056TIP3    H212133   5.404   2.276   1.728
 4057TIP3   OH212134   4.317   1.899   1.694
 4057TIP3    H112135   4.361   1.960   1.754
 4057TIP3    H212136   4.318   1.816   1.742
 4058TIP3   OH212137   6.430   6.234   3.996
 4058TIP3    H112138   6.368   6.306   4.010
 4058TIP3    H212139   6.396   6.187   3.920
 4059TIP3   OH212140   5.430   6.110   5.150
 4059TIP3    H112141   5.349   6.077   5.111
 4059TIP3    H212142   5.489   6.034   5.149
 4060TIP3   OH212143   0.346   1.740   4.403
 4060TIP3    H112144   0.399   1.671   4.363
 4060TIP3    H212145   0.256   1.710   4.393
 4061TIP3   OH212146   1.148   6.557   3.290
 4061TIP3    H112147   1.183   6.619   3.227
 4061TIP3    H212148   1.076   6.603   3.333
 4062TIP3   OH212149   2.879   4.047   2.723
 4062TIP3    H112150   2.869   4.118   2.659
 4062TIP3    H212151   2.901   3.971   2.670
 4063TIP3   OH212152   4.237   4.157   4.580
 4063TIP3    H112153   4.234   4.108   4.662
 4063TIP3    H212154   4.144   4.174   4.559
 4064TIP3   OH212155   0.483   1.566   0.273
 4064TIP3    H112156   0.464   1.531   0.186
 4064TIP3    H212157   0.576   1.550   0.286
 4065TIP3   OH212158   5.168   0.232   4.942
 4065TIP3    H112159   5.108   0.162   4.969
 4065TIP3    H212160   5.157   0.300   5.009
 4066TIP3   OH212161   3.195   5.262   2.084
 4066TIP3    H112162   3.230   5.237   2.170
 4066TIP3    H212163   3.259   5.324   2.048
 4067TIP3   OH212164   1.780   5.604   5.287
 4067TIP3    H112165   1.848   5.538   5.275
 4067TIP3    H212166   1.698   5.556   5.279
 4068TIP3   OH212167   3.676   4.579   5.067
 4068TIP3    H112168   3.607   4.637   5.099
 4068TIP3    H212169   3.721   4.629   5.000
 4069TIP3   OH212170   2.482   5.053   5.445
 4069TIP3    H112171   2.569   5.042   5.485
 4069TIP3    H212172   2.441   5.122   5.497
 4070TIP3   OH212173   4.515   3.405   1.797
 4070TIP3    H112174   4.476   3.483   1.836
 4070TIP3    H212175   4.537   3.431   1.707
 4071TIP3   OH212176   6.331   6.360   1.815
 4071TIP3    H112177   6.266   6.301   1.776
 4071TIP3    H212178   6.359   6.416   1.742
 4072TIP3   OH212179   2.812   1.929   5.707
 4072TIP3    H112180   2.783   1.928   5.616
 4072TIP3    H212181   2.765   1.857   5.748
 4073TIP3   OH212182   5.370   4.833   0.590
 4073TIP3    H112183   5.282   4.854   0.558
 4073TIP3    H212184   5.385   4.743   0.560
 4074TIP3   OH212185   3.817   1.945   4.000
 4074TIP3    H112186   3.790   2.034   3.975
 4074TIP3    H212187   3.744   1.912   4.053
 4075TIP3   OH212188   6.447   1.912   5.529
 4075TIP3    H112189   6.401   1.995   5.520
 4075TIP3    H212190   6.439   1.871   5.443
 4076TIP3   OH212191   5.981   5.642   0.649
 4076TIP3    H112192   5.902   5.640   0.703
 4076TIP3    H212193   5.992   5.552   0.619
 4077TIP3   OH212194   5.894   4.284   1.487
 4077TIP3    H112195   5.928   4.225   1.554
 4077TIP3    H212196   5.834   4.342   1.534
 4078TIP3   OH212197   3.043   1.802   5.953
 4078TIP3    H112198   3.075   1.717   5.923
 4078TIP3    H212199   3.066   1.863   5.884
 4079TIP3   OH212200   6.334   2.621   5.291
 4079TIP3    H112201   6.270   2.646   5.357
 4079TIP3    H212202   6.375   2.703   5.264
 4080TIP3   OH212203   6.529   0.151   1.515
 4080TIP3    H112204   6.514   0.195   1.431
 4080TIP3    H212205   6.624   0.145   1.522
 4081TIP3   OH212206   2.045   6.228   2.264
 4081TIP3    H112207   1.983   6.266   2.326
 4081TIP3    H212208   2.118   6.198   2.318
 4082TIP3   OH212209   6.714   4.005   4.188
 4082TIP3    H112210   6.742   3.993   4.279
 4082TIP3    H212211   6.619   3.998   4.190
 4083TIP3   OH212212   7.018   6.202   3.586
 4083TIP3    H112213   7.011   6.228   3.678
 4083TIP3    H212214   7.092   6.253   3.552
 4084TIP3   OH212215   2.988   0.767   2.936
 4084TIP3    H112216   3.036   0.812   2.866
 4084TIP3    H212217   2.979   0.833   3.005
 4085TIP3   OH212218   4.167   0.800   1.092
 4085TIP3    H112219   4.232   0.735   1.067
 4085TIP3    H212220   4.214   0.860   1.150
 4086TIP3   OH212221   1.005   3.919   4.324
 4086TIP3    H112222   1.018   3.871   4.242
 4086TIP3    H212223   1.002   3.851   4.392
 4087TIP3   OH212224   3.737   5.816   4.954
 4087TIP3    H112225   3.810   5.824   5.015
 4087TIP3    H212226   3.714   5.723   4.955
 4088TIP3   OH212227   5.791   6.762   4.512
 4088TIP3    H112228   5.855   6.815   4.463
 4088TIP3    H212229   5.780   6.683   4.460
 4089TIP3   OH212230   0.218   1.704   0.253
 4089TIP3    H112231   0.235   1.789   0.294
 4089TIP3    H212232   0.302   1.658   0.257
 4090TIP3   OH212233   0.883   0.864   0.341
 4090TIP3    H112234   0.789   0.872   0.326
 4090TIP3    H212235   0.897   0.772   0.361
 4091TIP3   OH212236   2.774  -0.044   2.245
 4091TIP3    H112237   2.738  -0.019   2.159
 4091TIP3    H212238   2.704  -0.024   2.307
 4092TIP3   OH212239   4.036   3.783   2.623
 4092TIP3    H112240   4.074   3.710   2.672
 4092TIP3    H212241   4.048   3.760   2.531
 4093TIP3   OH212242   7.022   5.174   0.073
 4093TIP3    H112243   6.971   5.118   0.015
 4093TIP3    H212244   7.010   5.263   0.038
 4094TIP3   OH212245   6.995   5.103   1.614
 4094TIP3    H112246   7.064   5.099   1.548
 4094TIP3    H212247   6.966   5.194   1.612
 4095TIP3   OH212248   3.846   3.879   1.189
 4095TIP3    H112249   3.891   3.801   1.223
 4095TIP3    H212250   3.798   3.913   1.264
 4096TIP3   OH212251   0.559   1.550   1.606
 4096TIP3    H112252   0.471   1.587   1.617
 4096TIP3    H212253   0.550   1.459   1.633
 4097TIP3   OH212254   3.121   0.995   2.053
 4097TIP3    H112255   3.202   0.966   2.009
 4097TIP3    H212256   3.132   1.089   2.062
 4098TIP3   OH212257   3.364   5.148   1.362
 4098TIP3    H112258   3.279   5.189   1.374
 4098TIP3    H212259   3.406   5.201   1.293
 4099TIP3   OH212260   5.408   0.147   1.035
 4099TIP3    H112261   5.446   0.235   1.046
 4099TIP3    H212262   5.473   0.100   0.983
 4100TIP3   OH212263   2.293   2.986   0.763
 4100TIP3    H112264   2.374   2.942   0.789
 4100TIP3    H212265   2.250   3.007   0.845
 4101TIP3   OH212266   0.810   6.473   1.502
 4101TIP3    H112267   0.878   6.488   1.436
 4101TIP3    H212268   0.838   6.525   1.578
 4102TIP3   OH212269   5.285   6.548   1.204
 4102TIP3    H112270   5.247   6.601   1.134
 4102TIP3    H212271   5.298   6.609   1.276
 4103TIP3   OH212272   5.483   4.132   1.954
 4103TIP3    H112273   5.440   4.098   2.032
 4103TIP3    H212274   5.428   4.101   1.882
 4104TIP3   OH212275   6.156   1.034   5.126
 4104TIP3    H112276   6.251   1.032   5.113
 4104TIP3    H212277   6.120   1.015   5.039
 4105TIP3   OH212278   6.752   5.959   3.426
 4105TIP3    H112279   6.839   5.925   3.446
 4105TIP3    H212280   6.764   6.054   3.420
 4106TIP3   OH212281   6.818   0.757   0.214
 4106TIP3    H112282   6.874   0.746   0.137
 4106TIP3    H212283   6.757   0.684   0.209
 4107TIP3   OH212284   5.841   5.691   4.704
 4107TIP3    H112285   5.813   5.658   4.618
 4107TIP3    H212286   5.843   5.614   4.760
 4108TIP3   OH212287   6.552   2.069   4.042
 4108TIP3    H112288   6.590   2.108   3.963
 4108TIP3    H212289   6.516   1.986   4.012
 4109TIP3   OH212290   4.503   0.472   2.844
 4109TIP3    H112291   4.409   0.485   2.827
 4109TIP3    H212292   4.542   0.558   2.826
 4110TIP3   OH212293   6.450   6.060   4.871
 4110TIP3    H112294   6.410   5.976   4.849
 4110TIP3    H212295   6.501   6.043   4.950
 4111TIP3   OH212296   1.939   1.175   1.656
 4111TIP3    H112297   1.923   1.205   1.566
 4111TIP3    H212298   1.870   1.110   1.672
 4112TIP3   OH212299   2.734   3.216   1.403
 4112TIP3    H112300   2.714   3.207   1.310
 4112TIP3    H212301   2.649   3.234   1.444
 4113TIP3   OH212302   5.795   6.011   2.810
 4113TIP3    H112303   5.735   6.064   2.758
 4113TIP3    H212304   5.865   5.987   2.749
 4114TIP3   OH212305   1.353   1.202   4.281
 4114TIP3    H112306   1.272   1.247   4.259
 4114TIP3    H212307   1.420   1.244   4.227
 4115TIP3   OH212308   5.315   0.197   4.094
 4115TIP3    H112309   5.242   0.135   4.094
 4115TIP3    H212310   5.293   0.258   4.023
 4116TIP3   OH212311   2.375   5.600   2.106
 4116TIP3    H112312   2.290   5.557   2.095
 4116TIP3    H212313   2.389   5.647   2.024
 4117TIP3   OH212314   1.042   4.267   5.690
 4117TIP3    H112315   1.010   4.307   5.609
 4117TIP3    H212316   1.055   4.341   5.750
 4118TIP3   OH212317   5.455   5.007   1.914
 4118TIP3    H112318   5.408   4.942   1.966
 4118TIP3    H212319   5.534   5.026   1.966
 4119TIP3   OH212320   4.643   6.246   1.899
 4119TIP3    H112321   4.551   6.272   1.910
 4119TIP3    H212322   4.679   6.311   1.839
 4120TIP3   OH212323   0.107   6.677   3.322
 4120TIP3    H112324   0.113   6.652   3.230
 4120TIP3    H212325   0.120   6.772   3.321
 4121TIP3   OH212326   2.257   2.882   1.472
 4121TIP3    H112327   2.221   2.794   1.473
 4121TIP3    H212328   2.214   2.927   1.545
 4122TIP3   OH212329   2.635   4.008   2.553
 4122TIP3    H112330   2.547   4.030   2.521
 4122TIP3    H212331   2.661   4.086   2.603
 4123TIP3   OH212332   5.091   6.577   3.022
 4123TIP3    H112333   5.036   6.573   2.944
 4123TIP3    H212334   5.048   6.521   3.086
 4124TIP3   OH212335   1.762   0.980   1.580
 4124TIP3    H112336   1.799   0.985   1.491
 4124TIP3    H212337   1.800   0.901   1.617
 4125TIP3   OH212338   0.120   1.622   3.985
 4125TIP3    H112339   0.134   1.569   4.063
 4125TIP3    H212340   0.044   1.676   4.006
 4126TIP3   OH212341   3.444   5.650   0.826
 4126TIP3    H112342   3.421   5.736   0.863
 4126TIP3    H212343   3.504   5.612   0.891
 4127TIP3   OH212344   6.183   3.599   2.774
 4127TIP3    H112345   6.106   3.621   2.825
 4127TIP3    H212346   6.232   3.538   2.829
 4128TIP3   OH212347   2.606   4.922   5.794
 4128TIP3    H112348   2.527   4.974   5.804
 4128TIP3    H212349   2.604   4.858   5.865
 4129TIP3   OH212350   3.054   4.821   4.556
 4129TIP3    H112351   3.097   4.736   4.569
 4129TIP3    H212352   2.965   4.799   4.527
 4130TIP3   OH212353   4.711   4.081   4.740
 4130TIP3    H112354   4.719   4.042   4.653
 4130TIP3    H212355   4.618   4.103   4.748
 4131TIP3   OH212356   2.524   6.395   2.395
 4131TIP3    H112357   2.441   6.427   2.358
 4131TIP3    H212358   2.566   6.349   2.322
 4132TIP3   OH212359   3.643   5.137   4.502
 4132TIP3    H112360   3.628   5.138   4.408
 4132TIP3    H212361   3.734   5.163   4.513
 4133TIP3   OH212362   4.687   4.053   2.011
 4133TIP3    H112363   4.734   4.072   2.092
 4133TIP3    H212364   4.604   4.015   2.039
 4134TIP3   OH212365   3.138   6.020   0.571
 4134TIP3    H112366   3.088   6.083   0.519
 4134TIP3    H212367   3.148   5.944   0.514
 4135TIP3   OH212368   1.940   6.597   4.177
 4135TIP3    H112369   1.960   6.564   4.264
 4135TIP3    H212370   2.026   6.608   4.135
 4136TIP3   OH212371   6.443   1.517   1.377
 4136TIP3    H112372   6.440   1.598   1.429
 4136TIP3    H212373   6.457   1.448   1.442
 4137TIP3   OH212374   1.180   6.746   1.853
 4137TIP3    H112375   1.157   6.747   1.760
 4137TIP3    H212376   1.096   6.745   1.899
 4138TIP3   OH212377   7.041   2.640   5.833
 4138TIP3    H112378   7.091   2.671   5.757
 4138TIP3    H212379   7.009   2.554   5.805
 4139TIP3   OH212380   3.361   1.626   0.209
 4139TIP3    H112381   3.344   1.608   0.301
 4139TIP3    H212382   3.434   1.568   0.187
 4140TIP3   OH212383   1.942   5.517   3.131
 4140TIP3    H112384   1.950   5.472   3.046
 4140TIP3    H212385   2.002   5.470   3.189
 4141TIP3   OH212386   2.523   6.035   4.085
 4141TIP3    H112387   2.517   6.007   3.993
 4141TIP3    H212388   2.601   5.992   4.119
 4142TIP3   OH212389   3.453   2.984   1.372
 4142TIP3    H112390   3.532   3.003   1.421
 4142TIP3    H212391   3.421   3.069   1.342
 4143TIP3   OH212392   2.791   2.068   3.939
 4143TIP3    H112393   2.718   2.052   3.879
 4143TIP3    H212394   2.750   2.074   4.025
 4144TIP3   OH212395   5.373   5.227   2.222
 4144TIP3    H112396   5.390   5.203   2.131
 4144TIP3    H212397   5.440   5.291   2.244
 4145TIP3   OH212398   5.486   5.145   5.071
 4145TIP3    H112399   5.477   5.096   5.153
 4145TIP3    H212400   5.519   5.231   5.097
 4146TIP3   OH212401   5.895   2.637   5.277
 4146TIP3    H112402   5.935   2.719   5.307
 4146TIP3    H212403   5.856   2.599   5.355
 4147TIP3   OH212404   4.784   0.562   3.642
 4147TIP3    H112405   4.765   0.610   3.722
 4147TIP3    H212406   4.707   0.576   3.587
 4148TIP3   OH212407   6.168   6.149   1.690
 4148TIP3    H112408   6.169   6.211   1.617
 4148TIP3    H212409   6.211   6.071   1.655
 4149TIP3   OH212410   1.289   3.082   5.646
 4149TIP3    H112411   1.303   3.141   5.573
 4149TIP3    H212412   1.360   3.018   5.639
 4150TIP3   OH212413   0.622   6.613   4.895
 4150TIP3    H112414   0.535   6.647   4.873
 4150TIP3    H212415   0.682   6.665   4.841
 4151TIP3   OH212416   0.003   6.631   0.536
 4151TIP3    H112417   0.085   6.650   0.581
 4151TIP3    H212418  -0.049   6.711   0.546
 4152TIP3   OH212419   7.126   4.877   1.135
 4152TIP3    H112420   7.146   4.808   1.198
 4152TIP3    H212421   7.196   4.873   1.071
 4153TIP3   OH212422   5.783   6.658   0.848
 4153TIP3    H112423   5.816   6.653   0.937
 4153TIP3    H212424   5.759   6.567   0.826
 4154TIP3   OH212425   3.437   0.604   4.914
 4154TIP3    H112426   3.475   0.649   4.990
 4154TIP3    H212427   3.410   0.675   4.856
 4155TIP3   OH212428   4.645   0.805   0.171
 4155TIP3    H112429   4.718   0.744   0.178
 4155TIP3    H212430   4.620   0.824   0.261
 4156TIP3   OH212431   3.030   4.169   4.118
 4156TIP3    H112432   3.024   4.198   4.209
 4156TIP3    H212433   3.124   4.171   4.099
 4157TIP3   OH212434   5.493   3.605   3.735
 4157TIP3    H112435   5.529   3.691   3.755
 4157TIP3    H212436   5.400   3.612   3.754
 4158TIP3   OH212437   2.305   4.509   3.030
 4158TIP3    H112438   2.322   4.590   3.078
 4158TIP3    H212439   2.345   4.524   2.944
 4159TIP3   OH212440   4.829   2.942   1.778
 4159TIP3    H112441   4.757   2.901   1.730
 4159TIP3    H212442   4.823   3.035   1.754
 4160TIP3   OH212443   2.492   0.788   0.900
 4160TIP3    H112444   2.501   0.871   0.946
 4160TIP3    H212445   2.407   0.754   0.927
 4161TIP3   OH212446   0.011   5.040   5.096
 4161TIP3    H112447   0.040   5.100   5.165
 4161TIP3    H212448  -0.078   5.016   5.122
 4162TIP3   OH212449   3.821   2.900   3.830
 4162TIP3    H112450   3.823   2.901   3.734
 4162TIP3    H212451   3.867   2.980   3.856
 4163TIP3   OH212452   0.691   5.585   0.191
 4163TIP3    H112453   0.650   5.666   0.221
 4163TIP3    H212454   0.670   5.521   0.259
 4164TIP3   OH212455   2.778   3.871   0.054
 4164TIP3    H112456   2.824   3.831   0.129
 4164TIP3    H212457   2.687   3.847   0.067
 4165TIP3   OH212458   5.406   0.651   2.215
 4165TIP3    H112459   5.377   0.721   2.273
 4165TIP3    H212460   5.484   0.684   2.173
 4166TIP3   OH212461   4.154   2.936   5.797
 4166TIP3    H112462   4.101   2.991   5.854
 4166TIP3    H212463   4.244   2.966   5.811
 4167TIP3   OH212464   3.791   5.420   4.232
 4167TIP3    H112465   3.833   5.380   4.157
 4167TIP3    H212466   3.697   5.408   4.218
 4168TIP3   OH212467   1.266   0.671   3.521
 4168TIP3    H112468   1.188   0.623   3.548
 4168TIP3    H212469   1.270   0.746   3.581
 4169TIP3   OH212470   0.708   2.533   1.006
 4169TIP3    H112471   0.787   2.548   0.954
 4169TIP3    H212472   0.732   2.464   1.068
 4170TIP3   OH212473   0.892   6.209   0.134
 4170TIP3    H112474   0.844   6.271   0.079
 4170TIP3    H212475   0.983   6.238   0.129
 4171TIP3   OH212476   2.722   6.568   3.485
 4171TIP3    H112477   2.715   6.661   3.463
 4171TIP3    H212478   2.640   6.529   3.454
 4172TIP3   OH212479   1.401   1.644   0.909
 4172TIP3    H112480   1.473   1.648   0.971
 4172TIP3    H212481   1.377   1.551   0.906
 4173TIP3   OH212482   6.697   1.493   2.894
 4173TIP3    H112483   6.789   1.508   2.869
 4173TIP3    H212484   6.650   1.492   2.810
 4174TIP3   OH212485   3.762   0.822   5.289
 4174TIP3    H112486   3.784   0.740   5.335
 4174TIP3    H212487   3.842   0.846   5.243
 4175TIP3   OH212488   4.636   0.704   2.759
 4175TIP3    H112489   4.586   0.764   2.815
 4175TIP3    H212490   4.667   0.760   2.688
 4176TIP3   OH212491   4.955   6.560   1.783
 4176TIP3    H112492   4.950   6.615   1.862
 4176TIP3    H212493   4.958   6.471   1.817
 4177TIP3   OH212494   0.930   0.842   1.429
 4177TIP3    H112495   0.885   0.799   1.357
 4177TIP3    H212496   1.006   0.885   1.389
 4178TIP3   OH212497   5.560   4.517   2.080
 4178TIP3    H112498   5.543   4.505   1.987
 4178TIP3    H212499   5.583   4.609   2.089
 4179TIP3   OH212500   6.482   4.605   1.443
 4179TIP3    H112501   6.522   4.601   1.529
 4179TIP3    H212502   6.507   4.691   1.408
 4180TIP3   OH212503   6.128   5.275   1.823
 4180TIP3    H112504   6.147   5.368   1.811
 4180TIP3    H212505   6.072   5.252   1.748
 4181TIP3   OH212506   4.607   0.104   4.825
 4181TIP3    H112507   4.642   0.092   4.914
 4181TIP3    H212508   4.532   0.044   4.821
 4182TIP3   OH212509   1.307   5.767   0.886
 4182TIP3    H112510   1.251   5.715   0.828
 4182TIP3    H212511   1.281   5.739   0.974
 4183TIP3   OH212512   0.311   3.289   5.444
 4183TIP3    H112513   0.295   3.270   5.536
 4183TIP3    H212514   0.250   3.360   5.424
 4184TIP3   OH212515   5.889   3.428   3.847
 4184TIP3    H112516   5.929   3.497   3.900
 4184TIP3    H212517   5.812   3.400   3.897
 4185TIP3   OH212518   5.408   2.880   3.159
 4185TIP3    H112519   5.497   2.844   3.152
 4185TIP3    H212520   5.388   2.878   3.252
 4186TIP3   OH212521   5.668   3.359   4.930
 4186TIP3    H112522   5.573   3.356   4.936
 4186TIP3    H212523   5.686   3.403   4.847
 4187TIP3   OH212524   6.056   2.932   2.505
 4187TIP3    H112525   6.035   3.025   2.498
 4187TIP3    H212526   6.150   2.926   2.487
 4188TIP3   OH212527   6.509   5.415   2.730
 4188TIP3    H112528   6.589   5.373   2.763
 4188TIP3    H212529   6.481   5.472   2.801
 4189TIP3   OH212530   4.765   4.303   1.990
 4189TIP3    H112531   4.809   4.280   2.071
 4189TIP3    H212532   4.725   4.221   1.960
 4190TIP3   OH212533   6.851   1.129   2.072
 4190TIP3    H112534   6.790   1.171   2.012
 4190TIP3    H212535   6.903   1.071   2.016
 4191TIP3   OH212536   5.133   1.805   0.623
 4191TIP3    H112537   5.175   1.728   0.662
 4191TIP3    H212538   5.199   1.840   0.563
 4192TIP3   OH212539   2.335   3.135   1.446
 4192TIP3    H112540   2.249   3.167   1.422
 4192TIP3    H212541   2.329   3.039   1.439
 4193TIP3   OH212542   4.899   3.173   5.733
 4193TIP3    H112543   4.918   3.101   5.673
 4193TIP3    H212544   4.958   3.243   5.706
 4194TIP3   OH212545   0.487   3.378   3.837
 4194TIP3    H112546   0.481   3.288   3.870
 4194TIP3    H212547   0.541   3.371   3.758
 4195TIP3   OH212548   3.144   4.691   3.333
 4195TIP3    H112549   3.205   4.733   3.393
 4195TIP3    H212550   3.199   4.660   3.261
 4196TIP3   OH212551   0.540   1.938   3.835
 4196TIP3    H112552   0.555   1.965   3.745
 4196TIP3    H212553   0.625   1.905   3.864
 4197TIP3   OH212554   6.686   1.729   5.226
 4197TIP3    H112555   6.658   1.678   5.150
 4197TIP3    H212556   6.637   1.692   5.299
 4198TIP3   OH212557   1.172   4.511   4.457
 4198TIP3    H112558   1.142   4.455   4.385
 4198TIP3    H212559   1.256   4.545   4.427
 4199TIP3   OH212560   6.969   1.913   0.444
 4199TIP3    H112561   7.031   1.922   0.517
 4199TIP3    H212562   7.020   1.872   0.375
 4200TIP3   OH212563   2.631   2.596   1.552
 4200TIP3    H112564   2.578   2.518   1.535
 4200TIP3    H212565   2.710   2.563   1.595
 4201TIP3   OH212566   5.860   5.516   5.616
 4201TIP3    H112567   5.956   5.506   5.612
 4201TIP3    H212568   5.834   5.456   5.686
 4202TIP3   OH212569   3.913   6.092   0.006
 4202TIP3    H112570   3.994   6.050   0.037
 4202TIP3    H212571   3.886   6.038  -0.068
 4203TIP3   OH212572   0.374   3.880   1.539
 4203TIP3    H112573   0.291   3.890   1.584
 4203TIP3    H212574   0.405   3.969   1.525
 4204TIP3   OH212575   0.748   0.913   3.972
 4204TIP3    H112576   0.788   0.869   3.897
 4204TIP3    H212577   0.822   0.947   4.022
 4205TIP3   OH212578   0.347   3.243   1.524
 4205TIP3    H112579   0.310   3.332   1.529
 4205TIP3    H212580   0.339   3.219   1.431
 4206TIP3   OH212581   3.283   3.193   5.856
 4206TIP3    H112582   3.324   3.270   5.895
 4206TIP3    H212583   3.244   3.147   5.930
 4207TIP3   OH212584   2.717   5.631   1.279
 4207TIP3    H112585   2.678   5.550   1.246
 4207TIP3    H212586   2.702   5.695   1.209
 4208TIP3   OH212587   1.830   1.820   5.475
 4208TIP3    H112588   1.911   1.866   5.451
 4208TIP3    H212589   1.785   1.806   5.392
 4209TIP3   OH212590   3.326   3.745   1.189
 4209TIP3    H112591   3.364   3.719   1.273
 4209TIP3    H212592   3.370   3.827   1.167
 4210TIP3   OH212593   3.172   6.409   5.057
 4210TIP3    H112594   3.262   6.399   5.027
 4210TIP3    H212595   3.120   6.369   4.987
 4211TIP3   OH212596   4.624   4.023   3.114
 4211TIP3    H112597   4.643   4.093   3.176
 4211TIP3    H212598   4.555   3.972   3.157
 4212TIP3   OH212599   3.150   2.350   3.106
 4212TIP3    H112600   3.181   2.301   3.031
 4212TIP3    H212601   3.218   2.417   3.121
 4213TIP3   OH212602   2.484   2.408   3.054
 4213TIP3    H112603   2.490   2.473   3.124
 4213TIP3    H212604   2.525   2.330   3.090
 4214TIP3   OH212605   5.550   3.394   0.801
 4214TIP3    H112606   5.484   3.358   0.860
 4214TIP3    H212607   5.594   3.317   0.764
 4215TIP3   OH212608   0.380   4.198   0.325
 4215TIP3    H112609   0.381   4.282   0.279
 4215TIP3    H212610   0.472   4.180   0.344
 4216TIP3   OH212611   6.453   6.226   4.475
 4216TIP3    H112612   6.376   6.269   4.511
 4216TIP3    H212613   6.466   6.267   4.390
 4217TIP3   OH212614   3.228   3.436   1.470
 4217TIP3    H112615   3.156   3.416   1.410
 4217TIP3    H212616   3.300   3.379   1.442
 4218TIP3   OH212617   6.667   0.062   4.210
 4218TIP3    H112618   6.757   0.062   4.175
 4218TIP3    H212619   6.678   0.073   4.304
 4219TIP3   OH212620   6.061   5.720   2.380
 4219TIP3    H112621   6.035   5.628   2.379
 4219TIP3    H212622   6.157   5.718   2.378
 4220TIP3   OH212623   6.576   5.783   0.906
 4220TIP3    H112624   6.496   5.732   0.894
 4220TIP3    H212625   6.644   5.733   0.860
 4221TIP3   OH212626   2.587   1.451   3.225
 4221TIP3    H112627   2.647   1.397   3.277
 4221TIP3    H212628   2.511   1.465   3.282
 4222TIP3   OH212629   4.460   4.175   0.061
 4222TIP3    H112630   4.449   4.100   0.120
 4222TIP3    H212631   4.437   4.141  -0.025
 4223TIP3   OH212632   1.138   0.001   4.263
 4223TIP3    H112633   1.190  -0.079   4.264
 4223TIP3    H212634   1.189   0.064   4.313
 4224TIP3   OH212635   5.521   2.793   5.212
 4224TIP3    H112636   5.590   2.856   5.190
 4224TIP3    H212637   5.507   2.743   5.132
 4225TIP3   OH212638   3.992   2.956   5.308
 4225TIP3    H112639   4.069   2.987   5.260
 4225TIP3    H212640   4.014   2.973   5.400
 4226TIP3   OH212641   5.301   4.675   4.493
 4226TIP3    H112642   5.267   4.740   4.554
 4226TIP3    H212643   5.235   4.671   4.423
 4227TIP3   OH212644   6.073   3.836   5.001
 4227TIP3    H112645   6.030   3.758   4.966
 4227TIP3    H212646   6.031   3.850   5.086
 4228TIP3   OH212647   2.030   2.648   0.911
 4228TIP3    H112648   1.968   2.596   0.859
 4228TIP3    H212649   1.984   2.730   0.928
 4229TIP3   OH212650   1.357   4.870   0.599
 4229TIP3    H112651   1.332   4.780   0.577
 4229TIP3    H212652   1.429   4.889   0.538
 4230TIP3   OH212653   5.906   0.659   5.832
 4230TIP3    H112654   5.828   0.606   5.823
 4230TIP3    H212655   5.938   0.671   5.743
 4231TIP3   OH212656   5.301   0.713   3.331
 4231TIP3    H112657   5.227   0.657   3.309
 4231TIP3    H212658   5.320   0.761   3.250
 4232TIP3   OH212659   7.021   3.010   0.259
 4232TIP3    H112660   6.983   2.944   0.316
 4232TIP3    H212661   6.994   3.094   0.297
 4233TIP3   OH212662   0.384   4.564   4.371
 4233TIP3    H112663   0.383   4.505   4.446
 4233TIP3    H212664   0.351   4.511   4.299
 4234TIP3   OH212665   5.789   6.394   3.486
 4234TIP3    H112666   5.829   6.451   3.553
 4234TIP3    H212667   5.695   6.414   3.491
 4235TIP3   OH212668   4.243   2.505   1.694
 4235TIP3    H112669   4.210   2.572   1.634
 4235TIP3    H212670   4.209   2.422   1.658
 4236TIP3   OH212671   5.410   6.237   0.856
 4236TIP3    H112672   5.353   6.188   0.797
 4236TIP3    H212673   5.428   6.178   0.928
 4237TIP3   OH212674   5.739   2.881   1.747
 4237TIP3    H112675   5.756   2.837   1.664
 4237TIP3    H212676   5.808   2.849   1.806
 4238TIP3   OH212677   6.201   4.060   3.782
 4238TIP3    H112678   6.167   4.085   3.696
 4238TIP3    H212679   6.295   4.078   3.776
 4239TIP3   OH212680   0.846   2.881   2.740
 4239TIP3    H112681   0.813   2.963   2.778
 4239TIP3    H212682   0.772   2.820   2.747
 4240TIP3   OH212683   3.400   2.455   5.645
 4240TIP3    H112684   3.349   2.530   5.614
 4240TIP3    H212685   3.424   2.478   5.735
 4241TIP3   OH212686   6.600   5.797   2.901
 4241TIP3    H112687   6.690   5.770   2.880
 4241TIP3    H212688   6.612   5.878   2.950
 4242TIP3   OH212689   6.061   6.512   1.371
 4242TIP3    H112690   6.130   6.575   1.352
 4242TIP3    H212691   6.004   6.556   1.434
 4243TIP3   OH212692   5.483   1.141   1.248
 4243TIP3    H112693   5.496   1.202   1.175
 4243TIP3    H212694   5.499   1.194   1.326
 4244TIP3   OH212695   4.856   3.513   3.719
 4244TIP3    H112696   4.828   3.604   3.729
 4244TIP3    H212697   4.912   3.496   3.795
 4245TIP3   OH212698   5.663   2.614   3.700
 4245TIP3    H112699   5.693   2.623   3.609
 4245TIP3    H212700   5.734   2.567   3.744
 4246TIP3   OH212701   3.336   6.245   4.621
 4246TIP3    H112702   3.313   6.338   4.632
 4246TIP3    H212703   3.431   6.243   4.625
 4247TIP3   OH212704   3.330   2.131   2.669
 4247TIP3    H112705   3.395   2.173   2.614
 4247TIP3    H212706   3.379   2.068   2.721
 4248TIP3   OH212707   2.535   6.247   1.746
 4248TIP3    H112708   2.516   6.212   1.659
 4248TIP3    H212709   2.621   6.212   1.768
 4249TIP3   OH212710   6.225   4.081   5.696
 4249TIP3    H112711   6.176   4.138   5.637
 4249TIP3    H212712   6.180   4.090   5.780
 4250TIP3   OH212713   6.041   2.065   1.095
 4250TIP3    H112714   6.029   2.061   1.000
 4250TIP3    H212715   6.120   2.015   1.112
 4251TIP3   OH212716   3.405   2.834   4.185
 4251TIP3    H112717   3.322   2.813   4.143
 4251TIP3    H212718   3.387   2.829   4.279
 4252TIP3   OH212719   4.035   3.150   2.904
 4252TIP3    H112720   3.993   3.209   2.842
 4252TIP3    H212721   3.973   3.144   2.977
 4253TIP3   OH212722   0.567   4.980   1.713
 4253TIP3    H112723   0.613   4.952   1.792
 4253TIP3    H212724   0.628   5.039   1.669
 4254TIP3   OH212725   2.894   3.987   0.537
 4254TIP3    H112726   2.900   3.951   0.626
 4254TIP3    H212727   2.802   4.009   0.526
 4255TIP3   OH212728   4.257   4.435   3.161
 4255TIP3    H112729   4.215   4.431   3.075
 4255TIP3    H212730   4.194   4.395   3.221
 4256TIP3   OH212731   2.579   5.945   0.876
 4256TIP3    H112732   2.524   5.881   0.830
 4256TIP3    H212733   2.660   5.948   0.825
 4257TIP3   OH212734   1.916   3.071   1.312
 4257TIP3    H112735   1.883   3.060   1.223
 4257TIP3    H212736   1.838   3.076   1.367
 4258TIP3   OH212737   4.522   0.148   2.084
 4258TIP3    H112738   4.455   0.168   2.018
 4258TIP3    H212739   4.476   0.092   2.147
 4259TIP3   OH212740   2.344   2.212   2.282
 4259TIP3    H112741   2.369   2.180   2.368
 4259TIP3    H212742   2.271   2.157   2.255
 4260TIP3   OH212743   2.035   0.110   2.265
 4260TIP3    H112744   1.996   0.174   2.325
 4260TIP3    H212745   1.986   0.029   2.281
 4261TIP3   OH212746   1.925   2.192   1.375
 4261TIP3    H112747   2.018   2.183   1.356
 4261TIP3    H212748   1.885   2.221   1.293
 4262TIP3   OH212749   6.021   5.372   0.557
 4262TIP3    H112750   6.086   5.323   0.607
 4262TIP3    H212751   6.004   5.317   0.481
 4263TIP3   OH212752   2.880   2.008   0.223
 4263TIP3    H112753   2.933   2.087   0.220
 4263TIP3    H212754   2.845   2.006   0.312
 4264TIP3   OH212755   0.399   1.132   0.232
 4264TIP3    H112756   0.489   1.121   0.202
 4264TIP3    H212757   0.369   1.213   0.190
 4265TIP3   OH212758   6.994   2.819   5.397
 4265TIP3    H112759   6.924   2.778   5.346
 4265TIP3    H212760   6.948   2.871   5.462
 4266TIP3   OH212761   5.812   1.040   2.141
 4266TIP3    H112762   5.889   0.989   2.166
 4266TIP3    H212763   5.756   0.977   2.095
 4267TIP3   OH212764   6.204   4.063   4.293
 4267TIP3    H112765   6.131   4.031   4.345
 4267TIP3    H212766   6.201   4.011   4.212
 4268TIP3   OH212767   2.345   0.126   1.032
 4268TIP3    H112768   2.338   0.117   1.127
 4268TIP3    H212769   2.361   0.219   1.018
 4269TIP3   OH212770   5.017   2.254   0.613
 4269TIP3    H112771   5.058   2.200   0.679
 4269TIP3    H212772   4.927   2.220   0.606
 4270TIP3   OH212773   1.899   1.227   0.194
 4270TIP3    H112774   1.906   1.132   0.198
 4270TIP3    H212775   1.987   1.258   0.214
 4271TIP3   OH212776   1.861   0.204   5.465
 4271TIP3    H112777   1.864   0.291   5.426
 4271TIP3    H212778   1.912   0.212   5.546
 4272TIP3   OH212779   5.163   3.566   1.658
 4272TIP3    H112780   5.139   3.611   1.739
 4272TIP3    H212781   5.188   3.478   1.686
 4273TIP3   OH212782   4.180   1.607   3.758
 4273TIP3    H112783   4.150   1.665   3.828
 4273TIP3    H212784   4.267   1.578   3.786
 4274TIP3   OH212785   4.475   2.242   1.657
 4274TIP3    H112786   4.501   2.157   1.693
 4274TIP3    H212787   4.479   2.302   1.731
 4275TIP3   OH212788   4.988   2.450   5.812
 4275TIP3    H112789   4.952   2.367   5.844
 4275TIP3    H212790   4.913   2.508   5.808
 4276TIP3   OH212791   4.667   6.645   0.231
 4276TIP3    H112792   4.688   6.554   0.207
 4276TIP3    H212793   4.596   6.637   0.294
 4277TIP3   OH212794   7.123   6.276   3.226
 4277TIP3    H112795   7.108   6.357   3.275
 4277TIP3    H212796   7.076   6.289   3.143
 4278TIP3   OH212797   0.825   4.214   0.782
 4278TIP3    H112798   0.798   4.129   0.817
 4278TIP3    H212799   0.806   4.277   0.852
 4279TIP3   OH212800   3.064   4.732   5.717
 4279TIP3    H112801   3.124   4.760   5.648
 4279TIP3    H212802   3.120   4.703   5.788
 4280TIP3   OH212803   1.580   5.726   3.617
 4280TIP3    H112804   1.645   5.673   3.663
 4280TIP3    H212805   1.503   5.723   3.673
 4281TIP3   OH212806   3.971   1.007   2.000
 4281TIP3    H112807   3.980   1.044   1.912
 4281TIP3    H212808   3.892   1.048   2.035
 4282TIP3   OH212809   1.877   2.547   3.666
 4282TIP3    H112810   1.840   2.508   3.745
 4282TIP3    H212811   1.852   2.639   3.671
 4283TIP3   OH212812   1.111   4.865   0.249
 4283TIP3    H112813   1.044   4.797   0.258
 4283TIP3    H212814   1.124   4.873   0.154
 4284TIP3   OH212815   3.589   3.551   1.884
 4284TIP3    H112816   3.658   3.485   1.889
 4284TIP3    H212817   3.507   3.500   1.881
 4285TIP3   OH212818   2.594   1.713   1.861
 4285TIP3    H112819   2.644   1.657   1.922
 4285TIP3    H212820   2.511   1.729   1.906
 4286TIP3   OH212821   5.894   1.056   3.681
 4286TIP3    H112822   5.967   1.111   3.653
 4286TIP3    H212823   5.874   1.001   3.606
 4287TIP3   OH212824   2.197   5.509   5.454
 4287TIP3    H112825   2.137   5.470   5.390
 4287TIP3    H212826   2.243   5.577   5.405
 4288TIP3   OH212827   0.325   6.142   5.793
 4288TIP3    H112828   0.354   6.079   5.727
 4288TIP3    H212829   0.301   6.089   5.869
 4289TIP3   OH212830   4.739   0.697   2.073
 4289TIP3    H112831   4.703   0.713   2.161
 4289TIP3    H212832   4.829   0.670   2.089
 4290TIP3   OH212833   4.551   1.399   1.342
 4290TIP3    H112834   4.506   1.465   1.290
 4290TIP3    H212835   4.629   1.377   1.292
 4291TIP3   OH212836   3.913   0.954   5.587
 4291TIP3    H112837   3.874   1.036   5.616
 4291TIP3    H212838   3.856   0.886   5.623
 4292TIP3   OH212839   4.746   4.553   0.160
 4292TIP3    H112840   4.723   4.515   0.076
 4292TIP3    H212841   4.839   4.533   0.172
 4293TIP3   OH212842   6.359   3.602   0.774
 4293TIP3    H112843   6.317   3.687   0.787
 4293TIP3    H212844   6.429   3.619   0.711
 4294TIP3   OH212845   5.454   3.174   2.167
 4294TIP3    H112846   5.506   3.144   2.092
 4294TIP3    H212847   5.508   3.154   2.243
 4295TIP3   OH212848   4.059   0.908   2.521
 4295TIP3    H112849   4.107   0.825   2.516
 4295TIP3    H212850   4.004   0.900   2.599
 4296TIP3   OH212851   5.847   0.498   4.958
 4296TIP3    H112852   5.932   0.541   4.968
 4296TIP3    H212853   5.812   0.532   4.875
 4297TIP3   OH212854   7.281   5.046   0.000
 4297TIP3    H112855   7.330   5.016   0.077
 4297TIP3    H212856   7.225   5.116   0.034
 4298TIP3   OH212857   1.650   2.569   1.601
 4298TIP3    H112858   1.708   2.589   1.527
 4298TIP3    H212859   1.665   2.476   1.618
 4299TIP3   OH212860   2.025   1.650   1.149
 4299TIP3    H112861   2.110   1.661   1.191
 4299TIP3    H212862   2.038   1.683   1.060
 4300TIP3   OH212863   3.810   4.493   0.784
 4300TIP3    H112864   3.755   4.509   0.708
 4300TIP3    H212865   3.837   4.580   0.813
 4301TIP3   OH212866   5.046   6.484   3.504
 4301TIP3    H112867   4.952   6.488   3.526
 4301TIP3    H212868   5.087   6.548   3.562
 4302TIP3   OH212869   0.409   5.884   0.098
 4302TIP3    H112870   0.347   5.850   0.033
 4302TIP3    H212871   0.395   5.830   0.175
 4303TIP3   OH212872   7.171   6.192   3.820
 4303TIP3    H112873   7.178   6.102   3.787
 4303TIP3    H212874   7.100   6.189   3.884
 4304TIP3   OH212875   6.958   6.598   3.215
 4304TIP3    H112876   7.004   6.556   3.287
 4304TIP3    H212877   6.918   6.526   3.166
 4305TIP3   OH212878   2.815   2.098   1.278
 4305TIP3    H112879   2.851   2.033   1.339
 4305TIP3    H212880   2.839   2.065   1.191
 4306TIP3   OH212881   6.979   0.684   0.601
 4306TIP3    H112882   7.014   0.612   0.548
 4306TIP3    H212883   6.989   0.762   0.546
 4307TIP3   OH212884   3.032   2.690   5.095
 4307TIP3    H112885   3.096   2.687   5.167
 4307TIP3    H212886   2.954   2.648   5.131
 4308TIP3   OH212887   4.108   4.061   5.951
 4308TIP3    H112888   4.167   4.017   5.890
 4308TIP3    H212889   4.036   4.094   5.897
 4309TIP3   OH212890   6.968   6.072   0.992
 4309TIP3    H112891   7.029   6.013   1.035
 4309TIP3    H212892   6.883   6.028   0.998
 4310TIP3   OH212893   5.811   6.200   0.595
 4310TIP3    H112894   5.791   6.115   0.554
 4310TIP3    H212895   5.895   6.225   0.557
 4311TIP3   OH212896   1.126   5.296   4.194
 4311TIP3    H112897   1.103   5.281   4.102
 4311TIP3    H212898   1.118   5.210   4.235
 4312TIP3   OH212899   4.915   3.465   1.874
 4312TIP3    H112900   4.998   3.503   1.904
 4312TIP3    H212901   4.920   3.470   1.778
 4313TIP3   OH212902   2.766  -0.044   3.138
 4313TIP3    H112903   2.821   0.029   3.167
 4313TIP3    H212904   2.730  -0.015   3.054
 4314TIP3   OH212905   3.347   3.320   0.295
 4314TIP3    H112906   3.385   3.232   0.294
 4314TIP3    H212907   3.386   3.362   0.371
 4315TIP3   OH212908   7.177   3.186   4.622
 4315TIP3    H112909   7.143   3.201   4.535
 4315TIP3    H212910   7.256   3.132   4.608
 4316TIP3   OH212911   6.128   2.219   2.711
 4316TIP3    H112912   6.131   2.286   2.642
 4316TIP3    H212913   6.220   2.199   2.728
 4317TIP3   OH212914   0.690   5.133   4.568
 4317TIP3    H112915   0.665   5.180   4.648
 4317TIP3    H212916   0.736   5.055   4.599
 4318TIP3   OH212917   5.047   6.626   5.065
 4318TIP3    H112918   5.020   6.614   5.156
 4318TIP3    H212919   5.054   6.721   5.055
 4319TIP3   OH212920   3.015   5.969   1.793
 4319TIP3    H112921   3.075   6.016   1.734
 4319TIP3    H212922   2.972   5.905   1.737
 4320TIP3   OH212923   7.194   2.752   4.934
 4320TIP3    H112924   7.209   2.683   4.999
 4320TIP3    H212925   7.233   2.831   4.973
 4321TIP3   OH212926   4.005   3.764   4.249
 4321TIP3    H112927   3.922   3.740   4.289
 4321TIP3    H212928   3.981   3.796   4.162
 4322TIP3   OH212929   5.724   1.738   1.324
 4322TIP3    H112930   5.748   1.827   1.299
 4322TIP3    H212931   5.676   1.704   1.249
 4323TIP3   OH212932   4.045   2.606   5.226
 4323TIP3    H112933   4.005   2.526   5.261
 4323TIP3    H212934   4.095   2.642   5.299
 4324TIP3   OH212935   0.167   3.866   3.886
 4324TIP3    H112936   0.232   3.845   3.819
 4324TIP3    H212937   0.213   3.924   3.947
 4325TIP3   OH212938   2.942   2.835   0.105
 4325TIP3    H112939   3.018   2.778   0.096
 4325TIP3    H212940   2.927   2.870   0.017
 4326TIP3   OH212941   2.181   3.587   4.769
 4326TIP3    H112942   2.189   3.556   4.859
 4326TIP3    H212943   2.270   3.614   4.746
 4327TIP3   OH212944   2.377   3.156   2.817
 4327TIP3    H112945   2.389   3.064   2.791
 4327TIP3    H212946   2.324   3.193   2.746
 4328TIP3   OH212947   2.242   3.851   0.053
 4328TIP3    H112948   2.301   3.810   0.116
 4328TIP3    H212949   2.174   3.785   0.039
 4329TIP3   OH212950   4.880   1.094   3.540
 4329TIP3    H112951   4.970   1.112   3.514
 4329TIP3    H212952   4.881   1.001   3.564
 4330TIP3   OH212953   3.075   6.631   3.161
 4330TIP3    H112954   3.142   6.571   3.195
 4330TIP3    H212955   3.080   6.707   3.218
 4331TIP3   OH212956   0.514   6.621   0.268
 4331TIP3    H112957   0.439   6.563   0.260
 4331TIP3    H212958   0.589   6.562   0.273
 4332TIP3   OH212959   4.569   3.164   2.371
 4332TIP3    H112960   4.531   3.077   2.380
 4332TIP3    H212961   4.500   3.224   2.401
 4333TIP3   OH212962   6.149   1.036   0.282
 4333TIP3    H112963   6.082   0.992   0.229
 4333TIP3    H212964   6.101   1.103   0.331
 4334TIP3   OH212965   4.327   3.176   1.146
 4334TIP3    H112966   4.281   3.102   1.186
 4334TIP3    H212967   4.339   3.238   1.218
 4335TIP3   OH212968   4.160   2.928   5.536
 4335TIP3    H112969   4.238   2.875   5.517
 4335TIP3    H212970   4.158   2.933   5.631
 4336TIP3   OH212971   5.345   0.853   0.275
 4336TIP3    H112972   5.401   0.916   0.321
 4336TIP3    H212973   5.337   0.888   0.187
 4337TIP3   OH212974   5.284   0.088   3.078
 4337TIP3    H112975   5.277   0.172   3.125
 4337TIP3    H212976   5.299   0.113   2.987
 4338TIP3   OH212977   3.096   4.263   3.483
 4338TIP3    H112978   3.042   4.185   3.495
 4338TIP3    H212979   3.165   4.235   3.423
 4339TIP3   OH212980   3.963   4.102   4.481
 4339TIP3    H112981   3.944   4.015   4.517
 4339TIP3    H212982   3.891   4.157   4.512
 4340TIP3   OH212983   5.784   0.480   4.665
 4340TIP3    H112984   5.771   0.485   4.571
 4340TIP3    H212985   5.744   0.397   4.691
 4341TIP3   OH212986   3.873   6.651   4.367
 4341TIP3    H112987   3.928   6.730   4.365
 4341TIP3    H212988   3.794   6.676   4.318
 4342TIP3   OH212989   2.922   1.875   2.361
 4342TIP3    H112990   2.996   1.930   2.337
 4342TIP3    H212991   2.850   1.907   2.306
 4343TIP3   OH212992   3.942   3.667   1.314
 4343TIP3    H112993   3.922   3.573   1.322
 4343TIP3    H212994   4.035   3.673   1.335
 4344TIP3   OH212995   0.451   1.601   2.879
 4344TIP3    H112996   0.439   1.608   2.784
 4344TIP3    H212997   0.401   1.523   2.903
 4345TIP3   OH212998   1.794   6.404   0.213
 4345TIP3    H112999   1.856   6.377   0.144
 4345TIP3    H213000   1.762   6.489   0.185
 4346TIP3   OH213001   2.664   1.073   5.008
 4346TIP3    H113002   2.635   1.035   5.092
 4346TIP3    H213003   2.669   0.997   4.949
 4347TIP3   OH213004   1.235   6.516   2.573
 4347TIP3    H113005   1.319   6.472   2.562
 4347TIP3    H213006   1.250   6.605   2.540
 4348TIP3   OH213007   1.727   4.560   0.412
 4348TIP3    H113008   1.818   4.540   0.434
 4348TIP3    H213009   1.676   4.509   0.475
 4349TIP3   OH213010   1.706   2.033   3.110
 4349TIP3    H113011   1.661   2.056   3.029
 4349TIP3    H213012   1.647   1.973   3.155
 4350TIP3   OH213013   6.938   5.462   4.674
 4350TIP3    H113014   6.945   5.406   4.750
 4350TIP3    H213015   6.962   5.549   4.706
 4351TIP3   OH213016   0.746   0.774   0.703
 4351TIP3    H113017   0.789   0.707   0.650
 4351TIP3    H213018   0.786   0.856   0.677
 4352TIP3   OH213019   4.528   2.502   2.172
 4352TIP3    H113020   4.581   2.556   2.113
 4352TIP3    H213021   4.446   2.550   2.182
 4353TIP3   OH213022   6.919   0.220   1.281
 4353TIP3    H113023   6.992   0.280   1.267
 4353TIP3    H213024   6.959   0.140   1.313
 4354TIP3   OH213025   2.022   5.062   1.905
 4354TIP3    H113026   2.008   5.142   1.956
 4354TIP3    H213027   2.050   5.093   1.819
 4355TIP3   OH213028   2.680   0.257   0.117
 4355TIP3    H113029   2.753   0.302   0.075
 4355TIP3    H213030   2.691   0.165   0.092
 4356TIP3   OH213031   1.032   3.619   3.218
 4356TIP3    H113032   0.959   3.682   3.222
 4356TIP3    H213033   1.007   3.559   3.148
 4357TIP3   OH213034   5.072   3.414   5.190
 4357TIP3    H113035   5.108   3.334   5.227
 4357TIP3    H213036   5.103   3.415   5.100
 4358TIP3   OH213037   3.020   5.512   3.887
 4358TIP3    H113038   3.039   5.574   3.958
 4358TIP3    H213039   3.036   5.426   3.925
 4359TIP3   OH213040   4.929   4.018   0.032
 4359TIP3    H113041   4.874   4.094   0.012
 4359TIP3    H213042   4.873   3.942   0.015
 4360TIP3   OH213043   1.433   6.010   0.302
 4360TIP3    H113044   1.519   6.045   0.278
 4360TIP3    H213045   1.410   5.951   0.230
 4361TIP3   OH213046   6.972   2.604   2.746
 4361TIP3    H113047   6.913   2.668   2.786
 4361TIP3    H213048   7.056   2.617   2.791
 4362TIP3   OH213049   3.221   1.757   5.337
 4362TIP3    H113050   3.211   1.701   5.260
 4362TIP3    H213051   3.315   1.772   5.344
 4363TIP3   OH213052   2.411   4.823   4.561
 4363TIP3    H113053   2.465   4.881   4.614
 4363TIP3    H213054   2.450   4.736   4.575
 4364TIP3   OH213055   6.889   3.003   3.297
 4364TIP3    H113056   6.822   2.950   3.340
 4364TIP3    H213057   6.883   2.979   3.204
 4365TIP3   OH213058   3.118   5.058   3.016
 4365TIP3    H113059   3.096   5.125   3.080
 4365TIP3    H213060   3.184   5.004   3.059
 4366TIP3   OH213061   6.613   0.610   3.904
 4366TIP3    H113062   6.619   0.514   3.908
 4366TIP3    H213063   6.592   0.636   3.993
 4367TIP3   OH213064   2.146   1.396   0.582
 4367TIP3    H113065   2.139   1.464   0.649
 4367TIP3    H213066   2.066   1.405   0.531
 4368TIP3   OH213067   4.790   1.888   5.281
 4368TIP3    H113068   4.796   1.943   5.203
 4368TIP3    H213069   4.718   1.828   5.262
 4369TIP3   OH213070   4.889   1.221   3.864
 4369TIP3    H113071   4.882   1.128   3.841
 4369TIP3    H213072   4.980   1.232   3.892
 4370TIP3   OH213073   2.577   3.245   4.379
 4370TIP3    H113074   2.494   3.284   4.351
 4370TIP3    H213075   2.643   3.287   4.324
 4371TIP3   OH213076   1.666   5.038   2.814
 4371TIP3    H113077   1.716   4.959   2.798
 4371TIP3    H213078   1.610   5.017   2.889
 4372TIP3   OH213079   4.872   4.868   5.335
 4372TIP3    H113080   4.890   4.798   5.273
 4372TIP3    H213081   4.841   4.941   5.281
 4373TIP3   OH213082   2.765   0.988   3.760
 4373TIP3    H113083   2.727   0.966   3.845
 4373TIP3    H213084   2.809   0.908   3.732
 4374TIP3   OH213085   4.262   1.973   4.428
 4374TIP3    H113086   4.214   2.032   4.371
 4374TIP3    H213087   4.194   1.928   4.479
 4375TIP3   OH213088   0.651   4.842   1.360
 4375TIP3    H113089   0.600   4.821   1.439
 4375TIP3    H213090   0.619   4.781   1.294
 4376TIP3   OH213091   4.084   0.224   4.580
 4376TIP3    H113092   4.173   0.187   4.577
 4376TIP3    H213093   4.096   0.317   4.563
 4377TIP3   OH213094   1.609   2.012   0.644
 4377TIP3    H113095   1.547   1.978   0.579
 4377TIP3    H213096   1.557   2.073   0.696
 4378TIP3   OH213097   6.584   4.202   3.064
 4378TIP3    H113098   6.642   4.160   3.001
 4378TIP3    H213099   6.509   4.230   3.013
 4379TIP3   OH213100   4.713   5.304   1.181
 4379TIP3    H113101   4.699   5.276   1.091
 4379TIP3    H213102   4.632   5.350   1.205
 4380TIP3   OH213103   3.191   2.553   4.392
 4380TIP3    H113104   3.170   2.629   4.447
 4380TIP3    H213105   3.113   2.498   4.398
 4381TIP3   OH213106   0.926   5.402   4.442
 4381TIP3    H113107   0.928   5.312   4.411
 4381TIP3    H213108   0.961   5.453   4.369
 4382TIP3   OH213109   1.394   4.397  -0.029
 4382TIP3    H113110   1.446   4.317  -0.023
 4382TIP3    H213111   1.398   4.435   0.059
 4383TIP3   OH213112   3.602   4.122   4.982
 4383TIP3    H113113   3.598   4.199   5.038
 4383TIP3    H213114   3.604   4.048   5.042
 4384TIP3   OH213115   7.156   4.979   4.450
 4384TIP3    H113116   7.134   5.034   4.525
 4384TIP3    H213117   7.101   4.901   4.460
 4385TIP3   OH213118   4.534   2.221   5.133
 4385TIP3    H113119   4.628   2.214   5.117
 4385TIP3    H213120   4.527   2.240   5.227
 4386TIP3   OH213121   6.943   6.119   1.722
 4386TIP3    H113122   6.874   6.088   1.780
 4386TIP3    H213123   6.905   6.197   1.680
 4387TIP3   OH213124   1.439   6.017   0.832
 4387TIP3    H113125   1.528   6.008   0.865
 4387TIP3    H213126   1.401   5.929   0.842
 4388TIP3   OH213127   2.271   0.964   4.976
 4388TIP3    H113128   2.238   1.026   4.911
 4388TIP3    H213129   2.308   0.892   4.926
 4389TIP3   OH213130   1.494   1.342   0.488
 4389TIP3    H113131   1.533   1.318   0.404
 4389TIP3    H213132   1.561   1.320   0.552
 4390TIP3   OH213133   2.539   0.224   2.996
 4390TIP3    H113134   2.503   0.311   2.978
 4390TIP3    H213135   2.492   0.194   3.074
 4391TIP3   OH213136   4.648   5.329   5.983
 4391TIP3    H113137   4.569   5.378   6.003
 4391TIP3    H213138   4.632   5.292   5.896
 4392TIP3   OH213139   5.194   2.701   5.236
 4392TIP3    H113140   5.133   2.651   5.182
 4392TIP3    H213141   5.279   2.687   5.195
 4393TIP3   OH213142   6.437   6.503   2.750
 4393TIP3    H113143   6.473   6.592   2.745
 4393TIP3    H213144   6.345   6.516   2.773
 4394TIP3   OH213145   1.566   4.829   3.977
 4394TIP3    H113146   1.627   4.781   3.921
 4394TIP3    H213147   1.501   4.764   4.002
 4395TIP3   OH213148   5.037   6.137   4.767
 4395TIP3    H113149   4.962   6.196   4.772
 4395TIP3    H213150   5.087   6.168   4.692
 4396TIP3   OH213151   5.699   4.265   2.451
 4396TIP3    H113152   5.753   4.333   2.491
 4396TIP3    H213153   5.728   4.184   2.494
 4397TIP3   OH213154   5.757   2.246   4.615
 4397TIP3    H113155   5.844   2.258   4.577
 4397TIP3    H213156   5.758   2.157   4.650
 4398TIP3   OH213157   2.990   0.608   4.863
 4398TIP3    H113158   3.074   0.584   4.824
 4398TIP3    H213159   2.928   0.604   4.791
 4399TIP3   OH213160   0.560   2.734   1.509
 4399TIP3    H113161   0.484   2.790   1.521
 4399TIP3    H213162   0.602   2.732   1.595
 4400TIP3   OH213163   0.555   2.570   3.940
 4400TIP3    H113164   0.639   2.576   3.894
 4400TIP3    H213165   0.531   2.478   3.933
 4401TIP3   OH213166   1.461   3.773   0.374
 4401TIP3    H113167   1.425   3.769   0.463
 4401TIP3    H213168   1.554   3.751   0.385
 4402TIP3   OH213169   0.914   0.825   5.136
 4402TIP3    H113170   0.824   0.858   5.143
 4402TIP3    H213171   0.905   0.730   5.134
 4403TIP3   OH213172   4.619   2.026   1.035
 4403TIP3    H113173   4.627   1.989   0.947
 4403TIP3    H213174   4.541   2.083   1.029
 4404TIP3   OH213175   0.402   1.162   5.009
 4404TIP3    H113176   0.442   1.237   4.965
 4404TIP3    H213177   0.428   1.173   5.101
 4405TIP3   OH213178   0.930   6.023   2.855
 4405TIP3    H113179   0.915   6.118   2.858
 4405TIP3    H213180   1.023   6.014   2.834
 4406TIP3   OH213181   2.291   5.199   1.878
 4406TIP3    H113182   2.279   5.116   1.925
 4406TIP3    H213183   2.254   5.265   1.936
 4407TIP3   OH213184   0.397   4.751   0.267
 4407TIP3    H113185   0.397   4.840   0.301
 4407TIP3    H213186   0.479   4.743   0.218
 4408TIP3   OH213187   6.088   2.329   3.123
 4408TIP3    H113188   6.100   2.253   3.180
 4408TIP3    H213189   6.038   2.295   3.048
 4409TIP3   OH213190   1.997   6.344   0.410
 4409TIP3    H113191   1.948   6.359   0.491
 4409TIP3    H213192   1.943   6.383   0.341
 4410TIP3   OH213193   5.999   5.938   4.727
 4410TIP3    H113194   5.941   5.862   4.726
 4410TIP3    H213195   6.075   5.909   4.778
 4411TIP3   OH213196   1.848   5.687   1.176
 4411TIP3    H113197   1.854   5.724   1.088
 4411TIP3    H213198   1.818   5.759   1.231
 4412TIP3   OH213199   4.898   1.945   1.089
 4412TIP3    H113200   4.813   1.961   1.050
 4412TIP3    H213201   4.893   1.987   1.175
 4413TIP3   OH213202   5.944   3.334   3.578
 4413TIP3    H113203   5.979   3.252   3.613
 4413TIP3    H213204   5.941   3.393   3.653
 4414TIP3   OH213205   3.671   5.700   3.961
 4414TIP3    H113206   3.749   5.743   3.997
 4414TIP3    H213207   3.671   5.724   3.868
 4415TIP3   OH213208   3.022   1.824   0.443
 4415TIP3    H113209   3.098   1.801   0.497
 4415TIP3    H213210   3.059   1.845   0.357
 4416TIP3   OH213211   6.307   3.475   1.285
 4416TIP3    H113212   6.302   3.492   1.191
 4416TIP3    H213213   6.225   3.508   1.320
 4417TIP3   OH213214   4.243   1.563   5.674
 4417TIP3    H113215   4.222   1.649   5.636
 4417TIP3    H213216   4.201   1.565   5.760
 4418TIP3   OH213217   2.254   4.271   4.283
 4418TIP3    H113218   2.282   4.235   4.199
 4418TIP3    H213219   2.314   4.234   4.347
 4419TIP3   OH213220   2.829   3.632   0.637
 4419TIP3    H113221   2.901   3.689   0.663
 4419TIP3    H213222   2.766   3.638   0.709
 4420TIP3   OH213223   3.356   2.005   0.864
 4420TIP3    H113224   3.366   2.065   0.939
 4420TIP3    H213225   3.302   1.933   0.898
 4421TIP3   OH213226   1.719   3.717   0.457
 4421TIP3    H113227   1.783   3.746   0.392
 4421TIP3    H213228   1.739   3.624   0.470
 4422TIP3   OH213229   5.760   3.481   4.102
 4422TIP3    H113230   5.711   3.557   4.073
 4422TIP3    H213231   5.829   3.517   4.159
 4423TIP3   OH213232   3.156   6.649   1.841
 4423TIP3    H113233   3.134   6.730   1.794
 4423TIP3    H213234   3.104   6.653   1.921
 4424TIP3   OH213235   6.232   4.369   5.034
 4424TIP3    H113236   6.324   4.397   5.031
 4424TIP3    H213237   6.191   4.427   5.098
 4425TIP3   OH213238   0.092   2.372   3.811
 4425TIP3    H113239   0.154   2.298   3.812
 4425TIP3    H213240   0.051   2.367   3.725
 4426TIP3   OH213241   5.030   2.064   1.940
 4426TIP3    H113242   5.021   2.145   1.990
 4426TIP3    H213243   5.076   2.005   1.999
 4427TIP3   OH213244   6.522   0.198   3.932
 4427TIP3    H113245   6.565   0.169   4.012
 4427TIP3    H213246   6.470   0.123   3.904
 4428TIP3   OH213247   4.177   4.495   3.912
 4428TIP3    H113248   4.170   4.403   3.935
 4428TIP3    H213249   4.257   4.501   3.859
 4429TIP3   OH213250   3.240   4.392   1.940
 4429TIP3    H113251   3.264   4.367   2.029
 4429TIP3    H213252   3.291   4.472   1.923
 4430TIP3   OH213253   0.855   4.954   4.716
 4430TIP3    H113254   0.913   4.898   4.664
 4430TIP3    H213255   0.906   5.035   4.728
 4431TIP3   OH213256   0.199  -0.008   4.494
 4431TIP3    H113257   0.104  -0.004   4.484
 4431TIP3    H213258   0.231  -0.033   4.407
 4432TIP3   OH213259   3.917   5.344   4.472
 4432TIP3    H113260   3.882   5.374   4.388
 4432TIP3    H213261   3.920   5.423   4.526
 4433TIP3   OH213262   0.987   5.192   4.751
 4433TIP3    H113263   0.932   5.241   4.813
 4433TIP3    H213264   1.009   5.256   4.683
 4434TIP3   OH213265   4.955   6.345   1.166
 4434TIP3    H113266   5.047   6.371   1.161
 4434TIP3    H213267   4.912   6.396   1.097
 4435TIP3   OH213268   1.816   1.393   3.121
 4435TIP3    H113269   1.878   1.453   3.162
 4435TIP3    H213270   1.804   1.428   3.032
 4436TIP3   OH213271   5.901   4.017   0.430
 4436TIP3    H113272   5.856   4.095   0.398
 4436TIP3    H213273   5.893   4.023   0.525
 4437TIP3   OH213274   3.328   4.624   5.219
 4437TIP3    H113275   3.299   4.540   5.185
 4437TIP3    H213276   3.379   4.603   5.298
 4438TIP3   OH213277   5.868   3.638   1.458
 4438TIP3    H113278   5.801   3.637   1.526
 4438TIP3    H213279   5.831   3.695   1.390
 4439TIP3   OH213280   5.313   1.777   3.665
 4439TIP3    H113281   5.331   1.775   3.759
 4439TIP3    H213282   5.288   1.868   3.648
 4440TIP3   OH213283   5.255   0.410   1.960
 4440TIP3    H113284   5.310   0.379   2.032
 4440TIP3    H213285   5.302   0.486   1.925
 4441TIP3   OH213286   5.342   1.620   0.406
 4441TIP3    H113287   5.425   1.669   0.414
 4441TIP3    H213288   5.343   1.560   0.480
 4442TIP3   OH213289   0.985   4.771   1.696
 4442TIP3    H113290   1.012   4.704   1.759
 4442TIP3    H213291   1.000   4.854   1.741
 4443TIP3   OH213292   6.802   5.172   5.605
 4443TIP3    H113293   6.774   5.231   5.535
 4443TIP3    H213294   6.897   5.180   5.607
 4444TIP3   OH213295   5.468   4.172   4.119
 4444TIP3    H113296   5.532   4.156   4.188
 4444TIP3    H213297   5.427   4.256   4.142
 4445TIP3   OH213298   3.969   1.225   2.586
 4445TIP3    H113299   4.027   1.179   2.525
 4445TIP3    H213300   3.881   1.206   2.554
 4446TIP3   OH213301   2.815   2.121   3.321
 4446TIP3    H113302   2.743   2.184   3.315
 4446TIP3    H213303   2.806   2.082   3.408
 4447TIP3   OH213304   6.465   4.315   2.577
 4447TIP3    H113305   6.518   4.382   2.533
 4447TIP3    H213306   6.404   4.284   2.510
 4448TIP3   OH213307   2.460   4.288   3.642
 4448TIP3    H113308   2.534   4.268   3.585
 4448TIP3    H213309   2.383   4.270   3.589
 4449TIP3   OH213310   5.419   1.285   2.247
 4449TIP3    H113311   5.361   1.301   2.173
 4449TIP3    H213312   5.507   1.300   2.212
 4450TIP3   OH213313   5.801   2.071   5.256
 4450TIP3    H113314   5.793   2.036   5.345
 4450TIP3    H213315   5.859   2.147   5.266
 4451TIP3   OH213316   0.097   0.749   4.831
 4451TIP3    H113317   0.149   0.814   4.878
 4451TIP3    H213318   0.076   0.791   4.747
 4452TIP3   OH213319   2.102   0.720   0.058
 4452TIP3    H113320   2.061   0.649   0.008
 4452TIP3    H213321   2.184   0.682   0.090
 4453TIP3   OH213322   4.957   4.401   2.864
 4453TIP3    H113323   4.863   4.386   2.858
 4453TIP3    H213324   4.997   4.324   2.824
 4454TIP3   OH213325   1.079   0.943   4.302
 4454TIP3    H113326   1.023   0.865   4.304
 4454TIP3    H213327   1.038   1.001   4.238
 4455TIP3   OH213328   6.931   1.898   5.764
 4455TIP3    H113329   6.907   1.924   5.853
 4455TIP3    H213330   7.022   1.868   5.771
 4456TIP3   OH213331   6.443   0.545   5.497
 4456TIP3    H113332   6.487   0.462   5.478
 4456TIP3    H213333   6.470   0.566   5.587
 4457TIP3   OH213334   2.274   5.633   4.258
 4457TIP3    H113335   2.347   5.574   4.274
 4457TIP3    H213336   2.253   5.669   4.344
 4458TIP3   OH213337   4.997   6.313   1.907
 4458TIP3    H113338   4.996   6.219   1.889
 4458TIP3    H213339   4.976   6.320   2.000
 4459TIP3   OH213340   0.635   1.125   4.573
 4459TIP3    H113341   0.577   1.063   4.529
 4459TIP3    H213342   0.723   1.090   4.559
 4460TIP3   OH213343   0.952   3.009   1.864
 4460TIP3    H113344   0.947   3.037   1.773
 4460TIP3    H213345   0.860   3.001   1.891
 4461TIP3   OH213346   1.251   3.299   4.500
 4461TIP3    H113347   1.285   3.238   4.435
 4461TIP3    H213348   1.222   3.375   4.449
 4462TIP3   OH213349   1.261   4.794   4.110
 4462TIP3    H113350   1.220   4.707   4.113
 4462TIP3    H213351   1.246   4.824   4.020
 4463TIP3   OH213352   3.954   6.194   5.233
 4463TIP3    H113353   3.984   6.132   5.300
 4463TIP3    H213354   4.031   6.249   5.216
 4464TIP3   OH213355   1.502   6.122   4.430
 4464TIP3    H113356   1.522   6.081   4.346
 4464TIP3    H213357   1.521   6.055   4.496
 4465TIP3   OH213358   4.249   3.640   4.882
 4465TIP3    H113359   4.213   3.560   4.842
 4465TIP3    H213360   4.302   3.609   4.955
 4466TIP3   OH213361   4.987   1.008   4.903
 4466TIP3    H113362   5.039   1.065   4.847
 4466TIP3    H213363   4.953   0.941   4.843
 4467TIP3   OH213364   5.365   4.930   0.920
 4467TIP3    H113365   5.371   5.024   0.906
 4467TIP3    H213366   5.320   4.897   0.841
 4468TIP3   OH213367   1.882   5.117   3.301
 4468TIP3    H113368   1.920   5.051   3.244
 4468TIP3    H213369   1.950   5.183   3.312
 4469TIP3   OH213370   6.298   4.715   0.840
 4469TIP3    H113371   6.224   4.658   0.861
 4469TIP3    H213372   6.339   4.733   0.925
 4470TIP3   OH213373   4.022   0.488   3.956
 4470TIP3    H113374   3.931   0.470   3.935
 4470TIP3    H213375   4.072   0.424   3.906
 4471TIP3   OH213376   7.020   5.133   5.767
 4471TIP3    H113377   7.026   5.040   5.745
 4471TIP3    H213378   6.957   5.136   5.839
 4472TIP3   OH213379   5.222   1.169   5.015
 4472TIP3    H113380   5.155   1.106   4.990
 4472TIP3    H213381   5.260   1.198   4.932
 4473TIP3   OH213382   6.817   6.532   0.775
 4473TIP3    H113383   6.910   6.552   0.788
 4473TIP3    H213384   6.799   6.562   0.686
 4474TIP3   OH213385   1.573   5.381   2.687
 4474TIP3    H113386   1.646   5.323   2.710
 4474TIP3    H213387   1.613   5.468   2.684
 4475TIP3   OH213388   4.333   6.562   4.648
 4475TIP3    H113389   4.300   6.474   4.629
 4475TIP3    H213390   4.255   6.617   4.648
 4476TIP3   OH213391   4.573   3.563   3.190
 4476TIP3    H113392   4.552   3.643   3.142
 4476TIP3    H213393   4.645   3.523   3.141
 4477TIP3   OH213394   0.639   6.712   1.570
 4477TIP3    H113395   0.698   6.647   1.607
 4477TIP3    H213396   0.573   6.727   1.638
 4478TIP3   OH213397   2.556   3.081   5.235
 4478TIP3    H113398   2.620   3.050   5.299
 4478TIP3    H213399   2.599   3.154   5.191
 4479TIP3   OH213400   4.691   2.522   2.382
 4479TIP3    H113401   4.780   2.532   2.347
 4479TIP3    H213402   4.635   2.520   2.304
 4480TIP3   OH213403   4.385   4.285   1.724
 4480TIP3    H113404   4.392   4.190   1.717
 4480TIP3    H213405   4.296   4.305   1.693
 4481TIP3   OH213406   6.588   1.139   5.491
 4481TIP3    H113407   6.631   1.222   5.510
 4481TIP3    H213408   6.623   1.078   5.556
 4482TIP3   OH213409   5.690   6.142   5.657
 4482TIP3    H113410   5.727   6.112   5.574
 4482TIP3    H213411   5.634   6.070   5.686
 4483TIP3   OH213412   2.405   4.474   1.561
 4483TIP3    H113413   2.471   4.505   1.624
 4483TIP3    H213414   2.325   4.465   1.613
 4484TIP3   OH213415   6.489   5.292   1.839
 4484TIP3    H113416   6.531   5.229   1.898
 4484TIP3    H213417   6.426   5.239   1.789
 4485TIP3   OH213418   5.884   2.718   1.963
 4485TIP3    H113419   5.810   2.658   1.977
 4485TIP3    H213420   5.960   2.660   1.956
 4486TIP3   OH213421   0.792   1.262   0.840
 4486TIP3    H113422   0.707   1.297   0.868
 4486TIP3    H213423   0.779   1.237   0.748
 4487TIP3   OH213424   1.144   3.705   0.721
 4487TIP3    H113425   1.059   3.667   0.745
 4487TIP3    H213426   1.150   3.690   0.626
 4488TIP3   OH213427   3.933   3.472   0.316
 4488TIP3    H113428   3.966   3.524   0.389
 4488TIP3    H213429   3.964   3.517   0.237
 4489TIP3   OH213430   3.998   2.841   4.073
 4489TIP3    H113431   3.994   2.937   4.071
 4489TIP3    H213432   3.932   2.813   4.009
 4490TIP3   OH213433   3.485   2.953   3.968
 4490TIP3    H113434   3.453   2.937   4.057
 4490TIP3    H213435   3.533   2.873   3.945
 4491TIP3   OH213436   1.200   2.003   1.131
 4491TIP3    H113437   1.130   1.979   1.070
 4491TIP3    H213438   1.175   2.090   1.163
 4492TIP3   OH213439   6.348   0.254   5.769
 4492TIP3    H113440   6.422   0.313   5.780
 4492TIP3    H213441   6.317   0.236   5.858
 4493TIP3   OH213442   2.741   5.894   2.696
 4493TIP3    H113443   2.775   5.896   2.786
 4493TIP3    H213444   2.702   5.806   2.688
 4494TIP3   OH213445   5.182   6.776  -0.014
 4494TIP3    H113446   5.271   6.778   0.022
 4494TIP3    H213447   5.131   6.727   0.050
 4495TIP3   OH213448   2.363   1.827   2.022
 4495TIP3    H113449   2.414   1.829   2.104
 4495TIP3    H213450   2.396   1.902   1.972
 4496TIP3   OH213451   1.908   0.474   3.280
 4496TIP3    H113452   1.922   0.406   3.346
 4496TIP3    H213453   1.846   0.435   3.219
 4497TIP3   OH213454   4.651   4.079   1.741
 4497TIP3    H113455   4.555   4.074   1.739
 4497TIP3    H213456   4.674   4.041   1.826
 4498TIP3   OH213457   0.851   6.339   4.774
 4498TIP3    H113458   0.766   6.302   4.754
 4498TIP3    H213459   0.898   6.339   4.691
 4499TIP3   OH213460   2.078   3.715   4.183
 4499TIP3    H113461   2.154   3.692   4.129
 4499TIP3    H213462   2.006   3.723   4.121
 4500TIP3   OH213463   1.201   5.734   4.552
 4500TIP3    H113464   1.246   5.734   4.636
 4500TIP3    H213465   1.123   5.681   4.565
 4501TIP3   OH213466   2.034   1.116   5.374
 4501TIP3    H113467   2.084   1.061   5.314
 4501TIP3    H213468   2.026   1.201   5.329
 4502TIP3   OH213469   5.106   0.288   2.867
 4502TIP3    H113470   5.033   0.282   2.806
 4502TIP3    H213471   5.085   0.364   2.922
 4503TIP3   OH213472   0.222   0.410   2.688
 4503TIP3    H113473   0.315   0.422   2.705
 4503TIP3    H213474   0.190   0.359   2.762
 4504TIP3   OH213475   1.583   3.023   1.943
 4504TIP3    H113476   1.666   2.976   1.952
 4504TIP3    H213477   1.542   3.016   2.030
 4505TIP3   OH213478   1.385   2.416   4.378
 4505TIP3    H113479   1.469   2.371   4.387
 4505TIP3    H213480   1.361   2.440   4.468
 4506TIP3   OH213481   0.668   2.148   5.406
 4506TIP3    H113482   0.613   2.188   5.338
 4506TIP3    H213483   0.755   2.186   5.391
 4507TIP3   OH213484   6.215   6.245   1.173
 4507TIP3    H113485   6.261   6.192   1.107
 4507TIP3    H213486   6.177   6.317   1.122
 4508TIP3   OH213487   1.267   6.538   1.521
 4508TIP3    H113488   1.299   6.448   1.527
 4508TIP3    H213489   1.185   6.530   1.472
 4509TIP3   OH213490   6.368   3.849   5.658
 4509TIP3    H113491   6.378   3.853   5.753
 4509TIP3    H213492   6.304   3.917   5.638
 4510TIP3   OH213493   4.344   1.127   5.707
 4510TIP3    H113494   4.397   1.181   5.766
 4510TIP3    H213495   4.370   1.037   5.728
 4511TIP3   OH213496   4.490   0.665   2.506
 4511TIP3    H113497   4.534   0.588   2.543
 4511TIP3    H213498   4.398   0.654   2.530
 4512TIP3   OH213499   0.614   5.426   1.874
 4512TIP3    H113500   0.645   5.513   1.897
 4512TIP3    H213501   0.693   5.379   1.846
 4513TIP3   OH213502   5.885   3.008   3.143
 4513TIP3    H113503   5.967   2.962   3.158
 4513TIP3    H213504   5.912   3.091   3.102
 4514TIP3   OH213505   6.256   3.728   4.763
 4514TIP3    H113506   6.238   3.815   4.727
 4514TIP3    H213507   6.186   3.714   4.828
 4515TIP3   OH213508   4.143   5.790   4.232
 4515TIP3    H113509   4.226   5.751   4.259
 4515TIP3    H213510   4.153   5.805   4.138
 4516TIP3   OH213511   3.435   2.176   5.684
 4516TIP3    H113512   3.407   2.267   5.672
 4516TIP3    H213513   3.367   2.124   5.642
 4517TIP3   OH213514   0.538   3.525   4.282
 4517TIP3    H113515   0.543   3.453   4.219
 4517TIP3    H213516   0.447   3.524   4.311
 4518TIP3   OH213517   4.364   5.826   0.669
 4518TIP3    H113518   4.405   5.739   0.665
 4518TIP3    H213519   4.396   5.864   0.750
 4519TIP3   OH213520   1.382   4.127   4.996
 4519TIP3    H113521   1.377   4.198   5.060
 4519TIP3    H213522   1.459   4.150   4.943
 4520TIP3   OH213523   0.596   6.005   0.912
 4520TIP3    H113524   0.685   5.978   0.890
 4520TIP3    H213525   0.540   5.953   0.854
 4521TIP3   OH213526   3.130   6.738   2.597
 4521TIP3    H113527   3.071   6.712   2.526
 4521TIP3    H213528   3.116   6.832   2.607
 4522TIP3   OH213529   4.227   3.950   3.926
 4522TIP3    H113530   4.323   3.955   3.929
 4522TIP3    H213531   4.198   4.018   3.987
 4523TIP3   OH213532   4.143   4.844   4.709
 4523TIP3    H113533   4.232   4.833   4.676
 4523TIP3    H213534   4.098   4.763   4.683
 4524TIP3   OH213535   5.515   1.605   1.692
 4524TIP3    H113536   5.471   1.672   1.745
 4524TIP3    H213537   5.536   1.535   1.754
 4525TIP3   OH213538   1.599   2.589   5.170
 4525TIP3    H113539   1.510   2.565   5.195
 4525TIP3    H213540   1.610   2.553   5.082
 4526TIP3   OH213541   7.032   6.480   1.611
 4526TIP3    H113542   6.992   6.563   1.637
 4526TIP3    H213543   6.958   6.420   1.599
 4527TIP3   OH213544   0.099   1.892   0.723
 4527TIP3    H113545   0.096   1.983   0.752
 4527TIP3    H213546   0.183   1.884   0.678
 4528TIP3   OH213547   4.832   5.050   3.826
 4528TIP3    H113548   4.881   4.969   3.813
 4528TIP3    H213549   4.898   5.113   3.856
 4529TIP3   OH213550   5.327   0.812   1.647
 4529TIP3    H113551   5.401   0.843   1.596
 4529TIP3    H213552   5.365   0.781   1.729
 4530TIP3   OH213553   5.371   2.816   4.362
 4530TIP3    H113554   5.377   2.892   4.304
 4530TIP3    H213555   5.444   2.828   4.424
 4531TIP3   OH213556   3.835   3.093   1.667
 4531TIP3    H113557   3.832   2.999   1.684
 4531TIP3    H213558   3.927   3.111   1.648
 4532TIP3   OH213559   1.667   4.744   3.512
 4532TIP3    H113560   1.679   4.781   3.425
 4532TIP3    H213561   1.720   4.664   3.511
 4533TIP3   OH213562   2.492   1.985   0.139
 4533TIP3    H113563   2.480   1.950   0.227
 4533TIP3    H213564   2.412   1.960   0.092
 4534TIP3   OH213565   1.303   1.382   2.259
 4534TIP3    H113566   1.370   1.390   2.191
 4534TIP3    H213567   1.302   1.288   2.280
 4535TIP3   OH213568   2.772   4.207   1.564
 4535TIP3    H113569   2.688   4.171   1.591
 4535TIP3    H213570   2.766   4.215   1.469
 4536TIP3   OH213571   2.560   5.509   3.449
 4536TIP3    H113572   2.498   5.512   3.522
 4536TIP3    H213573   2.585   5.601   3.436
 4537TIP3   OH213574   4.621   3.108   5.082
 4537TIP3    H113575   4.578   3.033   5.040
 4537TIP3    H213576   4.715   3.091   5.072
 4538TIP3   OH213577   4.101   4.916   2.688
 4538TIP3    H113578   4.067   4.946   2.603
 4538TIP3    H213579   4.136   4.995   2.729
 4539TIP3   OH213580   3.260   1.770   0.571
 4539TIP3    H113581   3.318   1.832   0.616
 4539TIP3    H213582   3.223   1.716   0.641
 4540TIP3   OH213583   1.591   0.654   5.214
 4540TIP3    H113584   1.603   0.607   5.131
 4540TIP3    H213585   1.544   0.733   5.190
 4541TIP3   OH213586   0.956   2.946   0.953
 4541TIP3    H113587   0.908   2.901   0.884
 4541TIP3    H213588   0.918   3.033   0.957
 4542TIP3   OH213589   6.503   6.292   0.396
 4542TIP3    H113590   6.444   6.278   0.323
 4542TIP3    H213591   6.521   6.204   0.431
 4543TIP3   OH213592   1.504   6.629   0.924
 4543TIP3    H113593   1.563   6.564   0.963
 4543TIP3    H213594   1.556   6.709   0.920
 4544TIP3   OH213595   2.362   3.904   4.490
 4544TIP3    H113596   2.318   3.928   4.409
 4544TIP3    H213597   2.382   3.988   4.532
 4545TIP3   OH213598   3.180   2.082   1.393
 4545TIP3    H113599   3.256   2.062   1.447
 4545TIP3    H213600   3.128   2.002   1.394
 4546TIP3   OH213601   7.272   2.770   5.372
 4546TIP3    H113602   7.178   2.787   5.381
 4546TIP3    H213603   7.281   2.737   5.283
 4547TIP3   OH213604   1.866   2.862   2.967
 4547TIP3    H113605   1.903   2.777   2.941
 4547TIP3    H213606   1.781   2.865   2.923
 4548TIP3   OH213607   2.779   2.203   5.772
 4548TIP3    H113608   2.742   2.211   5.684
 4548TIP3    H213609   2.802   2.110   5.779
 4549TIP3   OH213610   1.729   4.072   0.252
 4549TIP3    H113611   1.666   4.094   0.320
 4549TIP3    H213612   1.765   3.987   0.279
 4550TIP3   OH213613   6.662   3.060   1.752
 4550TIP3    H113614   6.599   3.036   1.820
 4550TIP3    H213615   6.633   3.146   1.721
 4551TIP3   OH213616   2.540   6.619   0.763
 4551TIP3    H113617   2.544   6.540   0.710
 4551TIP3    H213618   2.609   6.608   0.829
 4552TIP3   OH213619   2.137   5.821   5.485
 4552TIP3    H113620   2.218   5.801   5.438
 4552TIP3    H213621   2.141   5.915   5.501
 4553TIP3   OH213622   2.683   4.595   1.302
 4553TIP3    H113623   2.725   4.570   1.384
 4553TIP3    H213624   2.700   4.688   1.292
 4554TIP3   OH213625   5.474   4.990   3.374
 4554TIP3    H113626   5.500   4.986   3.466
 4554TIP3    H213627   5.502   5.077   3.345
 4555TIP3   OH213628   1.618   6.390   3.793
 4555TIP3    H113629   1.618   6.295   3.805
 4555TIP3    H213630   1.525   6.414   3.790
 4556TIP3   OH213631   3.792   2.681   2.838
 4556TIP3    H113632   3.744   2.687   2.755
 4556TIP3    H213633   3.830   2.768   2.850
 4557TIP3   OH213634   6.340   1.595   0.571
 4557TIP3    H113635   6.316   1.512   0.530
 4557TIP3    H213636   6.431   1.610   0.543
 4558TIP3   OH213637   2.095   0.148   1.758
 4558TIP3    H113638   2.026   0.211   1.779
 4558TIP3    H213639   2.101   0.091   1.835
 4559TIP3   OH213640   0.253   6.235   4.678
 4559TIP3    H113641   0.320   6.303   4.672
 4559TIP3    H213642   0.300   6.154   4.659
 4560TIP3   OH213643   7.094   5.912   5.229
 4560TIP3    H113644   7.125   5.999   5.204
 4560TIP3    H213645   7.126   5.900   5.318
 4561TIP3   OH213646   2.461  -0.056   0.854
 4561TIP3    H113647   2.431   0.014   0.911
 4561TIP3    H213648   2.429  -0.032   0.767
 4562TIP3   OH213649   0.006   0.605   5.731
 4562TIP3    H113650   0.057   0.525   5.714
 4562TIP3    H213651   0.064   0.676   5.704
 4563TIP3   OH213652   6.929   1.968   2.335
 4563TIP3    H113653   6.913   1.917   2.415
 4563TIP3    H213654   7.002   1.923   2.292
 4564TIP3   OH213655   4.019   6.126   3.720
 4564TIP3    H113656   3.961   6.099   3.648
 4564TIP3    H213657   3.960   6.138   3.795
 4565TIP3   OH213658   4.499   6.732   1.127
 4565TIP3    H113659   4.413   6.716   1.165
 4565TIP3    H213660   4.556   6.748   1.203
 4566TIP3   OH213661   6.581   6.316   1.162
 4566TIP3    H113662   6.546   6.228   1.172
 4566TIP3    H213663   6.652   6.307   1.098
 4567TIP3   OH213664   2.862   6.464   0.387
 4567TIP3    H113665   2.807   6.502   0.455
 4567TIP3    H213666   2.914   6.537   0.354
 4568TIP3   OH213667   1.978   4.320   4.232
 4568TIP3    H113668   2.071   4.340   4.247
 4568TIP3    H213669   1.948   4.389   4.172
 4569TIP3   OH213670   6.047   3.815   1.801
 4569TIP3    H113671   6.128   3.865   1.810
 4569TIP3    H213672   6.077   3.724   1.797
 4570TIP3   OH213673   6.774   2.079   3.730
 4570TIP3    H113674   6.816   2.059   3.646
 4570TIP3    H213675   6.697   2.023   3.732
 4571TIP3   OH213676   0.005   4.084   1.227
 4571TIP3    H113677   0.053   4.030   1.291
 4571TIP3    H213678  -0.064   4.125   1.278
 4572TIP3   OH213679   7.232   1.648   3.706
 4572TIP3    H113680   7.153   1.696   3.682
 4572TIP3    H213681   7.201   1.571   3.754
 4573TIP3   OH213682   2.778   4.566   4.519
 4573TIP3    H113683   2.791   4.653   4.557
 4573TIP3    H213684   2.794   4.505   4.591
 4574TIP3   OH213685   2.389   0.820   3.953
 4574TIP3    H113686   2.298   0.847   3.940
 4574TIP3    H213687   2.427   0.821   3.866
 4575TIP3   OH213688   0.557   3.221   5.323
 4575TIP3    H113689   0.503   3.174   5.260
 4575TIP3    H213690   0.501   3.231   5.400
 4576TIP3   OH213691   1.172   4.043   0.592
 4576TIP3    H113692   1.262   4.033   0.623
 4576TIP3    H213693   1.123   4.075   0.668
 4577TIP3   OH213694   7.252   0.685   1.012
 4577TIP3    H113695   7.193   0.739   0.958
 4577TIP3    H213696   7.198   0.658   1.087
 4578TIP3   OH213697   0.562   1.997   5.621
 4578TIP3    H113698   0.620   2.028   5.690
 4578TIP3    H213699   0.591   2.043   5.543
 4579TIP3   OH213700   1.410   2.183   2.729
 4579TIP3    H113701   1.414   2.194   2.634
 4579TIP3    H213702   1.316   2.189   2.749
 4580TIP3   OH213703   6.760   5.155   2.391
 4580TIP3    H113704   6.798   5.190   2.472
 4580TIP3    H213705   6.698   5.088   2.421
 4581TIP3   OH213706   4.617   1.419   2.907
 4581TIP3    H113707   4.631   1.513   2.895
 4581TIP3    H213708   4.610   1.408   3.002
 4582TIP3   OH213709   4.890   0.647   2.560
 4582TIP3    H113710   4.878   0.667   2.652
 4582TIP3    H213711   4.937   0.563   2.559
 4583TIP3   OH213712   0.965   2.030   1.924
 4583TIP3    H113713   0.984   2.121   1.947
 4583TIP3    H213714   0.945   2.032   1.831
 4584TIP3   OH213715   5.618   5.062   1.706
 4584TIP3    H113716   5.634   4.975   1.742
 4584TIP3    H213717   5.540   5.093   1.752
 4585TIP3   OH213718   2.342   0.188   5.621
 4585TIP3    H113719   2.419   0.236   5.592
 4585TIP3    H213720   2.360   0.165   5.712
 4586TIP3   OH213721   0.193   6.068   4.047
 4586TIP3    H113722   0.142   6.083   4.127
 4586TIP3    H213723   0.148   5.996   4.003
 4587TIP3   OH213724   1.577   3.051   0.756
 4587TIP3    H113725   1.627   3.102   0.692
 4587TIP3    H213726   1.543   3.116   0.817
 4588TIP3   OH213727   3.688   5.782   3.708
 4588TIP3    H113728   3.668   5.735   3.627
 4588TIP3    H213729   3.737   5.859   3.679
 4589TIP3   OH213730   2.685   2.380   3.404
 4589TIP3    H113731   2.674   2.464   3.448
 4589TIP3    H213732   2.763   2.393   3.349
 4590TIP3   OH213733   3.403   3.261   1.350
 4590TIP3    H113734   3.486   3.257   1.399
 4590TIP3    H213735   3.429   3.280   1.260
 4591TIP3   OH213736   4.713   1.131   0.559
 4591TIP3    H113737   4.703   1.100   0.650
 4591TIP3    H213738   4.721   1.051   0.507
 4592TIP3   OH213739   2.039   2.615   0.062
 4592TIP3    H113740   2.056   2.538   0.007
 4592TIP3    H213741   1.947   2.635   0.045
 4593TIP3   OH213742   4.949   2.424   2.776
 4593TIP3    H113743   4.879   2.473   2.820
 4593TIP3    H213744   4.903   2.367   2.714
 4594TIP3   OH213745   2.237   3.669   3.718
 4594TIP3    H113746   2.246   3.637   3.628
 4594TIP3    H213747   2.144   3.688   3.727
 4595TIP3   OH213748   0.608   2.296   1.949
 4595TIP3    H113749   0.613   2.373   2.005
 4595TIP3    H213750   0.643   2.225   2.002
 4596TIP3   OH213751   4.882   3.167   4.698
 4596TIP3    H113752   4.797   3.128   4.683
 4596TIP3    H213753   4.943   3.112   4.648
 4597TIP3   OH213754   6.684   6.678   5.718
 4597TIP3    H113755   6.767   6.635   5.693
 4597TIP3    H213756   6.687   6.683   5.813
 4598TIP3   OH213757   2.325   5.162   0.295
 4598TIP3    H113758   2.264   5.091   0.315
 4598TIP3    H213759   2.281   5.241   0.327
 4599TIP3   OH213760   1.440   0.614   4.784
 4599TIP3    H113761   1.487   0.542   4.742
 4599TIP3    H213762   1.357   0.618   4.738
 4600TIP3   OH213763   3.851   5.730   4.235
 4600TIP3    H113764   3.945   5.746   4.231
 4600TIP3    H213765   3.842   5.639   4.262
 4601TIP3   OH213766   3.989   2.160   3.155
 4601TIP3    H113767   3.936   2.109   3.216
 4601TIP3    H213768   4.057   2.200   3.209
 4602TIP3   OH213769   5.585   5.340   5.235
 4602TIP3    H113770   5.653   5.281   5.267
 4602TIP3    H213771   5.577   5.407   5.303
 4603TIP3   OH213772   4.488   6.541   0.680
 4603TIP3    H113773   4.441   6.470   0.725
 4603TIP3    H213774   4.488   6.613   0.743
 4604TIP3   OH213775   3.640   3.747   0.982
 4604TIP3    H113776   3.599   3.825   0.943
 4604TIP3    H213777   3.705   3.782   1.043
 4605TIP3   OH213778   2.914   1.156   4.790
 4605TIP3    H113779   2.846   1.198   4.843
 4605TIP3    H213780   2.950   1.088   4.846
 4606TIP3   OH213781   2.158   0.737   3.552
 4606TIP3    H113782   2.153   0.656   3.603
 4606TIP3    H213783   2.090   0.793   3.589
 4607TIP3   OH213784   2.481   3.919   1.392
 4607TIP3    H113785   2.475   4.014   1.400
 4607TIP3    H213786   2.561   3.904   1.342
 4608TIP3   OH213787   6.912   3.032   1.009
 4608TIP3    H113788   6.861   2.975   1.065
 4608TIP3    H213789   7.003   3.012   1.030
 4609TIP3   OH213790   1.079   3.970   0.296
 4609TIP3    H113791   1.145   3.989   0.230
 4609TIP3    H213792   1.119   3.998   0.378
 4610TIP3   OH213793   1.400   1.905   0.485
 4610TIP3    H113794   1.353   1.822   0.488
 4610TIP3    H213795   1.341   1.964   0.437
 4611TIP3   OH213796   1.898   2.830   4.605
 4611TIP3    H113797   1.990   2.848   4.591
 4611TIP3    H213798   1.896   2.740   4.639
 4612TIP3   OH213799   5.870   6.315   2.176
 4612TIP3    H113800   5.900   6.379   2.241
 4612TIP3    H213801   5.948   6.295   2.125
 4613TIP3   OH213802   3.663   2.798   4.280
 4613TIP3    H113803   3.582   2.806   4.231
 4613TIP3    H213804   3.706   2.720   4.243
 4614TIP3   OH213805   1.000   5.181   3.674
 4614TIP3    H113806   0.956   5.119   3.616
 4614TIP3    H213807   1.064   5.225   3.618
 4615TIP3   OH213808   1.849   4.129   1.102
 4615TIP3    H113809   1.845   4.194   1.173
 4615TIP3    H213810   1.906   4.169   1.036
 4616TIP3   OH213811   5.180   3.426   1.140
 4616TIP3    H113812   5.192   3.363   1.210
 4616TIP3    H213813   5.113   3.486   1.173
 4617TIP3   OH213814   6.392   3.769   3.531
 4617TIP3    H113815   6.326   3.757   3.463
 4617TIP3    H213816   6.436   3.850   3.509
 4618TIP3   OH213817   0.731   1.725   3.857
 4618TIP3    H113818   0.760   1.697   3.770
 4618TIP3    H213819   0.801   1.697   3.916
 4619TIP3   OH213820   5.777   0.959   3.253
 4619TIP3    H113821   5.737   0.903   3.186
 4619TIP3    H213822   5.849   1.003   3.207
 4620TIP3   OH213823   7.066   3.715   2.625
 4620TIP3    H113824   7.104   3.637   2.663
 4620TIP3    H213825   7.022   3.685   2.545
 4621TIP3   OH213826   5.803   2.021   1.256
 4621TIP3    H113827   5.867   2.035   1.187
 4621TIP3    H213828   5.837   2.071   1.330
 4622TIP3   OH213829   0.082   3.768   1.945
 4622TIP3    H113830   0.133   3.819   2.008
 4622TIP3    H213831   0.065   3.685   1.989
 4623TIP3   OH213832   2.097   5.310   3.296
 4623TIP3    H113833   2.134   5.350   3.374
 4623TIP3    H213834   2.172   5.287   3.242
 4624TIP3   OH213835   6.334   2.333   4.810
 4624TIP3    H113836   6.257   2.291   4.849
 4624TIP3    H213837   6.377   2.378   4.883
 4625TIP3   OH213838   4.958   0.110   3.025
 4625TIP3    H113839   5.034   0.147   2.979
 4625TIP3    H213840   4.904   0.073   2.956
 4626TIP3   OH213841   2.345   1.461   4.906
 4626TIP3    H113842   2.399   1.492   4.833
 4626TIP3    H213843   2.263   1.434   4.865
 4627TIP3   OH213844   7.004   0.264   2.019
 4627TIP3    H113845   7.046   0.222   2.094
 4627TIP3    H213846   6.918   0.221   2.013
 4628TIP3   OH213847   1.220   5.428   2.640
 4628TIP3    H113848   1.291   5.439   2.576
 4628TIP3    H213849   1.159   5.367   2.598
 4629TIP3   OH213850   4.280   1.571   2.558
 4629TIP3    H113851   4.273   1.665   2.574
 4629TIP3    H213852   4.202   1.534   2.599
 4630TIP3   OH213853   1.242   6.161   4.512
 4630TIP3    H113854   1.199   6.208   4.441
 4630TIP3    H213855   1.328   6.138   4.478
 4631TIP3   OH213856   7.044   6.157   4.445
 4631TIP3    H113857   7.031   6.063   4.435
 4631TIP3    H213858   6.972   6.185   4.502
 4632TIP3   OH213859   3.009   2.916   1.903
 4632TIP3    H113860   2.953   2.850   1.945
 4632TIP3    H213861   3.015   2.987   1.967
 4633TIP3   OH213862   2.749   6.084   2.456
 4633TIP3    H113863   2.721   6.169   2.492
 4633TIP3    H213864   2.741   6.023   2.529
 4634TIP3   OH213865   3.979   0.805   5.122
 4634TIP3    H113866   4.071   0.814   5.099
 4634TIP3    H213867   3.941   0.752   5.051
 4635TIP3   OH213868   4.970   3.618   2.302
 4635TIP3    H113869   5.043   3.564   2.333
 4635TIP3    H213870   4.942   3.667   2.380
 4636TIP3   OH213871   1.035   3.279   2.422
 4636TIP3    H113872   1.018   3.291   2.328
 4636TIP3    H213873   0.950   3.256   2.459
 4637TIP3   OH213874   4.181   5.068   4.866
 4637TIP3    H113875   4.181   5.157   4.832
 4637TIP3    H213876   4.160   5.013   4.790
 4638TIP3   OH213877   2.756   6.549   2.490
 4638TIP3    H113878   2.735   6.641   2.472
 4638TIP3    H213879   2.677   6.501   2.465
 4639TIP3   OH213880   2.963   6.807   1.313
 4639TIP3    H113881   2.988   6.865   1.241
 4639TIP3    H213882   2.954   6.721   1.272
 4640TIP3   OH213883   6.607   1.551   5.024
 4640TIP3    H113884   6.648   1.503   4.952
 4640TIP3    H213885   6.551   1.486   5.068
 4641TIP3   OH213886   4.261   4.188   3.732
 4641TIP3    H113887   4.182   4.201   3.679
 4641TIP3    H213888   4.264   4.093   3.747
 4642TIP3   OH213889   0.296   2.991   0.685
 4642TIP3    H113890   0.317   3.077   0.721
 4642TIP3    H213891   0.337   2.929   0.746
 4643TIP3   OH213892   7.083   5.996   2.549
 4643TIP3    H113893   7.046   5.963   2.631
 4643TIP3    H213894   7.043   5.942   2.481
 4644TIP3   OH213895   4.101   2.086   4.638
 4644TIP3    H113896   4.025   2.082   4.580
 4644TIP3    H213897   4.104   2.177   4.667
 4645TIP3   OH213898   3.312   6.641   0.101
 4645TIP3    H113899   3.314   6.576   0.030
 4645TIP3    H213900   3.398   6.633   0.142
 4646TIP3   OH213901   0.273   3.112   2.517
 4646TIP3    H113902   0.294   3.072   2.602
 4646TIP3    H213903   0.341   3.079   2.458
 4647TIP3   OH213904   0.248   0.661   3.187
 4647TIP3    H113905   0.191   0.674   3.263
 4647TIP3    H213906   0.292   0.745   3.175
 4648TIP3   OH213907   1.727   1.750   2.548
 4648TIP3    H113908   1.672   1.710   2.481
 4648TIP3    H213909   1.733   1.684   2.617
 4649TIP3   OH213910   1.180   0.730   2.002
 4649TIP3    H113911   1.159   0.665   2.069
 4649TIP3    H213912   1.253   0.692   1.954
 4650TIP3   OH213913   6.359   0.280   1.178
 4650TIP3    H113914   6.396   0.361   1.215
 4650TIP3    H213915   6.436   0.225   1.160
 4651TIP3   OH213916   4.165   2.769   3.052
 4651TIP3    H113917   4.211   2.690   3.079
 4651TIP3    H213918   4.233   2.826   3.016
 4652TIP3   OH213919   0.067   4.820   2.899
 4652TIP3    H113920   0.014   4.890   2.937
 4652TIP3    H213921   0.006   4.767   2.848
 4653TIP3   OH213922   1.973   4.392   0.478
 4653TIP3    H113923   1.901   4.329   0.479
 4653TIP3    H213924   2.045   4.344   0.436
 4654TIP3   OH213925   3.337   5.744   1.605
 4654TIP3    H113926   3.329   5.650   1.588
 4654TIP3    H213927   3.305   5.755   1.695
 4655TIP3   OH213928   4.364   3.514   2.937
 4655TIP3    H113929   4.351   3.479   3.025
 4655TIP3    H213930   4.368   3.437   2.881
 4656TIP3   OH213931   1.360   0.455   2.061
 4656TIP3    H113932   1.424   0.514   2.020
 4656TIP3    H213933   1.400   0.368   2.054
 4657TIP3   OH213934   4.278   1.357   5.211
 4657TIP3    H113935   4.323   1.423   5.264
 4657TIP3    H213936   4.299   1.274   5.253
 4658TIP3   OH213937   1.533   4.397   4.616
 4658TIP3    H113938   1.490   4.344   4.549
 4658TIP3    H213939   1.602   4.444   4.569
 4659TIP3   OH213940   3.725   6.802   3.108
 4659TIP3    H113941   3.646   6.853   3.091
 4659TIP3    H213942   3.795   6.853   3.067
 4660TIP3   OH213943   5.773   3.223   0.956
 4660TIP3    H113944   5.780   3.131   0.984
 4660TIP3    H213945   5.726   3.266   1.028
 4661TIP3   OH213946   6.875   2.731   1.968
 4661TIP3    H113947   6.894   2.779   1.887
 4661TIP3    H213948   6.833   2.650   1.939
 4662TIP3   OH213949   4.280   0.468   1.551
 4662TIP3    H113950   4.205   0.527   1.544
 4662TIP3    H213951   4.322   0.473   1.465
 4663TIP3   OH213952   1.734   1.007   3.582
 4663TIP3    H113953   1.680   0.933   3.554
 4663TIP3    H213954   1.692   1.038   3.662
 4664TIP3   OH213955   3.752   3.983   0.207
 4664TIP3    H113956   3.816   4.045   0.171
 4664TIP3    H213957   3.794   3.948   0.285
 4665TIP3   OH213958   0.105   4.704   4.803
 4665TIP3    H113959   0.012   4.725   4.791
 4665TIP3    H213960   0.145   4.719   4.717
 4666TIP3   OH213961   4.075   5.594   1.798
 4666TIP3    H113962   4.100   5.508   1.764
 4666TIP3    H213963   4.158   5.633   1.827
 4667TIP3   OH213964   0.197   0.375   0.569
 4667TIP3    H113965   0.149   0.309   0.519
 4667TIP3    H213966   0.132   0.410   0.630
 4668TIP3   OH213967   4.047   3.437   3.622
 4668TIP3    H113968   4.032   3.476   3.709
 4668TIP3    H213969   3.960   3.421   3.588
 4669TIP3   OH213970   6.399   5.772   2.660
 4669TIP3    H113971   6.367   5.855   2.694
 4669TIP3    H213972   6.469   5.746   2.720
 4670TIP3   OH213973   0.497   0.875   0.898
 4670TIP3    H113974   0.529   0.958   0.932
 4670TIP3    H213975   0.417   0.858   0.948
 4671TIP3   OH213976   3.250   6.701   4.279
 4671TIP3    H113977   3.332   6.737   4.311
 4671TIP3    H213978   3.199   6.777   4.253
 4672TIP3   OH213979   6.829   2.539   4.260
 4672TIP3    H113980   6.887   2.555   4.335
 4672TIP3    H213981   6.889   2.520   4.188
 4673TIP3   OH213982   2.038   0.187   3.953
 4673TIP3    H113983   2.114   0.162   4.006
 4673TIP3    H213984   2.058   0.152   3.866
 4674TIP3   OH213985   5.306   3.609   0.989
 4674TIP3    H113986   5.223   3.656   0.996
 4674TIP3    H213987   5.288   3.524   1.029
 4675TIP3   OH213988   1.631   6.821   2.151
 4675TIP3    H113989   1.577   6.847   2.225
 4675TIP3    H213990   1.655   6.903   2.108
 4676TIP3   OH213991   6.324   0.127   2.185
 4676TIP3    H113992   6.291   0.167   2.265
 4676TIP3    H213993   6.392   0.186   2.155
 4677TIP3   OH213994   6.158   1.870   3.058
 4677TIP3    H113995   6.191   1.890   2.970
 4677TIP3    H213996   6.234   1.834   3.104
 4678TIP3   OH213997   3.189   1.539   0.715
 4678TIP3    H113998   3.225   1.520   0.802
 4678TIP3    H213999   3.196   1.455   0.668
 4679TIP3   OH214000   1.969   1.627   1.836
 4679TIP3    H114001   1.953   1.539   1.872
 4679TIP3    H214002   2.064   1.633   1.831
 4680TIP3   OH214003   3.911   4.617   2.423
 4680TIP3    H114004   4.004   4.618   2.399
 4680TIP3    H214005   3.911   4.621   2.518
 4681TIP3   OH214006   3.620   6.399   4.069
 4681TIP3    H114007   3.612   6.399   4.164
 4681TIP3    H214008   3.542   6.445   4.038
 4682TIP3   OH214009   6.200   1.525   2.968
 4682TIP3    H114010   6.237   1.589   2.907
 4682TIP3    H214011   6.123   1.491   2.923
 4683TIP3   OH214012   4.584   1.049   5.376
 4683TIP3    H114013   4.519   0.999   5.327
 4683TIP3    H214014   4.588   1.007   5.462
 4684TIP3   OH214015   0.761   3.418   2.465
 4684TIP3    H114016   0.666   3.413   2.470
 4684TIP3    H214017   0.790   3.410   2.556
 4685TIP3   OH214018   6.707   5.745   3.213
 4685TIP3    H114019   6.675   5.796   3.287
 4685TIP3    H214020   6.688   5.654   3.237
 4686TIP3   OH214021   1.899   6.743   0.114
 4686TIP3    H114022   1.994   6.753   0.109
 4686TIP3    H214023   1.866   6.782   0.033
 4687TIP3   OH214024   4.509   6.317   2.447
 4687TIP3    H114025   4.428   6.360   2.474
 4687TIP3    H214026   4.548   6.286   2.529
 4688TIP3   OH214027   5.783   5.948   0.501
 4688TIP3    H114028   5.794   5.870   0.447
 4688TIP3    H214029   5.692   5.943   0.532
 4689TIP3   OH214030   0.568   4.075   2.603
 4689TIP3    H114031   0.515   4.054   2.679
 4689TIP3    H214032   0.613   3.994   2.580
 4690TIP3   OH214033   1.833   4.391   2.324
 4690TIP3    H114034   1.826   4.298   2.347
 4690TIP3    H214035   1.773   4.435   2.383
 4691TIP3   OH214036   2.912   3.313   1.630
 4691TIP3    H114037   2.899   3.299   1.536
 4691TIP3    H214038   2.984   3.255   1.654
 4692TIP3   OH214039   2.631   6.633   1.215
 4692TIP3    H114040   2.603   6.561   1.158
 4692TIP3    H214041   2.727   6.624   1.218
 4693TIP3   OH214042   2.428   6.754   1.415
 4693TIP3    H114043   2.505   6.697   1.410
 4693TIP3    H214044   2.367   6.717   1.351
 4694TIP3   OH214045   6.526   5.063   5.179
 4694TIP3    H114046   6.591   5.124   5.145
 4694TIP3    H214047   6.470   5.043   5.105
 4695TIP3   OH214048   6.254   3.509   4.559
 4695TIP3    H114049   6.229   3.440   4.620
 4695TIP3    H214050   6.325   3.472   4.506
 4696TIP3   OH214051   6.135   3.335   5.785
 4696TIP3    H114052   6.112   3.426   5.807
 4696TIP3    H214053   6.127   3.331   5.690
 4697TIP3   OH214054   3.826   4.195   2.265
 4697TIP3    H114055   3.860   4.233   2.346
 4697TIP3    H214056   3.841   4.263   2.198
 4698TIP3   OH214057   3.064   3.769   4.900
 4698TIP3    H114058   3.078   3.685   4.857
 4698TIP3    H214059   3.147   3.788   4.944
 4699TIP3   OH214060   0.738   0.440   1.742
 4699TIP3    H114061   0.679   0.439   1.818
 4699TIP3    H214062   0.824   0.417   1.778
 4700TIP3   OH214063   6.034   3.554   1.063
 4700TIP3    H114064   6.007   3.530   0.975
 4700TIP3    H214065   5.954   3.547   1.115
 4701TIP3   OH214066   2.682   4.755   1.720
 4701TIP3    H114067   2.645   4.769   1.807
 4701TIP3    H214068   2.674   4.661   1.705
 4702TIP3   OH214069   2.174   2.779   2.910
 4702TIP3    H114070   2.169   2.811   3.000
 4702TIP3    H214071   2.170   2.683   2.918
 4703TIP3   OH214072   2.872   5.415   3.238
 4703TIP3    H114073   2.849   5.419   3.145
 4703TIP3    H214074   2.884   5.322   3.255
 4704TIP3   OH214075   2.652   2.494   1.988
 4704TIP3    H114076   2.592   2.448   2.048
 4704TIP3    H214077   2.594   2.530   1.920
 4705TIP3   OH214078   2.607   6.381   3.057
 4705TIP3    H114079   2.561   6.409   3.136
 4705TIP3    H214080   2.689   6.430   3.059
 4706TIP3   OH214081   3.479   3.857   5.795
 4706TIP3    H114082   3.484   3.764   5.817
 4706TIP3    H214083   3.532   3.900   5.862
 4707TIP3   OH214084   3.242   1.473   2.736
 4707TIP3    H114085   3.227   1.520   2.817
 4707TIP3    H214086   3.155   1.463   2.697
 4708TIP3   OH214087   7.202   2.451   3.307
 4708TIP3    H114088   7.253   2.448   3.388
 4708TIP3    H214089   7.167   2.363   3.297
 4709TIP3   OH214090   2.526   2.343   0.590
 4709TIP3    H114091   2.500   2.340   0.497
 4709TIP3    H214092   2.459   2.397   0.631
 4710TIP3   OH214093   2.941   6.426   5.256
 4710TIP3    H114094   2.898   6.502   5.217
 4710TIP3    H214095   3.027   6.423   5.213
 4711TIP3   OH214096   4.927   5.404   4.229
 4711TIP3    H114097   4.848   5.409   4.282
 4711TIP3    H214098   4.999   5.405   4.292
 4712TIP3   OH214099   3.527   5.456   3.156
 4712TIP3    H114100   3.432   5.462   3.162
 4712TIP3    H214101   3.551   5.383   3.213
 4713TIP3   OH214102   6.654   6.095   2.743
 4713TIP3    H114103   6.655   6.152   2.666
 4713TIP3    H214104   6.743   6.058   2.747
 4714TIP3   OH214105   5.037   2.161   0.190
 4714TIP3    H114106   5.018   2.163   0.096
 4714TIP3    H214107   5.082   2.244   0.207
 4715TIP3   OH214108   1.083   3.091   1.455
 4715TIP3    H114109   1.066   3.061   1.366
 4715TIP3    H214110   1.162   3.144   1.448
 4716TIP3   OH214111   6.451   5.325   3.320
 4716TIP3    H114112   6.425   5.248   3.370
 4716TIP3    H214113   6.375   5.345   3.265
 4717TIP3   OH214114   4.140   6.305   3.347
 4717TIP3    H114115   4.121   6.213   3.366
 4717TIP3    H214116   4.079   6.329   3.277
 4718TIP3   OH214117   4.795   4.467   5.531
 4718TIP3    H114118   4.786   4.559   5.554
 4718TIP3    H214119   4.766   4.419   5.609
 4719TIP3   OH214120   0.737   0.450   3.150
 4719TIP3    H114121   0.712   0.402   3.229
 4719TIP3    H214122   0.729   0.542   3.174
 4720TIP3   OH214123   3.268   1.255   5.677
 4720TIP3    H114124   3.271   1.244   5.772
 4720TIP3    H214125   3.352   1.221   5.645
 4721TIP3   OH214126   4.175   3.230   0.920
 4721TIP3    H114127   4.170   3.152   0.865
 4721TIP3    H214128   4.229   3.203   0.994
 4722TIP3   OH214129   0.050   0.167   0.472
 4722TIP3    H114130   0.077   0.076   0.461
 4722TIP3    H214131  -0.041   0.169   0.441
 4723TIP3   OH214132   5.623   0.998   2.559
 4723TIP3    H114133   5.711   1.033   2.576
 4723TIP3    H214134   5.631   0.954   2.475
 4724TIP3   OH214135   3.554   2.758   5.124
 4724TIP3    H114136   3.643   2.781   5.154
 4724TIP3    H214137   3.504   2.747   5.205
 4725TIP3   OH214138   5.824   1.618   3.652
 4725TIP3    H114139   5.808   1.616   3.558
 4725TIP3    H214140   5.740   1.592   3.691
 4726TIP3   OH214141   0.555   1.546   5.394
 4726TIP3    H114142   0.499   1.576   5.322
 4726TIP3    H214143   0.503   1.480   5.439
 4727TIP3   OH214144   4.489   5.637   4.807
 4727TIP3    H114145   4.506   5.622   4.713
 4727TIP3    H214146   4.557   5.586   4.851
 4728TIP3   OH214147   6.130   0.146   0.527
 4728TIP3    H114148   6.202   0.083   0.519
 4728TIP3    H214149   6.051   0.095   0.505
 4729TIP3   OH214150   0.534   6.655   2.656
 4729TIP3    H114151   0.618   6.700   2.663
 4729TIP3    H214152   0.472   6.722   2.627
 4730TIP3   OH214153   4.757   2.495   1.048
 4730TIP3    H114154   4.709   2.448   1.117
 4730TIP3    H214155   4.824   2.434   1.019
 4731TIP3   OH214156   6.746   1.277   2.474
 4731TIP3    H114157   6.813   1.277   2.405
 4731TIP3    H214158   6.727   1.369   2.490
 4732TIP3   OH214159   0.286   3.620   4.023
 4732TIP3    H114160   0.281   3.714   4.044
 4732TIP3    H214161   0.342   3.616   3.946
 4733TIP3   OH214162   0.897   6.721   1.154
 4733TIP3    H114163   0.975   6.744   1.204
 4733TIP3    H214164   0.881   6.796   1.097
 4734TIP3   OH214165   0.100   4.078   4.499
 4734TIP3    H114166   0.097   4.032   4.583
 4734TIP3    H214167   0.026   4.043   4.450
 4735TIP3   OH214168   1.407   5.656   1.904
 4735TIP3    H114169   1.469   5.593   1.942
 4735TIP3    H214170   1.427   5.656   1.811
 4736TIP3   OH214171   4.618   6.798   1.394
 4736TIP3    H114172   4.607   6.707   1.423
 4736TIP3    H214173   4.693   6.830   1.443
 4737TIP3   OH214174   0.774   5.313   4.916
 4737TIP3    H114175   0.772   5.291   5.009
 4737TIP3    H214176   0.806   5.403   4.913
 4738TIP3   OH214177   6.071   0.293   5.403
 4738TIP3    H114178   6.100   0.218   5.352
 4738TIP3    H214179   6.056   0.258   5.491
 4739TIP3   OH214180   4.811   3.798   1.595
 4739TIP3    H114181   4.800   3.882   1.550
 4739TIP3    H214182   4.782   3.814   1.685
 4740TIP3   OH214183   5.998   6.563   4.095
 4740TIP3    H114184   6.073   6.513   4.062
 4740TIP3    H214185   5.942   6.497   4.135
 4741TIP3   OH214186   5.114   2.081   2.979
 4741TIP3    H114187   5.123   2.005   3.037
 4741TIP3    H214188   5.046   2.134   3.021
 4742TIP3   OH214189   4.802   5.228   4.695
 4742TIP3    H114190   4.846   5.228   4.610
 4742TIP3    H214191   4.776   5.137   4.708
 4743TIP3   OH214192   0.234   0.091   5.284
 4743TIP3    H114193   0.272   0.179   5.277
 4743TIP3    H214194   0.294   0.044   5.341
 4744TIP3   OH214195   3.555   4.321   2.040
 4744TIP3    H114196   3.563   4.330   2.135
 4744TIP3    H214197   3.478   4.265   2.027
 4745TIP3   OH214198   2.880   4.005   5.410
 4745TIP3    H114199   2.973   3.983   5.405
 4745TIP3    H214200   2.840   3.931   5.456
 4746TIP3   OH214201   5.549   3.666   0.214
 4746TIP3    H114202   5.504   3.740   0.175
 4746TIP3    H214203   5.641   3.679   0.192
 4747TIP3   OH214204   0.499   6.504   2.191
 4747TIP3    H114205   0.464   6.592   2.201
 4747TIP3    H214206   0.423   6.451   2.164
 4748TIP3   OH214207   4.365   1.020   2.356
 4748TIP3    H114208   4.295   1.086   2.349
 4748TIP3    H214209   4.333   0.946   2.305
 4749TIP3   OH214210   2.633   5.482   2.504
 4749TIP3    H114211   2.580   5.403   2.510
 4749TIP3    H214212   2.663   5.485   2.414
 4750TIP3   OH214213   2.501   3.656   2.109
 4750TIP3    H114214   2.437   3.591   2.081
 4750TIP3    H214215   2.544   3.684   2.028
 4751TIP3   OH214216   0.311   2.864   4.799
 4751TIP3    H114217   0.231   2.892   4.754
 4751TIP3    H214218   0.283   2.854   4.891
 4752TIP3   OH214219   4.677   2.662   2.617
 4752TIP3    H114220   4.594   2.638   2.659
 4752TIP3    H214221   4.686   2.600   2.545
 4753TIP3   OH214222   3.627   0.468   3.430
 4753TIP3    H114223   3.689   0.490   3.360
 4753TIP3    H214224   3.612   0.374   3.420
 4754TIP3   OH214225   3.689   6.437   2.264
 4754TIP3    H114226   3.782   6.442   2.284
 4754TIP3    H214227   3.676   6.499   2.193
 4755TIP3   OH214228   5.089   4.186   2.742
 4755TIP3    H114229   5.160   4.187   2.678
 4755TIP3    H214230   5.077   4.093   2.762
 4756TIP3   OH214231   1.277   3.095   1.673
 4756TIP3    H114232   1.311   3.184   1.667
 4756TIP3    H214233   1.187   3.102   1.642
 4757TIP3   OH214234   1.590   4.850   0.486
 4757TIP3    H114235   1.674   4.886   0.512
 4757TIP3    H214236   1.610   4.795   0.410
 4758TIP3   OH214237   4.927   0.869   0.454
 4758TIP3    H114238   4.970   0.793   0.493
 4758TIP3    H214239   4.933   0.854   0.359
 4759TIP3   OH214240   0.539   6.771   4.097
 4759TIP3    H114241   0.597   6.803   4.166
 4759TIP3    H214242   0.569   6.814   4.017
 4760TIP3   OH214243   1.963   1.853   4.350
 4760TIP3    H114244   1.916   1.932   4.377
 4760TIP3    H214245   2.040   1.851   4.407
 4761TIP3   OH214246   4.930   6.558   4.686
 4761TIP3    H114247   4.854   6.590   4.733
 4761TIP3    H214248   4.976   6.638   4.658
 4762TIP3   OH214249   3.887   0.173   1.543
 4762TIP3    H114250   3.821   0.202   1.605
 4762TIP3    H214251   3.839   0.156   1.462
 4763TIP3   OH214252   4.867   5.381   0.179
 4763TIP3    H114253   4.936   5.422   0.127
 4763TIP3    H214254   4.911   5.307   0.222
 4764TIP3   OH214255   5.530   3.038   1.105
 4764TIP3    H114256   5.605   3.009   1.053
 4764TIP3    H214257   5.453   3.015   1.053
 4765TIP3   OH214258   6.134   3.963   4.738
 4765TIP3    H114259   6.065   3.970   4.804
 4765TIP3    H214260   6.179   4.047   4.742
 4766TIP3   OH214261   6.217   4.468   3.757
 4766TIP3    H114262   6.138   4.449   3.809
 4766TIP3    H214263   6.194   4.546   3.707
 4767TIP3   OH214264   6.757   1.695   3.330
 4767TIP3    H114265   6.715   1.610   3.336
 4767TIP3    H214266   6.734   1.728   3.243
 4768TIP3   OH214267   4.588   6.760   1.965
 4768TIP3    H114268   4.608   6.703   2.040
 4768TIP3    H214269   4.506   6.724   1.929
 4769TIP3   OH214270   0.552   2.836   4.038
 4769TIP3    H114271   0.630   2.845   4.092
 4769TIP3    H214272   0.555   2.746   4.006
 4770TIP3   OH214273   0.747   4.498   4.269
 4770TIP3    H114274   0.708   4.532   4.349
 4770TIP3    H214275   0.841   4.511   4.281
 4771TIP3   OH214276   1.163   6.502   3.736
 4771TIP3    H114277   1.202   6.582   3.699
 4771TIP3    H214278   1.224   6.432   3.711
 4772TIP3   OH214279   5.658   1.405   1.172
 4772TIP3    H114280   5.689   1.496   1.170
 4772TIP3    H214281   5.616   1.396   1.258
 4773TIP3   OH214282   2.823   6.235   4.148
 4773TIP3    H114283   2.767   6.301   4.107
 4773TIP3    H214284   2.811   6.157   4.095
 4774TIP3   OH214285   1.630   3.954   3.192
 4774TIP3    H114286   1.612   3.897   3.266
 4774TIP3    H214287   1.607   3.901   3.115
 4775TIP3   OH214288   0.688   4.532   4.749
 4775TIP3    H114289   0.662   4.604   4.692
 4775TIP3    H214290   0.719   4.464   4.689
 4776TIP3   OH214291   1.607   6.638   5.786
 4776TIP3    H114292   1.569   6.624   5.873
 4776TIP3    H214293   1.667   6.712   5.798
 4777TIP3   OH214294   5.158   6.280   4.998
 4777TIP3    H114295   5.146   6.185   4.993
 4777TIP3    H214296   5.206   6.303   4.919
 4778TIP3   OH214297   1.303   2.706   1.125
 4778TIP3    H114298   1.356   2.717   1.047
 4778TIP3    H214299   1.217   2.741   1.101
 4779TIP3   OH214300   2.883   3.150   0.096
 4779TIP3    H114301   2.922   3.065   0.076
 4779TIP3    H214302   2.955   3.201   0.134
 4780TIP3   OH214303   1.537   1.316   5.521
 4780TIP3    H114304   1.550   1.397   5.571
 4780TIP3    H214305   1.612   1.262   5.545
 4781TIP3   OH214306   6.966   1.732   5.536
 4781TIP3    H114307   6.927   1.787   5.604
 4781TIP3    H214308   6.976   1.791   5.461
 4782TIP3   OH214309   0.682   1.209   3.950
 4782TIP3    H114310   0.664   1.116   3.935
 4782TIP3    H214311   0.746   1.232   3.884
 4783TIP3   OH214312   5.049   0.110   4.093
 4783TIP3    H114313   5.005   0.111   4.008
 4783TIP3    H214314   5.042   0.019   4.123
 4784TIP3   OH214315   0.264   2.546   3.603
 4784TIP3    H114316   0.196   2.592   3.652
 4784TIP3    H214317   0.243   2.453   3.614
 4785TIP3   OH214318   0.949   0.271   3.143
 4785TIP3    H114319   0.987   0.285   3.229
 4785TIP3    H214320   0.864   0.315   3.147
 4786TIP3   OH214321   2.641   1.134   3.337
 4786TIP3    H114322   2.704   1.112   3.405
 4786TIP3    H214323   2.559   1.150   3.385
 4787TIP3   OH214324   6.734   4.090   1.226
 4787TIP3    H114325   6.682   4.023   1.181
 4787TIP3    H214326   6.763   4.047   1.306
 4788TIP3   OH214327   3.407   6.672   2.619
 4788TIP3    H114328   3.394   6.623   2.700
 4788TIP3    H214329   3.319   6.698   2.592
 4789TIP3   OH214330   5.381   4.924   5.325
 4789TIP3    H114331   5.291   4.955   5.322
 4789TIP3    H214332   5.386   4.855   5.259
 4790TIP3   OH214333   6.957   5.249   1.987
 4790TIP3    H114334   7.017   5.210   2.051
 4790TIP3    H214335   6.943   5.338   2.020
 4791TIP3   OH214336   1.325   1.710   1.448
 4791TIP3    H114337   1.246   1.685   1.496
 4791TIP3    H214338   1.370   1.771   1.507
 4792TIP3   OH214339   2.434   0.472   3.322
 4792TIP3    H114340   2.406   0.418   3.248
 4792TIP3    H214341   2.361   0.531   3.338
 4793TIP3   OH214342   3.294   4.661   3.686
 4793TIP3    H114343   3.307   4.723   3.614
 4793TIP3    H214344   3.217   4.610   3.661
 4794TIP3   OH214345   4.816   3.127   0.303
 4794TIP3    H114346   4.873   3.125   0.226
 4794TIP3    H214347   4.798   3.034   0.322
 4795TIP3   OH214348   7.129   5.337   5.663
 4795TIP3    H114349   7.106   5.258   5.712
 4795TIP3    H214350   7.073   5.334   5.585
 4796TIP3   OH214351   3.366   6.023   5.563
 4796TIP3    H114352   3.367   6.024   5.658
 4796TIP3    H214353   3.284   5.979   5.539
 4797TIP3   OH214354   5.569   1.063   0.371
 4797TIP3    H114355   5.568   1.015   0.455
 4797TIP3    H214356   5.504   1.132   0.382
 4798TIP3   OH214357   0.059   3.786   3.261
 4798TIP3    H114358   0.025   3.748   3.342
 4798TIP3    H214359   0.140   3.829   3.288
 4799TIP3   OH214360   4.753   1.432   4.173
 4799TIP3    H114361   4.841   1.409   4.203
 4799TIP3    H214362   4.712   1.348   4.153
 4800TIP3   OH214363   7.109   3.783   4.093
 4800TIP3    H114364   7.133   3.848   4.027
 4800TIP3    H214365   7.121   3.828   4.177
 4801TIP3   OH214366   1.503   4.235   3.907
 4801TIP3    H114367   1.575   4.188   3.950
 4801TIP3    H214368   1.442   4.166   3.881
 4802TIP3   OH214369   5.516   0.255   3.776
 4802TIP3    H114370   5.505   0.172   3.822
 4802TIP3    H214371   5.478   0.320   3.835
 4803TIP3   OH214372   1.286   6.090   1.191
 4803TIP3    H114373   1.203   6.075   1.236
 4803TIP3    H214374   1.262   6.111   1.101
 4804TIP3   OH214375   5.028   0.015   3.555
 4804TIP3    H114376   4.978  -0.037   3.618
 4804TIP3    H214377   4.970   0.089   3.535
 4805TIP3   OH214378   2.664   6.137   0.235
 4805TIP3    H114379   2.587   6.100   0.193
 4805TIP3    H214380   2.634   6.217   0.278
 4806TIP3   OH214381   2.976   5.965   3.618
 4806TIP3    H114382   3.046   5.920   3.572
 4806TIP3    H214383   2.913   5.896   3.640
 4807TIP3   OH214384   2.604   2.558   5.841
 4807TIP3    H114385   2.675   2.520   5.790
 4807TIP3    H214386   2.528   2.554   5.783
 4808TIP3   OH214387   4.895  -0.023   5.599
 4808TIP3    H114388   4.877   0.051   5.657
 4808TIP3    H214389   4.832  -0.090   5.626
 4809TIP3   OH214390   3.706   3.694   3.920
 4809TIP3    H114391   3.679   3.750   3.847
 4809TIP3    H214392   3.732   3.756   3.989
 4810TIP3   OH214393   2.529   6.637   3.791
 4810TIP3    H114394   2.437   6.658   3.773
 4810TIP3    H214395   2.527   6.546   3.823
 4811TIP3   OH214396   1.402   3.620   2.636
 4811TIP3    H114397   1.477   3.584   2.683
 4811TIP3    H214398   1.379   3.552   2.572
 4812TIP3   OH214399   1.250   6.504   1.030
 4812TIP3    H114400   1.295   6.586   1.010
 4812TIP3    H214401   1.300   6.437   0.983
 4813TIP3   OH214402   0.208   1.628   4.874
 4813TIP3    H114403   0.119   1.597   4.858
 4813TIP3    H214404   0.201   1.682   4.953
 4814TIP3   OH214405   5.663   1.289   2.127
 4814TIP3    H114406   5.722   1.228   2.172
 4814TIP3    H214407   5.705   1.306   2.043
 4815TIP3   OH214408   0.329   4.178   5.579
 4815TIP3    H114409   0.286   4.188   5.665
 4815TIP3    H214410   0.421   4.161   5.600
 4816TIP3   OH214411   4.280   1.220   3.028
 4816TIP3    H114412   4.310   1.265   2.950
 4816TIP3    H214413   4.228   1.286   3.075
 4817TIP3   OH214414   2.814   0.938   0.137
 4817TIP3    H114415   2.845   1.019   0.177
 4817TIP3    H214416   2.878   0.920   0.068
 4818TIP3   OH214417   4.098   1.042   0.018
 4818TIP3    H114418   4.076   0.950   0.027
 4818TIP3    H214419   4.194   1.043   0.014
 4819TIP3   OH214420   1.490   3.151   1.363
 4819TIP3    H114421   1.445   3.066   1.357
 4819TIP3    H214422   1.576   3.130   1.399
 4820TIP3   OH214423   0.921   6.061   1.736
 4820TIP3    H114424   1.005   6.105   1.753
 4820TIP3    H214425   0.862   6.096   1.803
 4821TIP3   OH214426   5.690   2.025   3.133
 4821TIP3    H114427   5.657   2.068   3.211
 4821TIP3    H214428   5.783   2.011   3.151
 4822TIP3   OH214429   0.746   0.059   1.422
 4822TIP3    H114430   0.727   0.046   1.329
 4822TIP3    H214431   0.829   0.013   1.437
 4823TIP3   OH214432   4.092   2.605   0.204
 4823TIP3    H114433   4.118   2.554   0.128
 4823TIP3    H214434   4.174   2.639   0.240
 4824TIP3   OH214435   4.032   3.510   0.885
 4824TIP3    H114436   4.042   3.415   0.894
 4824TIP3    H214437   3.943   3.522   0.854
 4825TIP3   OH214438   4.485   1.436   1.604
 4825TIP3    H114439   4.521   1.425   1.516
 4825TIP3    H214440   4.559   1.421   1.662
 4826TIP3   OH214441   0.741   2.297   3.904
 4826TIP3    H114442   0.656   2.271   3.939
 4826TIP3    H214443   0.805   2.262   3.966
 4827TIP3   OH214444   2.534   2.867   1.479
 4827TIP3    H114445   2.569   2.780   1.497
 4827TIP3    H214446   2.479   2.887   1.554
 4828TIP3   OH214447   2.916   2.561   3.335
 4828TIP3    H114448   2.925   2.578   3.242
 4828TIP3    H214449   2.948   2.640   3.378
 4829TIP3   OH214450   1.860   4.285   5.745
 4829TIP3    H114451   1.768   4.276   5.769
 4829TIP3    H214452   1.906   4.222   5.801
 4830TIP3   OH214453   1.069   4.166   4.870
 4830TIP3    H114454   1.067   4.211   4.955
 4830TIP3    H214455   1.044   4.233   4.807
 4831TIP3   OH214456   2.540   2.997   4.029
 4831TIP3    H114457   2.452   3.025   4.006
 4831TIP3    H214458   2.566   2.938   3.958
 4832TIP3   OH214459   0.555   5.244   4.779
 4832TIP3    H114460   0.485   5.308   4.785
 4832TIP3    H214461   0.628   5.283   4.828
 4833TIP3   OH214462   4.568   2.972   1.143
 4833TIP3    H114463   4.531   3.046   1.192
 4833TIP3    H214464   4.662   2.976   1.161
 4834TIP3   OH214465   1.121   4.407   1.583
 4834TIP3    H114466   1.120   4.475   1.515
 4834TIP3    H214467   1.207   4.365   1.573
 4835TIP3   OH214468   2.706   4.879   1.338
 4835TIP3    H114469   2.658   4.958   1.364
 4835TIP3    H214470   2.797   4.899   1.359
 4836TIP3   OH214471   1.256   2.763   2.141
 4836TIP3    H114472   1.225   2.853   2.129
 4836TIP3    H214473   1.187   2.720   2.191
 4837TIP3   OH214474   2.726   0.842   4.818
 4837TIP3    H114475   2.667   0.854   4.744
 4837TIP3    H214476   2.810   0.821   4.779
 4838TIP3   OH214477   2.327   4.774   2.473
 4838TIP3    H114478   2.375   4.693   2.454
 4838TIP3    H214479   2.391   4.844   2.460
 4839TIP3   OH214480   4.272   2.866   4.122
 4839TIP3    H114481   4.243   2.940   4.068
 4839TIP3    H214482   4.196   2.809   4.127
 4840TIP3   OH214483   7.020   2.165   1.601
 4840TIP3    H114484   6.965   2.213   1.663
 4840TIP3    H214485   7.099   2.143   1.650
 4841TIP3   OH214486   6.537   2.187   1.220
 4841TIP3    H114487   6.519   2.097   1.192
 4841TIP3    H214488   6.479   2.241   1.166
 4842TIP3   OH214489   2.833   2.303   0.990
 4842TIP3    H114490   2.813   2.211   0.973
 4842TIP3    H214491   2.927   2.311   0.976
 4843TIP3   OH214492   3.889   0.693   2.300
 4843TIP3    H114493   3.884   0.605   2.264
 4843TIP3    H214494   3.968   0.691   2.355
 4844TIP3   OH214495   6.121   1.329   2.076
 4844TIP3    H114496   6.190   1.365   2.131
 4844TIP3    H214497   6.129   1.234   2.087
 4845TIP3   OH214498   3.842   0.508   3.266
 4845TIP3    H114499   3.826   0.529   3.173
 4845TIP3    H214500   3.898   0.430   3.263
 4846TIP3   OH214501   0.186   4.491   0.072
 4846TIP3    H114502   0.162   4.527   0.158
 4846TIP3    H214503   0.268   4.534   0.050
 4847TIP3   OH214504  -0.052   6.443   3.669
 4847TIP3    H114505   0.026   6.398   3.636
 4847TIP3    H214506  -0.049   6.429   3.764
 4848TIP3   OH214507   7.299   3.527   1.198
 4848TIP3    H114508   7.233   3.504   1.133
 4848TIP3    H214509   7.264   3.493   1.280
 4849TIP3   OH214510   2.396   4.053   3.042
 4849TIP3    H114511   2.333   3.991   3.077
 4849TIP3    H214512   2.359   4.080   2.958
 4850TIP3   OH214513   1.503   5.765   5.516
 4850TIP3    H114514   1.451   5.764   5.596
 4850TIP3    H214515   1.449   5.719   5.452
 4851TIP3   OH214516   5.479   6.416   2.454
 4851TIP3    H114517   5.441   6.484   2.510
 4851TIP3    H214518   5.573   6.430   2.459
 4852TIP3   OH214519   2.526   1.432   4.391
 4852TIP3    H114520   2.458   1.404   4.452
 4852TIP3    H214521   2.573   1.501   4.437
 4853TIP3   OH214522   0.789   1.131   5.573
 4853TIP3    H114523   0.778   1.045   5.531
 4853TIP3    H214524   0.876   1.160   5.546
 4854TIP3   OH214525   6.096   2.864   5.332
 4854TIP3    H114526   6.163   2.882   5.267
 4854TIP3    H214527   6.064   2.950   5.359
 4855TIP3   OH214528   1.379   5.988   5.231
 4855TIP3    H114529   1.402   5.986   5.324
 4855TIP3    H214530   1.455   5.950   5.187
 4856TIP3   OH214531   3.763   2.511   0.162
 4856TIP3    H114532   3.840   2.489   0.110
 4856TIP3    H214533   3.786   2.591   0.208
 4857TIP3   OH214534   3.821   5.310   3.392
 4857TIP3    H114535   3.909   5.273   3.405
 4857TIP3    H214536   3.771   5.239   3.352
 4858TIP3   OH214537   2.416   5.231   3.518
 4858TIP3    H114538   2.490   5.248   3.576
 4858TIP3    H214539   2.456   5.199   3.437
 4859TIP3   OH214540   7.099   1.775   0.664
 4859TIP3    H114541   7.188   1.810   0.668
 4859TIP3    H214542   7.055   1.814   0.740
 4860TIP3   OH214543   5.374   2.584   0.448
 4860TIP3    H114544   5.409   2.585   0.360
 4860TIP3    H214545   5.297   2.642   0.444
 4861TIP3   OH214546   4.966   6.371   3.174
 4861TIP3    H114547   4.938   6.311   3.243
 4861TIP3    H214548   4.931   6.333   3.094
 4862TIP3   OH214549   6.543   3.413   2.225
 4862TIP3    H114550   6.562   3.328   2.183
 4862TIP3    H214551   6.580   3.405   2.313
 4863TIP3   OH214552   0.859   3.442   0.542
 4863TIP3    H114553   0.893   3.364   0.496
 4863TIP3    H214554   0.819   3.494   0.472
 4864TIP3   OH214555   3.016   3.970   1.053
 4864TIP3    H114556   3.020   3.902   1.121
 4864TIP3    H214557   3.093   4.025   1.071
 4865TIP3   OH214558   5.906   3.232   0.721
 4865TIP3    H114559   5.857   3.303   0.678
 4865TIP3    H214560   5.873   3.230   0.810
 4866TIP3   OH214561   5.449   4.589   5.354
 4866TIP3    H114562   5.507   4.514   5.365
 4866TIP3    H214563   5.367   4.552   5.323
 4867TIP3   OH214564   3.498   1.533   2.334
 4867TIP3    H114565   3.586   1.565   2.349
 4867TIP3    H214566   3.466   1.506   2.420
 4868TIP3   OH214567   3.837   4.355   2.060
 4868TIP3    H114568   3.760   4.346   2.003
 4868TIP3    H214569   3.842   4.449   2.078
 4869TIP3   OH214570   5.585   3.067   3.959
 4869TIP3    H114571   5.659   3.121   3.987
 4869TIP3    H214572   5.509   3.125   3.964
 4870TIP3   OH214573   5.479   2.254   5.776
 4870TIP3    H114574   5.515   2.305   5.849
 4870TIP3    H214575   5.399   2.214   5.813
 4871TIP3   OH214576   3.399   0.793   3.490
 4871TIP3    H114577   3.462   0.849   3.535
 4871TIP3    H214578   3.400   0.712   3.540
 4872TIP3   OH214579   0.305   6.487   1.047
 4872TIP3    H114580   0.300   6.418   1.114
 4872TIP3    H214581   0.358   6.556   1.089
 4873TIP3   OH214582   4.828   3.613   3.332
 4873TIP3    H114583   4.890   3.669   3.380
 4873TIP3    H214584   4.784   3.672   3.272
 4874TIP3   OH214585   6.699   1.931   0.563
 4874TIP3    H114586   6.711   2.012   0.514
 4874TIP3    H214587   6.783   1.886   0.556
 4875TIP3   OH214588   4.512   4.622   5.850
 4875TIP3    H114589   4.596   4.582   5.829
 4875TIP3    H214590   4.467   4.557   5.903
 4876TIP3   OH214591   6.474   5.513   1.674
 4876TIP3    H114592   6.488   5.431   1.721
 4876TIP3    H214593   6.480   5.489   1.582
 4877TIP3   OH214594   4.342   5.481   1.436
 4877TIP3    H114595   4.332   5.448   1.526
 4877TIP3    H214596   4.253   5.499   1.407
 4878TIP3   OH214597   4.264   5.624   2.639
 4878TIP3    H114598   4.205   5.674   2.583
 4878TIP3    H214599   4.309   5.564   2.579
 4879TIP3   OH214600   3.997   1.154   4.875
 4879TIP3    H114601   3.953   1.091   4.817
 4879TIP3    H214602   3.934   1.226   4.884
 4880TIP3   OH214603   2.277   5.527   2.454
 4880TIP3    H114604   2.359   5.516   2.404
 4880TIP3    H214605   2.295   5.486   2.538
 4881TIP3   OH214606   1.407   2.489   5.702
 4881TIP3    H114607   1.488   2.517   5.658
 4881TIP3    H214608   1.341   2.490   5.633
 4882TIP3   OH214609   4.461   5.995   4.026
 4882TIP3    H114610   4.373   5.957   4.030
 4882TIP3    H214611   4.465   6.037   3.940
 4883TIP3   OH214612   0.108   6.399   3.931
 4883TIP3    H114613   0.089   6.313   3.893
 4883TIP3    H214614   0.041   6.411   3.998
 4884TIP3   OH214615   5.928   5.964   1.552
 4884TIP3    H114616   5.953   6.052   1.579
 4884TIP3    H214617   5.893   5.974   1.464
 4885TIP3   OH214618   3.387   0.449   3.139
 4885TIP3    H114619   3.447   0.515   3.103
 4885TIP3    H214620   3.363   0.484   3.225
 4886TIP3   OH214621   0.521   4.278   3.069
 4886TIP3    H114622   0.482   4.362   3.091
 4886TIP3    H214623   0.612   4.298   3.047
 4887TIP3   OH214624   0.523   2.560   3.600
 4887TIP3    H114625   0.554   2.648   3.581
 4887TIP3    H214626   0.431   2.571   3.623
 4888TIP3   OH214627   5.741   4.305   3.864
 4888TIP3    H114628   5.809   4.282   3.927
 4888TIP3    H214629   5.714   4.393   3.888
 4889TIP3   OH214630   2.320   3.071   4.367
 4889TIP3    H114631   2.360   3.095   4.450
 4889TIP3    H214632   2.330   2.976   4.362
 4890TIP3   OH214633   6.574   2.593   2.521
 4890TIP3    H114634   6.546   2.501   2.522
 4890TIP3    H214635   6.654   2.594   2.468
 4891TIP3   OH214636   3.192   5.810   4.723
 4891TIP3    H114637   3.164   5.899   4.700
 4891TIP3    H214638   3.144   5.753   4.662
 4892TIP3   OH214639   3.584   0.609   1.011
 4892TIP3    H114640   3.614   0.538   0.955
 4892TIP3    H214641   3.506   0.644   0.966
 4893TIP3   OH214642   1.462   4.855   3.618
 4893TIP3    H114643   1.402   4.851   3.543
 4893TIP3    H214644   1.526   4.786   3.602
 4894TIP3   OH214645   4.430   0.067   0.406
 4894TIP3    H114646   4.490   0.073   0.332
 4894TIP3    H214647   4.374  -0.008   0.384
 4895TIP3   OH214648   6.865   5.469   4.379
 4895TIP3    H114649   6.927   5.406   4.344
 4895TIP3    H214650   6.896   5.487   4.468
 4896TIP3   OH214651   3.686   3.064   5.470
 4896TIP3    H114652   3.768   3.111   5.482
 4896TIP3    H214653   3.622   3.111   5.523
 4897TIP3   OH214654   3.409   5.937   0.351
 4897TIP3    H114655   3.411   5.929   0.447
 4897TIP3    H214656   3.441   5.852   0.320
 4898TIP3   OH214657   1.087   2.967   0.174
 4898TIP3    H114658   1.002   2.930   0.200
 4898TIP3    H214659   1.141   2.958   0.252
 4899TIP3   OH214660   2.861   5.555   5.538
 4899TIP3    H114661   2.838   5.621   5.472
 4899TIP3    H214662   2.798   5.569   5.608
 4900TIP3   OH214663   3.044   5.252   3.986
 4900TIP3    H114664   3.061   5.209   4.070
 4900TIP3    H214665   3.090   5.198   3.922
 4901TIP3   OH214666   5.736   4.201   0.077
 4901TIP3    H114667   5.750   4.107   0.062
 4901TIP3    H214668   5.643   4.214   0.061
 4902TIP3   OH214669   6.526   5.608   3.386
 4902TIP3    H114670   6.432   5.618   3.373
 4902TIP3    H214671   6.546   5.523   3.347
 4903TIP3   OH214672   1.844   5.440   1.909
 4903TIP3    H114673   1.820   5.530   1.885
 4903TIP3    H214674   1.841   5.438   2.004
 4904TIP3   OH214675   7.092   0.773   0.085
 4904TIP3    H114676   7.121   0.859   0.116
 4904TIP3    H214677   7.067   0.787  -0.006
 4905TIP3   OH214678   2.837   0.497   3.972
 4905TIP3    H114679   2.828   0.575   3.917
 4905TIP3    H214680   2.890   0.437   3.919
 4906TIP3   OH214681   0.437   2.818   3.750
 4906TIP3    H114682   0.420   2.736   3.796
 4906TIP3    H214683   0.519   2.803   3.703
 4907TIP3   OH214684   2.469   0.366   2.511
 4907TIP3    H114685   2.443   0.306   2.580
 4907TIP3    H214686   2.420   0.446   2.529
 4908TIP3   OH214687   4.957   3.771   4.261
 4908TIP3    H114688   4.870   3.746   4.290
 4908TIP3    H214689   4.973   3.856   4.302
 4909TIP3   OH214690   0.687   2.990   1.915
 4909TIP3    H114691   0.623   3.054   1.944
 4909TIP3    H214692   0.689   2.924   1.985
 4910TIP3   OH214693   3.740   5.550   0.796
 4910TIP3    H114694   3.807   5.555   0.864
 4910TIP3    H214695   3.670   5.499   0.835
 4911TIP3   OH214696   1.019   2.793   4.288
 4911TIP3    H114697   1.094   2.734   4.293
 4911TIP3    H214698   0.964   2.769   4.361
 4912TIP3   OH214699   5.514   5.648   3.009
 4912TIP3    H114700   5.510   5.625   2.916
 4912TIP3    H214701   5.502   5.743   3.010
 4913TIP3   OH214702   5.051   4.022   4.348
 4913TIP3    H114703   5.019   4.074   4.275
 4913TIP3    H214704   5.003   4.054   4.424
 4914TIP3   OH214705   0.492   4.478   0.241
 4914TIP3    H114706   0.429   4.538   0.281
 4914TIP3    H214707   0.487   4.496   0.147
 4915TIP3   OH214708   2.075   6.015   4.004
 4915TIP3    H114709   2.074   6.003   3.909
 4915TIP3    H214710   2.162   6.050   4.023
 4916TIP3   OH214711   6.778   3.099   4.022
 4916TIP3    H114712   6.802   3.175   3.969
 4916TIP3    H214713   6.814   3.117   4.109
 4917TIP3   OH214714   2.402   0.858   3.680
 4917TIP3    H114715   2.323   0.828   3.634
 4917TIP3    H214716   2.470   0.796   3.655
 4918TIP3   OH214717   6.719   5.994   1.009
 4918TIP3    H114718   6.668   5.919   0.979
 4918TIP3    H214719   6.691   6.007   1.100
 4919TIP3   OH214720   6.592   3.326   0.339
 4919TIP3    H114721   6.577   3.232   0.348
 4919TIP3    H214722   6.505   3.365   0.340
 4920TIP3   OH214723   3.019   2.986   3.209
 4920TIP3    H114724   3.061   3.066   3.241
 4920TIP3    H214725   3.070   2.962   3.132
 4921TIP3   OH214726   3.626   3.383   5.252
 4921TIP3    H114727   3.663   3.295   5.257
 4921TIP3    H214728   3.697   3.441   5.280
 4922TIP3   OH214729   1.571   0.981   4.926
 4922TIP3    H114730   1.552   1.075   4.924
 4922TIP3    H214731   1.575   0.955   4.835
 4923TIP3   OH214732   2.277   1.611   3.113
 4923TIP3    H114733   2.236   1.582   3.031
 4923TIP3    H214734   2.349   1.667   3.084
 4924TIP3   OH214735   2.930   3.366   4.859
 4924TIP3    H114736   2.929   3.438   4.922
 4924TIP3    H214737   2.840   3.360   4.828
 4925TIP3   OH214738   6.104   0.258   0.984
 4925TIP3    H114739   6.042   0.328   0.960
 4925TIP3    H214740   6.181   0.305   1.018
 4926TIP3   OH214741   0.707   2.173   4.983
 4926TIP3    H114742   0.691   2.265   5.002
 4926TIP3    H214743   0.644   2.125   5.037
 4927TIP3   OH214744   6.543   2.202   1.510
 4927TIP3    H114745   6.593   2.279   1.538
 4927TIP3    H214746   6.556   2.198   1.415
 4928TIP3   OH214747   4.439   2.325   4.526
 4928TIP3    H114748   4.422   2.269   4.602
 4928TIP3    H214749   4.530   2.354   4.537
 4929TIP3   OH214750   7.193   0.912   1.290
 4929TIP3    H114751   7.160   0.973   1.225
 4929TIP3    H214752   7.285   0.937   1.302
 4930TIP3   OH214753   6.124   1.736   3.575
 4930TIP3    H114754   6.133   1.642   3.557
 4930TIP3    H214755   6.040   1.760   3.535
 4931TIP3   OH214756   3.845   2.432   4.245
 4931TIP3    H114757   3.875   2.519   4.269
 4931TIP3    H214758   3.914   2.398   4.187
 4932TIP3   OH214759   0.531   3.470   2.133
 4932TIP3    H114760   0.454   3.527   2.124
 4932TIP3    H214761   0.494   3.382   2.139
 4933TIP3   OH214762   6.072   0.156   4.550
 4933TIP3    H114763   6.102   0.113   4.630
 4933TIP3    H214764   6.043   0.243   4.579
 4934TIP3   OH214765   2.124   2.443   3.738
 4934TIP3    H114766   2.124   2.427   3.832
 4934TIP3    H214767   2.032   2.451   3.714
 4935TIP3   OH214768   3.808   0.122   1.917
 4935TIP3    H114769   3.723   0.092   1.884
 4935TIP3    H214770   3.868   0.049   1.902
 4936TIP3   OH214771   2.021   5.287   2.104
 4936TIP3    H114772   1.936   5.265   2.142
 4936TIP3    H214773   2.069   5.329   2.175
 4937TIP3   OH214774   1.573   6.709   1.911
 4937TIP3    H114775   1.619   6.725   1.993
 4937TIP3    H214776   1.603   6.778   1.852
 4938TIP3   OH214777   5.722   1.544   0.644
 4938TIP3    H114778   5.644   1.500   0.676
 4938TIP3    H214779   5.782   1.473   0.622
 4939TIP3   OH214780   2.022   4.649   0.297
 4939TIP3    H114781   2.047   4.565   0.260
 4939TIP3    H214782   2.049   4.645   0.389
 4940TIP3   OH214783   6.010   4.655   3.089
 4940TIP3    H114784   6.031   4.563   3.074
 4940TIP3    H214785   5.920   4.664   3.060
 4941TIP3   OH214786   1.846   1.029   3.927
 4941TIP3    H114787   1.832   1.116   3.963
 4941TIP3    H214788   1.934   1.032   3.890
 4942TIP3   OH214789   6.349   2.233   3.821
 4942TIP3    H114790   6.310   2.213   3.906
 4942TIP3    H214791   6.314   2.166   3.762
 4943TIP3   OH214792   4.656   0.242   1.350
 4943TIP3    H114793   4.665   0.308   1.419
 4943TIP3    H214794   4.745   0.214   1.331
 4944TIP3   OH214795   2.991   4.276   0.730
 4944TIP3    H114796   2.928   4.298   0.798
 4944TIP3    H214797   2.998   4.180   0.734
 4945TIP3   OH214798   1.059   1.816   5.177
 4945TIP3    H114799   1.024   1.780   5.259
 4945TIP3    H214800   1.023   1.760   5.109
 4946TIP3   OH214801   2.981   1.084   3.605
 4946TIP3    H114802   2.963   1.173   3.575
 4946TIP3    H214803   2.906   1.060   3.658
 4947TIP3   OH214804   4.533   1.403   3.201
 4947TIP3    H114805   4.469   1.407   3.272
 4947TIP3    H214806   4.589   1.329   3.224
 4948TIP3   OH214807   1.378   0.903   2.979
 4948TIP3    H114808   1.352   0.811   2.973
 4948TIP3    H214809   1.471   0.903   2.955
 4949TIP3   OH214810   6.231   1.996   3.703
 4949TIP3    H114811   6.162   2.028   3.645
 4949TIP3    H214812   6.201   1.909   3.730
 4950TIP3   OH214813   4.650   1.930   3.773
 4950TIP3    H114814   4.565   1.912   3.734
 4950TIP3    H214815   4.713   1.899   3.709
 4951TIP3   OH214816   7.194   4.624   2.244
 4951TIP3    H114817   7.236   4.668   2.170
 4951TIP3    H214818   7.257   4.559   2.273
 4952TIP3   OH214819   6.763   1.993   5.111
 4952TIP3    H114820   6.749   1.914   5.162
 4952TIP3    H214821   6.692   2.052   5.137
 4953TIP3   OH214822   0.261   6.046   5.274
 4953TIP3    H114823   0.194   6.018   5.212
 4953TIP3    H214824   0.288   6.133   5.243
 4954TIP3   OH214825   4.296   5.661   2.014
 4954TIP3    H114826   4.279   5.740   1.963
 4954TIP3    H214827   4.270   5.683   2.103
 4955TIP3   OH214828   0.064   3.376   2.921
 4955TIP3    H114829   0.153   3.352   2.897
 4955TIP3    H214830   0.073   3.458   2.968
 4956TIP3   OH214831   3.065   6.108   2.792
 4956TIP3    H114832   3.067   6.077   2.701
 4956TIP3    H214833   3.014   6.041   2.839
 4957TIP3   OH214834   1.017   0.602   0.663
 4957TIP3    H114835   1.072   0.666   0.707
 4957TIP3    H214836   1.021   0.525   0.720
 4958TIP3   OH214837   5.364   3.135   3.502
 4958TIP3    H114838   5.434   3.201   3.501
 4958TIP3    H214839   5.313   3.155   3.580
 4959TIP3   OH214840   3.951   1.120   3.386
 4959TIP3    H114841   4.030   1.087   3.346
 4959TIP3    H214842   3.911   1.175   3.319
 4960TIP3   OH214843   6.970   2.498   3.583
 4960TIP3    H114844   6.938   2.474   3.669
 4960TIP3    H214845   6.987   2.592   3.589
 4961TIP3   OH214846   1.415   5.361   3.868
 4961TIP3    H114847   1.330   5.323   3.892
 4961TIP3    H214848   1.476   5.288   3.870
 4962TIP3   OH214849   2.158   5.833   1.371
 4962TIP3    H114850   2.250   5.827   1.394
 4962TIP3    H214851   2.137   5.749   1.330
 4963TIP3   OH214852   3.885   4.317   2.509
 4963TIP3    H114853   3.871   4.286   2.599
 4963TIP3    H214854   3.822   4.388   2.498
 4964TIP3   OH214855   1.209   6.089   3.189
 4964TIP3    H114856   1.198   6.079   3.095
 4964TIP3    H214857   1.288   6.040   3.209
 4965TIP3   OH214858   7.178   1.601   5.667
 4965TIP3    H114859   7.171   1.632   5.757
 4965TIP3    H214860   7.108   1.646   5.621
 4966TIP3   OH214861   6.696   3.224   2.111
 4966TIP3    H114862   6.725   3.166   2.040
 4966TIP3    H214863   6.698   3.169   2.189
 4967TIP3   OH214864   5.414   2.241   0.122
 4967TIP3    H114865   5.360   2.163   0.111
 4967TIP3    H214866   5.485   2.213   0.180
 4968TIP3   OH214867   4.432   2.819   3.392
 4968TIP3    H114868   4.418   2.901   3.440
 4968TIP3    H214869   4.398   2.838   3.304
 4969TIP3   OH214870   5.733   5.828   0.094
 4969TIP3    H114871   5.797   5.887   0.054
 4969TIP3    H214872   5.648   5.866   0.071
 4970TIP3   OH214873   7.248   3.048   3.904
 4970TIP3    H114874   7.211   3.056   3.816
 4970TIP3    H214875   7.235   2.956   3.927
 4971TIP3   OH214876   2.086   1.934   5.390
 4971TIP3    H114877   2.035   2.011   5.365
 4971TIP3    H214878   2.176   1.965   5.392
 4972TIP3   OH214879   3.787   6.208   0.257
 4972TIP3    H114880   3.825   6.163   0.182
 4972TIP3    H214881   3.832   6.170   0.333
 4973TIP3   OH214882   1.924   2.295   4.307
 4973TIP3    H114883   1.979   2.309   4.230
 4973TIP3    H214884   1.969   2.342   4.377
 4974TIP3   OH214885   0.943   1.917   4.894
 4974TIP3    H114886   0.848   1.912   4.904
 4974TIP3    H214887   0.977   1.848   4.951
 4975TIP3   OH214888   5.757   5.179   0.032
 4975TIP3    H114889   5.712   5.113  -0.021
 4975TIP3    H214890   5.795   5.240  -0.031
 4976TIP3   OH214891   6.793   1.780   2.031
 4976TIP3    H114892   6.787   1.861   2.082
 4976TIP3    H214893   6.797   1.810   1.940
 4977TIP3   OH214894   1.077   0.169   1.702
 4977TIP3    H114895   1.081   0.182   1.797
 4977TIP3    H214896   1.156   0.209   1.668
 4978TIP3   OH214897   4.157   2.928   0.055
 4978TIP3    H114898   4.144   2.941   0.149
 4978TIP3    H214899   4.087   2.868   0.030
 4979TIP3   OH214900   3.444   3.967   1.657
 4979TIP3    H114901   3.447   4.060   1.680
 4979TIP3    H214902   3.509   3.956   1.588
 4980TIP3   OH214903   4.059   5.962   4.417
 4980TIP3    H114904   3.963   5.963   4.408
 4980TIP3    H214905   4.087   5.890   4.361
 4981TIP3   OH214906   6.048   4.926   2.086
 4981TIP3    H114907   6.005   5.010   2.100
 4981TIP3    H214908   5.977   4.862   2.092
 4982TIP3   OH214909   1.713   3.021   1.096
 4982TIP3    H114910   1.638   3.071   1.064
 4982TIP3    H214911   1.675   2.954   1.152
 4983TIP3   OH214912   5.685   0.429   3.411
 4983TIP3    H114913   5.678   0.519   3.381
 4983TIP3    H214914   5.726   0.435   3.497
 4984TIP3   OH214915   5.782   6.091   5.416
 4984TIP3    H114916   5.824   6.134   5.341
 4984TIP3    H214917   5.754   6.006   5.382
 4985TIP3   OH214918   5.346   1.774   4.771
 4985TIP3    H114919   5.375   1.723   4.695
 4985TIP3    H214920   5.251   1.768   4.769
 4986TIP3   OH214921   0.109   0.866   4.201
 4986TIP3    H114922   0.122   0.960   4.185
 4986TIP3    H214923   0.049   0.838   4.132
 4987TIP3   OH214924   2.993   5.353   2.991
 4987TIP3    H114925   3.083   5.382   3.009
 4987TIP3    H214926   3.003   5.278   2.933
 4988TIP3   OH214927   1.315   3.317   3.057
 4988TIP3    H114928   1.370   3.308   2.979
 4988TIP3    H214929   1.274   3.403   3.047
 4989TIP3   OH214930   5.087   6.666   1.557
 4989TIP3    H114931   5.054   6.624   1.637
 4989TIP3    H214932   5.079   6.599   1.490
 4990TIP3   OH214933   4.560   2.206   2.196
 4990TIP3    H114934   4.642   2.164   2.170
 4990TIP3    H214935   4.553   2.283   2.139
 4991TIP3   OH214936   2.999   4.589   1.764
 4991TIP3    H114937   2.954   4.504   1.766
 4991TIP3    H214938   2.962   4.637   1.838
 4992TIP3   OH214939   1.182   6.239   0.155
 4992TIP3    H114940   1.166   6.172   0.223
 4992TIP3    H214941   1.257   6.288   0.187
 4993TIP3   OH214942   4.054   0.372   5.799
 4993TIP3    H114943   3.998   0.389   5.723
 4993TIP3    H214944   4.021   0.288   5.834
 4994TIP3   OH214945   5.500   5.220   2.838
 4994TIP3    H114946   5.583   5.257   2.807
 4994TIP3    H214947   5.434   5.285   2.812
 4995TIP3   OH214948   0.522   3.653   3.834
 4995TIP3    H114949   0.614   3.678   3.826
 4995TIP3    H214950   0.523   3.557   3.834
 4996TIP3   OH214951   6.245   5.215   0.720
 4996TIP3    H114952   6.257   5.221   0.815
 4996TIP3    H214953   6.232   5.122   0.703
 4997TIP3   OH214954   0.599   1.480   0.547
 4997TIP3    H114955   0.655   1.405   0.569
 4997TIP3    H214956   0.511   1.442   0.540
 4998TIP3   OH214957   2.111   4.867   5.081
 4998TIP3    H114958   2.174   4.931   5.117
 4998TIP3    H214959   2.049   4.852   5.152
 4999TIP3   OH214960   3.891   5.300   1.160
 4999TIP3    H114961   3.940   5.252   1.093
 4999TIP3    H214962   3.880   5.238   1.232
 5000TIP3   OH214963   2.790   4.792   3.365
 5000TIP3    H114964   2.733   4.747   3.427
 5000TIP3    H214965   2.828   4.722   3.311
 5001TIP3   OH214966   4.138   0.401   1.798
 5001TIP3    H114967   4.147   0.396   1.703
 5001TIP3    H214968   4.044   0.408   1.813
 5002TIP3   OH214969   3.922   4.405   1.788
 5002TIP3    H114970   3.860   4.332   1.786
 5002TIP3    H214971   3.868   4.481   1.807
 5003TIP3   OH214972   5.447   0.522   3.131
 5003TIP3    H114973   5.427   0.600   3.079
 5003TIP3    H214974   5.518   0.550   3.189
 5004TIP3   OH214975   3.951   0.731   1.967
 5004TIP3    H114976   3.900   0.664   2.014
 5004TIP3    H214977   3.941   0.810   2.019
 5005TIP3   OH214978   3.090   1.193   4.359
 5005TIP3    H114979   3.067   1.153   4.275
 5005TIP3    H214980   3.039   1.274   4.363
 5006TIP3   OH214981   4.841   2.585   0.608
 5006TIP3    H114982   4.905   2.537   0.556
 5006TIP3    H214983   4.761   2.534   0.600
 5007TIP3   OH214984   2.255   5.129   2.566
 5007TIP3    H114985   2.245   5.118   2.471
 5007TIP3    H214986   2.180   5.082   2.603
 5008TIP3   OH214987   2.986   2.761   2.877
 5008TIP3    H114988   2.907   2.707   2.885
 5008TIP3    H214989   2.990   2.783   2.784
 5009TIP3   OH214990   0.507   3.243   1.875
 5009TIP3    H114991   0.486   3.182   1.805
 5009TIP3    H214992   0.426   3.249   1.926
 5010TIP3   OH214993   0.972   2.205   4.892
 5010TIP3    H114994   0.953   2.232   4.982
 5010TIP3    H214995   0.918   2.127   4.879
 5011TIP3   OH214996   3.238   5.574   4.095
 5011TIP3    H114997   3.274   5.524   4.022
 5011TIP3    H214998   3.285   5.657   4.094
 5012TIP3   OH214999   2.372   4.655   4.848
 5012TIP3    H115000   2.444   4.639   4.908
 5012TIP3    H215001   2.394   4.606   4.769
 5013TIP3   OH215002   6.706   3.086   4.687
 5013TIP3    H115003   6.752   3.011   4.725
 5013TIP3    H215004   6.724   3.079   4.593
 5014TIP3   OH215005   5.160   1.056   3.482
 5014TIP3    H115006   5.254   1.069   3.498
 5014TIP3    H215007   5.152   0.964   3.459
 5015TIP3   OH215008   2.799   2.587   0.185
 5015TIP3    H115009   2.823   2.675   0.156
 5015TIP3    H215010   2.777   2.596   0.278
 5016TIP3   OH215011   5.589   5.969   3.372
 5016TIP3    H115012   5.605   6.038   3.308
 5016TIP3    H215013   5.676   5.946   3.406
 5017TIP3   OH215014   3.764   4.918   1.092
 5017TIP3    H115015   3.770   4.994   1.150
 5017TIP3    H215016   3.672   4.913   1.068
 5018TIP3   OH215017   7.105   3.092   4.364
 5018TIP3    H115018   7.153   3.119   4.286
 5018TIP3    H215019   7.139   3.004   4.384
 5019TIP3   OH215020   3.764   4.601   1.238
 5019TIP3    H115021   3.856   4.575   1.249
 5019TIP3    H215022   3.748   4.593   1.144
 5020TIP3   OH215023   2.426   4.904   2.907
 5020TIP3    H115024   2.348   4.925   2.960
 5020TIP3    H215025   2.416   4.812   2.885
 5021TIP3   OH215026   4.184   3.875   4.411
 5021TIP3    H115027   4.228   3.938   4.354
 5021TIP3    H215028   4.105   3.850   4.362
 5022TIP3   OH215029   3.231   1.266   0.268
 5022TIP3    H115030   3.297   1.253   0.200
 5022TIP3    H215031   3.274   1.323   0.333
 5023TIP3   OH215032   4.944   4.955   4.544
 5023TIP3    H115033   4.917   4.959   4.636
 5023TIP3    H215034   4.953   5.047   4.518
 5024TIP3   OH215035   4.807   6.329   2.943
 5024TIP3    H115036   4.835   6.340   2.852
 5024TIP3    H215037   4.781   6.416   2.972
 5025TIP3   OH215038   1.812   5.866   0.042
 5025TIP3    H115039   1.790   5.931   0.110
 5025TIP3    H215040   1.829   5.786   0.091
 5026TIP3   OH215041   0.977   5.756   4.254
 5026TIP3    H115042   1.031   5.677   4.257
 5026TIP3    H215043   1.040   5.828   4.261
 5027TIP3   OH215044   2.095   5.434   4.565
 5027TIP3    H115045   2.135   5.367   4.509
 5027TIP3    H215046   2.046   5.490   4.504
 5028TIP3   OH215047   0.003   3.218   2.587
 5028TIP3    H115048  -0.069   3.179   2.538
 5028TIP3    H215049   0.078   3.161   2.569
 5029TIP3   OH215050   6.145   5.034   2.618
 5029TIP3    H115051   6.076   5.024   2.553
 5029TIP3    H215052   6.210   4.968   2.594
 5030TIP3   OH215053   6.856   4.221   4.107
 5030TIP3    H115054   6.805   4.145   4.133
 5030TIP3    H215055   6.795   4.274   4.056
 5031TIP3   OH215056   3.038   5.151   3.656
 5031TIP3    H115057   2.993   5.192   3.730
 5031TIP3    H215058   3.001   5.063   3.652
 5032TIP3   OH215059   2.100   1.400   3.893
 5032TIP3    H115060   2.176   1.458   3.890
 5032TIP3    H215061   2.095   1.371   3.984
 5033TIP3   OH215062   4.532   6.158   4.235
 5033TIP3    H115063   4.514   6.094   4.165
 5033TIP3    H215064   4.619   6.192   4.215
 5034TIP3   OH215065   2.426   4.195   1.429
 5034TIP3    H115066   2.428   4.291   1.430
 5034TIP3    H215067   2.364   4.172   1.498
 5035TIP3   OH215068   5.670   6.599   2.014
 5035TIP3    H115069   5.650   6.508   2.033
 5035TIP3    H215070   5.618   6.619   1.935
 5036TIP3   OH215071   4.315   2.915   3.747
 5036TIP3    H115072   4.410   2.923   3.739
 5036TIP3    H215073   4.294   2.959   3.829
 5037TIP3   OH215074   4.453   2.865   5.574
 5037TIP3    H115075   4.451   2.912   5.657
 5037TIP3    H215076   4.500   2.784   5.593
 5038TIP3   OH215077   0.167   3.117   3.399
 5038TIP3    H115078   0.228   3.080   3.463
 5038TIP3    H215079   0.081   3.103   3.437
 5039TIP3   OH215080   2.439   1.850   2.820
 5039TIP3    H115081   2.406   1.933   2.785
 5039TIP3    H215082   2.475   1.873   2.906
 5040TIP3   OH215083   0.352   3.013   3.585
 5040TIP3    H115084   0.346   3.098   3.627
 5040TIP3    H215085   0.363   2.951   3.657
 5041TIP3   OH215086   3.345   0.725   1.748
 5041TIP3    H115087   3.389   0.721   1.833
 5041TIP3    H215088   3.252   0.735   1.770
 5042TIP3   OH215089   5.508   2.066   2.730
 5042TIP3    H115090   5.516   1.987   2.676
 5042TIP3    H215091   5.414   2.077   2.743
 5043TIP3   OH215092   0.169   4.414   1.947
 5043TIP3    H115093   0.144   4.491   1.895
 5043TIP3    H215094   0.258   4.394   1.918
 5044TIP3   OH215095   4.999   3.392   2.813
 5044TIP3    H115096   4.915   3.439   2.807
 5044TIP3    H215097   5.053   3.432   2.745
 5045TIP3   OH215098   6.602   6.016   5.085
 5045TIP3    H115099   6.687   6.023   5.128
 5045TIP3    H215100   6.557   6.098   5.108
 5046TIP3   OH215101   1.511   1.854   2.872
 5046TIP3    H115102   1.584   1.798   2.900
 5046TIP3    H215103   1.432   1.804   2.894
 5047TIP3   OH215104   0.213   1.758   5.114
 5047TIP3    H115105   0.231   1.849   5.089
 5047TIP3    H215106   0.132   1.763   5.165
 5048TIP3   OH215107   3.300   3.597   4.767
 5048TIP3    H115108   3.227   3.552   4.726
 5048TIP3    H215109   3.329   3.538   4.837
 5049TIP3   OH215110   6.187   2.274   1.839
 5049TIP3    H115111   6.141   2.218   1.776
 5049TIP3    H215112   6.122   2.338   1.867
 5050TIP3   OH215113   5.660   2.824   3.085
 5050TIP3    H115114   5.726   2.755   3.096
 5050TIP3    H215115   5.698   2.900   3.129
 5051TIP3   OH215116   3.759   0.561   1.232
 5051TIP3    H115117   3.834   0.574   1.175
 5051TIP3    H215118   3.690   0.528   1.175
 5052TIP3   OH215119   7.175   1.019   0.185
 5052TIP3    H115120   7.091   1.052   0.218
 5052TIP3    H215121   7.235   1.028   0.258
 5053TIP3   OH215122   2.767   0.321   1.027
 5053TIP3    H115123   2.722   0.236   1.031
 5053TIP3    H215124   2.841   0.311   1.086
 5054TIP3   OH215125   3.064   5.516   5.142
 5054TIP3    H115126   3.149   5.491   5.105
 5054TIP3    H215127   3.032   5.437   5.185
 5055TIP3   OH215128   2.234   6.584   0.079
 5055TIP3    H115129   2.228   6.553   0.169
 5055TIP3    H215130   2.231   6.504   0.026
 5056TIP3   OH215131   4.030   1.445   4.276
 5056TIP3    H115132   4.058   1.495   4.353
 5056TIP3    H215133   4.011   1.357   4.311
 5057TIP3   OH215134   6.179   5.584   3.025
 5057TIP3    H115135   6.156   5.512   3.083
 5057TIP3    H215136   6.128   5.658   3.057
 5058TIP3   OH215137   1.992   3.235   2.869
 5058TIP3    H115138   2.000   3.140   2.859
 5058TIP3    H215139   2.011   3.270   2.782
 5059TIP3   OH215140   7.124   1.652   1.451
 5059TIP3    H115141   7.039   1.646   1.407
 5059TIP3    H215142   7.184   1.685   1.384
 5060TIP3   OH215143   3.407   3.040   0.323
 5060TIP3    H115144   3.422   2.948   0.343
 5060TIP3    H215145   3.313   3.052   0.337
 5061TIP3   OH215146   3.958  -0.002   2.915
 5061TIP3    H115147   3.936  -0.095   2.917
 5061TIP3    H215148   3.905   0.036   2.985
 5062TIP3   OH215149   5.613   1.845   3.704
 5062TIP3    H115150   5.613   1.862   3.610
 5062TIP3    H215151   5.558   1.915   3.741
 5063TIP3   OH215152   2.467   5.961   4.607
 5063TIP3    H115153   2.389   5.911   4.584
 5063TIP3    H215154   2.498   5.997   4.523
 5064TIP3   OH215155   1.952   2.688   4.070
 5064TIP3    H115156   2.001   2.616   4.110
 5064TIP3    H215157   1.962   2.761   4.130
 5065TIP3   OH215158   2.230   5.364   5.132
 5065TIP3    H115159   2.172   5.430   5.171
 5065TIP3    H215160   2.171   5.292   5.108
 5066TIP3   OH215161   3.112   3.775   3.353
 5066TIP3    H115162   3.033   3.748   3.306
 5066TIP3    H215163   3.122   3.710   3.423
 5067TIP3   OH215164   2.643   4.380   2.972
 5067TIP3    H115165   2.670   4.289   2.981
 5067TIP3    H215166   2.579   4.393   3.042
 5068TIP3   OH215167   6.382   4.535   1.746
 5068TIP3    H115168   6.318   4.495   1.686
 5068TIP3    H215169   6.460   4.481   1.737
 5069TIP3   OH215170   1.601   0.268   4.181
 5069TIP3    H115171   1.566   0.354   4.158
 5069TIP3    H215172   1.696   0.280   4.183
 5070TIP3   OH215173   4.300   5.071   3.619
 5070TIP3    H115174   4.272   4.980   3.622
 5070TIP3    H215175   4.369   5.074   3.553
 5071TIP3   OH215176   6.464   1.442   5.796
 5071TIP3    H115177   6.402   1.494   5.744
 5071TIP3    H215178   6.466   1.357   5.752
 5072TIP3   OH215179   3.711   0.863   2.129
 5072TIP3    H115180   3.768   0.813   2.189
 5072TIP3    H215181   3.648   0.798   2.098
 5073TIP3   OH215182   0.522   6.317   5.864
 5073TIP3    H115183   0.445   6.263   5.842
 5073TIP3    H215184   0.490   6.407   5.860
 5074TIP3   OH215185   2.310   3.076   3.373
 5074TIP3    H115186   2.370   3.028   3.429
 5074TIP3    H215187   2.281   3.012   3.308
 5075TIP3   OH215188   1.807   6.091   3.281
 5075TIP3    H115189   1.889   6.095   3.332
 5075TIP3    H215190   1.812   6.167   3.223
 5076TIP3   OH215191   7.148   0.213   4.018
 5076TIP3    H115192   7.238   0.182   4.013
 5076TIP3    H215193   7.145   0.290   3.960
 5077TIP3   OH215194   0.400   3.507   5.198
 5077TIP3    H115195   0.453   3.532   5.274
 5077TIP3    H215196   0.408   3.412   5.193
 5078TIP3   OH215197   2.702   6.141   2.917
 5078TIP3    H115198   2.709   6.119   2.824
 5078TIP3    H215199   2.658   6.226   2.918
 5079TIP3   OH215200   3.856   6.234   2.491
 5079TIP3    H115201   3.840   6.150   2.534
 5079TIP3    H215202   3.786   6.291   2.523
 5080TIP3   OH215203   6.151   1.780   0.016
 5080TIP3    H115204   6.180   1.832   0.091
 5080TIP3    H215205   6.163   1.689   0.044
 5081TIP3   OH215206   5.441   3.678   4.874
 5081TIP3    H115207   5.508   3.745   4.856
 5081TIP3    H215208   5.358   3.721   4.855
 5082TIP3   OH215209   0.070   5.320   4.049
 5082TIP3    H115210   0.053   5.251   4.114
 5082TIP3    H215211   0.163   5.340   4.059
 5083TIP3   OH215212   5.364   3.577   0.691
 5083TIP3    H115213   5.459   3.585   0.686
 5083TIP3    H215214   5.345   3.560   0.783
 5084TIP3   OH215215   0.821   4.045   4.686
 5084TIP3    H115216   0.905   4.045   4.639
 5084TIP3    H215217   0.828   3.971   4.746
 5085TIP3   OH215218   3.476   1.613   2.644
 5085TIP3    H115219   3.446   1.674   2.576
 5085TIP3    H215220   3.395   1.578   2.682
 5086TIP3   OH215221   1.124   1.747   0.923
 5086TIP3    H115222   1.211   1.714   0.903
 5086TIP3    H215223   1.072   1.669   0.944
 5087TIP3   OH215224   6.027   1.531   3.250
 5087TIP3    H115225   6.116   1.536   3.217
 5087TIP3    H215226   6.036   1.511   3.343
 5088TIP3   OH215227   4.868   2.699   4.384
 5088TIP3    H115228   4.960   2.672   4.386
 5088TIP3    H215229   4.868   2.785   4.427
 5089TIP3   OH215230   0.736   3.123   2.430
 5089TIP3    H115231   0.825   3.104   2.399
 5089TIP3    H215232   0.710   3.201   2.382
 5090TIP3   OH215233   4.587   4.796   3.301
 5090TIP3    H115234   4.665   4.762   3.258
 5090TIP3    H215235   4.591   4.891   3.285
 5091TIP3   OH215236   1.340   2.634   5.253
 5091TIP3    H115237   1.368   2.725   5.265
 5091TIP3    H215238   1.250   2.641   5.221
 5092TIP3   OH215239   5.552   0.630   4.490
 5092TIP3    H115240   5.502   0.610   4.569
 5092TIP3    H215241   5.640   0.653   4.522
 5093TIP3   OH215242   1.439   2.240   0.777
 5093TIP3    H115243   1.345   2.242   0.789
 5093TIP3    H215244   1.471   2.177   0.841
 5094TIP3   OH215245   0.959   3.276   5.558
 5094TIP3    H115246   0.883   3.232   5.598
 5094TIP3    H215247   1.025   3.208   5.551
 5095TIP3   OH215248   6.000   3.564   0.766
 5095TIP3    H115249   5.908   3.566   0.790
 5095TIP3    H215250   6.018   3.652   0.732
 5096TIP3   OH215251   6.242   6.680   0.246
 5096TIP3    H115252   6.218   6.668   0.338
 5096TIP3    H215253   6.328   6.638   0.238
 5097TIP3   OH215254   6.302   1.318   2.328
 5097TIP3    H115255   6.347   1.400   2.350
 5097TIP3    H215256   6.372   1.254   2.318
 5098TIP3   OH215257   3.876   2.100   1.432
 5098TIP3    H115258   3.966   2.076   1.407
 5098TIP3    H215259   3.887   2.168   1.498
 5099TIP3   OH215260   3.013   3.523   3.924
 5099TIP3    H115261   3.009   3.595   3.862
 5099TIP3    H215262   3.026   3.564   4.009
 5100TIP3   OH215263   0.485   2.556   2.846
 5100TIP3    H115264   0.528   2.641   2.838
 5100TIP3    H215265   0.555   2.497   2.875
 5101TIP3   OH215266   5.057   1.324   3.550
 5101TIP3    H115267   5.051   1.375   3.469
 5101TIP3    H215268   5.119   1.254   3.531
 5102TIP3   OH215269   3.844   5.891   1.015
 5102TIP3    H115270   3.835   5.798   1.035
 5102TIP3    H215271   3.905   5.923   1.081
 5103TIP3   OH215272   2.167   2.997   5.469
 5103TIP3    H115273   2.105   3.051   5.419
 5103TIP3    H215274   2.253   3.033   5.446
 5104TIP3   OH215275   4.216   1.598   1.403
 5104TIP3    H115276   4.168   1.519   1.378
 5104TIP3    H215277   4.308   1.570   1.407
 5105TIP3   OH215278   2.042   3.900   1.891
 5105TIP3    H115279   2.009   3.899   1.981
 5105TIP3    H215280   2.117   3.841   1.892
 5106TIP3   OH215281   3.528   4.202   0.319
 5106TIP3    H115282   3.614   4.225   0.356
 5106TIP3    H215283   3.549   4.156   0.238
 5107TIP3   OH215284   5.238   3.137   0.748
 5107TIP3    H115285   5.168   3.084   0.711
 5107TIP3    H215286   5.287   3.169   0.673
 5108TIP3   OH215287   3.478   5.008   0.494
 5108TIP3    H115288   3.480   5.061   0.414
 5108TIP3    H215289   3.569   5.002   0.522
 5109TIP3   OH215290   3.762   4.591   4.376
 5109TIP3    H115291   3.851   4.556   4.387
 5109TIP3    H215292   3.705   4.517   4.393
 5110TIP3   OH215293   0.447   1.637   5.172
 5110TIP3    H115294   0.371   1.688   5.144
 5110TIP3    H215295   0.522   1.692   5.150
 5111TIP3   OH215296   6.159   3.039   1.325
 5111TIP3    H115297   6.155   2.955   1.371
 5111TIP3    H215298   6.251   3.064   1.328
 5112TIP3   OH215299   6.651   4.452   2.113
 5112TIP3    H115300   6.728   4.402   2.140
 5112TIP3    H215301   6.582   4.386   2.104
 5113TIP3   OH215302   4.922   0.183   1.370
 5113TIP3    H115303   4.981   0.172   1.445
 5113TIP3    H215304   4.878   0.098   1.362
 5114TIP3   OH215305   6.149   4.232   3.236
 5114TIP3    H115306   6.141   4.305   3.298
 5114TIP3    H215307   6.243   4.213   3.234
 5115TIP3   OH215308   5.105   0.216   0.592
 5115TIP3    H115309   5.084   0.284   0.656
 5115TIP3    H215310   5.123   0.138   0.645
 5116TIP3   OH215311   3.389   0.201  -0.015
 5116TIP3    H115312   3.385   0.197   0.081
 5116TIP3    H215313   3.314   0.150  -0.044
 5117TIP3   OH215314   3.203   1.601   4.543
 5117TIP3    H115315   3.251   1.663   4.598
 5117TIP3    H215316   3.270   1.548   4.501
 5118TIP3   OH215317   4.138   0.467   4.217
 5118TIP3    H115318   4.091   0.487   4.136
 5118TIP3    H215319   4.110   0.378   4.240
 5119TIP3   OH215320   6.561   2.974   2.812
 5119TIP3    H115321   6.481   2.997   2.859
 5119TIP3    H215322   6.604   3.058   2.795
 5120TIP3   OH215323   3.628   5.595   1.221
 5120TIP3    H115324   3.538   5.614   1.193
 5120TIP3    H215325   3.619   5.522   1.282
 5121TIP3   OH215326   0.380   1.944   1.333
 5121TIP3    H115327   0.365   1.849   1.341
 5121TIP3    H215328   0.464   1.958   1.377
 5122TIP3   OH215329   1.531   6.520   1.347
 5122TIP3    H115330   1.502   6.447   1.403
 5122TIP3    H215331   1.466   6.589   1.363
 5123TIP3   OH215332   6.600   0.514   0.958
 5123TIP3    H115333   6.507   0.539   0.962
 5123TIP3    H215334   6.643   0.573   1.020
 5124TIP3   OH215335   1.418   5.931   3.198
 5124TIP3    H115336   1.414   5.861   3.132
 5124TIP3    H215337   1.484   5.901   3.261
 5125TIP3   OH215338   4.460   2.535   5.665
 5125TIP3    H115339   4.408   2.590   5.724
 5125TIP3    H215340   4.547   2.533   5.706
 5126TIP3   OH215341   2.655   4.128   3.084
 5126TIP3    H115342   2.570   4.089   3.065
 5126TIP3    H215343   2.698   4.065   3.142
 5127TIP3   OH215344   0.879   6.270   3.227
 5127TIP3    H115345   0.859   6.357   3.262
 5127TIP3    H215346   0.909   6.287   3.138
 5128TIP3   OH215347   1.848   4.873   0.305
 5128TIP3    H115348   1.901   4.802   0.269
 5128TIP3    H215349   1.868   4.874   0.398
 5129TIP3   OH215350   4.130   6.139   5.529
 5129TIP3    H115351   4.109   6.197   5.602
 5129TIP3    H215352   4.143   6.054   5.569
 5130TIP3   OH215353   3.986   6.264   5.760
 5130TIP3    H115354   3.932   6.208   5.815
 5130TIP3    H215355   3.925   6.300   5.695
 5131TIP3   OH215356   3.433   5.890   0.628
 5131TIP3    H115357   3.406   5.955   0.693
 5131TIP3    H215358   3.491   5.831   0.675
 5132TIP3   OH215359   5.203   3.030   0.292
 5132TIP3    H115360   5.290   3.018   0.329
 5132TIP3    H215361   5.191   3.125   0.290
 5133TIP3   OH215362   5.429   0.705   4.227
 5133TIP3    H115363   5.480   0.715   4.308
 5133TIP3    H215364   5.451   0.617   4.196
 5134TIP3   OH215365   2.362   0.692   4.200
 5134TIP3    H115366   2.449   0.728   4.216
 5134TIP3    H215367   2.336   0.729   4.116
 5135TIP3   OH215368   3.293   1.819   4.967
 5135TIP3    H115369   3.297   1.724   4.962
 5135TIP3    H215370   3.284   1.848   4.876
 5136TIP3   OH215371   2.977   4.938   5.899
 5136TIP3    H115372   3.032   4.860   5.904
 5136TIP3    H215373   2.914   4.918   5.830
 5137TIP3   OH215374   3.831   6.208   3.925
 5137TIP3    H115375   3.804   6.135   3.981
 5137TIP3    H215376   3.767   6.277   3.942
 5138TIP3   OH215377   4.129   0.249   1.005
 5138TIP3    H115378   4.112   0.236   1.098
 5138TIP3    H215379   4.151   0.162   0.972
 5139TIP3   OH215380   6.513   5.556   4.404
 5139TIP3    H115381   6.605   5.535   4.418
 5139TIP3    H215382   6.500   5.637   4.454
 5140TIP3   OH215383   4.669   3.476   3.525
 5140TIP3    H115384   4.709   3.518   3.448
 5140TIP3    H215385   4.739   3.473   3.590
 5141TIP3   OH215386   0.367   3.809   3.633
 5141TIP3    H115387   0.378   3.747   3.706
 5141TIP3    H215388   0.339   3.754   3.560
 5142TIP3   OH215389   4.230   3.360   3.149
 5142TIP3    H115390   4.228   3.397   3.237
 5142TIP3    H215391   4.318   3.323   3.140
 5143TIP3   OH215392   5.330   0.132   5.637
 5143TIP3    H115393   5.273   0.060   5.664
 5143TIP3    H215394   5.349   0.178   5.719
 5144TIP3   OH215395   1.347   4.418   3.374
 5144TIP3    H115396   1.396   4.340   3.400
 5144TIP3    H215397   1.290   4.435   3.449
 5145TIP3   OH215398   1.496   0.943   2.598
 5145TIP3    H115399   1.420   1.001   2.609
 5145TIP3    H215400   1.510   0.940   2.503
 5146TIP3   OH215401   3.982   1.396   5.124
 5146TIP3    H115402   4.076   1.386   5.141
 5146TIP3    H215403   3.944   1.402   5.212
 5147TIP3   OH215404   5.130   4.951   2.212
 5147TIP3    H115405   5.211   4.992   2.180
 5147TIP3    H215406   5.077   4.939   2.133
 5148TIP3   OH215407   6.581   0.138   4.926
 5148TIP3    H115408   6.551   0.048   4.940
 5148TIP3    H215409   6.529   0.170   4.853
 5149TIP3   OH215410   0.225   3.725   5.151
 5149TIP3    H115411   0.271   3.641   5.160
 5149TIP3    H215412   0.153   3.708   5.091
 5150TIP3   OH215413   6.054   0.160   3.405
 5150TIP3    H115414   6.077   0.072   3.432
 5150TIP3    H215415   5.959   0.157   3.393
 5151TIP3   OH215416   4.866   1.185   2.355
 5151TIP3    H115417   4.957   1.195   2.329
 5151TIP3    H215418   4.864   1.209   2.447
 5152TIP3   OH215419   2.616   0.718   1.290
 5152TIP3    H115420   2.619   0.634   1.243
 5152TIP3    H215421   2.631   0.784   1.222
 5153TIP3   OH215422   4.725   1.907   3.356
 5153TIP3    H115423   4.711   1.840   3.288
 5153TIP3    H215424   4.648   1.964   3.351
 5154TIP3   OH215425   2.292   2.543   1.353
 5154TIP3    H115426   2.308   2.449   1.340
 5154TIP3    H215427   2.224   2.547   1.420
 5155TIP3   OH215428   3.426   1.043   4.713
 5155TIP3    H115429   3.499   1.098   4.741
 5155TIP3    H215430   3.370   1.102   4.662
 5156TIP3   OH215431   2.936   2.381   4.383
 5156TIP3    H115432   2.973   2.388   4.295
 5156TIP3    H215433   2.860   2.324   4.373
 5157TIP3   OH215434   7.094   0.808   1.514
 5157TIP3    H115435   7.173   0.841   1.556
 5157TIP3    H215436   7.108   0.824   1.421
 5158TIP3   OH215437   0.330   1.941   0.333
 5158TIP3    H115438   0.302   2.031   0.355
 5158TIP3    H215439   0.420   1.936   0.363
 5159TIP3   OH215440   2.692   3.264   4.073
 5159TIP3    H115441   2.653   3.177   4.068
 5159TIP3    H215442   2.623   3.318   4.113
 5160TIP3   OH215443   6.909   2.861   4.923
 5160TIP3    H115444   6.938   2.893   4.838
 5160TIP3    H215445   6.984   2.812   4.957
 5161TIP3   OH215446   1.216   3.581   2.969
 5161TIP3    H115447   1.135   3.630   2.982
 5161TIP3    H215448   1.260   3.626   2.897
 5162TIP3   OH215449   3.950   1.797   5.341
 5162TIP3    H115450   3.998   1.834   5.267
 5162TIP3    H215451   4.016   1.786   5.409
 5163TIP3   OH215452   7.219   1.339   4.540
 5163TIP3    H115453   7.304   1.318   4.578
 5163TIP3    H215454   7.170   1.257   4.545
 5164TIP3   OH215455   2.160   0.591   3.316
 5164TIP3    H115456   2.079   0.556   3.280
 5164TIP3    H215457   2.134   0.630   3.400
 5165TIP3   OH215458   2.253   4.335   2.380
 5165TIP3    H115459   2.237   4.249   2.343
 5165TIP3    H215460   2.190   4.393   2.336
 5166TIP3   OH215461   0.514   4.131   4.202
 5166TIP3    H115462   0.514   4.138   4.297
 5166TIP3    H215463   0.606   4.136   4.177
 5167TIP3   OH215464   2.088   0.834   4.619
 5167TIP3    H115465   2.064   0.742   4.634
 5167TIP3    H215466   2.123   0.836   4.531
 5168TIP3   OH215467   3.872   2.378   2.717
 5168TIP3    H115468   3.856   2.463   2.676
 5168TIP3    H215469   3.940   2.395   2.782
 5169TIP3   OH215470   4.568   5.500   5.529
 5169TIP3    H115471   4.640   5.542   5.577
 5169TIP3    H215472   4.531   5.571   5.476
 5170TIP3   OH215473   0.034   3.118   0.209
 5170TIP3    H115474   0.034   3.081   0.297
 5170TIP3    H215475  -0.053   3.097   0.174
 5171TIP3   OH215476   2.814   5.945   3.257
 5171TIP3    H115477   2.725   5.972   3.235
 5171TIP3    H215478   2.866   6.025   3.252
 5172TIP3   OH215479   1.177   3.978   2.490
 5172TIP3    H115480   1.096   3.962   2.442
 5172TIP3    H215481   1.247   3.950   2.431
 5173TIP3   OH215482   1.174   1.577   5.916
 5173TIP3    H115483   1.223   1.594   5.836
 5173TIP3    H215484   1.202   1.490   5.944
 5174TIP3   OH215485  -0.022   3.480   1.629
 5174TIP3    H115486  -0.024   3.551   1.564
 5174TIP3    H215487  -0.043   3.401   1.579
 5175TIP3   OH215488   0.796   3.850   4.078
 5175TIP3    H115489   0.870   3.788   4.078
 5175TIP3    H215490   0.730   3.807   4.132
 5176TIP3   OH215491   4.892   3.232   2.313
 5176TIP3    H115492   4.802   3.210   2.335
 5176TIP3    H215493   4.900   3.207   2.221
 5177TIP3   OH215494   3.470   1.706   1.472
 5177TIP3    H115495   3.496   1.614   1.480
 5177TIP3    H215496   3.414   1.708   1.394
 5178TIP3   OH215497   1.990   1.825   3.654
 5178TIP3    H115498   1.918   1.775   3.615
 5178TIP3    H215499   1.955   1.914   3.662
 5179TIP3   OH215500   0.344   0.803   2.628
 5179TIP3    H115501   0.266   0.844   2.591
 5179TIP3    H215502   0.319   0.780   2.718
 5180TIP3   OH215503   7.041   0.051   3.001
 5180TIP3    H115504   6.960   0.102   2.995
 5180TIP3    H215505   7.058   0.044   3.095
 5181TIP3   OH215506   1.511   0.984   0.370
 5181TIP3    H115507   1.429   1.008   0.326
 5181TIP3    H215508   1.527   1.055   0.432
 5182TIP3   OH215509   4.686   3.077   2.937
 5182TIP3    H115510   4.657   3.038   2.854
 5182TIP3    H215511   4.714   3.165   2.914
 5183TIP3   OH215512   6.889   1.335   0.294
 5183TIP3    H115513   6.835   1.262   0.264
 5183TIP3    H215514   6.968   1.331   0.240
 5184TIP3   OH215515   6.007   4.774   5.499
 5184TIP3    H115516   6.058   4.850   5.473
 5184TIP3    H215517   6.073   4.711   5.530
 5185TIP3   OH215518   1.209   6.141   0.738
 5185TIP3    H115519   1.288   6.105   0.777
 5185TIP3    H215520   1.144   6.138   0.808
 5186TIP3   OH215521   6.740   3.178   3.665
 5186TIP3    H115522   6.647   3.161   3.653
 5186TIP3    H215523   6.748   3.206   3.756
 5187TIP3   OH215524   0.881   2.861   4.747
 5187TIP3    H115525   0.890   2.944   4.794
 5187TIP3    H215526   0.827   2.806   4.804
 5188TIP3   OH215527   4.840   4.047   1.482
 5188TIP3    H115528   4.835   4.099   1.563
 5188TIP3    H215529   4.918   4.079   1.438
 5189TIP3   OH215530   5.260   3.693   5.666
 5189TIP3    H115531   5.285   3.751   5.594
 5189TIP3    H215532   5.207   3.625   5.625
 5190TIP3   OH215533   7.016   2.784   4.169
 5190TIP3    H115534   6.978   2.807   4.084
 5190TIP3    H215535   7.106   2.816   4.165
 5191TIP3   OH215536   0.160   1.018   0.354
 5191TIP3    H115537   0.249   1.030   0.321
 5191TIP3    H215538   0.146   0.924   0.350
 5192TIP3   OH215539   6.971   5.607   3.166
 5192TIP3    H115540   6.978   5.539   3.098
 5192TIP3    H215541   6.885   5.593   3.204
 5193TIP3   OH215542   1.412   1.079   5.358
 5193TIP3    H115543   1.321   1.059   5.377
 5193TIP3    H215544   1.451   1.101   5.443
 5194TIP3   OH215545   4.276   1.786   5.254
 5194TIP3    H115546   4.223   1.788   5.174
 5194TIP3    H215547   4.312   1.874   5.262
 5195TIP3   OH215548   6.777   1.676   2.653
 5195TIP3    H115549   6.790   1.658   2.560
 5195TIP3    H215550   6.859   1.716   2.681
 5196TIP3   OH215551   0.157   5.999   2.882
 5196TIP3    H115552   0.130   5.936   2.814
 5196TIP3    H215553   0.202   6.068   2.833
 5197TIP3   OH215554   5.786   2.326   3.919
 5197TIP3    H115555   5.793   2.250   3.862
 5197TIP3    H215556   5.851   2.310   3.989
 5198TIP3   OH215557   0.031   0.613   3.401
 5198TIP3    H115558  -0.061   0.601   3.377
 5198TIP3    H215559   0.029   0.638   3.493
 5199TIP3   OH215560   5.948   1.005   4.459
 5199TIP3    H115561   5.914   0.918   4.437
 5199TIP3    H215562   6.029   0.987   4.506
 5200TIP3   OH215563   2.752   2.145   4.791
 5200TIP3    H115564   2.799   2.137   4.874
 5200TIP3    H215565   2.749   2.240   4.775
 5201TIP3   OH215566   4.383   3.556   0.396
 5201TIP3    H115567   4.404   3.566   0.303
 5201TIP3    H215568   4.314   3.490   0.399
 5202TIP3   OH215569   3.795   5.109   5.159
 5202TIP3    H115570   3.746   5.089   5.079
 5202TIP3    H215571   3.805   5.024   5.202
 5203TIP3   OH215572   6.838   4.096   3.576
 5203TIP3    H115573   6.767   4.061   3.630
 5203TIP3    H215574   6.902   4.129   3.640
 5204TIP3   OH215575   6.788   0.358   5.644
 5204TIP3    H115576   6.849   0.284   5.642
 5204TIP3    H215577   6.845   0.435   5.639
 5205TIP3   OH215578   6.738   4.680   5.562
 5205TIP3    H115579   6.751   4.677   5.467
 5205TIP3    H215580   6.652   4.641   5.576
 5206TIP3   OH215581   2.262   0.295   2.236
 5206TIP3    H115582   2.266   0.329   2.325
 5206TIP3    H215583   2.190   0.232   2.238
 5207TIP3   OH215584   5.806   1.153   5.381
 5207TIP3    H115585   5.857   1.079   5.413
 5207TIP3    H215586   5.863   1.196   5.318
 5208TIP3   OH215587   4.224   5.082   5.373
 5208TIP3    H115588   4.178   5.089   5.290
 5208TIP3    H215589   4.217   4.990   5.397
 5209TIP3   OH215590   4.317   1.982   0.158
 5209TIP3    H115591   4.230   2.018   0.173
 5209TIP3    H215592   4.377   2.046   0.197
 5210TIP3   OH215593   7.214   3.320   5.588
 5210TIP3    H115594   7.244   3.342   5.500
 5210TIP3    H215595   7.226   3.225   5.594
 5211TIP3   OH215596   5.108   0.344   2.233
 5211TIP3    H115597   5.195   0.352   2.193
 5211TIP3    H215598   5.120   0.288   2.309
 5212TIP3   OH215599   3.701   4.092   2.622
 5212TIP3    H115600   3.739   4.131   2.543
 5212TIP3    H215601   3.678   4.003   2.596
 5213TIP3   OH215602   0.535   2.271   5.192
 5213TIP3    H115603   0.538   2.362   5.222
 5213TIP3    H215604   0.473   2.272   5.119
 5214TIP3   OH215605   0.230   5.272   2.345
 5214TIP3    H115606   0.297   5.242   2.406
 5214TIP3    H215607   0.201   5.193   2.299
 5215TIP3   OH215608   1.164   5.514   3.938
 5215TIP3    H115609   1.124   5.571   4.004
 5215TIP3    H215610   1.109   5.435   3.939
 5216TIP3   OH215611   1.586   5.403   3.539
 5216TIP3    H115612   1.624   5.318   3.558
 5216TIP3    H215613   1.627   5.463   3.601
 5217TIP3   OH215614   1.608   3.772   4.100
 5217TIP3    H115615   1.645   3.754   4.186
 5217TIP3    H215616   1.666   3.726   4.039
 5218TIP3   OH215617   4.188   2.312   0.264
 5218TIP3    H115618   4.113   2.358   0.302
 5218TIP3    H215619   4.207   2.361   0.184
 5219TIP3   OH215620   4.126   6.552   2.936
 5219TIP3    H115621   4.094   6.622   2.993
 5219TIP3    H215622   4.148   6.480   2.995
 5220TIP3   OH215623   4.776   2.187   0.464
 5220TIP3    H115624   4.736   2.172   0.550
 5220TIP3    H215625   4.759   2.107   0.415
 5221TIP3   OH215626   5.730   4.028   2.076
 5221TIP3    H115627   5.739   3.953   2.017
 5221TIP3    H215628   5.637   4.031   2.098
 5222TIP3   OH215629   3.905   1.689   2.554
 5222TIP3    H115630   3.928   1.677   2.646
 5222TIP3    H215631   3.915   1.783   2.538
 5223TIP3   OH215632   3.650   4.516   1.849
 5223TIP3    H115633   3.579   4.510   1.785
 5223TIP3    H215634   3.611   4.486   1.931
 5224TIP3   OH215635   7.017   6.753   2.744
 5224TIP3    H115636   6.925   6.781   2.743
 5224TIP3    H215637   7.037   6.743   2.837
 5225TIP3   OH215638   4.464   1.913   3.070
 5225TIP3    H115639   4.472   1.943   2.979
 5225TIP3    H215640   4.553   1.889   3.095
 5226TIP3   OH215641   4.330   0.393   0.893
 5226TIP3    H115642   4.413   0.349   0.911
 5226TIP3    H215643   4.264   0.333   0.928
 5227TIP3   OH215644   2.903   3.020   5.050
 5227TIP3    H115645   2.919   2.932   5.015
 5227TIP3    H215646   2.866   3.005   5.137
 5228TIP3   OH215647   4.680   2.871   1.471
 5228TIP3    H115648   4.712   2.793   1.515
 5228TIP3    H215649   4.612   2.839   1.412
 5229TIP3   OH215650   7.116   6.552   2.534
 5229TIP3    H115651   7.058   6.608   2.585
 5229TIP3    H215652   7.201   6.561   2.577
 5230TIP3   OH215653   4.777   2.078   1.542
 5230TIP3    H115654   4.853   2.026   1.517
 5230TIP3    H215655   4.702   2.025   1.514
 5231TIP3   OH215656   2.328   1.616   1.640
 5231TIP3    H115657   2.385   1.642   1.568
 5231TIP3    H215658   2.328   1.521   1.638
 5232TIP3   OH215659   5.188   6.702   4.294
 5232TIP3    H115660   5.157   6.613   4.308
 5232TIP3    H215661   5.267   6.709   4.349
 5233TIP3   OH215662   4.249   2.810   1.560
 5233TIP3    H115663   4.306   2.761   1.500
 5233TIP3    H215664   4.161   2.788   1.531
 5234TIP3   OH215665   2.817   5.969   1.381
 5234TIP3    H115666   2.730   5.971   1.340
 5234TIP3    H215667   2.799   5.968   1.475
 5235TIP3   OH215668   0.222   4.425   5.497
 5235TIP3    H115669   0.278   4.356   5.532
 5235TIP3    H215670   0.133   4.396   5.516
 5236TIP3   OH215671   4.183   0.358   3.780
 5236TIP3    H115672   4.142   0.360   3.694
 5236TIP3    H215673   4.261   0.412   3.772
 5237TIP3   OH215674   6.809   3.215   3.417
 5237TIP3    H115675   6.820   3.128   3.379
 5237TIP3    H215676   6.771   3.200   3.503
 5238TIP3   OH215677   1.182   5.356   3.058
 5238TIP3    H115678   1.166   5.385   3.147
 5238TIP3    H215679   1.256   5.296   3.065
 5239TIP3   OH215680   5.640   6.787   0.360
 5239TIP3    H115681   5.732   6.760   0.355
 5239TIP3    H215682   5.622   6.796   0.453
 5240TIP3   OH215683   6.770   3.889   3.919
 5240TIP3    H115684   6.753   3.892   4.013
 5240TIP3    H215685   6.841   3.951   3.905
 5241TIP3   OH215686   6.326   2.907   3.563
 5241TIP3    H115687   6.371   2.826   3.586
 5241TIP3    H215688   6.264   2.921   3.635
 5242TIP3   OH215689   5.406   1.318   1.031
 5242TIP3    H115690   5.331   1.261   1.016
 5242TIP3    H215691   5.369   1.400   1.063
 5243TIP3   OH215692   6.872   1.063   0.642
 5243TIP3    H115693   6.887   1.105   0.726
 5243TIP3    H215694   6.958   1.060   0.600
 5244TIP3   OH215695   2.871   0.482   1.439
 5244TIP3    H115696   2.893   0.455   1.350
 5244TIP3    H215697   2.943   0.540   1.465
 5245TIP3   OH215698   2.164   2.949   0.365
 5245TIP3    H115699   2.251   2.957   0.405
 5245TIP3    H215700   2.181   2.936   0.272
 5246TIP3   OH215701   1.718   4.141   4.036
 5246TIP3    H115702   1.722   4.127   4.131
 5246TIP3    H215703   1.798   4.102   4.003
 5247TIP3   OH215704   0.771   6.825   4.792
 5247TIP3    H115705   0.743   6.878   4.718
 5247TIP3    H215706   0.854   6.786   4.764
 5248TIP3   OH215707   4.862   4.789   0.494
 5248TIP3    H115708   4.780   4.821   0.531
 5248TIP3    H215709   4.862   4.821   0.404
 5249TIP3   OH215710   2.536   5.986   4.989
 5249TIP3    H115711   2.600   5.986   5.060
 5249TIP3    H215712   2.454   5.957   5.030
 5250TIP3   OH215713   4.260   2.800   0.524
 5250TIP3    H115714   4.266   2.766   0.434
 5250TIP3    H215715   4.322   2.873   0.526
 5251TIP3   OH215716   4.589   1.701   5.216
 5251TIP3    H115717   4.560   1.614   5.245
 5251TIP3    H215718   4.663   1.685   5.158
 5252TIP3   OH215719   6.443   6.062   1.116
 5252TIP3    H115720   6.390   6.026   1.044
 5252TIP3    H215721   6.389   6.048   1.194
 5253TIP3   OH215722   1.110   3.409   1.648
 5253TIP3    H115723   1.194   3.426   1.605
 5253TIP3    H215724   1.045   3.443   1.587
 5254TIP3   OH215725   2.300   6.216   4.544
 5254TIP3    H115726   2.219   6.249   4.581
 5254TIP3    H215727   2.310   6.128   4.582
 5255TIP3   OH215728   1.719   0.351   3.489
 5255TIP3    H115729   1.664   0.332   3.413
 5255TIP3    H215730   1.662   0.399   3.549
 5256TIP3   OH215731   0.634   5.999   2.693
 5256TIP3    H115732   0.603   5.950   2.770
 5256TIP3    H215733   0.684   6.072   2.730
 5257TIP3   OH215734   2.708   3.300   1.832
 5257TIP3    H115735   2.626   3.306   1.782
 5257TIP3    H215736   2.777   3.316   1.768
 5258TIP3   OH215737   0.061   0.947   3.827
 5258TIP3    H115738   0.040   0.883   3.895
 5258TIP3    H215739   0.119   1.009   3.869
 5259TIP3   OH215740   6.797   0.837   4.178
 5259TIP3    H115741   6.726   0.792   4.132
 5259TIP3    H215742   6.864   0.770   4.191
 5260TIP3   OH215743   6.432   5.792   2.010
 5260TIP3    H115744   6.436   5.696   2.008
 5260TIP3    H215745   6.522   5.819   2.025
 5261TIP3   OH215746   1.576   0.709   4.383
 5261TIP3    H115747   1.593   0.729   4.291
 5261TIP3    H215748   1.489   0.670   4.384
 5262TIP3   OH215749   4.695   4.323   1.246
 5262TIP3    H115750   4.733   4.380   1.313
 5262TIP3    H215751   4.689   4.379   1.168
 5263TIP3   OH215752   0.736   3.393   1.843
 5263TIP3    H115753   0.647   3.376   1.872
 5263TIP3    H215754   0.737   3.368   1.751
 5264TIP3   OH215755   3.029   0.465   3.578
 5264TIP3    H115756   3.112   0.440   3.619
 5264TIP3    H215757   3.004   0.546   3.623
 5265TIP3   OH215758   3.717   6.620   2.050
 5265TIP3    H115759   3.809   6.612   2.025
 5265TIP3    H215760   3.706   6.713   2.070
 5266TIP3   OH215761   1.275   4.062   5.456
 5266TIP3    H115762   1.307   4.030   5.372
 5266TIP3    H215763   1.230   4.145   5.435
 5267TIP3   OH215764   3.439   0.040   4.360
 5267TIP3    H115765   3.529   0.008   4.362
 5267TIP3    H215766   3.440   0.116   4.419
 5268TIP3   OH215767   2.540   2.006   3.831
 5268TIP3    H115768   2.475   1.945   3.797
 5268TIP3    H215769   2.510   2.027   3.919
 5269TIP3   OH215770   5.919   1.476   1.727
 5269TIP3    H115771   5.873   1.524   1.658
 5269TIP3    H215772   6.010   1.505   1.721
 5270TIP3   OH215773   4.763   2.075   1.998
 5270TIP3    H115774   4.788   2.150   1.944
 5270TIP3    H215775   4.838   2.015   1.993
 5271TIP3   OH215776   5.711   0.307   1.525
 5271TIP3    H115777   5.722   0.383   1.582
 5271TIP3    H215778   5.708   0.344   1.437
 5272TIP3   OH215779   5.370   4.553   2.534
 5272TIP3    H115780   5.411   4.501   2.464
 5272TIP3    H215781   5.353   4.638   2.494
 5273TIP3   OH215782   0.761   1.561   0.324
 5273TIP3    H115783   0.855   1.574   0.334
 5273TIP3    H215784   0.731   1.538   0.412
 5274TIP3   OH215785   3.084   0.832   2.277
 5274TIP3    H115786   3.107   0.881   2.198
 5274TIP3    H215787   3.061   0.900   2.341
 5275TIP3   OH215788   1.993   1.488   0.796
 5275TIP3    H115789   1.953   1.404   0.817
 5275TIP3    H215790   1.931   1.553   0.829
 5276TIP3   OH215791   6.292   3.518   1.027
 5276TIP3    H115792   6.322   3.532   0.937
 5276TIP3    H215793   6.204   3.555   1.029
 5277TIP3   OH215794   5.737   3.592   0.858
 5277TIP3    H115795   5.687   3.511   0.848
 5277TIP3    H215796   5.708   3.648   0.786
 5278TIP3   OH215797   3.909   4.266   5.341
 5278TIP3    H115798   3.936   4.285   5.251
 5278TIP3    H215799   3.981   4.216   5.378
 5279TIP3   OH215800   6.543   0.477   4.986
 5279TIP3    H115801   6.527   0.484   5.080
 5279TIP3    H215802   6.503   0.556   4.949
 5280TIP3   OH215803   5.343   5.310   5.705
 5280TIP3    H115804   5.430   5.345   5.723
 5280TIP3    H215805   5.314   5.274   5.789
 5281TIP3   OH215806   0.664   2.579   0.049
 5281TIP3    H115807   0.591   2.540   0.098
 5281TIP3    H215808   0.639   2.671   0.039
 5282TIP3   OH215809   1.162   0.956   1.306
 5282TIP3    H115810   1.182   1.050   1.304
 5282TIP3    H215811   1.124   0.938   1.220
 5283TIP3   OH215812   2.429   4.713   0.963
 5283TIP3    H115813   2.380   4.776   0.910
 5283TIP3    H215814   2.439   4.755   1.048
 5284TIP3   OH215815   6.103   5.178   2.299
 5284TIP3    H115816   6.097   5.224   2.382
 5284TIP3    H215817   6.186   5.132   2.303
 5285TIP3   OH215818   5.705   0.248   0.442
 5285TIP3    H115819   5.693   0.272   0.350
 5285TIP3    H215820   5.617   0.237   0.476
 5286TIP3   OH215821   4.804   4.020   5.605
 5286TIP3    H115822   4.806   3.925   5.619
 5286TIP3    H215823   4.712   4.043   5.609
 5287TIP3   OH215824   3.292   1.261   4.529
 5287TIP3    H115825   3.229   1.268   4.457
 5287TIP3    H215826   3.352   1.335   4.516
 5288TIP3   OH215827   0.975   4.709   4.319
 5288TIP3    H115828   0.908   4.755   4.269
 5288TIP3    H215829   1.036   4.675   4.252
 5289TIP3   OH215830   0.774   4.118   2.202
 5289TIP3    H115831   0.763   4.132   2.108
 5289TIP3    H215832   0.811   4.200   2.234
 5290TIP3   OH215833   6.624   1.251   0.095
 5290TIP3    H115834   6.586   1.171   0.059
 5290TIP3    H215835   6.710   1.258   0.052
 5291TIP3   OH215836   0.547   2.430   1.497
 5291TIP3    H115837   0.556   2.520   1.467
 5291TIP3    H215838   0.599   2.426   1.578
 5292TIP3   OH215839   2.802   0.180   4.656
 5292TIP3    H115840   2.767   0.233   4.584
 5292TIP3    H215841   2.794   0.236   4.733
 5293TIP3   OH215842   6.360   4.380   5.455
 5293TIP3    H115843   6.426   4.312   5.438
 5293TIP3    H215844   6.279   4.344   5.418
 5294TIP3   OH215845   6.102   2.949   0.037
 5294TIP3    H115846   6.068   2.917  -0.046
 5294TIP3    H215847   6.058   2.896   0.103
 5295TIP3   OH215848   4.843   4.036   2.236
 5295TIP3    H115849   4.841   3.957   2.291
 5295TIP3    H215850   4.804   4.104   2.291
 5296TIP3   OH215851   4.858   2.471   4.728
 5296TIP3    H115852   4.942   2.440   4.694
 5296TIP3    H215853   4.851   2.430   4.814
 5297TIP3   OH215854   2.660   2.728   4.009
 5297TIP3    H115855   2.652   2.752   4.102
 5297TIP3    H215856   2.751   2.746   3.988
 5298TIP3   OH215857   1.291   3.913   3.022
 5298TIP3    H115858   1.281   3.935   3.114
 5298TIP3    H215859   1.203   3.923   2.985
 5299TIP3   OH215860   3.137   2.538   5.537
 5299TIP3    H115861   3.077   2.477   5.581
 5299TIP3    H215862   3.157   2.604   5.603
 5300TIP3   OH215863   1.535   1.134   1.593
 5300TIP3    H115864   1.502   1.126   1.504
 5300TIP3    H215865   1.618   1.086   1.593
 5301TIP3   OH215866   6.676   3.912   5.766
 5301TIP3    H115867   6.611   3.875   5.826
 5301TIP3    H215868   6.759   3.873   5.793
 5302TIP3   OH215869   5.121   5.284   1.002
 5302TIP3    H115870   5.070   5.226   1.059
 5302TIP3    H215871   5.211   5.274   1.031
 5303TIP3   OH215872   2.497   5.385   3.850
 5303TIP3    H115873   2.440   5.309   3.837
 5303TIP3    H215874   2.585   5.347   3.856
 5304TIP3   OH215875   3.633   2.164   3.904
 5304TIP3    H115876   3.647   2.243   3.850
 5304TIP3    H215877   3.543   2.172   3.935
 5305TIP3   OH215878   5.491   5.107   1.281
 5305TIP3    H115879   5.531   5.030   1.321
 5305TIP3    H215880   5.519   5.180   1.337
 5306TIP3   OH215881   5.249   6.773   5.501
 5306TIP3    H115882   5.324   6.807   5.551
 5306TIP3    H215883   5.275   6.683   5.480
 5307TIP3   OH215884   5.988   3.941   4.499
 5307TIP3    H115885   5.917   3.994   4.536
 5307TIP3    H215886   6.048   3.929   4.572
 5308TIP3   OH215887   0.610   3.442   0.784
 5308TIP3    H115888   0.680   3.478   0.730
 5308TIP3    H215889   0.579   3.516   0.837
 5309TIP3   OH215890   0.241   6.470   1.349
 5309TIP3    H115891   0.160   6.490   1.396
 5309TIP3    H215892   0.308   6.464   1.417
 5310TIP3   OH215893   6.683   1.831   4.840
 5310TIP3    H115894   6.661   1.813   4.748
 5310TIP3    H215895   6.713   1.922   4.839
 5311TIP3   OH215896   0.631   6.078   5.059
 5311TIP3    H115897   0.717   6.042   5.035
 5311TIP3    H215898   0.651   6.145   5.123
 5312TIP3   OH215899   0.416   2.714   5.707
 5312TIP3    H115900   0.462   2.739   5.787
 5312TIP3    H215901   0.484   2.712   5.639
 5313TIP3   OH215902   4.161   5.741   5.487
 5313TIP3    H115903   4.098   5.763   5.419
 5313TIP3    H215904   4.203   5.824   5.509
 5314TIP3   OH215905   6.831   1.823   4.529
 5314TIP3    H115906   6.736   1.831   4.518
 5314TIP3    H215907   6.857   1.755   4.467
 5315TIP3   OH215908   0.315   3.760   5.429
 5315TIP3    H115909   0.258   3.780   5.356
 5315TIP3    H215910   0.402   3.750   5.390
 5316TIP3   OH215911   3.350   3.704   4.384
 5316TIP3    H115912   3.294   3.772   4.422
 5316TIP3    H215913   3.343   3.717   4.289
 5317TIP3   OH215914   3.794   5.441   3.781
 5317TIP3    H115915   3.751   5.498   3.718
 5317TIP3    H215916   3.742   5.360   3.780
 5318TIP3   OH215917   5.978   0.681   2.841
 5318TIP3    H115918   5.936   0.622   2.779
 5318TIP3    H215919   5.904   0.725   2.884
 5319TIP3   OH215920   2.419   1.924   4.483
 5319TIP3    H115921   2.406   1.835   4.516
 5319TIP3    H215922   2.457   1.972   4.557
 5320TIP3   OH215923   2.343   5.000   2.155
 5320TIP3    H115924   2.389   5.071   2.199
 5320TIP3    H215925   2.274   4.975   2.216
 5321TIP3   OH215926   4.200   4.798   5.862
 5321TIP3    H115927   4.290   4.829   5.849
 5321TIP3    H215928   4.206   4.734   5.932
 5322TIP3   OH215929   4.759   4.576   1.159
 5322TIP3    H115930   4.712   4.657   1.137
 5322TIP3    H215931   4.804   4.596   1.241
 5323TIP3   OH215932   5.007   1.021   5.597
 5323TIP3    H115933   5.094   1.058   5.586
 5323TIP3    H215934   4.952   1.095   5.622
 5324TIP3   OH215935   0.155   1.142   0.876
 5324TIP3    H115936   0.156   1.081   0.950
 5324TIP3    H215937   0.064   1.148   0.850
 5325TIP3   OH215938   0.795   2.660   3.847
 5325TIP3    H115939   0.823   2.654   3.756
 5325TIP3    H215940   0.821   2.748   3.875
 5326TIP3   OH215941   1.825   3.338   0.972
 5326TIP3    H115942   1.740   3.327   1.016
 5326TIP3    H215943   1.802   3.371   0.885
 5327TIP3   OH215944   3.549   6.405   3.422
 5327TIP3    H115945   3.638   6.372   3.425
 5327TIP3    H215946   3.501   6.341   3.370
 5328TIP3   OH215947   6.811   6.647   1.899
 5328TIP3    H115948   6.867   6.581   1.939
 5328TIP3    H215949   6.729   6.602   1.881
 5329TIP3   OH215950   4.511   0.403   4.015
 5329TIP3    H115951   4.502   0.478   4.073
 5329TIP3    H215952   4.606   0.386   4.012
 5330TIP3   OH215953   6.161   6.059   3.132
 5330TIP3    H115954   6.101   6.090   3.065
 5330TIP3    H215955   6.117   5.984   3.172
 5331TIP3   OH215956   4.500   1.721   2.041
 5331TIP3    H115957   4.463   1.681   1.963
 5331TIP3    H215958   4.429   1.775   2.077
 5332TIP3   OH215959   1.890   4.667   3.081
 5332TIP3    H115960   1.841   4.643   3.002
 5332TIP3    H215961   1.965   4.608   3.081
 5333TIP3   OH215962   5.097   2.020   5.031
 5333TIP3    H115963   5.086   2.083   4.960
 5333TIP3    H215964   5.010   1.981   5.042
 5334TIP3   OH215965   6.558   0.570   5.225
 5334TIP3    H115966   6.562   0.531   5.313
 5334TIP3    H215967   6.648   0.566   5.193
 5335TIP3   OH215968   6.301   1.608   5.631
 5335TIP3    H115969   6.218   1.576   5.665
 5335TIP3    H215970   6.310   1.696   5.669
 5336TIP3   OH215971   3.564   3.868   3.213
 5336TIP3    H115972   3.567   3.922   3.135
 5336TIP3    H215973   3.472   3.845   3.224
 5337TIP3   OH215974   5.317   2.355   3.781
 5337TIP3    H115975   5.298   2.331   3.872
 5337TIP3    H215976   5.363   2.438   3.787
 5338TIP3   OH215977   2.181   4.008   4.712
 5338TIP3    H115978   2.110   4.059   4.752
 5338TIP3    H215979   2.233   4.072   4.664
 5339TIP3   OH215980   0.377   6.440   2.524
 5339TIP3    H115981   0.300   6.497   2.525
 5339TIP3    H215982   0.436   6.477   2.590
 5340TIP3   OH215983   3.125   6.070   4.855
 5340TIP3    H115984   3.146   6.099   4.767
 5340TIP3    H215985   3.031   6.085   4.864
 5341TIP3   OH215986   3.533   2.141   0.001
 5341TIP3    H115987   3.477   2.217  -0.015
 5341TIP3    H215988   3.489   2.093   0.071
 5342TIP3   OH215989   4.227   3.775   0.383
 5342TIP3    H115990   4.288   3.703   0.400
 5342TIP3    H215991   4.149   3.733   0.347
 5343TIP3   OH215992   5.821   2.845   2.345
 5343TIP3    H115993   5.756   2.818   2.410
 5343TIP3    H215994   5.902   2.854   2.395
 5344TIP3   OH215995   5.405   3.469   5.299
 5344TIP3    H115996   5.409   3.439   5.208
 5344TIP3    H215997   5.377   3.560   5.292
 5345TIP3   OH215998   3.108   1.294   4.028
 5345TIP3    H115999   3.024   1.250   4.019
 5345TIP3    H216000   3.124   1.335   3.943
 5346TIP3   OH216001   1.859   5.134   3.861
 5346TIP3    H116002   1.765   5.121   3.873
 5346TIP3    H216003   1.889   5.054   3.818
 5347TIP3   OH216004   2.126   5.042   2.291
 5347TIP3    H116005   2.123   5.131   2.326
 5347TIP3    H216006   2.035   5.023   2.266
 5348TIP3   OH216007   0.707   6.092   1.370
 5348TIP3    H116008   0.777   6.149   1.400
 5348TIP3    H216009   0.672   6.135   1.292
 5349TIP3   OH216010   1.435   5.927   1.937
 5349TIP3    H116011   1.414   5.838   1.907
 5349TIP3    H216012   1.501   5.957   1.876
 5350TIP3   OH216013   1.082   5.025   2.814
 5350TIP3    H116014   1.176   5.031   2.797
 5350TIP3    H216015   1.048   4.971   2.743
 5351TIP3   OH216016   6.424   5.905   3.427
 5351TIP3    H116017   6.500   5.957   3.455
 5351TIP3    H216018   6.443   5.817   3.457
 5352TIP3   OH216019   6.131   6.165   4.552
 5352TIP3    H116020   6.116   6.212   4.634
 5352TIP3    H216021   6.087   6.081   4.565
 5353TIP3   OH216022   7.078   0.510   4.850
 5353TIP3    H116023   7.049   0.436   4.904
 5353TIP3    H216024   7.090   0.582   4.911
 5354TIP3   OH216025   1.462   1.511   2.962
 5354TIP3    H116026   1.395   1.446   2.940
 5354TIP3    H216027   1.412   1.587   2.992
 5355TIP3   OH216028   4.470   5.052   5.543
 5355TIP3    H116029   4.478   4.988   5.472
 5355TIP3    H216030   4.407   5.116   5.510
 5356TIP3   OH216031   1.738   6.474   1.674
 5356TIP3    H116032   1.825   6.461   1.710
 5356TIP3    H216033   1.727   6.569   1.670
 5357TIP3   OH216034   2.284   6.384   2.908
 5357TIP3    H116035   2.231   6.309   2.881
 5357TIP3    H216036   2.373   6.362   2.881
 5358TIP3   OH216037   0.543   5.011   0.512
 5358TIP3    H116038   0.472   5.022   0.575
 5358TIP3    H216039   0.611   4.963   0.560
 5359TIP3   OH216040   3.512   1.696   5.304
 5359TIP3    H116041   3.576   1.767   5.292
 5359TIP3    H216042   3.537   1.656   5.387
 5360TIP3   OH216043   1.105   5.593   1.710
 5360TIP3    H116044   1.161   5.626   1.639
 5360TIP3    H216045   1.089   5.670   1.765
 5361TIP3   OH216046   0.360   6.760   4.828
 5361TIP3    H116047   0.296   6.719   4.770
 5361TIP3    H216048   0.391   6.837   4.779
 5362TIP3   OH216049   0.440   0.993   4.432
 5362TIP3    H116050   0.344   0.999   4.430
 5362TIP3    H216051   0.459   0.904   4.401
 5363TIP3   OH216052   1.217   0.147   3.145
 5363TIP3    H116053   1.292   0.193   3.182
 5363TIP3    H216054   1.150   0.214   3.134
 5364TIP3   OH216055   5.266   6.462   5.442
 5364TIP3    H116056   5.336   6.431   5.385
 5364TIP3    H216057   5.196   6.398   5.431
 5365TIP3   OH216058   3.464   5.050   5.834
 5365TIP3    H116059   3.438   5.088   5.750
 5365TIP3    H216060   3.548   5.008   5.816
 5366TIP3   OH216061   6.778   2.673   5.328
 5366TIP3    H116062   6.747   2.627   5.406
 5366TIP3    H216063   6.779   2.606   5.260
 5367TIP3   OH216064   0.191   6.014   0.299
 5367TIP3    H116065   0.163   5.982   0.385
 5367TIP3    H216066   0.188   5.937   0.243
 5368TIP3   OH216067   4.541   3.506   4.089
 5368TIP3    H116068   4.503   3.444   4.151
 5368TIP3    H216069   4.628   3.470   4.071
 5369TIP3   OH216070   2.853   6.124   3.793
 5369TIP3    H116071   2.880   6.215   3.805
 5369TIP3    H216072   2.924   6.085   3.742
 5370TIP3   OH216073   1.472   4.990   0.819
 5370TIP3    H116074   1.435   4.941   0.745
 5370TIP3    H216075   1.435   5.078   0.810
 5371TIP3   OH216076   0.915   6.457   4.482
 5371TIP3    H116077   0.998   6.489   4.517
 5371TIP3    H216078   0.853   6.528   4.496
 5372TIP3   OH216079   4.966   0.071   4.407
 5372TIP3    H116080   4.952   0.048   4.499
 5372TIP3    H216081   4.921   0.001   4.358
 5373TIP3   OH216082   5.080   1.599   2.487
 5373TIP3    H116083   5.016   1.549   2.436
 5373TIP3    H216084   5.036   1.681   2.509
 5374TIP3   OH216085   1.423   4.068   5.870
 5374TIP3    H116086   1.332   4.096   5.887
 5374TIP3    H216087   1.415   4.003   5.801
 5375TIP3   OH216088   0.207   5.918   2.128
 5375TIP3    H116089   0.294   5.925   2.166
 5375TIP3    H216090   0.212   5.842   2.070
 5376TIP3   OH216091   0.114   2.258   4.557
 5376TIP3    H116092   0.170   2.317   4.507
 5376TIP3    H216093   0.119   2.175   4.510
 5377TIP3   OH216094   2.291   5.771   0.195
 5377TIP3    H116095   2.230   5.838   0.226
 5377TIP3    H216096   2.242   5.689   0.202
 5378TIP3   OH216097   1.705   4.488   2.090
 5378TIP3    H116098   1.611   4.497   2.107
 5378TIP3    H216099   1.743   4.469   2.176
 5379TIP3   OH216100   6.249   3.145   4.288
 5379TIP3    H116101   6.323   3.096   4.252
 5379TIP3    H216102   6.220   3.201   4.216
 5380TIP3   OH216103   6.332   1.369   1.813
 5380TIP3    H116104   6.305   1.460   1.819
 5380TIP3    H216105   6.255   1.322   1.783
 5381TIP3   OH216106   0.008   2.197   5.747
 5381TIP3    H116107   0.064   2.127   5.782
 5381TIP3    H216108  -0.047   2.153   5.682
 5382TIP3   OH216109   0.282   0.667   2.884
 5382TIP3    H116110   0.215   0.621   2.834
 5382TIP3    H216111   0.260   0.650   2.976
 5383TIP3   OH216112   1.772   2.396   5.694
 5383TIP3    H116113   1.750   2.328   5.631
 5383TIP3    H216114   1.768   2.477   5.644
 5384TIP3   OH216115   0.456   3.589   5.738
 5384TIP3    H116116   0.541   3.592   5.694
 5384TIP3    H216117   0.458   3.507   5.788
 5385TIP3   OH216118   3.905   4.037   0.483
 5385TIP3    H116119   3.994   4.007   0.504
 5385TIP3    H216120   3.883   4.098   0.553
 5386TIP3   OH216121   4.840   1.156   2.040
 5386TIP3    H116122   4.887   1.233   2.008
 5386TIP3    H216123   4.837   1.097   1.965
 5387TIP3   OH216124   5.217   3.138   5.730
 5387TIP3    H116125   5.152   3.068   5.736
 5387TIP3    H216126   5.167   3.214   5.699
 5388TIP3   OH216127   0.713   0.566   5.366
 5388TIP3    H116128   0.650   0.495   5.358
 5388TIP3    H216129   0.771   0.557   5.290
 5389TIP3   OH216130   6.927   1.861   0.093
 5389TIP3    H116131   6.857   1.922   0.116
 5389TIP3    H216132   6.883   1.777   0.082
 5390TIP3   OH216133   2.212   2.826   3.255
 5390TIP3    H116134   2.218   2.730   3.256
 5390TIP3    H216135   2.134   2.845   3.308
 5391TIP3   OH216136   7.126   1.345   4.281
 5391TIP3    H116137   7.075   1.426   4.285
 5391TIP3    H216138   7.158   1.333   4.371
 5392TIP3   OH216139   4.417   3.343   4.262
 5392TIP3    H116140   4.411   3.375   4.352
 5392TIP3    H216141   4.327   3.325   4.237
 5393TIP3   OH216142   2.527   2.619   3.220
 5393TIP3    H116143   2.564   2.673   3.290
 5393TIP3    H216144   2.595   2.617   3.153
 5394TIP3   OH216145   2.363   2.105   0.965
 5394TIP3    H116146   2.385   2.027   1.016
 5394TIP3    H216147   2.389   2.178   1.019
 5395TIP3   OH216148   2.127   5.810   0.698
 5395TIP3    H116149   2.184   5.774   0.766
 5395TIP3    H216150   2.080   5.735   0.664
 5396TIP3   OH216151   1.817   0.456   1.686
 5396TIP3    H116152   1.804   0.446   1.592
 5396TIP3    H216153   1.806   0.368   1.721
 5397TIP3   OH216154   1.261   5.283   5.366
 5397TIP3    H116155   1.352   5.294   5.338
 5397TIP3    H216156   1.220   5.232   5.296
 5398TIP3   OH216157   1.933   4.489   4.732
 5398TIP3    H116158   1.907   4.569   4.686
 5398TIP3    H216159   1.977   4.520   4.811
 5399TIP3   OH216160   4.721   6.578   3.000
 5399TIP3    H116161   4.736   6.591   3.094
 5399TIP3    H216162   4.626   6.584   2.990
 5400TIP3   OH216163   0.766   6.749   3.827
 5400TIP3    H116164   0.816   6.668   3.839
 5400TIP3    H216165   0.678   6.719   3.804
 5401TIP3   OH216166   6.785   4.526   4.328
 5401TIP3    H116167   6.708   4.483   4.291
 5401TIP3    H216168   6.849   4.456   4.340
 5402TIP3   OH216169   1.517   5.483   4.973
 5402TIP3    H116170   1.507   5.575   4.949
 5402TIP3    H216171   1.560   5.443   4.897
 5403TIP3   OH216172   6.628   2.444   0.011
 5403TIP3    H116173   6.648   2.458  -0.082
 5403TIP3    H216174   6.539   2.408   0.010
 5404TIP3   OH216175   4.877   6.022   5.307
 5404TIP3    H116176   4.805   6.008   5.246
 5404TIP3    H216177   4.835   6.048   5.389
 5405TIP3   OH216178   7.227   4.506   3.273
 5405TIP3    H116179   7.253   4.483   3.362
 5405TIP3    H216180   7.232   4.423   3.225
 5406TIP3   OH216181   5.428   2.642   1.122
 5406TIP3    H116182   5.344   2.604   1.147
 5406TIP3    H216183   5.468   2.670   1.205
 5407TIP3   OH216184   2.275   5.699   4.006
 5407TIP3    H116185   2.266   5.607   3.984
 5407TIP3    H216186   2.282   5.701   4.102
 5408TIP3   OH216187   6.867   5.222   2.630
 5408TIP3    H116188   6.956   5.188   2.623
 5408TIP3    H216189   6.828   5.173   2.703
 5409TIP3   OH216190   4.591   4.974   2.012
 5409TIP3    H116191   4.530   4.909   2.046
 5409TIP3    H216192   4.646   4.997   2.087
 5410TIP3   OH216193   4.832   0.907   2.698
 5410TIP3    H116194   4.769   0.930   2.630
 5410TIP3    H216195   4.822   0.974   2.765
 5411TIP3   OH216196   1.615   0.018   4.397
 5411TIP3    H116197   1.629   0.008   4.491
 5411TIP3    H216198   1.551   0.089   4.390
 5412TIP3   OH216199   6.140   5.305  -0.004
 5412TIP3    H116200   6.195   5.311   0.074
 5412TIP3    H216201   6.175   5.230  -0.052
 5413TIP3   OH216202   0.052   5.567   5.175
 5413TIP3    H116203   0.145   5.555   5.157
 5413TIP3    H216204   0.048   5.593   5.267
 5414TIP3   OH216205   0.226   1.404   4.696
 5414TIP3    H116206   0.193   1.343   4.762
 5414TIP3    H216207   0.228   1.489   4.740
 5415TIP3   OH216208   0.594   0.730   4.420
 5415TIP3    H116209   0.604   0.635   4.427
 5415TIP3    H216210   0.602   0.748   4.326
 5416TIP3   OH216211   1.155   5.212   1.097
 5416TIP3    H116212   1.115   5.131   1.128
 5416TIP3    H216213   1.096   5.281   1.127
 5417TIP3   OH216214   1.564   0.699   1.648
 5417TIP3    H116215   1.659   0.709   1.648
 5417TIP3    H216216   1.533   0.768   1.706
 5418TIP3   OH216217   2.546   5.066   1.023
 5418TIP3    H116218   2.525   4.993   1.081
 5418TIP3    H216219   2.576   5.025   0.942
 5419TIP3   OH216220   1.540   5.359   4.193
 5419TIP3    H116221   1.600   5.284   4.200
 5419TIP3    H216222   1.597   5.435   4.196
 5420TIP3   OH216223   6.159   2.117   3.333
 5420TIP3    H116224   6.178   2.100   3.425
 5420TIP3    H216225   6.235   2.084   3.286
 5421TIP3   OH216226   1.267   5.370   1.753
 5421TIP3    H116227   1.344   5.373   1.810
 5421TIP3    H216228   1.237   5.460   1.747
 5422TIP3   OH216229   6.804   2.581   2.407
 5422TIP3    H116230   6.878   2.586   2.468
 5422TIP3    H216231   6.826   2.509   2.348
 5423TIP3   OH216232   3.312   6.302   3.920
 5423TIP3    H116233   3.348   6.366   3.859
 5423TIP3    H216234   3.253   6.352   3.976
 5424TIP3   OH216235   5.304   4.742   5.847
 5424TIP3    H116236   5.286   4.674   5.783
 5424TIP3    H216237   5.222   4.791   5.854
 5425TIP3   OH216238   4.697   3.384   2.029
 5425TIP3    H116239   4.775   3.382   1.974
 5425TIP3    H216240   4.624   3.386   1.968
 5426TIP3   OH216241   4.500   6.749   0.853
 5426TIP3    H116242   4.404   6.758   0.854
 5426TIP3    H216243   4.524   6.744   0.946
 5427TIP3   OH216244   2.357   3.403   2.290
 5427TIP3    H116245   2.427   3.434   2.347
 5427TIP3    H216246   2.378   3.310   2.274
 5428TIP3   OH216247   2.003   1.620   5.198
 5428TIP3    H116248   1.912   1.612   5.224
 5428TIP3    H216249   2.036   1.530   5.196
 5429TIP3   OH216250   5.449   1.939   3.042
 5429TIP3    H116251   5.416   1.900   3.123
 5429TIP3    H216252   5.537   1.970   3.064
 5430TIP3   OH216253   2.473   0.270   5.183
 5430TIP3    H116254   2.525   0.192   5.166
 5430TIP3    H216255   2.537   0.339   5.197
 5431TIP3   OH216256   6.841   2.608   0.081
 5431TIP3    H116257   6.829   2.702   0.093
 5431TIP3    H216258   6.754   2.576   0.057
 5432TIP3   OH216259   3.327   2.891   4.446
 5432TIP3    H116260   3.251   2.931   4.486
 5432TIP3    H216261   3.391   2.884   4.517
 5433TIP3   OH216262   5.187   6.099   2.239
 5433TIP3    H116263   5.222   6.184   2.212
 5433TIP3    H216264   5.265   6.043   2.248
 5434TIP3   OH216265   5.954   2.996   4.195
 5434TIP3    H116266   5.987   2.941   4.266
 5434TIP3    H216267   6.005   3.076   4.201
 5435TIP3   OH216268   6.551   6.608   4.056
 5435TIP3    H116269   6.513   6.695   4.047
 5435TIP3    H216270   6.578   6.584   3.967
 5436TIP3   OH216271   0.968   2.285   1.021
 5436TIP3    H116272   0.923   2.362   1.055
 5436TIP3    H216273   1.008   2.245   1.098
 5437TIP3   OH216274   0.413   0.655   4.615
 5437TIP3    H116275   0.336   0.666   4.560
 5437TIP3    H216276   0.478   0.715   4.579
 5438TIP3   OH216277   2.204   4.271   1.169
 5438TIP3    H116278   2.151   4.236   1.097
 5438TIP3    H216279   2.181   4.364   1.171
 5439TIP3   OH216280   2.862   4.876   3.744
 5439TIP3    H116281   2.840   4.783   3.740
 5439TIP3    H216282   2.921   4.890   3.669
 5440TIP3   OH216283   4.312   1.052   1.148
 5440TIP3    H116284   4.356   1.053   1.233
 5440TIP3    H216285   4.225   1.087   1.166
 5441TIP3   OH216286   1.494   0.812   0.973
 5441TIP3    H116287   1.477   0.718   0.974
 5441TIP3    H216288   1.515   0.831   0.882
 5442TIP3   OH216289   6.535   2.956   2.524
 5442TIP3    H116290   6.525   2.874   2.572
 5442TIP3    H216291   6.462   3.010   2.553
 5443TIP3   OH216292   2.765   0.260   4.388
 5443TIP3    H116293   2.822   0.314   4.334
 5443TIP3    H216294   2.677   0.293   4.370
 5444TIP3   OH216295   5.487   1.224   2.703
 5444TIP3    H116296   5.439   1.269   2.634
 5444TIP3    H216297   5.515   1.141   2.663
 5445TIP3   OH216298   2.703   5.546   2.238
 5445TIP3    H116299   2.675   5.552   2.147
 5445TIP3    H216300   2.799   5.554   2.234
 5446TIP3   OH216301   4.112   5.786   1.301
 5446TIP3    H116302   4.092   5.737   1.381
 5446TIP3    H216303   4.129   5.719   1.235
 5447TIP3   OH216304   3.340   4.898   2.048
 5447TIP3    H116305   3.264   4.862   2.094
 5447TIP3    H216306   3.303   4.946   1.974
 5448TIP3   OH216307   5.313   3.705   5.203
 5448TIP3    H116308   5.329   3.798   5.217
 5448TIP3    H216309   5.319   3.694   5.108
 5449TIP3   OH216310   3.259   0.437   0.414
 5449TIP3    H116311   3.176   0.482   0.396
 5449TIP3    H216312   3.263   0.367   0.349
 5450TIP3   OH216313   0.656   0.958   5.103
 5450TIP3    H116314   0.616   1.045   5.110
 5450TIP3    H216315   0.674   0.948   5.010
 5451TIP3   OH216316   4.760   3.520   0.105
 5451TIP3    H116317   4.737   3.526   0.198
 5451TIP3    H216318   4.853   3.498   0.105
 5452TIP3   OH216319   5.641   0.447   1.232
 5452TIP3    H116320   5.665   0.363   1.193
 5452TIP3    H216321   5.704   0.510   1.196
 5453TIP3   OH216322   2.667   0.031   1.985
 5453TIP3    H116323   2.585   0.038   2.034
 5453TIP3    H216324   2.656   0.089   1.910
 5454TIP3   OH216325   0.174   1.920   5.841
 5454TIP3    H116326   0.235   1.918   5.915
 5454TIP3    H216327   0.230   1.921   5.764
 5455TIP3   OH216328   2.295   5.691   3.327
 5455TIP3    H116329   2.298   5.630   3.253
 5455TIP3    H216330   2.305   5.636   3.404
 5456TIP3   OH216331   2.049   6.798   3.902
 5456TIP3    H116332   1.983   6.868   3.904
 5456TIP3    H216333   2.118   6.830   3.961
 5457TIP3   OH216334   4.683   5.405   4.377
 5457TIP3    H116335   4.613   5.385   4.440
 5457TIP3    H216336   4.642   5.391   4.291
 5458TIP3   OH216337   6.203   4.474   3.395
 5458TIP3    H116338   6.298   4.481   3.402
 5458TIP3    H216339   6.173   4.564   3.382
 5459TIP3   OH216340   0.668   0.077   5.269
 5459TIP3    H116341   0.764   0.075   5.275
 5459TIP3    H216342   0.647   0.014   5.200
 5460TIP3   OH216343   3.112   6.221   5.420
 5460TIP3    H116344   3.067   6.284   5.364
 5460TIP3    H216345   3.180   6.272   5.464
 5461TIP3   OH216346   5.374   3.463   0.087
 5461TIP3    H116347   5.436   3.514   0.140
 5461TIP3    H216348   5.372   3.507   0.003
 5462TIP3   OH216349   1.753   4.144   3.036
 5462TIP3    H116350   1.697   4.085   3.087
 5462TIP3    H216351   1.836   4.097   3.030
 5463TIP3   OH216352   0.382   1.025   5.776
 5463TIP3    H116353   0.289   1.045   5.763
 5463TIP3    H216354   0.394   0.940   5.735
 5464TIP3   OH216355   4.728   2.606   5.767
 5464TIP3    H116356   4.702   2.614   5.858
 5464TIP3    H216357   4.791   2.676   5.753
 5465TIP3   OH216358   3.247   4.651   0.094
 5465TIP3    H116359   3.242   4.735   0.139
 5465TIP3    H216360   3.176   4.653   0.031
 5466TIP3   OH216361   6.530   3.962   4.786
 5466TIP3    H116362   6.465   3.955   4.856
 5466TIP3    H216363   6.545   4.057   4.776
 5467TIP3   OH216364   2.579   5.641   3.137
 5467TIP3    H116365   2.587   5.690   3.218
 5467TIP3    H216366   2.502   5.586   3.149
 5468TIP3   OH216367   3.260   5.397   3.043
 5468TIP3    H116368   3.302   5.312   3.029
 5468TIP3    H216369   3.277   5.445   2.962
 5469TIP3   OH216370   4.040   1.769   4.486
 5469TIP3    H116371   4.115   1.709   4.488
 5469TIP3    H216372   4.023   1.784   4.393
 5470TIP3   OH216373   6.225   5.747   0.032
 5470TIP3    H116374   6.309   5.709   0.057
 5470TIP3    H216375   6.165   5.672   0.024
 5471TIP3   OH216376   2.094   5.567   2.202
 5471TIP3    H116377   2.002   5.544   2.214
 5471TIP3    H216378   2.121   5.606   2.286
 5472TIP3   OH216379   4.341   1.203   3.573
 5472TIP3    H116380   4.418   1.244   3.613
 5472TIP3    H216381   4.374   1.159   3.495
 5473TIP3   OH216382   6.979   4.409   2.143
 5473TIP3    H116383   7.010   4.436   2.057
 5473TIP3    H216384   7.036   4.456   2.205
 5474TIP3   OH216385   2.196   0.617   0.712
 5474TIP3    H116386   2.137   0.633   0.639
 5474TIP3    H216387   2.260   0.688   0.707
 5475TIP3   OH216388   2.232   2.150   2.613
 5475TIP3    H116389   2.324   2.134   2.596
 5475TIP3    H216390   2.225   2.153   2.709
 5476TIP3   OH216391   3.626   4.345   5.193
 5476TIP3    H116392   3.672   4.341   5.277
 5476TIP3    H216393   3.660   4.424   5.151
 5477TIP3   OH216394   2.565   3.888   4.839
 5477TIP3    H116395   2.651   3.913   4.807
 5477TIP3    H216396   2.525   3.970   4.868
 5478TIP3   OH216397   4.605   6.661   4.181
 5478TIP3    H116398   4.538   6.592   4.184
 5478TIP3    H216399   4.559   6.737   4.146
 5479TIP3   OH216400   3.617   0.177   0.589
 5479TIP3    H116401   3.567   0.194   0.669
 5479TIP3    H216402   3.589   0.090   0.562
 5480TIP3   OH216403   5.882   4.348   3.464
 5480TIP3    H116404   5.872   4.443   3.469
 5480TIP3    H216405   5.977   4.334   3.470
 5481TIP3   OH216406   6.085   3.292   0.996
 5481TIP3    H116407   6.045   3.363   1.047
 5481TIP3    H216408   6.143   3.336   0.934
 5482TIP3   OH216409   1.899   5.135   4.495
 5482TIP3    H116410   1.969   5.080   4.458
 5482TIP3    H216411   1.944   5.196   4.553
 5483TIP3   OH216412   3.542   5.184   4.252
 5483TIP3    H116413   3.457   5.227   4.262
 5483TIP3    H216414   3.573   5.213   4.166
 5484TIP3   OH216415   0.074   3.387   3.263
 5484TIP3    H116416   0.107   3.304   3.298
 5484TIP3    H216417   0.138   3.411   3.197
 5485TIP3   OH216418   1.710   4.892   1.615
 5485TIP3    H116419   1.615   4.901   1.615
 5485TIP3    H216420   1.737   4.923   1.702
 5486TIP3   OH216421   5.604   5.919   4.225
 5486TIP3    H116422   5.660   5.960   4.291
 5486TIP3    H216423   5.638   5.830   4.216
 5487TIP3   OH216424   6.542   1.881   4.547
 5487TIP3    H116425   6.470   1.916   4.599
 5487TIP3    H216426   6.538   1.928   4.464
 5488TIP3   OH216427   2.035   4.295   5.504
 5488TIP3    H116428   2.005   4.311   5.594
 5488TIP3    H216429   1.974   4.230   5.469
 5489TIP3   OH216430   7.178   6.476   5.456
 5489TIP3    H116431   7.123   6.542   5.498
 5489TIP3    H216432   7.125   6.443   5.383
 5490TIP3   OH216433   4.055   4.549   4.415
 5490TIP3    H116434   4.078   4.641   4.399
 5490TIP3    H216435   4.124   4.499   4.370
 5491TIP3   OH216436   1.525   5.172   2.534
 5491TIP3    H116437   1.517   5.248   2.591
 5491TIP3    H216438   1.485   5.100   2.585
 5492TIP3   OH216439   6.402   6.437   4.660
 5492TIP3    H116440   6.449   6.493   4.598
 5492TIP3    H216441   6.470   6.388   4.705
 5493TIP3   OH216442   4.494   2.057   3.350
 5493TIP3    H116443   4.426   1.995   3.322
 5493TIP3    H216444   4.446   2.138   3.367
 5494TIP3   OH216445   0.400   2.745   0.077
 5494TIP3    H116446   0.444   2.760   0.161
 5494TIP3    H216447   0.466   2.769   0.011
 5495TIP3   OH216448   1.541   5.930   4.647
 5495TIP3    H116449   1.473   5.907   4.709
 5495TIP3    H216450   1.550   5.853   4.590
 5496TIP3   OH216451   4.810   1.090   1.118
 5496TIP3    H116452   4.862   1.018   1.080
 5496TIP3    H216453   4.750   1.047   1.178
 5497TIP3   OH216454   4.059   5.467   1.349
 5497TIP3    H116455   4.037   5.456   1.442
 5497TIP3    H216456   3.975   5.470   1.304
 5498TIP3   OH216457   1.224   3.861   0.065
 5498TIP3    H116458   1.294   3.904   0.115
 5498TIP3    H216459   1.169   3.933   0.034
 5499TIP3   OH216460   0.879   6.610   1.727
 5499TIP3    H116461   0.859   6.560   1.806
 5499TIP3    H216462   0.894   6.699   1.758
 5500TIP3   OH216463   3.476   1.431   5.856
 5500TIP3    H116464   3.381   1.426   5.845
 5500TIP3    H216465   3.489   1.497   5.924
 5501TIP3   OH216466   0.869   0.985   0.878
 5501TIP3    H116467   0.838   1.070   0.910
 5501TIP3    H216468   0.879   0.997   0.784
 5502TIP3   OH216469   5.425   0.915   4.512
 5502TIP3    H116470   5.489   0.925   4.582
 5502TIP3    H216471   5.393   0.825   4.522
 5503TIP3   OH216472   1.045   6.462   1.333
 5503TIP3    H116473   1.097   6.523   1.281
 5503TIP3    H216474   1.029   6.388   1.275
 5504TIP3   OH216475   3.605   2.913   1.854
 5504TIP3    H116476   3.539   2.969   1.813
 5504TIP3    H216477   3.607   2.942   1.946
 5505TIP3   OH216478   4.384   5.811   3.332
 5505TIP3    H116479   4.315   5.831   3.268
 5505TIP3    H216480   4.352   5.733   3.378
 5506TIP3   OH216481   1.649   5.940   2.648
 5506TIP3    H116482   1.699   5.861   2.666
 5506TIP3    H216483   1.621   5.970   2.734
 5507TIP3   OH216484   6.949   3.856   3.666
 5507TIP3    H116485   6.977   3.910   3.740
 5507TIP3    H216486   7.021   3.862   3.603
 5508TIP3   OH216487   1.816   2.271   4.827
 5508TIP3    H116488   1.748   2.205   4.818
 5508TIP3    H216489   1.873   2.258   4.751
 5509TIP3   OH216490   6.540   0.450   2.656
 5509TIP3    H116491   6.525   0.514   2.726
 5509TIP3    H216492   6.470   0.466   2.593
 5510TIP3   OH216493   6.733   3.831   1.431
 5510TIP3    H116494   6.752   3.789   1.514
 5510TIP3    H216495   6.818   3.862   1.399
 5511TIP3   OH216496   1.402   6.360   0.299
 5511TIP3    H116497   1.461   6.429   0.330
 5511TIP3    H216498   1.391   6.303   0.375
 5512TIP3   OH216499   6.736   4.701   5.049
 5512TIP3    H116500   6.738   4.607   5.065
 5512TIP3    H216501   6.672   4.712   4.978
 5513TIP3   OH216502   2.953   4.467   0.545
 5513TIP3    H116503   3.043   4.478   0.514
 5513TIP3    H216504   2.958   4.395   0.608
 5514TIP3   OH216505   5.068   3.526   4.316
 5514TIP3    H116506   5.045   3.534   4.409
 5514TIP3    H216507   5.048   3.612   4.279
 5515TIP3   OH216508   4.446   2.754   1.038
 5515TIP3    H116509   4.486   2.825   1.087
 5515TIP3    H216510   4.511   2.731   0.972
 5516TIP3   OH216511   6.790   0.381   4.042
 5516TIP3    H116512   6.851   0.318   4.081
 5516TIP3    H216513   6.835   0.465   4.049
 5517TIP3   OH216514   0.335   3.913   3.194
 5517TIP3    H116515   0.295   3.949   3.115
 5517TIP3    H216516   0.392   3.983   3.226
 5518TIP3   OH216517   3.910   1.436   1.653
 5518TIP3    H116518   3.881   1.350   1.626
 5518TIP3    H216519   3.893   1.493   1.578
 5519TIP3   OH216520   0.348   3.574   0.418
 5519TIP3    H116521   0.392   3.656   0.394
 5519TIP3    H216522   0.255   3.595   0.418
 5520TIP3   OH216523   1.312   1.720   3.117
 5520TIP3    H116524   1.230   1.762   3.089
 5520TIP3    H216525   1.287   1.668   3.193
 5521TIP3   OH216526   1.994   4.371   3.172
 5521TIP3    H116527   2.035   4.330   3.096
 5521TIP3    H216528   2.005   4.307   3.243
 5522TIP3   OH216529   4.469   1.807   4.942
 5522TIP3    H116530   4.406   1.753   4.893
 5522TIP3    H216531   4.507   1.747   5.006
 5523TIP3   OH216532   1.558   5.754   5.876
 5523TIP3    H116533   1.483   5.801   5.840
 5523TIP3    H216534   1.524   5.666   5.894
 5524TIP3   OH216535   6.896   2.168   5.447
 5524TIP3    H116536   6.814   2.121   5.436
 5524TIP3    H216537   6.922   2.192   5.358
 5525TIP3   OH216538   0.587   6.657   1.047
 5525TIP3    H116539   0.678   6.688   1.045
 5525TIP3    H216540   0.561   6.666   1.138
 5526TIP3   OH216541   6.831   0.332   0.144
 5526TIP3    H116542   6.782   0.263   0.188
 5526TIP3    H216543   6.851   0.297   0.057
 5527TIP3   OH216544   4.495   1.845   5.445
 5527TIP3    H116545   4.486   1.822   5.352
 5527TIP3    H216546   4.575   1.801   5.473
 5528TIP3   OH216547   6.730   6.600   4.278
 5528TIP3    H116548   6.709   6.693   4.279
 5528TIP3    H216549   6.690   6.567   4.198
 5529TIP3   OH216550   3.512   6.781   5.014
 5529TIP3    H116551   3.545   6.749   5.098
 5529TIP3    H216552   3.494   6.874   5.030
 5530TIP3   OH216553   3.412   1.919   3.531
 5530TIP3    H116554   3.505   1.899   3.534
 5530TIP3    H216555   3.380   1.898   3.619
 5531TIP3   OH216556   2.927   6.191   3.460
 5531TIP3    H116557   2.952   6.105   3.494
 5531TIP3    H216558   2.959   6.253   3.525
 5532TIP3   OH216559   7.162   2.704   1.877
 5532TIP3    H116560   7.080   2.697   1.925
 5532TIP3    H216561   7.222   2.749   1.937
 5533TIP3   OH216562   2.865   2.431   2.559
 5533TIP3    H116563   2.907   2.345   2.566
 5533TIP3    H216564   2.882   2.459   2.469
 5534TIP3   OH216565   1.600   3.894   2.716
 5534TIP3    H116566   1.528   3.873   2.777
 5534TIP3    H216567   1.574   3.977   2.677
 5535TIP3   OH216568   0.470   1.348   1.283
 5535TIP3    H116569   0.447   1.428   1.235
 5535TIP3    H216570   0.391   1.328   1.334
 5536TIP3   OH216571   4.608   4.626   0.758
 5536TIP3    H116572   4.513   4.615   0.762
 5536TIP3    H216573   4.620   4.712   0.716
 5537TIP3   OH216574   3.974   3.426   1.766
 5537TIP3    H116575   4.025   3.457   1.691
 5537TIP3    H216576   4.039   3.388   1.825
 5538TIP3   OH216577   3.415   6.639   3.352
 5538TIP3    H116578   3.472   6.661   3.278
 5538TIP3    H216579   3.375   6.556   3.328
 5539TIP3   OH216580   2.315   6.405   4.926
 5539TIP3    H116581   2.360   6.334   4.880
 5539TIP3    H216582   2.233   6.365   4.955
 5540TIP3   OH216583   5.980   5.999   2.186
 5540TIP3    H116584   6.056   5.942   2.170
 5540TIP3    H216585   6.008   6.057   2.256
 5541TIP3   OH216586   4.561   4.533   2.353
 5541TIP3    H116587   4.468   4.517   2.342
 5541TIP3    H216588   4.590   4.567   2.268
 5542TIP3   OH216589   5.085   3.489   3.503
 5542TIP3    H116590   5.093   3.490   3.598
 5542TIP3    H216591   5.018   3.423   3.485
 5543TIP3   OH216592   6.122   2.424   0.367
 5543TIP3    H116593   6.097   2.477   0.291
 5543TIP3    H216594   6.218   2.425   0.366
 5544TIP3   OH216595   1.366   0.551   0.916
 5544TIP3    H116596   1.433   0.487   0.941
 5544TIP3    H216597   1.299   0.544   0.983
 5545TIP3   OH216598   6.359   5.592   4.752
 5545TIP3    H116599   6.421   5.636   4.810
 5545TIP3    H216600   6.412   5.533   4.699
 5546TIP3   OH216601   1.213   6.053   2.917
 5546TIP3    H116602   1.240   5.965   2.889
 5546TIP3    H216603   1.291   6.107   2.903
 5547TIP3   OH216604   2.141   4.977   0.363
 5547TIP3    H116605   2.070   4.951   0.304
 5547TIP3    H216606   2.108   5.058   0.404
 5548TIP3   OH216607   3.530   3.990   0.926
 5548TIP3    H116608   3.555   4.082   0.920
 5548TIP3    H216609   3.451   3.990   0.980
 5549TIP3   OH216610   2.465   4.088   0.706
 5549TIP3    H116611   2.397   4.155   0.710
 5549TIP3    H216612   2.465   4.059   0.615
 5550TIP3   OH216613   2.549   6.355   0.381
 5550TIP3    H116614   2.454   6.346   0.378
 5550TIP3    H216615   2.567   6.441   0.343
 5551TIP3   OH216616   2.014   2.802   3.601
 5551TIP3    H116617   1.992   2.812   3.693
 5551TIP3    H216618   1.968   2.874   3.557
 5552TIP3   OH216619   5.788   5.902   1.800
 5552TIP3    H116620   5.824   5.969   1.858
 5552TIP3    H216621   5.839   5.910   1.719
 5553TIP3   OH216622   5.961   0.435   2.021
 5553TIP3    H116623   5.923   0.387   1.949
 5553TIP3    H216624   5.962   0.373   2.094
 5554TIP3   OH216625   1.309   2.311   5.195
 5554TIP3    H116626   1.271   2.225   5.177
 5554TIP3    H216627   1.403   2.297   5.192
 5555TIP3   OH216628   6.195   0.897   5.440
 5555TIP3    H116629   6.275   0.856   5.408
 5555TIP3    H216630   6.212   0.991   5.433
 5556TIP3   OH216631   1.655   1.317   4.629
 5556TIP3    H116632   1.589   1.360   4.575
 5556TIP3    H216633   1.604   1.275   4.699
 5557TIP3   OH216634   0.906   2.727   1.918
 5557TIP3    H116635   0.871   2.740   2.006
 5557TIP3    H216636   0.939   2.813   1.892
 5558TIP3   OH216637   2.492   2.904   5.570
 5558TIP3    H116638   2.477   2.900   5.664
 5558TIP3    H216639   2.483   2.996   5.548
 5559TIP3   OH216640   1.095   1.895   5.895
 5559TIP3    H116641   1.180   1.936   5.907
 5559TIP3    H216642   1.112   1.820   5.838
 5560TIP3   OH216643   5.860   2.059   2.058
 5560TIP3    H116644   5.826   1.999   1.992
 5560TIP3    H216645   5.955   2.046   2.057
 5561TIP3   OH216646   5.558   4.648   3.755
 5561TIP3    H116647   5.629   4.682   3.809
 5561TIP3    H216648   5.591   4.565   3.722
 5562TIP3   OH216649   3.391   3.176   4.423
 5562TIP3    H116650   3.360   3.086   4.414
 5562TIP3    H216651   3.418   3.183   4.515
 5563TIP3   OH216652   5.320   2.217   3.272
 5563TIP3    H116653   5.318   2.193   3.179
 5563TIP3    H216654   5.376   2.294   3.275
 5564TIP3   OH216655   5.013   4.487   0.188
 5564TIP3    H116656   5.020   4.458   0.279
 5564TIP3    H216657   5.044   4.413   0.136
 5565TIP3   OH216658   1.682   4.671   1.140
 5565TIP3    H116659   1.738   4.744   1.165
 5565TIP3    H216660   1.597   4.710   1.122
 5566TIP3   OH216661   6.648   0.825   4.445
 5566TIP3    H116662   6.656   0.730   4.439
 5566TIP3    H216663   6.703   0.849   4.519
 5567TIP3   OH216664   1.602   2.874   4.036
 5567TIP3    H116665   1.603   2.904   4.127
 5567TIP3    H216666   1.648   2.942   3.988
 5568TIP3   OH216667   6.056   3.025   0.992
 5568TIP3    H116668   6.064   3.119   0.978
 5568TIP3    H216669   6.143   2.996   1.020
 5569TIP3   OH216670   2.974   1.067   2.412
 5569TIP3    H116671   3.047   1.124   2.436
 5569TIP3    H216672   2.903   1.093   2.471
 5570TIP3   OH216673   2.194   0.253   5.188
 5570TIP3    H116674   2.178   0.233   5.096
 5570TIP3    H216675   2.288   0.242   5.200
 5571TIP3   OH216676   3.568   3.021   0.629
 5571TIP3    H116677   3.483   2.979   0.642
 5571TIP3    H216678   3.629   2.967   0.679
 5572TIP3   OH216679   1.724   3.507   1.708
 5572TIP3    H116680   1.816   3.482   1.722
 5572TIP3    H216681   1.717   3.594   1.747
 5573TIP3   OH216682   1.277   2.420   5.491
 5573TIP3    H116683   1.327   2.420   5.410
 5573TIP3    H216684   1.221   2.343   5.485
 5574TIP3   OH216685   4.818   5.125   5.185
 5574TIP3    H116686   4.784   5.153   5.100
 5574TIP3    H216687   4.788   5.192   5.247
 5575TIP3   OH216688   1.982   6.277   3.774
 5575TIP3    H116689   2.069   6.274   3.734
 5575TIP3    H216690   1.949   6.364   3.752
 5576TIP3   OH216691   5.220   4.911   1.157
 5576TIP3    H116692   5.304   4.913   1.110
 5576TIP3    H216693   5.156   4.884   1.091
 5577TIP3   OH216694   4.466   5.168   0.784
 5577TIP3    H116695   4.398   5.235   0.775
 5577TIP3    H216696   4.475   5.131   0.697
 5578TIP3   OH216697   3.803   2.585   0.902
 5578TIP3    H116698   3.774   2.545   0.985
 5578TIP3    H216699   3.858   2.658   0.929
 5579TIP3   OH216700   3.011   3.157   2.063
 5579TIP3    H116701   3.047   3.164   2.152
 5579TIP3    H216702   2.949   3.230   2.057
 5580TIP3   OH216703   3.461   1.075   0.526
 5580TIP3    H116704   3.523   1.019   0.479
 5580TIP3    H216705   3.506   1.159   0.535
 5581TIP3   OH216706   1.782   5.140   0.567
 5581TIP3    H116707   1.782   5.111   0.658
 5581TIP3    H216708   1.858   5.098   0.528
 5582TIP3   OH216709   2.784   6.739   5.791
 5582TIP3    H116710   2.706   6.686   5.802
 5582TIP3    H216711   2.762   6.823   5.832
 5583TIP3   OH216712   2.730   3.229   5.047
 5583TIP3    H116713   2.660   3.206   4.985
 5583TIP3    H216714   2.797   3.162   5.033
 5584TIP3   OH216715   1.523   1.085   3.756
 5584TIP3    H116716   1.518   1.003   3.805
 5584TIP3    H216717   1.488   1.151   3.816
 5585TIP3   OH216718   4.111   4.341   2.327
 5585TIP3    H116719   4.066   4.350   2.411
 5585TIP3    H216720   4.064   4.400   2.268
 5586TIP3   OH216721   0.305   2.166   3.183
 5586TIP3    H116722   0.331   2.164   3.091
 5586TIP3    H216723   0.330   2.253   3.213
 5587TIP3   OH216724   3.371   1.633   3.165
 5587TIP3    H116725   3.351   1.630   3.258
 5587TIP3    H216726   3.445   1.694   3.158
 5588TIP3   OH216727   3.524   1.054   1.525
 5588TIP3    H116728   3.539   1.045   1.431
 5588TIP3    H216729   3.431   1.037   1.537
 5589TIP3   OH216730   3.601   5.428   1.447
 5589TIP3    H116731   3.676   5.449   1.504
 5589TIP3    H216732   3.524   5.443   1.502
 5590TIP3   OH216733   6.144   0.707   1.108
 5590TIP3    H116734   6.054   0.675   1.098
 5590TIP3    H216735   6.140   0.798   1.079
 5591TIP3   OH216736   3.015   4.142   2.106
 5591TIP3    H116737   3.104   4.106   2.102
 5591TIP3    H216738   2.995   4.143   2.200
 5592TIP3   OH216739   1.807   2.418   3.910
 5592TIP3    H116740   1.890   2.447   3.948
 5592TIP3    H216741   1.764   2.370   3.980
 5593TIP3   OH216742   6.656   1.335   5.225
 5593TIP3    H116743   6.578   1.381   5.257
 5593TIP3    H216744   6.666   1.261   5.286
 5594TIP3   OH216745   6.595   6.220   4.690
 5594TIP3    H116746   6.556   6.228   4.603
 5594TIP3    H216747   6.531   6.169   4.740
 5595TIP3   OH216748   3.656   0.257   1.688
 5595TIP3    H116749   3.602   0.300   1.622
 5595TIP3    H216750   3.597   0.243   1.762
 5596TIP3   OH216751   0.404   4.631   5.394
 5596TIP3    H116752   0.340   4.575   5.438
 5596TIP3    H216753   0.434   4.691   5.463
 5597TIP3   OH216754   2.643   3.598   0.846
 5597TIP3    H116755   2.576   3.584   0.779
 5597TIP3    H216756   2.602   3.653   0.911
 5598TIP3   OH216757   1.318   0.363   1.135
 5598TIP3    H116758   1.352   0.432   1.192
 5598TIP3    H216759   1.396   0.328   1.092
 5599TIP3   OH216760   5.304   2.066   1.820
 5599TIP3    H116761   5.257   2.019   1.888
 5599TIP3    H216762   5.371   2.117   1.867
 5600TIP3   OH216763   0.022   0.208   4.864
 5600TIP3    H116764   0.111   0.241   4.865
 5600TIP3    H216765   0.003   0.188   4.956
 5601TIP3   OH216766   1.317   2.087   1.446
 5601TIP3    H116767   1.271   2.034   1.382
 5601TIP3    H216768   1.383   2.029   1.484
 5602TIP3   OH216769   4.049   6.581   5.228
 5602TIP3    H116770   4.116   6.514   5.243
 5602TIP3    H216771   3.969   6.543   5.264
 5603TIP3   OH216772   0.958   4.075   3.367
 5603TIP3    H116773   1.004   4.049   3.448
 5603TIP3    H216774   0.881   4.122   3.398
 5604TIP3   OH216775   4.462   4.960   2.777
 5604TIP3    H116776   4.414   4.907   2.713
 5604TIP3    H216777   4.402   4.969   2.850
 5605TIP3   OH216778   6.417   0.981   4.054
 5605TIP3    H116779   6.338   1.018   4.091
 5605TIP3    H216780   6.425   0.895   4.095
 5606TIP3   OH216781   1.501   1.386   4.098
 5606TIP3    H116782   1.470   1.460   4.046
 5606TIP3    H216783   1.530   1.426   4.181
 5607TIP3   OH216784   2.246   2.493   0.969
 5607TIP3    H116785   2.163   2.540   0.963
 5607TIP3    H216786   2.306   2.555   1.011
 5608TIP3   OH216787   1.809   2.573   1.365
 5608TIP3    H116788   1.723   2.551   1.329
 5608TIP3    H216789   1.871   2.542   1.298
 5609TIP3   OH216790   1.953   6.511   0.709
 5609TIP3    H116791   1.883   6.574   0.694
 5609TIP3    H216792   2.034   6.561   0.700
 5610TIP3   OH216793   1.075   0.299   1.951
 5610TIP3    H116794   1.044   0.284   2.040
 5610TIP3    H216795   1.020   0.370   1.918
 5611TIP3   OH216796   0.512   2.367   2.572
 5611TIP3    H116797   0.459   2.412   2.507
 5611TIP3    H216798   0.567   2.307   2.521
 5612TIP3   OH216799   4.687   5.987   1.970
 5612TIP3    H116800   4.655   6.077   1.959
 5612TIP3    H216801   4.681   5.948   1.883
 5613TIP3   OH216802   2.824   3.071   5.305
 5613TIP3    H116803   2.845   3.061   5.397
 5613TIP3    H216804   2.817   3.166   5.292
 5614TIP3   OH216805   6.760   5.984   1.861
 5614TIP3    H116806   6.797   5.897   1.875
 5614TIP3    H216807   6.674   5.968   1.822
 5615TIP3   OH216808   3.542   5.583   1.826
 5615TIP3    H116809   3.530   5.570   1.732
 5615TIP3    H216810   3.637   5.596   1.836
 5616TIP3   OH216811   6.869   3.705   1.653
 5616TIP3    H116812   6.853   3.612   1.641
 5616TIP3    H216813   6.910   3.712   1.739
 5617TIP3   OH216814   5.807   3.767   0.360
 5617TIP3    H116815   5.869   3.839   0.371
 5617TIP3    H216816   5.843   3.717   0.286
 5618TIP3   OH216817   7.104   4.321   4.604
 5618TIP3    H116818   7.184   4.299   4.652
 5618TIP3    H216819   7.035   4.320   4.671
 5619TIP3   OH216820   5.132   6.805   2.425
 5619TIP3    H116821   5.087   6.890   2.422
 5619TIP3    H216822   5.124   6.777   2.516
 5620TIP3   OH216823   2.861   1.954   4.616
 5620TIP3    H116824   2.819   1.968   4.532
 5620TIP3    H216825   2.832   2.028   4.670
 5621TIP3   OH216826   1.600   3.221   3.637
 5621TIP3    H116827   1.580   3.177   3.554
 5621TIP3    H216828   1.591   3.153   3.703
 5622TIP3   OH216829   6.238   5.804   4.610
 5622TIP3    H116830   6.270   5.729   4.659
 5622TIP3    H216831   6.163   5.771   4.561
 5623TIP3   OH216832   3.640   2.337   5.151
 5623TIP3    H116833   3.701   2.406   5.125
 5623TIP3    H216834   3.692   2.279   5.206
 5624TIP3   OH216835   6.953   4.473   1.537
 5624TIP3    H116836   6.938   4.449   1.445
 5624TIP3    H216837   7.006   4.553   1.533
 5625TIP3   OH216838   0.832   4.743   1.092
 5625TIP3    H116839   0.874   4.764   1.175
 5625TIP3    H216840   0.798   4.827   1.061
 5626TIP3   OH216841   5.081   5.553   3.450
 5626TIP3    H116842   5.143   5.485   3.473
 5626TIP3    H216843   5.007   5.506   3.411
 5627TIP3   OH216844   4.156   2.883   1.992
 5627TIP3    H116845   4.155   2.789   1.978
 5627TIP3    H216846   4.116   2.919   1.913
 5628TIP3   OH216847   2.493   4.252   1.120
 5628TIP3    H116848   2.410   4.263   1.167
 5628TIP3    H216849   2.485   4.308   1.044
 5629TIP3   OH216850   2.673   2.782   4.622
 5629TIP3    H116851   2.684   2.845   4.551
 5629TIP3    H216852   2.749   2.796   4.678
 5630TIP3   OH216853   6.390   3.183   1.288
 5630TIP3    H116854   6.386   3.276   1.307
 5630TIP3    H216855   6.400   3.177   1.193
 5631TIP3   OH216856   5.774   4.453   4.778
 5631TIP3    H116857   5.852   4.411   4.740
 5631TIP3    H216858   5.758   4.529   4.722
 5632TIP3   OH216859   3.295   6.102   0.797
 5632TIP3    H116860   3.255   6.078   0.714
 5632TIP3    H216861   3.231   6.160   0.838
 5633TIP3   OH216862   2.506   2.118   3.050
 5633TIP3    H116863   2.519   2.024   3.064
 5633TIP3    H216864   2.449   2.145   3.122
 5634TIP3   OH216865   0.893   0.595   0.420
 5634TIP3    H116866   0.927   0.598   0.510
 5634TIP3    H216867   0.947   0.528   0.377
 5635TIP3   OH216868   2.632   1.578   0.690
 5635TIP3    H116869   2.622   1.659   0.740
 5635TIP3    H216870   2.693   1.601   0.620
 5636TIP3   OH216871   7.067   5.835   0.330
 5636TIP3    H116872   7.067   5.818   0.424
 5636TIP3    H216873   6.975   5.855   0.310
 5637TIP3   OH216874   5.214   1.569   5.228
 5637TIP3    H116875   5.192   1.654   5.190
 5637TIP3    H216876   5.155   1.508   5.185
 5638TIP3   OH216877   3.854   2.584   1.908
 5638TIP3    H116878   3.802   2.659   1.938
 5638TIP3    H216879   3.944   2.611   1.922
 5639TIP3   OH216880   3.818   5.391   4.800
 5639TIP3    H116881   3.727   5.374   4.775
 5639TIP3    H216882   3.859   5.425   4.720
 5640TIP3   OH216883   6.114   4.730   3.341
 5640TIP3    H116884   6.054   4.789   3.387
 5640TIP3    H216885   6.073   4.717   3.255
 5641TIP3   OH216886   1.859   3.637   3.624
 5641TIP3    H116887   1.887   3.647   3.715
 5641TIP3    H216888   1.927   3.582   3.584
 5642TIP3   OH216889   5.801   4.965   3.878
 5642TIP3    H116890   5.799   5.053   3.914
 5642TIP3    H216891   5.829   4.910   3.952
 5643TIP3   OH216892   0.417   5.114   2.093
 5643TIP3    H116893   0.477   5.148   2.160
 5643TIP3    H216894   0.395   5.190   2.039
 5644TIP3   OH216895   6.220   6.252   4.919
 5644TIP3    H116896   6.208   6.218   5.007
 5644TIP3    H216897   6.307   6.220   4.893
 5645TIP3   OH216898   2.406   4.095   4.120
 5645TIP3    H116899   2.387   4.109   4.027
 5645TIP3    H216900   2.471   4.025   4.121
 5646TIP3   OH216901   6.601   5.989   0.121
 5646TIP3    H116902   6.556   6.069   0.149
 5646TIP3    H216903   6.641   6.011   0.038
 5647TIP3   OH216904   6.875   6.260   1.289
 5647TIP3    H116905   6.814   6.186   1.296
 5647TIP3    H216906   6.869   6.287   1.198
 5648TIP3   OH216907   5.689   5.616   2.312
 5648TIP3    H116908   5.710   5.702   2.275
 5648TIP3    H216909   5.775   5.576   2.327
 5649TIP3   OH216910   1.802   4.309   0.885
 5649TIP3    H116911   1.754   4.365   0.946
 5649TIP3    H216912   1.892   4.343   0.887
 5650TIP3   OH216913   6.262   4.585   2.744
 5650TIP3    H116914   6.200   4.570   2.673
 5650TIP3    H216915   6.269   4.500   2.788
 5651TIP3   OH216916   0.712   6.183   4.094
 5651TIP3    H116917   0.660   6.238   4.153
 5651TIP3    H216918   0.802   6.195   4.124
 5652TIP3   OH216919   6.559   4.769   0.660
 5652TIP3    H116920   6.645   4.740   0.690
 5652TIP3    H216921   6.508   4.779   0.740
 5653TIP3   OH216922   5.061   0.574   3.957
 5653TIP3    H116923   5.030   0.518   4.028
 5653TIP3    H216924   5.105   0.647   4.001
 5654TIP3   OH216925   2.049   3.397   3.916
 5654TIP3    H116926   2.001   3.351   3.848
 5654TIP3    H216927   2.006   3.481   3.924
 5655TIP3   OH216928   4.386   0.539   3.801
 5655TIP3    H116929   4.433   0.476   3.856
 5655TIP3    H216930   4.381   0.618   3.855
 5656TIP3   OH216931   0.544   1.744   5.847
 5656TIP3    H116932   0.577   1.725   5.759
 5656TIP3    H216933   0.623   1.750   5.901
 5657TIP3   OH216934   3.025   4.487   0.167
 5657TIP3    H116935   3.037   4.399   0.203
 5657TIP3    H216936   3.059   4.545   0.235
 5658TIP3   OH216937   3.858   4.676   4.065
 5658TIP3    H116938   3.781   4.668   4.121
 5658TIP3    H216939   3.838   4.622   3.988
 5659TIP3   OH216940   1.199   0.963   1.853
 5659TIP3    H116941   1.212   0.876   1.892
 5659TIP3    H216942   1.120   0.996   1.895
 5660TIP3   OH216943   5.784   3.841   1.872
 5660TIP3    H116944   5.876   3.841   1.844
 5660TIP3    H216945   5.734   3.827   1.792
 5661TIP3   OH216946   3.225   0.908   3.320
 5661TIP3    H116947   3.280   0.869   3.388
 5661TIP3    H216948   3.135   0.885   3.344
 5662TIP3   OH216949   5.006   1.860   2.538
 5662TIP3    H116950   5.096   1.865   2.507
 5662TIP3    H216951   5.013   1.853   2.633
 5663TIP3   OH216952   6.375   2.186   5.518
 5663TIP3    H116953   6.344   2.217   5.604
 5663TIP3    H216954   6.422   2.261   5.482
 5664TIP3   OH216955   6.455   2.690   4.045
 5664TIP3    H116956   6.411   2.606   4.056
 5664TIP3    H216957   6.496   2.707   4.129
 5665TIP3   OH216958   7.160   1.543   4.869
 5665TIP3    H116959   7.074   1.529   4.907
 5665TIP3    H216960   7.154   1.510   4.779
 5666TIP3   OH216961   1.128   4.464   5.886
 5666TIP3    H116962   1.043   4.494   5.918
 5666TIP3    H216963   1.181   4.543   5.878
 5667TIP3   OH216964   2.211   4.238   5.716
 5667TIP3    H116965   2.170   4.250   5.630
 5667TIP3    H216966   2.295   4.284   5.708
 5668TIP3   OH216967   4.946   4.146   0.774
 5668TIP3    H116968   4.874   4.095   0.811
 5668TIP3    H216969   4.915   4.237   0.778
 5669TIP3   OH216970   1.837   6.001   5.660
 5669TIP3    H116971   1.777   6.055   5.713
 5669TIP3    H216972   1.821   6.030   5.570
 5670TIP3   OH216973   5.775   5.021   1.083
 5670TIP3    H116974   5.842   4.972   1.131
 5670TIP3    H216975   5.693   4.984   1.114
 5671TIP3   OH216976   3.966   1.975   2.573
 5671TIP3    H116977   3.909   2.048   2.597
 5671TIP3    H216978   4.021   2.010   2.503
 5672TIP3   OH216979   0.714   2.347   5.809
 5672TIP3    H116980   0.696   2.355   5.715
 5672TIP3    H216981   0.799   2.388   5.821
 5673TIP3   OH216982   3.768   4.143   1.758
 5673TIP3    H116983   3.782   4.052   1.785
 5673TIP3    H216984   3.784   4.142   1.664
 5674TIP3   OH216985   0.927   6.448   0.779
 5674TIP3    H116986   0.908   6.355   0.778
 5674TIP3    H216987   0.966   6.464   0.865
 5675TIP3   OH216988   3.633   5.255   5.356
 5675TIP3    H116989   3.637   5.350   5.368
 5675TIP3    H216990   3.725   5.227   5.358
 5676TIP3   OH216991   0.990   5.091   3.139
 5676TIP3    H116992   0.910   5.139   3.160
 5676TIP3    H216993   1.047   5.105   3.215
 5677TIP3   OH216994   1.559   5.751   0.195
 5677TIP3    H116995   1.524   5.678   0.245
 5677TIP3    H216996   1.633   5.783   0.247
 5678TIP3   OH216997   3.490   0.346   2.869
 5678TIP3    H116998   3.497   0.422   2.810
 5678TIP3    H216999   3.425   0.373   2.934
 5679TIP3   OH217000   2.434   5.114   3.812
 5679TIP3    H117001   2.498   5.062   3.859
 5679TIP3    H217002   2.408   5.059   3.738
 5680TIP3   OH217003   0.982   1.204   0.396
 5680TIP3    H117004   1.078   1.203   0.403
 5680TIP3    H217005   0.964   1.259   0.320
 5681TIP3   OH217006   0.630   5.557   0.460
 5681TIP3    H117007   0.564   5.577   0.526
 5681TIP3    H217008   0.636   5.462   0.459
 5682TIP3   OH217009   3.107   0.782   0.276
 5682TIP3    H117010   3.018   0.752   0.293
 5682TIP3    H217011   3.104   0.819   0.188
 5683TIP3   OH217012   2.026   0.146   0.660
 5683TIP3    H117013   2.102   0.130   0.603
 5683TIP3    H217014   2.050   0.107   0.744
 5684TIP3   OH217015   3.775   4.728   3.568
 5684TIP3    H117016   3.799   4.636   3.560
 5684TIP3    H217017   3.718   4.732   3.645
 5685TIP3   OH217018   3.050   3.150   5.664
 5685TIP3    H117019   3.118   3.174   5.601
 5685TIP3    H217020   3.092   3.158   5.750
 5686TIP3   OH217021   4.928   1.708   1.749
 5686TIP3    H117022   4.913   1.662   1.667
 5686TIP3    H217023   4.894   1.648   1.816
 5687TIP3   OH217024   4.070   3.270   5.171
 5687TIP3    H117025   4.100   3.184   5.141
 5687TIP3    H217026   3.985   3.281   5.128
 5688TIP3   OH217027   2.644   3.908   4.115
 5688TIP3    H117028   2.607   3.820   4.107
 5688TIP3    H217029   2.721   3.907   4.058
 5689TIP3   OH217030   3.715   3.261   2.174
 5689TIP3    H117031   3.637   3.281   2.226
 5689TIP3    H217032   3.693   3.180   2.128
 5690TIP3   OH217033   6.069   4.639   0.623
 5690TIP3    H117034   6.040   4.704   0.688
 5690TIP3    H217035   5.990   4.586   0.606
 5691TIP3   OH217036   6.680   3.404   5.103
 5691TIP3    H117037   6.699   3.480   5.157
 5691TIP3    H217038   6.647   3.338   5.165
 5692TIP3   OH217039   0.951   3.107   4.806
 5692TIP3    H117040   1.019   3.123   4.872
 5692TIP3    H217041   0.869   3.114   4.855
 5693TIP3   OH217042   3.483   4.982   0.995
 5693TIP3    H117043   3.481   5.008   0.903
 5693TIP3    H217044   3.416   5.036   1.037
 5694TIP3   OH217045   4.190   6.083   2.741
 5694TIP3    H117046   4.263   6.116   2.794
 5694TIP3    H217047   4.144   6.022   2.799
 5695TIP3   OH217048   0.093   0.751   0.529
 5695TIP3    H117049   0.042   0.729   0.451
 5695TIP3    H217050   0.174   0.701   0.521
 5696TIP3   OH217051   2.949   1.674   0.738
 5696TIP3    H117052   2.899   1.654   0.659
 5696TIP3    H217053   3.025   1.615   0.735
 5697TIP3   OH217054   0.224   2.053   4.844
 5697TIP3    H117055   0.142   2.004   4.850
 5697TIP3    H217056   0.269   2.014   4.769
 5698TIP3   OH217057   4.574   4.749   2.535
 5698TIP3    H117058   4.480   4.759   2.526
 5698TIP3    H217059   4.594   4.666   2.491
 5699TIP3   OH217060   5.516   0.117   4.249
 5699TIP3    H117061   5.505   0.137   4.341
 5699TIP3    H217062   5.437   0.151   4.207
 5700TIP3   OH217063   6.959   6.381   4.280
 5700TIP3    H117064   6.997   6.319   4.342
 5700TIP3    H217065   6.864   6.370   4.289
 5701TIP3   OH217066   2.848   2.704   0.989
 5701TIP3    H117067   2.864   2.650   1.067
 5701TIP3    H217068   2.753   2.700   0.975
 5702TIP3   OH217069   3.121   5.984   2.294
 5702TIP3    H117070   3.090   5.985   2.204
 5702TIP3    H217071   3.047   5.948   2.344
 5703TIP3   OH217072   3.640   3.078   4.287
 5703TIP3    H117073   3.591   3.096   4.367
 5703TIP3    H217074   3.650   2.982   4.286
 5704TIP3   OH217075   4.242   0.049   3.336
 5704TIP3    H117076   4.237  -0.001   3.417
 5704TIP3    H217077   4.263  -0.017   3.269
 5705TIP3   OH217078   2.726   6.382   5.419
 5705TIP3    H117079   2.795   6.405   5.357
 5705TIP3    H217080   2.757   6.418   5.503
 5706TIP3   OH217081   0.635   6.300   2.463
 5706TIP3    H117082   0.703   6.358   2.427
 5706TIP3    H217083   0.554   6.352   2.457
 5707TIP3   OH217084   6.930   1.431   1.349
 5707TIP3    H117085   6.917   1.343   1.314
 5707TIP3    H217086   6.843   1.471   1.346
 5708TIP3   OH217087   2.363   0.728   0.117
 5708TIP3    H117088   2.450   0.693   0.137
 5708TIP3    H217089   2.368   0.820   0.143
 5709TIP3   OH217090   3.684   3.095   4.891
 5709TIP3    H117091   3.662   3.102   4.984
 5709TIP3    H217092   3.750   3.026   4.887
 5710TIP3   OH217093   1.714   0.962   0.778
 5710TIP3    H117094   1.776   1.013   0.726
 5710TIP3    H217095   1.769   0.917   0.843
 5711TIP3   OH217096   0.387   0.024   1.977
 5711TIP3    H117097   0.441   0.026   2.056
 5711TIP3    H217098   0.411  -0.058   1.934
 5712TIP3   OH217099   4.746   4.008   2.623
 5712TIP3    H117100   4.687   4.045   2.689
 5712TIP3    H217101   4.767   4.082   2.566
 5713TIP3   OH217102   1.973   1.921   3.299
 5713TIP3    H117103   1.976   1.904   3.205
 5713TIP3    H217104   1.905   1.862   3.332
 5714TIP3   OH217105   4.012   1.102   1.231
 5714TIP3    H117106   4.024   1.015   1.270
 5714TIP3    H217107   3.944   1.088   1.165
 5715TIP3   OH217108   4.637   5.079   3.358
 5715TIP3    H117109   4.578   5.133   3.306
 5715TIP3    H217110   4.706   5.052   3.297
 5716TIP3   OH217111   1.456   5.590   4.014
 5716TIP3    H117112   1.402   5.632   4.081
 5716TIP3    H217113   1.414   5.507   3.997
 5717TIP3   OH217114   4.903   3.354   0.477
 5717TIP3    H117115   4.842   3.357   0.550
 5717TIP3    H217116   4.899   3.264   0.446
 5718TIP3   OH217117   6.133   2.830   0.384
 5718TIP3    H117118   6.120   2.909   0.436
 5718TIP3    H217119   6.113   2.758   0.443
 5719TIP3   OH217120   1.624   3.376   2.601
 5719TIP3    H117121   1.685   3.326   2.655
 5719TIP3    H217122   1.637   3.344   2.512
 5720TIP3   OH217123   0.739   5.550   2.821
 5720TIP3    H117124   0.696   5.557   2.906
 5720TIP3    H217125   0.793   5.629   2.814
 5721TIP3   OH217126   1.049   1.238   5.512
 5721TIP3    H117127   1.037   1.200   5.425
 5721TIP3    H217128   1.114   1.307   5.500
 5722TIP3   OH217129   5.539   4.912   4.903
 5722TIP3    H117130   5.512   4.978   4.968
 5722TIP3    H217131   5.633   4.923   4.895
 5723TIP3   OH217132   2.028   4.449   5.021
 5723TIP3    H117133   2.064   4.519   4.967
 5723TIP3    H217134   2.050   4.474   5.111
 5724TIP3   OH217135   4.427   3.742   4.395
 5724TIP3    H117136   4.426   3.710   4.485
 5724TIP3    H217137   4.343   3.787   4.384
 5725TIP3   OH217138   1.647   1.887   0.283
 5725TIP3    H117139   1.689   1.972   0.299
 5725TIP3    H217140   1.555   1.902   0.300
 5726TIP3   OH217141   5.004   5.454   4.559
 5726TIP3    H117142   4.976   5.449   4.650
 5726TIP3    H217143   5.047   5.540   4.552
 5727TIP3   OH217144   3.725   4.413   0.163
 5727TIP3    H117145   3.708   4.368   0.246
 5727TIP3    H217146   3.638   4.443   0.135
 5728TIP3   OH217147   6.995   1.496   2.818
 5728TIP3    H117148   7.000   1.509   2.723
 5728TIP3    H217149   7.039   1.573   2.855
 5729TIP3   OH217150   4.189   1.167   3.797
 5729TIP3    H117151   4.122   1.130   3.740
 5729TIP3    H217152   4.263   1.184   3.739
 5730TIP3   OH217153   0.553   0.638   2.939
 5730TIP3    H117154   0.460   0.636   2.920
 5730TIP3    H217155   0.574   0.731   2.951
 5731TIP3   OH217156   1.986   5.156   4.116
 5731TIP3    H117157   1.953   5.134   4.029
 5731TIP3    H217158   2.071   5.196   4.101
 5732TIP3   OH217159   6.743   5.235   2.906
 5732TIP3    H117160   6.757   5.141   2.897
 5732TIP3    H217161   6.669   5.243   2.967
 5733TIP3   OH217162   7.052   1.949   1.981
 5733TIP3    H117163   7.077   1.972   1.891
 5733TIP3    H217164   7.061   1.854   1.984
 5734TIP3   OH217165   5.360   1.997   1.551
 5734TIP3    H117166   5.423   2.063   1.522
 5734TIP3    H217167   5.321   2.034   1.630
 5735TIP3   OH217168   6.611   4.282   0.792
 5735TIP3    H117169   6.572   4.228   0.723
 5735TIP3    H217170   6.703   4.254   0.795
 5736TIP3   OH217171   6.586   2.618   4.336
 5736TIP3    H117172   6.533   2.547   4.372
 5736TIP3    H217173   6.676   2.587   4.342
 5737TIP3   OH217174   0.060   3.946   4.725
 5737TIP3    H117175  -0.016   3.909   4.680
 5737TIP3    H217176   0.099   3.871   4.771
 5738TIP3   OH217177   6.864   2.781   3.118
 5738TIP3    H117178   6.879   2.687   3.109
 5738TIP3    H217179   6.803   2.789   3.191
 5739TIP3   OH217180   4.410   5.242   2.744
 5739TIP3    H117181   4.409   5.256   2.839
 5739TIP3    H217182   4.422   5.147   2.735
 5740TIP3   OH217183   1.784   0.948   2.990
 5740TIP3    H117184   1.743   0.898   2.919
 5740TIP3    H217185   1.712   0.989   3.036
 5741TIP3   OH217186   6.964   1.921   0.848
 5741TIP3    H117187   6.933   2.009   0.827
 5741TIP3    H217188   6.898   1.887   0.909
 5742TIP3   OH217189   4.830   1.797   3.580
 5742TIP3    H117190   4.786   1.817   3.498
 5742TIP3    H217191   4.908   1.748   3.554
 5743TIP3   OH217192   4.233   3.787   3.500
 5743TIP3    H117193   4.270   3.699   3.484
 5743TIP3    H217194   4.307   3.837   3.536
 5744TIP3   OH217195   6.252   6.500   3.155
 5744TIP3    H117196   6.173   6.499   3.102
 5744TIP3    H217197   6.260   6.411   3.188
 5745TIP3   OH217198   1.006   4.547   3.725
 5745TIP3    H117199   0.924   4.559   3.774
 5745TIP3    H217200   1.051   4.477   3.771
 5746TIP3   OH217201   3.227   0.075   2.263
 5746TIP3    H117202   3.224  -0.011   2.222
 5746TIP3    H217203   3.136   0.105   2.264
 5747TIP3   OH217204   1.583   6.435   1.093
 5747TIP3    H117205   1.678   6.425   1.083
 5747TIP3    H217206   1.571   6.465   1.183
 5748TIP3   OH217207   1.584   5.593   0.667
 5748TIP3    H117208   1.504   5.540   0.668
 5748TIP3    H217209   1.629   5.571   0.748
 5749TIP3   OH217210   7.017   5.399   0.809
 5749TIP3    H117211   6.997   5.360   0.894
 5749TIP3    H217212   7.004   5.328   0.746
 5750TIP3   OH217213   4.119   3.733   3.050
 5750TIP3    H117214   4.079   3.646   3.053
 5750TIP3    H217215   4.096   3.767   2.963
 5751TIP3   OH217216   2.499   1.061   1.208
 5751TIP3    H117217   2.594   1.047   1.215
 5751TIP3    H217218   2.490   1.131   1.144
 5752TIP3   OH217219   5.692   5.376   4.630
 5752TIP3    H117220   5.599   5.360   4.614
 5752TIP3    H217221   5.695   5.416   4.717
 5753TIP3   OH217222   0.339   5.042   5.081
 5753TIP3    H117223   0.290   4.961   5.088
 5753TIP3    H217224   0.394   5.031   5.003
 5754TIP3   OH217225   0.613   0.764   4.158
 5754TIP3    H117226   0.668   0.795   4.085
 5754TIP3    H217227   0.525   0.795   4.136
 5755TIP3   OH217228   4.932   4.744   0.990
 5755TIP3    H117229   4.940   4.709   1.079
 5755TIP3    H217230   5.007   4.707   0.943
 5756TIP3   OH217231   6.608   5.784   4.527
 5756TIP3    H117232   6.530   5.831   4.498
 5756TIP3    H217233   6.678   5.849   4.522
 5757TIP3   OH217234   4.413   6.653   5.057
 5757TIP3    H117235   4.395   6.565   5.022
 5757TIP3    H217236   4.376   6.712   4.991
 5758TIP3   OH217237   5.309   6.304   1.878
 5758TIP3    H117238   5.223   6.281   1.913
 5758TIP3    H217239   5.369   6.243   1.919
 5759TIP3   OH217240   1.609   1.739   0.713
 5759TIP3    H117241   1.601   1.833   0.729
 5759TIP3    H217242   1.519   1.711   0.696
 5760TIP3   OH217243   3.954   3.666   4.738
 5760TIP3    H117244   3.910   3.733   4.685
 5760TIP3    H217245   4.040   3.702   4.756
 5761TIP3   OH217246   4.135   4.260   0.625
 5761TIP3    H117247   4.079   4.276   0.701
 5761TIP3    H217248   4.150   4.166   0.625
 5762TIP3   OH217249   0.647   1.098   0.114
 5762TIP3    H117250   0.682   1.058   0.035
 5762TIP3    H217251   0.702   1.175   0.129
 5763TIP3   OH217252   3.358   6.654   0.887
 5763TIP3    H117253   3.395   6.742   0.875
 5763TIP3    H217254   3.434   6.597   0.900
 5764TIP3   OH217255   5.495   4.432   1.807
 5764TIP3    H117256   5.445   4.482   1.743
 5764TIP3    H217257   5.505   4.345   1.768
 5765TIP3   OH217258   1.173   6.333   4.286
 5765TIP3    H117259   1.152   6.339   4.193
 5765TIP3    H217260   1.139   6.415   4.323
 5766TIP3   OH217261   4.761   3.577   1.443
 5766TIP3    H117262   4.777   3.652   1.500
 5766TIP3    H217263   4.691   3.606   1.384
 5767TIP3   OH217264   0.924   0.517   3.531
 5767TIP3    H117265   0.946   0.455   3.600
 5767TIP3    H217266   0.832   0.539   3.547
 5768TIP3   OH217267   1.963   2.455   0.466
 5768TIP3    H117268   1.907   2.467   0.543
 5768TIP3    H217269   2.049   2.485   0.495
 5769TIP3   OH217270   2.201   6.004   3.719
 5769TIP3    H117271   2.261   5.957   3.777
 5769TIP3    H217272   2.179   5.941   3.651
 5770TIP3   OH217273   1.662   1.928   3.688
 5770TIP3    H117274   1.650   1.966   3.601
 5770TIP3    H217275   1.658   2.002   3.747
 5771TIP3   OH217276   2.786   0.339   4.916
 5771TIP3    H117277   2.858   0.288   4.951
 5771TIP3    H217278   2.827   0.402   4.857
 5772TIP3   OH217279   7.217   6.426   0.298
 5772TIP3    H117280   7.197   6.359   0.364
 5772TIP3    H217281   7.223   6.508   0.348
 5773TIP3   OH217282   5.808   4.905   4.967
 5773TIP3    H117283   5.873   4.974   4.954
 5773TIP3    H217284   5.850   4.826   4.934
 5774TIP3   OH217285   3.609   2.859   1.125
 5774TIP3    H117286   3.524   2.820   1.102
 5774TIP3    H217287   3.613   2.940   1.074
 5775TIP3   OH217288   5.438   5.357   1.751
 5775TIP3    H117289   5.398   5.444   1.749
 5775TIP3    H217290   5.371   5.300   1.715
 5776TIP3   OH217291   7.109   2.725   3.472
 5776TIP3    H117292   7.118   2.643   3.424
 5776TIP3    H217293   7.035   2.770   3.430
 5777TIP3   OH217294   2.416   2.188   0.352
 5777TIP3    H117295   2.379   2.107   0.387
 5777TIP3    H217296   2.340   2.241   0.329
 5778TIP3   OH217297   4.595   5.855   4.298
 5778TIP3    H117298   4.585   5.884   4.208
 5778TIP3    H217299   4.506   5.832   4.326
 5779TIP3   OH217300   3.475   2.275   2.221
 5779TIP3    H117301   3.539   2.346   2.218
 5779TIP3    H217302   3.397   2.314   2.260
 5780TIP3   OH217303   0.650   0.593   2.221
 5780TIP3    H117304   0.656   0.561   2.311
 5780TIP3    H217305   0.741   0.605   2.194
 5781TIP3   OH217306   3.259   3.909   0.770
 5781TIP3    H117307   3.337   3.858   0.793
 5781TIP3    H217308   3.256   3.979   0.835
 5782TIP3   OH217309   1.074   1.849   2.896
 5782TIP3    H117310   1.118   1.929   2.867
 5782TIP3    H217311   0.982   1.874   2.904
 5783TIP3   OH217312   5.547   6.779   0.676
 5783TIP3    H117313   5.569   6.706   0.733
 5783TIP3    H217314   5.490   6.834   0.728
 5784TIP3   OH217315   3.459   6.255   0.632
 5784TIP3    H117316   3.426   6.202   0.704
 5784TIP3    H217317   3.402   6.332   0.631
 5785TIP3   OH217318   0.859   1.483   1.171
 5785TIP3    H117319   0.784   1.450   1.122
 5785TIP3    H217320   0.933   1.432   1.139
 5786TIP3   OH217321   1.655   5.461   3.053
 5786TIP3    H117322   1.619   5.398   3.116
 5786TIP3    H217323   1.740   5.485   3.090
 5787TIP3   OH217324   6.917   6.530   5.606
 5787TIP3    H117325   6.966   6.611   5.591
 5787TIP3    H217326   6.849   6.531   5.539
 5788TIP3   OH217327   6.689   4.384   3.926
 5788TIP3    H117328   6.631   4.437   3.872
 5788TIP3    H217329   6.732   4.324   3.865
 5789TIP3   OH217330   5.523   0.997   5.124
 5789TIP3    H117331   5.588   0.968   5.188
 5789TIP3    H217332   5.494   1.083   5.155
 5790TIP3   OH217333   1.089   2.352   1.728
 5790TIP3    H117334   1.041   2.383   1.805
 5790TIP3    H217335   1.172   2.401   1.731
 5791TIP3   OH217336   5.470   4.015   3.214
 5791TIP3    H117337   5.413   4.084   3.181
 5791TIP3    H217338   5.417   3.969   3.279
 5792TIP3   OH217339   5.481   3.688   3.081
 5792TIP3    H117340   5.542   3.741   3.132
 5792TIP3    H217341   5.435   3.751   3.026
 5793TIP3   OH217342   5.558   2.735   0.031
 5793TIP3    H117343   5.625   2.800   0.013
 5793TIP3    H217344   5.477   2.774  -0.004
 5794TIP3   OH217345   4.467   6.618   0.424
 5794TIP3    H117346   4.392   6.667   0.457
 5794TIP3    H217347   4.482   6.550   0.489
 5795TIP3   OH217348   0.585   5.847   4.069
 5795TIP3    H117349   0.528   5.798   4.129
 5795TIP3    H217350   0.637   5.780   4.024
 5796TIP3   OH217351   6.413   5.954   5.381
 5796TIP3    H117352   6.345   5.934   5.316
 5796TIP3    H217353   6.443   6.042   5.359
 5797TIP3   OH217354   0.086   5.257   5.294
 5797TIP3    H117355   0.044   5.234   5.376
 5797TIP3    H217356   0.164   5.306   5.319
 5798TIP3   OH217357   7.106   0.796   5.356
 5798TIP3    H117358   7.199   0.806   5.335
 5798TIP3    H217359   7.076   0.884   5.376
 5799TIP3   OH217360   1.938   0.454   0.642
 5799TIP3    H117361   1.984   0.492   0.566
 5799TIP3    H217362   1.994   0.381   0.669
 5800TIP3   OH217363   0.455   1.080   1.994
 5800TIP3    H117364   0.534   1.052   1.947
 5800TIP3    H217365   0.430   1.003   2.046
 5801TIP3   OH217366   2.749   3.804   5.551
 5801TIP3    H117367   2.728   3.820   5.643
 5801TIP3    H217368   2.671   3.829   5.503
 5802TIP3   OH217369   5.361   4.279   4.657
 5802TIP3    H117370   5.346   4.295   4.564
 5802TIP3    H217371   5.294   4.331   4.701
 5803TIP3   OH217372   2.211   4.490   3.361
 5803TIP3    H117373   2.159   4.423   3.407
 5803TIP3    H217374   2.208   4.465   3.269
 5804TIP3   OH217375   1.261   4.314   2.366
 5804TIP3    H117376   1.194   4.299   2.433
 5804TIP3    H217377   1.289   4.404   2.379
 5805TIP3   OH217378   3.308   6.130   2.957
 5805TIP3    H117379   3.336   6.215   2.923
 5805TIP3    H217380   3.232   6.107   2.903
 5806TIP3   OH217381   3.992   6.463   1.976
 5806TIP3    H117382   3.991   6.367   1.978
 5806TIP3    H217383   4.012   6.488   2.066
 5807TIP3   OH217384   1.394   2.431   1.505
 5807TIP3    H117385   1.389   2.339   1.479
 5807TIP3    H217386   1.400   2.428   1.601
 5808TIP3   OH217387   3.844   3.919   4.085
 5808TIP3    H117388   3.815   3.968   4.162
 5808TIP3    H217389   3.906   3.978   4.042
 5809TIP3   OH217390   6.571   3.911   1.064
 5809TIP3    H117391   6.530   3.850   1.127
 5809TIP3    H217392   6.497   3.958   1.026
 5810TIP3   OH217393   4.478   3.432   0.977
 5810TIP3    H117394   4.445   3.425   0.887
 5810TIP3    H217395   4.492   3.341   1.004
 5811TIP3   OH217396   5.467   1.716   2.150
 5811TIP3    H117397   5.498   1.790   2.202
 5811TIP3    H217398   5.514   1.640   2.185
 5812TIP3   OH217399   0.459   2.287   3.966
 5812TIP3    H117400   0.381   2.309   4.017
 5812TIP3    H217401   0.429   2.221   3.903
 5813TIP3   OH217402   6.552   0.889   3.039
 5813TIP3    H117403   6.522   0.920   3.124
 5813TIP3    H217404   6.594   0.805   3.057
 5814TIP3   OH217405   5.182   3.839   0.477
 5814TIP3    H117406   5.125   3.848   0.400
 5814TIP3    H217407   5.121   3.820   0.549
 5815TIP3   OH217408   2.207   6.320   2.604
 5815TIP3    H117409   2.135   6.358   2.554
 5815TIP3    H217410   2.228   6.239   2.557
 5816TIP3   OH217411   0.479   2.525   4.957
 5816TIP3    H117412   0.476   2.547   5.049
 5816TIP3    H217413   0.416   2.453   4.947
 5817TIP3   OH217414   7.041   3.256   2.971
 5817TIP3    H117415   7.047   3.161   2.971
 5817TIP3    H217416   7.130   3.286   2.956
 5818TIP3   OH217417   2.321   4.455   2.108
 5818TIP3    H117418   2.313   4.502   2.026
 5818TIP3    H217419   2.240   4.473   2.155
 5819TIP3   OH217420   2.746   5.777   3.707
 5819TIP3    H117421   2.743   5.698   3.762
 5819TIP3    H217422   2.675   5.766   3.644
 5820TIP3   OH217423   2.419   1.904   1.132
 5820TIP3    H117424   2.422   1.967   1.205
 5820TIP3    H217425   2.388   1.823   1.172
 5821TIP3   OH217426   6.430   3.516   4.795
 5821TIP3    H117427   6.374   3.572   4.742
 5821TIP3    H217428   6.423   3.430   4.754
 5822TIP3   OH217429   5.436   5.976   5.680
 5822TIP3    H117430   5.423   6.024   5.598
 5822TIP3    H217431   5.395   5.891   5.665
 5823TIP3   OH217432   7.060   1.710   3.075
 5823TIP3    H117433   6.980   1.746   3.036
 5823TIP3    H217434   7.035   1.621   3.102
 5824TIP3   OH217435   2.065   5.365   0.336
 5824TIP3    H117436   1.987   5.416   0.359
 5824TIP3    H217437   2.031   5.280   0.307
 5825TIP3   OH217438   1.962   1.252   1.031
 5825TIP3    H117439   2.048   1.275   0.996
 5825TIP3    H217440   1.977   1.172   1.081
 5826TIP3   OH217441   4.581   1.734   3.958
 5826TIP3    H117442   4.586   1.795   3.884
 5826TIP3    H217443   4.672   1.710   3.975
 5827TIP3   OH217444   1.811   6.520   2.712
 5827TIP3    H117445   1.732   6.569   2.689
 5827TIP3    H217446   1.844   6.563   2.791
 5828TIP3   OH217447   2.809   5.648   0.540
 5828TIP3    H117448   2.843   5.614   0.457
 5828TIP3    H217449   2.727   5.691   0.515
 5829TIP3   OH217450   0.361   2.689   1.864
 5829TIP3    H117451   0.369   2.599   1.834
 5829TIP3    H217452   0.451   2.722   1.865
 5830TIP3   OH217453   7.141   0.269   2.313
 5830TIP3    H117454   7.066   0.229   2.356
 5830TIP3    H217455   7.216   0.249   2.369
 5831TIP3   OH217456   6.351   5.140   0.387
 5831TIP3    H117457   6.428   5.103   0.343
 5831TIP3    H217458   6.348   5.095   0.472
 5832TIP3   OH217459   0.263   3.272   5.702
 5832TIP3    H117460   0.302   3.276   5.789
 5832TIP3    H217461   0.169   3.268   5.718
 5833TIP3   OH217462   5.398   3.671   1.802
 5833TIP3    H117463   5.377   3.682   1.710
 5833TIP3    H217464   5.423   3.579   1.811
 5834TIP3   OH217465   3.530   4.948   2.310
 5834TIP3    H117466   3.529   4.853   2.305
 5834TIP3    H217467   3.439   4.972   2.327
 5835TIP3   OH217468   0.628   0.479   4.655
 5835TIP3    H117469   0.629   0.399   4.709
 5835TIP3    H217470   0.537   0.508   4.658
 5836TIP3   OH217471   1.681   2.413   2.021
 5836TIP3    H117472   1.764   2.450   2.050
 5836TIP3    H217473   1.619   2.485   2.028
 5837TIP3   OH217474   6.632   0.031   1.807
 5837TIP3    H117475   6.605  -0.061   1.805
 5837TIP3    H217476   6.664   0.049   1.719
 5838TIP3   OH217477   0.590   0.162   0.837
 5838TIP3    H117478   0.644   0.229   0.878
 5838TIP3    H217479   0.538   0.209   0.772
 5839TIP3   OH217480   4.777   5.122   4.208
 5839TIP3    H117481   4.768   5.174   4.288
 5839TIP3    H217482   4.822   5.179   4.146
 5840TIP3   OH217483   3.227   4.665   4.966
 5840TIP3    H117484   3.255   4.692   5.054
 5840TIP3    H217485   3.136   4.695   4.960
 5841TIP3   OH217486   4.691   1.752   3.141
 5841TIP3    H117487   4.774   1.752   3.093
 5841TIP3    H217488   4.660   1.662   3.135
 5842TIP3   OH217489   5.441   5.426   0.776
 5842TIP3    H117490   5.442   5.365   0.851
 5842TIP3    H217491   5.512   5.395   0.720
 5843TIP3   OH217492   6.632   4.926   2.474
 5843TIP3    H117493   6.585   4.938   2.556
 5843TIP3    H217494   6.565   4.897   2.412
 5844TIP3   OH217495   0.220   0.418   3.093
 5844TIP3    H117496   0.220   0.349   3.159
 5844TIP3    H217497   0.224   0.500   3.143
 5845TIP3   OH217498   3.438   3.925   2.930
 5845TIP3    H117499   3.520   3.975   2.930
 5845TIP3    H217500   3.369   3.991   2.924
 5846TIP3   OH217501   5.854   2.013   4.791
 5846TIP3    H117502   5.830   2.091   4.842
 5846TIP3    H217503   5.832   1.940   4.847
 5847TIP3   OH217504   0.717   0.753   4.702
 5847TIP3    H117505   0.683   0.692   4.636
 5847TIP3    H217506   0.723   0.701   4.782
 5848TIP3   OH217507   0.637   4.352   5.246
 5848TIP3    H117508   0.655   4.358   5.340
 5848TIP3    H217509   0.714   4.309   5.210
 5849TIP3   OH217510   5.703   6.585   3.021
 5849TIP3    H117511   5.701   6.500   3.066
 5849TIP3    H217512   5.761   6.639   3.075
 5850TIP3   OH217513   3.622   5.926   0.046
 5850TIP3    H117514   3.666   5.921   0.131
 5850TIP3    H217515   3.677   5.873  -0.013
 5851TIP3   OH217516   5.469   0.961   0.996
 5851TIP3    H117517   5.510   1.006   0.922
 5851TIP3    H217518   5.440   1.031   1.054
 5852TIP3   OH217519   5.732   6.456   2.512
 5852TIP3    H117520   5.744   6.454   2.607
 5852TIP3    H217521   5.806   6.506   2.479
 5853TIP3   OH217522   1.387   4.245   1.221
 5853TIP3    H117523   1.409   4.335   1.246
 5853TIP3    H217524   1.292   4.245   1.212
 5854TIP3   OH217525   3.347   1.735   4.248
 5854TIP3    H117526   3.343   1.647   4.209
 5854TIP3    H217527   3.340   1.795   4.174
 5855TIP3   OH217528   0.400   5.895   0.763
 5855TIP3    H117529   0.307   5.893   0.785
 5855TIP3    H217530   0.402   5.928   0.673
 5856TIP3   OH217531   4.891   5.462   4.806
 5856TIP3    H117532   4.831   5.504   4.868
 5856TIP3    H217533   4.840   5.391   4.769
 5857TIP3   OH217534   4.647   1.693   4.263
 5857TIP3    H117535   4.557   1.694   4.230
 5857TIP3    H217536   4.685   1.613   4.227
 5858TIP3   OH217537   0.606   4.102   0.449
 5858TIP3    H117538   0.628   4.039   0.518
 5858TIP3    H217539   0.685   4.106   0.394
 5859TIP3   OH217540   2.039   2.324   2.106
 5859TIP3    H117541   2.053   2.230   2.092
 5859TIP3    H217542   1.963   2.345   2.051
 5860TIP3   OH217543   1.721   3.411   0.730
 5860TIP3    H117544   1.653   3.355   0.691
 5860TIP3    H217545   1.798   3.396   0.677
 5861TIP3   OH217546   6.407   6.022   2.381
 5861TIP3    H117547   6.411   5.951   2.316
 5861TIP3    H217548   6.495   6.060   2.380
 5862TIP3   OH217549   2.554   0.432   4.316
 5862TIP3    H117550   2.557   0.526   4.333
 5862TIP3    H217551   2.538   0.425   4.222
 5863TIP3   OH217552   3.440   2.474   4.292
 5863TIP3    H117553   3.354   2.512   4.309
 5863TIP3    H217554   3.498   2.517   4.353
 5864TIP3   OH217555   1.538   5.502   2.137
 5864TIP3    H117556   1.547   5.415   2.176
 5864TIP3    H217557   1.497   5.555   2.206
 5865TIP3   OH217558   2.982   2.224   2.306
 5865TIP3    H117559   3.025   2.309   2.290
 5865TIP3    H217560   3.055   2.164   2.322
 5866TIP3   OH217561   2.056   3.576   5.812
 5866TIP3    H117562   2.127   3.537   5.762
 5866TIP3    H217563   2.020   3.503   5.862
 5867TIP3   OH217564   5.062   1.450   2.736
 5867TIP3    H117565   4.968   1.461   2.719
 5867TIP3    H217566   5.105   1.503   2.670
 5868TIP3   OH217567   5.368   4.081   5.523
 5868TIP3    H117568   5.428   4.153   5.509
 5868TIP3    H217569   5.324   4.102   5.606
 5869TIP3   OH217570   1.120   5.955   5.316
 5869TIP3    H117571   1.208   5.966   5.281
 5869TIP3    H217572   1.101   6.038   5.361
 5870TIP3   OH217573   3.652   1.070   2.563
 5870TIP3    H117574   3.634   1.105   2.476
 5870TIP3    H217575   3.612   1.134   2.623
 5871TIP3   OH217576   6.543   2.324   2.892
 5871TIP3    H117577   6.526   2.417   2.877
 5871TIP3    H217578   6.539   2.314   2.987
 5872TIP3   OH217579   0.426   3.772   2.650
 5872TIP3    H117580   0.477   3.765   2.569
 5872TIP3    H217581   0.407   3.865   2.658
 5873TIP3   OH217582   0.874   4.701   5.373
 5873TIP3    H117583   0.853   4.782   5.419
 5873TIP3    H217584   0.791   4.671   5.337
 5874TIP3   OH217585   2.747   4.197   0.044
 5874TIP3    H117586   2.761   4.140  -0.031
 5874TIP3    H217587   2.660   4.173   0.077
 5875TIP3   OH217588   1.991   2.950   2.427
 5875TIP3    H117589   1.999   3.045   2.437
 5875TIP3    H217590   1.927   2.924   2.494
 5876TIP3   OH217591   3.872   2.374   0.769
 5876TIP3    H117592   3.861   2.404   0.679
 5876TIP3    H217593   3.848   2.449   0.824
 5877TIP3   OH217594   3.263   6.133   4.248
 5877TIP3    H117595   3.344   6.133   4.197
 5877TIP3    H217596   3.236   6.041   4.248
 5878TIP3   OH217597   4.053   2.904   1.729
 5878TIP3    H117598   3.981   2.843   1.716
 5878TIP3    H217599   4.130   2.859   1.693
 5879TIP3   OH217600   0.577   5.219   2.302
 5879TIP3    H117601   0.658   5.199   2.349
 5879TIP3    H217602   0.553   5.306   2.333
 5880TIP3   OH217603   4.563   4.455   3.962
 5880TIP3    H117604   4.536   4.514   4.033
 5880TIP3    H217605   4.508   4.481   3.888
 5881TIP3   OH217606   1.753   5.874   4.240
 5881TIP3    H117607   1.804   5.952   4.264
 5881TIP3    H217608   1.817   5.816   4.199
 5882TIP3   OH217609   5.697   0.535   1.670
 5882TIP3    H117610   5.653   0.508   1.751
 5882TIP3    H217611   5.740   0.618   1.692
 5883TIP3   OH217612   3.582   3.541   4.210
 5883TIP3    H117613   3.499   3.588   4.214
 5883TIP3    H217614   3.571   3.467   4.270
 5884TIP3   OH217615   2.322   3.783   1.186
 5884TIP3    H117616   2.336   3.688   1.184
 5884TIP3    H217617   2.332   3.806   1.278
 5885TIP3   OH217618   4.715   2.676   3.789
 5885TIP3    H117619   4.804   2.712   3.785
 5885TIP3    H217620   4.725   2.595   3.838
 5886TIP3   OH217621   3.427   4.318   0.552
 5886TIP3    H117622   3.469   4.261   0.616
 5886TIP3    H217623   3.422   4.265   0.472
 5887TIP3   OH217624   2.755   2.179   4.365
 5887TIP3    H117625   2.688   2.207   4.428
 5887TIP3    H217626   2.730   2.089   4.342
 5888TIP3   OH217627   6.146   5.586   5.569
 5888TIP3    H117628   6.224   5.626   5.530
 5888TIP3    H217629   6.110   5.655   5.625
 5889TIP3   OH217630   3.016   1.567   5.771
 5889TIP3    H117631   2.972   1.486   5.749
 5889TIP3    H217632   3.057   1.595   5.689
 5890TIP3   OH217633   6.872   1.873   2.926
 5890TIP3    H117634   6.906   1.868   2.837
 5890TIP3    H217635   6.903   1.957   2.960
 5891TIP3   OH217636   3.474   3.565   5.118
 5891TIP3    H117637   3.533   3.509   5.168
 5891TIP3    H217638   3.389   3.522   5.124
 5892TIP3   OH217639   6.374   1.363   4.236
 5892TIP3    H117640   6.360   1.456   4.255
 5892TIP3    H217641   6.303   1.318   4.283
 5893TIP3   OH217642   0.776   4.003   3.168
 5893TIP3    H117643   0.833   3.959   3.230
 5893TIP3    H217644   0.836   4.043   3.104
 5894TIP3   OH217645   7.093   6.202   2.931
 5894TIP3    H117646   7.187   6.198   2.917
 5894TIP3    H217647   7.061   6.260   2.862
 5895TIP3   OH217648   2.166   5.967   1.862
 5895TIP3    H117649   2.121   6.042   1.901
 5895TIP3    H217650   2.141   5.892   1.917
 5896TIP3   OH217651   4.170   5.447   3.270
 5896TIP3    H117652   4.118   5.517   3.309
 5896TIP3    H217653   4.237   5.427   3.335
 5897TIP3   OH217654   1.432   5.501   3.345
 5897TIP3    H117655   1.483   5.483   3.424
 5897TIP3    H217656   1.444   5.424   3.290
 5898TIP3   OH217657   1.465   4.812   4.914
 5898TIP3    H117658   1.513   4.739   4.875
 5898TIP3    H217659   1.460   4.877   4.844
 5899TIP3   OH217660   4.688   5.659   3.948
 5899TIP3    H117661   4.609   5.614   3.979
 5899TIP3    H217662   4.659   5.747   3.926
 5900TIP3   OH217663   5.003   4.314   4.779
 5900TIP3    H117664   5.067   4.248   4.806
 5900TIP3    H217665   5.054   4.394   4.770
 5901TIP3   OH217666   6.647   3.109   1.373
 5901TIP3    H117667   6.685   3.117   1.286
 5901TIP3    H217668   6.556   3.137   1.362
 5902TIP3   OH217669   7.296   5.893   4.666
 5902TIP3    H117670   7.201   5.890   4.675
 5902TIP3    H217671   7.316   5.986   4.655
 5903TIP3   OH217672   7.040   4.278   5.102
 5903TIP3    H117673   7.057   4.274   5.008
 5903TIP3    H217674   7.019   4.369   5.119
 5904TIP3   OH217675   0.469   5.828   5.260
 5904TIP3    H117676   0.547   5.848   5.312
 5904TIP3    H217677   0.422   5.911   5.253
 5905TIP3   OH217678   6.954   5.187   0.335
 5905TIP3    H117679   6.959   5.172   0.240
 5905TIP3    H217680   6.865   5.220   0.349
 5906TIP3   OH217681   4.347   1.351   4.402
 5906TIP3    H117682   4.353   1.342   4.307
 5906TIP3    H217683   4.364   1.263   4.436
 5907TIP3   OH217684   6.486   1.318   1.553
 5907TIP3    H117685   6.435   1.308   1.633
 5907TIP3    H217686   6.575   1.291   1.578
 5908TIP3   OH217687   3.664   0.226   4.181
 5908TIP3    H117688   3.737   0.168   4.156
 5908TIP3    H217689   3.587   0.184   4.144
 5909TIP3   OH217690   0.499   6.435   4.674
 5909TIP3    H117691   0.548   6.497   4.728
 5909TIP3    H217692   0.542   6.351   4.689
 5910TIP3   OH217693   6.627   2.482   3.454
 5910TIP3    H117694   6.659   2.402   3.496
 5910TIP3    H217695   6.691   2.500   3.386
 5911TIP3   OH217696   4.798   2.758   4.760
 5911TIP3    H117697   4.808   2.665   4.737
 5911TIP3    H217698   4.733   2.758   4.830
 5912TIP3   OH217699   4.826   6.348   4.442
 5912TIP3    H117700   4.761   6.398   4.491
 5912TIP3    H217701   4.851   6.277   4.501
 5913TIP3   OH217702   6.690   2.601   4.970
 5913TIP3    H117703   6.692   2.695   4.984
 5913TIP3    H217704   6.772   2.569   5.008
 5914TIP3   OH217705   0.017   0.566   2.555
 5914TIP3    H117706   0.095   0.516   2.579
 5914TIP3    H217707  -0.056   0.507   2.574
 5915TIP3   OH217708   1.790   6.624   1.338
 5915TIP3    H117709   1.699   6.596   1.351
 5915TIP3    H217710   1.839   6.542   1.334
 5916TIP3   OH217711   6.226   1.978   0.213
 5916TIP3    H117712   6.296   1.963   0.277
 5916TIP3    H217713   6.156   2.018   0.265
 5917TIP3   OH217714   4.808   2.919   0.642
 5917TIP3    H117715   4.833   2.851   0.704
 5917TIP3    H217716   4.730   2.885   0.598
 5918TIP3   OH217717   6.245   4.943   0.657
 5918TIP3    H117718   6.261   4.867   0.713
 5918TIP3    H217719   6.231   4.907   0.570
 5919TIP3   OH217720   3.407   0.738   4.240
 5919TIP3    H117721   3.347   0.723   4.167
 5919TIP3    H217722   3.369   0.811   4.288
 5920TIP3   OH217723   4.349   1.745   4.667
 5920TIP3    H117724   4.377   1.655   4.681
 5920TIP3    H217725   4.431   1.794   4.654
 5921TIP3   OH217726   3.218   5.995   3.448
 5921TIP3    H117727   3.291   6.029   3.500
 5921TIP3    H217728   3.202   6.063   3.383
 5922TIP3   OH217729   6.356   3.995   2.598
 5922TIP3    H117730   6.351   3.900   2.608
 5922TIP3    H217731   6.375   4.027   2.686
 5923TIP3   OH217732   2.572   4.958   4.034
 5923TIP3    H117733   2.563   4.942   4.128
 5923TIP3    H217734   2.667   4.961   4.020
 5924TIP3   OH217735   2.874   6.464   2.043
 5924TIP3    H117736   2.791   6.505   2.020
 5924TIP3    H217737   2.899   6.415   1.964
 5925TIP3   OH217738   1.726   6.377   4.870
 5925TIP3    H117739   1.651   6.347   4.819
 5925TIP3    H217740   1.726   6.321   4.948
 5926TIP3   OH217741   2.993   1.864   5.431
 5926TIP3    H117742   2.968   1.783   5.476
 5926TIP3    H217743   3.048   1.834   5.358
 5927TIP3   OH217744   6.982   3.825   4.861
 5927TIP3    H117745   6.979   3.908   4.813
 5927TIP3    H217746   6.966   3.849   4.952
 5928TIP3   OH217747   2.054   3.246   3.158
 5928TIP3    H117748   2.005   3.256   3.077
 5928TIP3    H217749   2.145   3.231   3.130
 5929TIP3   OH217750   6.523   2.934   0.650
 5929TIP3    H117751   6.493   3.020   0.679
 5929TIP3    H217752   6.448   2.876   0.661
 5930TIP3   OH217753   4.447   3.942   3.305
 5930TIP3    H117754   4.374   4.004   3.305
 5930TIP3    H217755   4.459   3.918   3.397
 5931TIP3   OH217756   4.459   4.220   4.788
 5931TIP3    H117757   4.479   4.293   4.730
 5931TIP3    H217758   4.400   4.257   4.854
 5932TIP3   OH217759   4.692   6.456   1.705
 5932TIP3    H117760   4.773   6.501   1.729
 5932TIP3    H217761   4.644   6.520   1.653
 5933TIP3   OH217762   2.282   6.334   0.666
 5933TIP3    H117763   2.262   6.421   0.700
 5933TIP3    H217764   2.377   6.326   0.675
 5934TIP3   OH217765   6.906   0.945   2.571
 5934TIP3    H117766   6.819   0.906   2.560
 5934TIP3    H217767   6.906   0.976   2.662
 5935TIP3   OH217768   0.043   3.484   4.033
 5935TIP3    H117769  -0.006   3.527   3.963
 5935TIP3    H217770   0.129   3.527   4.032
 5936TIP3   OH217771   1.332   1.983   3.377
 5936TIP3    H117772   1.278   1.959   3.452
 5936TIP3    H217773   1.356   2.075   3.393
 5937TIP3   OH217774   0.489   6.309   2.942
 5937TIP3    H117775   0.508   6.364   3.018
 5937TIP3    H217776   0.540   6.348   2.871
 5938TIP3   OH217777   5.426   3.880   0.605
 5938TIP3    H117778   5.337   3.867   0.573
 5938TIP3    H217779   5.427   3.838   0.691
 5939TIP3   OH217780   2.694   2.025  -0.021
 5939TIP3    H117781   2.771   1.970  -0.010
 5939TIP3    H217782   2.640   2.006   0.056
 5940TIP3   OH217783   3.498   6.226   3.236
 5940TIP3    H117784   3.571   6.164   3.227
 5940TIP3    H217785   3.420   6.170   3.235
 5941TIP3   OH217786   2.928   1.447   4.346
 5941TIP3    H117787   2.954   1.495   4.425
 5941TIP3    H217788   2.946   1.507   4.274
 5942TIP3   OH217789   1.738   0.664   1.348
 5942TIP3    H117790   1.822   0.694   1.313
 5942TIP3    H217791   1.679   0.738   1.334
 5943TIP3   OH217792   4.440   3.926   0.208
 5943TIP3    H117793   4.427   3.867   0.133
 5943TIP3    H217794   4.370   3.903   0.269
 5944TIP3   OH217795   0.763   5.214   3.235
 5944TIP3    H117796   0.702   5.192   3.306
 5944TIP3    H217797   0.786   5.305   3.251
 5945TIP3   OH217798   3.485   6.268   1.685
 5945TIP3    H117799   3.538   6.237   1.758
 5945TIP3    H217800   3.421   6.327   1.724
 5946TIP3   OH217801   1.180   0.104   1.121
 5946TIP3    H117802   1.256   0.112   1.064
 5946TIP3    H217803   1.162   0.193   1.151
 5947TIP3   OH217804   4.859   6.203   1.659
 5947TIP3    H117805   4.806   6.261   1.713
 5947TIP3    H217806   4.861   6.120   1.707
 5948TIP3   OH217807   3.889   2.954   3.551
 5948TIP3    H117808   3.967   3.009   3.550
 5948TIP3    H217809   3.923   2.865   3.535
 5949TIP3   OH217810   1.670   4.581   2.510
 5949TIP3    H117811   1.620   4.515   2.559
 5949TIP3    H217812   1.731   4.618   2.574
 5950TIP3   OH217813   6.925   0.064   0.613
 5950TIP3    H117814   6.832   0.076   0.592
 5950TIP3    H217815   6.925   0.002   0.686
 5951TIP3   OH217816   5.045   5.609   5.646
 5951TIP3    H117817   5.125   5.663   5.651
 5951TIP3    H217818   5.061   5.538   5.709
 5952TIP3   OH217819   4.231   1.582   4.481
 5952TIP3    H117820   4.287   1.618   4.550
 5952TIP3    H217821   4.279   1.506   4.449
 5953TIP3   OH217822   5.248   4.258   1.886
 5953TIP3    H117823   5.313   4.286   1.950
 5953TIP3    H217824   5.182   4.211   1.937
 5954TIP3   OH217825   6.336   1.828   3.379
 5954TIP3    H117826   6.390   1.760   3.420
 5954TIP3    H217827   6.252   1.822   3.425
 5955TIP3   OH217828   5.163   1.961   2.162
 5955TIP3    H117829   5.152   2.042   2.212
 5955TIP3    H217830   5.216   1.905   2.219
 5956TIP3   OH217831   1.442   2.599   4.802
 5956TIP3    H117832   1.474   2.663   4.865
 5956TIP3    H217833   1.477   2.516   4.832
 5957TIP3   OH217834   6.868   6.268   0.139
 5957TIP3    H117835   6.909   6.183   0.121
 5957TIP3    H217836   6.819   6.253   0.220
 5958TIP3   OH217837   2.608   4.246   4.459
 5958TIP3    H117838   2.668   4.220   4.528
 5958TIP3    H217839   2.628   4.189   4.385
 5959TIP3   OH217840   0.148   3.155   1.700
 5959TIP3    H117841   0.198   3.085   1.742
 5959TIP3    H217842   0.209   3.194   1.638
 5960TIP3   OH217843   4.933   2.674   3.494
 5960TIP3    H117844   4.852   2.691   3.445
 5960TIP3    H217845   5.002   2.673   3.427
 5961TIP3   OH217846   4.072   6.201   1.866
 5961TIP3    H117847   4.015   6.131   1.834
 5961TIP3    H217848   4.134   6.216   1.794
 5962TIP3   OH217849   2.822   5.985   4.044
 5962TIP3    H117850   2.894   5.924   4.060
 5962TIP3    H217851   2.833   6.012   3.953
 5963TIP3   OH217852   6.619   3.229   2.862
 5963TIP3    H117853   6.582   3.316   2.846
 5963TIP3    H217854   6.703   3.246   2.903
 5964TIP3   OH217855   0.701   3.121   0.155
 5964TIP3    H117856   0.632   3.161   0.208
 5964TIP3    H217857   0.779   3.126   0.210
 5965TIP3   OH217858   6.352   6.061   1.951
 5965TIP3    H117859   6.367   5.972   1.982
 5965TIP3    H217860   6.408   6.070   1.874
 5966TIP3   OH217861   4.735   3.538   0.369
 5966TIP3    H117862   4.717   3.601   0.439
 5966TIP3    H217863   4.808   3.486   0.401
 5967TIP3   OH217864   0.080   2.700   3.203
 5967TIP3    H117865   0.095   2.660   3.118
 5967TIP3    H217866   0.021   2.639   3.248
 5968TIP3   OH217867   0.398   3.653   2.911
 5968TIP3    H117868   0.354   3.723   2.862
 5968TIP3    H217869   0.489   3.655   2.880
 5969TIP3   OH217870   1.284   3.765   4.800
 5969TIP3    H117871   1.323   3.836   4.748
 5969TIP3    H217872   1.220   3.808   4.855
 5970TIP3   OH217873   0.659   2.555   5.568
 5970TIP3    H117874   0.710   2.576   5.490
 5970TIP3    H217875   0.606   2.479   5.543
 5971TIP3   OH217876   5.552   1.291   3.253
 5971TIP3    H117877   5.647   1.298   3.247
 5971TIP3    H217878   5.532   1.309   3.345
 5972TIP3   OH217879   0.832   5.117   2.540
 5972TIP3    H117880   0.786   5.071   2.470
 5972TIP3    H217881   0.894   5.052   2.574
 5973TIP3   OH217882   2.113  -0.066   4.821
 5973TIP3    H117883   2.053  -0.046   4.893
 5973TIP3    H217884   2.068  -0.037   4.743
 5974TIP3   OH217885   3.353   2.055   0.211
 5974TIP3    H117886   3.364   2.133   0.265
 5974TIP3    H217887   3.325   1.987   0.273
 5975TIP3   OH217888   0.935   0.832   5.745
 5975TIP3    H117889   0.995   0.759   5.729
 5975TIP3    H217890   0.905   0.820   5.835
 5976TIP3   OH217891   5.825   6.256   1.562
 5976TIP3    H117892   5.852   6.231   1.473
 5976TIP3    H217893   5.875   6.336   1.580
 5977TIP3   OH217894   2.096   4.184   0.926
 5977TIP3    H117895   2.129   4.095   0.934
 5977TIP3    H217896   2.156   4.226   0.863
 5978TIP3   OH217897   5.780   5.772   5.864
 5978TIP3    H117898   5.750   5.787   5.954
 5978TIP3    H217899   5.833   5.849   5.843
 5979TIP3   OH217900   6.754   1.189   3.622
 5979TIP3    H117901   6.744   1.129   3.696
 5979TIP3    H217902   6.848   1.207   3.618
 5980TIP3   OH217903   1.690   2.131   0.925
 5980TIP3    H117904   1.734   2.048   0.943
 5980TIP3    H217905   1.706   2.147   0.832
 5981TIP3   OH217906   1.288   0.413   2.457
 5981TIP3    H117907   1.268   0.468   2.532
 5981TIP3    H217908   1.352   0.349   2.489
 5982TIP3   OH217909   0.337   5.663   3.965
 5982TIP3    H117910   0.356   5.653   4.059
 5982TIP3    H217911   0.246   5.633   3.957
 5983TIP3   OH217912   5.221   1.277   4.377
 5983TIP3    H117913   5.193   1.365   4.403
 5983TIP3    H217914   5.141   1.224   4.383
 5984TIP3   OH217915   5.246   1.458   3.671
 5984TIP3    H117916   5.187   1.401   3.621
 5984TIP3    H217917   5.237   1.544   3.629
 5985TIP3   OH217918   2.399   4.430   0.926
 5985TIP3    H117919   2.355   4.427   0.841
 5985TIP3    H217920   2.409   4.523   0.945
 5986TIP3   OH217921   3.505   2.817   2.345
 5986TIP3    H117922   3.516   2.773   2.429
 5986TIP3    H217923   3.419   2.859   2.350
 5987TIP3   OH217924   3.710   0.613   4.523
 5987TIP3    H117925   3.624   0.646   4.496
 5987TIP3    H217926   3.735   0.553   4.453
 5988TIP3   OH217927   0.990   3.688   4.462
 5988TIP3    H117928   1.043   3.610   4.446
 5988TIP3    H217929   0.901   3.655   4.474
 5989TIP3   OH217930   4.449   6.094   4.666
 5989TIP3    H117931   4.524   6.035   4.666
 5989TIP3    H217932   4.404   6.076   4.584
 5990TIP3   OH217933   1.334   3.273   3.819
 5990TIP3    H117934   1.286   3.276   3.737
 5990TIP3    H217935   1.418   3.314   3.799
 5991TIP3   OH217936   1.307   0.754   0.387
 5991TIP3    H117937   1.326   0.745   0.293
 5991TIP3    H217938   1.339   0.842   0.409
 5992TIP3   OH217939   2.559   1.113   3.085
 5992TIP3    H117940   2.491   1.173   3.054
 5992TIP3    H217941   2.573   1.138   3.176
 5993TIP3   OH217942   5.549   2.881   2.237
 5993TIP3    H117943   5.619   2.945   2.249
 5993TIP3    H217944   5.489   2.897   2.310
 5994TIP3   OH217945   6.436   1.912   0.407
 5994TIP3    H117946   6.498   1.878   0.472
 5994TIP3    H217947   6.465   1.873   0.325
 5995TIP3   OH217948   2.910   0.543   0.387
 5995TIP3    H117949   2.852   0.618   0.398
 5995TIP3    H217950   2.855   0.467   0.405
 5996TIP3   OH217951   7.141   0.192   0.726
 5996TIP3    H117952   7.071   0.129   0.708
 5996TIP3    H217953   7.187   0.201   0.643
 5997TIP3   OH217954   1.342   6.065   2.449
 5997TIP3    H117955   1.337   5.987   2.504
 5997TIP3    H217956   1.351   6.031   2.360
 5998TIP3   OH217957   6.002   0.210   2.478
 5998TIP3    H117958   6.030   0.130   2.522
 5998TIP3    H217959   5.924   0.238   2.525
 5999TIP3   OH217960   0.739   6.431   1.877
 5999TIP3    H117961   0.748   6.364   1.944
 5999TIP3    H217962   0.654   6.413   1.836
 6000TIP3   OH217963   2.003   5.361   5.331
 6000TIP3    H117964   1.990   5.285   5.275
 6000TIP3    H217965   1.964   5.336   5.415
 6001TIP3   OH217966   0.432   4.316   2.637
 6001TIP3    H117967   0.476   4.361   2.565
 6001TIP3    H217968   0.426   4.225   2.608
 6002TIP3   OH217969   4.575   6.405   5.368
 6002TIP3    H117970   4.499   6.346   5.367
 6002TIP3    H217971   4.559   6.462   5.443
 6003TIP3   OH217972   7.208   0.924   5.916
 6003TIP3    H117973   7.124   0.966   5.899
 6003TIP3    H217974   7.268   0.966   5.853
 6004TIP3   OH217975   0.675   1.040   1.821
 6004TIP3    H117976   0.737   0.971   1.844
 6004TIP3    H217977   0.723   1.122   1.832
 6005TIP3   OH217978   1.330   6.202   0.510
 6005TIP3    H117979   1.284   6.201   0.594
 6005TIP3    H217980   1.270   6.159   0.449
 6006TIP3   OH217981   6.569   2.583   4.689
 6006TIP3    H117982   6.592   2.599   4.781
 6006TIP3    H217983   6.583   2.667   4.646
 6007TIP3   OH217984   4.962   0.380   3.755
 6007TIP3    H117985   4.902   0.432   3.702
 6007TIP3    H217986   5.000   0.444   3.816
 6008TIP3   OH217987   5.932   0.218   2.187
 6008TIP3    H117988   5.838   0.214   2.204
 6008TIP3    H217989   5.972   0.214   2.273
 6009TIP3   OH217990   0.128   0.495   4.831
 6009TIP3    H117991   0.103   0.587   4.842
 6009TIP3    H217992   0.045   0.450   4.814
 6010TIP3   OH217993   3.086   2.486   0.412
 6010TIP3    H117994   3.006   2.441   0.386
 6010TIP3    H217995   3.056   2.563   0.460
 6011TIP3   OH217996   3.034   6.627   5.782
 6011TIP3    H117997   2.960   6.687   5.786
 6011TIP3    H217998   3.053   6.605   5.873
 6012TIP3   OH217999   5.606   4.881   2.816
 6012TIP3    H118000   5.540   4.910   2.879
 6012TIP3    H218001   5.563   4.812   2.766
 6013TIP3   OH218002   6.445   1.412   0.217
 6013TIP3    H118003   6.488   1.352   0.157
 6013TIP3    H218004   6.492   1.400   0.300
 6014TIP3   OH218005   1.693   4.058   5.164
 6014TIP3    H118006   1.786   4.077   5.161
 6014TIP3    H218007   1.669   4.039   5.073
 6015TIP3   OH218008   0.903   2.437   0.234
 6015TIP3    H118009   0.856   2.444   0.316
 6015TIP3    H218010   0.859   2.366   0.187
 6016TIP3   OH218011   5.000   5.852   5.155
 6016TIP3    H118012   4.976   5.929   5.208
 6016TIP3    H218013   4.917   5.807   5.140
 6017TIP3   OH218014   4.246   4.708   3.433
 6017TIP3    H118015   4.224   4.615   3.447
 6017TIP3    H218016   4.261   4.742   3.521
 6018TIP3   OH218017   6.676   4.091   2.374
 6018TIP3    H118018   6.704   4.026   2.309
 6018TIP3    H218019   6.718   4.062   2.456
 6019TIP3   OH218020   7.206   1.066   2.007
 6019TIP3    H118021   7.194   1.103   1.919
 6019TIP3    H218022   7.162   1.128   2.065
 6020TIP3   OH218023   5.724   3.990   4.588
 6020TIP3    H118024   5.681   4.056   4.641
 6020TIP3    H218025   5.719   3.910   4.640
 6021TIP3   OH218026   4.720   0.683   4.448
 6021TIP3    H118027   4.703   0.777   4.454
 6021TIP3    H218028   4.815   0.676   4.436
 6022TIP3   OH218029   6.631   4.410   0.237
 6022TIP3    H118030   6.593   4.498   0.240
 6022TIP3    H218031   6.617   4.375   0.325
 6023TIP3   OH218032   3.631   0.177   3.406
 6023TIP3    H118033   3.720   0.146   3.418
 6023TIP3    H218034   3.590   0.168   3.492
 6024TIP3   OH218035   3.482   5.668   0.301
 6024TIP3    H118036   3.467   5.647   0.209
 6024TIP3    H218037   3.404   5.634   0.346
 6025TIP3   OH218038   6.957   2.334   0.054
 6025TIP3    H118039   7.041   2.301   0.087
 6025TIP3    H218040   6.963   2.429   0.065
 6026TIP3   OH218041   5.033   5.937   3.672
 6026TIP3    H118042   5.108   5.984   3.636
 6026TIP3    H218043   5.070   5.860   3.715
 6027TIP3   OH218044   0.951   2.997   2.306
 6027TIP3    H118045   0.948   3.015   2.212
 6027TIP3    H218046   0.890   2.924   2.318
 6028TIP3   OH218047   6.209   3.363   0.751
 6028TIP3    H118048   6.264   3.442   0.759
 6028TIP3    H218049   6.132   3.393   0.703
 6029TIP3   OH218050   0.730   1.865   2.684
 6029TIP3    H118051   0.754   1.845   2.774
 6029TIP3    H218052   0.657   1.927   2.691
 6030TIP3   OH218053   6.344   2.928   0.238
 6030TIP3    H118054   6.250   2.916   0.241
 6030TIP3    H218055   6.379   2.839   0.226
 6031TIP3   OH218056   3.750   4.924   0.798
 6031TIP3    H118057   3.746   4.931   0.893
 6031TIP3    H218058   3.669   4.879   0.773
 6032TIP3   OH218059   2.205   0.455   5.591
 6032TIP3    H118060   2.238   0.366   5.581
 6032TIP3    H218061   2.132   0.460   5.529
 6033TIP3   OH218062   0.483   0.403   2.750
 6033TIP3    H118063   0.545   0.382   2.820
 6033TIP3    H218064   0.510   0.488   2.718
 6034TIP3   OH218065   1.399   6.312   2.511
 6034TIP3    H118066   1.439   6.288   2.595
 6034TIP3    H218067   1.367   6.230   2.475
 6035TIP3   OH218068   2.033   6.137   4.661
 6035TIP3    H118069   1.963   6.141   4.726
 6035TIP3    H218070   1.988   6.152   4.578
 6036TIP3   OH218071   1.988   4.346   2.650
 6036TIP3    H118072   1.996   4.259   2.612
 6036TIP3    H218073   1.919   4.337   2.716
 6037TIP3   OH218074   4.874   5.748   3.550
 6037TIP3    H118075   4.953   5.695   3.537
 6037TIP3    H218076   4.907   5.837   3.561
 6038TIP3   OH218077   4.517   4.329   2.107
 6038TIP3    H118078   4.598   4.330   2.056
 6038TIP3    H218079   4.527   4.253   2.165
 6039TIP3   OH218080   5.371   6.388   2.954
 6039TIP3    H118081   5.309   6.333   2.905
 6039TIP3    H218082   5.317   6.458   2.991
 6040TIP3   OH218083   0.275   4.810   1.880
 6040TIP3    H118084   0.366   4.786   1.861
 6040TIP3    H218085   0.263   4.896   1.840
 6041TIP3   OH218086   5.491   0.229   4.500
 6041TIP3    H118087   5.483   0.235   4.595
 6041TIP3    H218088   5.424   0.289   4.466
 6042TIP3   OH218089   3.270   3.474   5.703
 6042TIP3    H118090   3.189   3.493   5.750
 6042TIP3    H218091   3.257   3.387   5.665
 6043TIP3   OH218092   3.805   4.750   0.280
 6043TIP3    H118093   3.742   4.706   0.221
 6043TIP3    H218094   3.855   4.678   0.319
 6044TIP3   OH218095   5.395   6.501   4.454
 6044TIP3    H118096   5.391   6.417   4.410
 6044TIP3    H218097   5.322   6.499   4.516
 6045TIP3   OH218098   5.089   4.423   3.297
 6045TIP3    H118099   5.034   4.359   3.344
 6045TIP3    H218100   5.043   4.437   3.214
 6046TIP3   OH218101   4.210   4.443   0.441
 6046TIP3    H118102   4.287   4.422   0.387
 6046TIP3    H218103   4.197   4.364   0.494
 6047TIP3   OH218104   6.016   4.003   3.224
 6047TIP3    H118105   6.062   4.087   3.227
 6047TIP3    H218106   5.990   3.986   3.314
 6048TIP3   OH218107   6.629   2.887   1.544
 6048TIP3    H118108   6.639   2.954   1.476
 6048TIP3    H218109   6.616   2.936   1.625
 6049TIP3   OH218110   2.182   4.527   1.152
 6049TIP3    H118111   2.269   4.563   1.169
 6049TIP3    H218112   2.124   4.577   1.208
 6050TIP3   OH218113   4.523   0.686   0.624
 6050TIP3    H118114   4.514   0.650   0.712
 6050TIP3    H218115   4.435   0.685   0.588
 6051TIP3   OH218116   1.160   6.415   2.828
 6051TIP3    H118117   1.190   6.454   2.745
 6051TIP3    H218118   1.230   6.355   2.852
 6052TIP3   OH218119   0.165   1.764   0.954
 6052TIP3    H118120   0.186   1.857   0.966
 6052TIP3    H218121   0.123   1.759   0.868
 6053TIP3   OH218122   5.814   5.377   2.095
 6053TIP3    H118123   5.847   5.350   2.010
 6053TIP3    H218124   5.722   5.398   2.080
 6054TIP3   OH218125   5.526   1.336   1.780
 6054TIP3    H118126   5.455   1.308   1.838
 6054TIP3    H218127   5.552   1.256   1.733
 6055TIP3   OH218128   2.066   2.487   1.521
 6055TIP3    H118129   1.987   2.474   1.467
 6055TIP3    H218130   2.104   2.400   1.530
 6056TIP3   OH218131   1.264   4.848   3.440
 6056TIP3    H118132   1.186   4.898   3.417
 6056TIP3    H218133   1.302   4.821   3.357
 6057TIP3   OH218134   1.811   0.678   2.350
 6057TIP3    H118135   1.821   0.721   2.435
 6057TIP3    H218136   1.880   0.717   2.295
 6058TIP3   OH218137   4.958   3.859   5.191
 6058TIP3    H118138   4.871   3.899   5.192
 6058TIP3    H218139   4.942   3.766   5.178
 6059TIP3   OH218140   2.020   0.569   3.731
 6059TIP3    H118141   2.024   0.570   3.827
 6059TIP3    H218142   1.996   0.480   3.709
 6060TIP3   OH218143   4.302   3.626   4.077
 6060TIP3    H118144   4.387   3.584   4.087
 6060TIP3    H218145   4.296   3.686   4.151
 6061TIP3   OH218146   3.350   2.936   3.235
 6061TIP3    H118147   3.356   2.855   3.287
 6061TIP3    H218148   3.329   3.004   3.300
 6062TIP3   OH218149   4.455   1.654   1.263
 6062TIP3    H118150   4.489   1.636   1.176
 6062TIP3    H218151   4.409   1.738   1.254
 6063TIP3   OH218152   6.391   2.992   5.635
 6063TIP3    H118153   6.354   2.919   5.586
 6063TIP3    H218154   6.327   3.062   5.627
 6064TIP3   OH218155   2.128   0.486   1.632
 6064TIP3    H118156   2.168   0.525   1.555
 6064TIP3    H218157   2.045   0.449   1.600
 6065TIP3   OH218158   4.906   6.089   1.264
 6065TIP3    H118159   4.984   6.038   1.244
 6065TIP3    H218160   4.922   6.175   1.225
 6066TIP3   OH218161   2.546   2.056   1.354
 6066TIP3    H118162   2.563   1.972   1.397
 6066TIP3    H218163   2.625   2.072   1.302
 6067TIP3   OH218164   2.333   4.604   0.281
 6067TIP3    H118165   2.392   4.543   0.326
 6067TIP3    H218166   2.271   4.548   0.235
 6068TIP3   OH218167   4.201   0.300   0.330
 6068TIP3    H118168   4.294   0.296   0.308
 6068TIP3    H218169   4.196   0.370   0.395
 6069TIP3   OH218170   4.159   2.345   5.545
 6069TIP3    H118171   4.088   2.376   5.489
 6069TIP3    H218172   4.116   2.291   5.611
 6070TIP3   OH218173   1.226   5.609   2.111
 6070TIP3    H118174   1.218   5.515   2.126
 6070TIP3    H218175   1.301   5.618   2.053
 6071TIP3   OH218176   0.274   5.375   0.575
 6071TIP3    H118177   0.303   5.344   0.660
 6071TIP3    H218178   0.249   5.466   0.590
 6072TIP3   OH218179   0.559   6.615   3.195
 6072TIP3    H118180   0.563   6.634   3.289
 6072TIP3    H218181   0.484   6.666   3.163
 6073TIP3   OH218182   6.922   5.851   3.079
 6073TIP3    H118183   6.836   5.841   3.119
 6073TIP3    H218184   6.966   5.768   3.096
 6074TIP3   OH218185   4.982   2.213   1.233
 6074TIP3    H118186   4.944   2.282   1.287
 6074TIP3    H218187   5.067   2.196   1.273
 6075TIP3   OH218188   1.714   2.121   0.376
 6075TIP3    H118189   1.787   2.172   0.341
 6075TIP3    H218190   1.668   2.183   0.433
 6076TIP3   OH218191   4.189   2.080   1.537
 6076TIP3    H118192   4.248   2.024   1.587
 6076TIP3    H218193   4.218   2.070   1.446
 6077TIP3   OH218194   2.574   4.500   3.300
 6077TIP3    H118195   2.534   4.417   3.274
 6077TIP3    H218196   2.667   4.488   3.284
 6078TIP3   OH218197   1.665   6.495   4.135
 6078TIP3    H118198   1.753   6.482   4.171
 6078TIP3    H218199   1.616   6.418   4.165
 6079TIP3   OH218200   2.254   3.725   1.909
 6079TIP3    H118201   2.312   3.703   1.836
 6079TIP3    H218202   2.245   3.643   1.957
 6080TIP3   OH218203   7.058   2.238   1.312
 6080TIP3    H118204   7.064   2.278   1.399
 6080TIP3    H218205   6.967   2.251   1.286
 6081TIP3   OH218206   0.220   0.625   4.060
 6081TIP3    H118207   0.230   0.663   4.147
 6081TIP3    H218208   0.138   0.575   4.064
 6082TIP3   OH218209   3.086   1.972   5.727
 6082TIP3    H118210   3.000   1.954   5.690
 6082TIP3    H218211   3.147   1.959   5.655
 6083TIP3   OH218212   4.261   5.690   0.963
 6083TIP3    H118213   4.346   5.698   0.919
 6083TIP3    H218214   4.203   5.654   0.896
 6084TIP3   OH218215   3.643   0.308   1.054
 6084TIP3    H118216   3.738   0.317   1.064
 6084TIP3    H218217   3.631   0.286   0.962
 6085TIP3   OH218218   5.319   0.868   5.015
 6085TIP3    H118219   5.398   0.915   5.045
 6085TIP3    H218220   5.283   0.829   5.095
 6086TIP3   OH218221   2.172   5.138   2.899
 6086TIP3    H118222   2.141   5.049   2.918
 6086TIP3    H218223   2.204   5.170   2.983
 6087TIP3   OH218224   4.814   5.578   1.818
 6087TIP3    H118225   4.839   5.556   1.728
 6087TIP3    H218226   4.734   5.527   1.834
 6088TIP3   OH218227   5.287   4.141   2.151
 6088TIP3    H118228   5.366   4.122   2.203
 6088TIP3    H218229   5.228   4.183   2.213
 6089TIP3   OH218230   3.372   5.623   1.114
 6089TIP3    H118231   3.330   5.705   1.138
 6089TIP3    H218232   3.316   5.586   1.046
 6090TIP3   OH218233   1.407   5.284   5.676
 6090TIP3    H118234   1.342   5.223   5.640
 6090TIP3    H218235   1.386   5.289   5.769
 6091TIP3   OH218236   2.870   5.177   0.296
 6091TIP3    H118237   2.940   5.118   0.324
 6091TIP3    H218238   2.794   5.121   0.286
 6092TIP3   OH218239   4.867   1.446   3.245
 6092TIP3    H118240   4.888   1.530   3.286
 6092TIP3    H218241   4.836   1.392   3.317
 6093TIP3   OH218242   1.709   2.132   5.893
 6093TIP3    H118243   1.798   2.113   5.862
 6093TIP3    H218244   1.719   2.210   5.947
 6094TIP3   OH218245   4.208   3.123   2.612
 6094TIP3    H118246   4.258   3.168   2.544
 6094TIP3    H218247   4.127   3.173   2.619
 6095TIP3   OH218248   1.918   5.476   5.040
 6095TIP3    H118249   1.883   5.563   5.020
 6095TIP3    H218250   1.973   5.454   4.965
 6096TIP3   OH218251   2.831   4.285   3.976
 6096TIP3    H118252   2.884   4.230   4.034
 6096TIP3    H218253   2.895   4.342   3.933
 6097TIP3   OH218254   1.301   5.345   4.844
 6097TIP3    H118255   1.289   5.263   4.892
 6097TIP3    H218256   1.366   5.394   4.896
 6098TIP3   OH218257   5.468   5.616   2.744
 6098TIP3    H118258   5.442   5.534   2.702
 6098TIP3    H218259   5.541   5.648   2.691
 6099TIP3   OH218260   2.704   2.801   2.342
 6099TIP3    H118261   2.736   2.862   2.275
 6099TIP3    H218262   2.614   2.783   2.318
 6100TIP3   OH218263   1.222   3.894   0.931
 6100TIP3    H118264   1.182   3.973   0.896
 6100TIP3    H218265   1.225   3.834   0.856
 6101TIP3   OH218266  -0.021   5.231   0.938
 6101TIP3    H118267   0.042   5.279   0.992
 6101TIP3    H218268  -0.010   5.267   0.850
 6102TIP3   OH218269   4.300   6.590   3.345
 6102TIP3    H118270   4.291   6.682   3.368
 6102TIP3    H218271   4.229   6.546   3.391
 6103TIP3   OH218272   4.984   5.925   0.519
 6103TIP3    H118273   5.043   5.851   0.505
 6103TIP3    H218274   4.897   5.889   0.506
 6104TIP3   OH218275   0.501   2.160   1.474
 6104TIP3    H118276   0.519   2.253   1.459
 6104TIP3    H218277   0.415   2.146   1.435
 6105TIP3   OH218278   3.942   2.400   5.387
 6105TIP3    H118279   3.897   2.448   5.457
 6105TIP3    H218280   3.888   2.322   5.373
 6106TIP3   OH218281   0.568   5.147   3.437
 6106TIP3    H118282   0.545   5.117   3.525
 6106TIP3    H218283   0.532   5.081   3.378
 6107TIP3   OH218284   5.336   5.379   2.690
 6107TIP3    H118285   5.294   5.406   2.609
 6107TIP3    H218286   5.264   5.350   2.746
 6108TIP3   OH218287   3.237   3.239   5.488
 6108TIP3    H118288   3.273   3.151   5.500
 6108TIP3    H218289   3.179   3.230   5.412
 6109TIP3   OH218290   5.598   4.447   3.497
 6109TIP3    H118291   5.686   4.411   3.512
 6109TIP3    H218292   5.607   4.499   3.417
 6110TIP3   OH218293   1.017   5.930   0.694
 6110TIP3    H118294   0.958   5.973   0.632
 6110TIP3    H218295   1.096   5.985   0.694
 6111TIP3   OH218296   1.107   4.164   0.825
 6111TIP3    H118297   1.165   4.240   0.822
 6111TIP3    H218298   1.019   4.201   0.827
 6112TIP3   OH218299   2.062   4.641   5.893
 6112TIP3    H118300   2.062   4.623   5.799
 6112TIP3    H218301   2.152   4.669   5.912
 6113TIP3   OH218302   6.632   2.524   5.530
 6113TIP3    H118303   6.581   2.572   5.596
 6113TIP3    H218304   6.714   2.502   5.575
 6114TIP3   OH218305   1.626   5.797   3.956
 6114TIP3    H118306   1.555   5.736   3.977
 6114TIP3    H218307   1.662   5.766   3.873
 6115TIP3   OH218308   2.040   3.430   1.531
 6115TIP3    H118309   2.039   3.374   1.609
 6115TIP3    H218310   2.060   3.370   1.459
 6116TIP3   OH218311   5.126   4.510   1.499
 6116TIP3    H118312   5.035   4.482   1.505
 6116TIP3    H218313   5.177   4.433   1.522
 6117TIP3   OH218314   6.801   2.903   3.630
 6117TIP3    H118315   6.788   2.868   3.718
 6117TIP3    H218316   6.797   2.998   3.640
 6118TIP3   OH218317   1.083   3.598   4.801
 6118TIP3    H118318   1.061   3.528   4.739
 6118TIP3    H218319   1.157   3.643   4.762
 6119TIP3   OH218320   5.868   1.463   5.408
 6119TIP3    H118321   5.937   1.528   5.425
 6119TIP3    H218322   5.912   1.393   5.360
 6120TIP3   OH218323   5.652   2.603   5.688
 6120TIP3    H118324   5.713   2.592   5.760
 6120TIP3    H218325   5.653   2.696   5.668
 6121TIP3   OH218326   1.800   0.202   1.827
 6121TIP3    H118327   1.825   0.240   1.912
 6121TIP3    H218328   1.775   0.112   1.847
 6122TIP3   OH218329   2.116   5.562   0.137
 6122TIP3    H118330   2.118   5.496   0.206
 6122TIP3    H218331   2.031   5.605   0.148
 6123TIP3   OH218332   4.291   4.534   5.621
 6123TIP3    H118333   4.326   4.620   5.645
 6123TIP3    H218334   4.319   4.476   5.691
 6124TIP3   OH218335   6.842   5.950   4.504
 6124TIP3    H118336   6.808   6.009   4.437
 6124TIP3    H218337   6.839   6.000   4.585
 6125TIP3   OH218338   4.210   4.921   4.248
 6125TIP3    H118339   4.196   4.829   4.226
 6125TIP3    H218340   4.129   4.948   4.291
 6126TIP3   OH218341   5.749   1.173   0.134
 6126TIP3    H118342   5.674   1.199   0.081
 6126TIP3    H218343   5.712   1.123   0.206
 6127TIP3   OH218344   6.042   4.603   0.948
 6127TIP3    H118345   5.965   4.630   0.899
 6127TIP3    H218346   6.018   4.517   0.984
 6128TIP3   OH218347   3.325   3.457   3.982
 6128TIP3    H118348   3.232   3.472   3.963
 6128TIP3    H218349   3.328   3.368   4.017
 6129TIP3   OH218350   3.704  -0.027   3.089
 6129TIP3    H118351   3.776  -0.047   3.148
 6129TIP3    H218352   3.702   0.069   3.085
 6130TIP3   OH218353   3.696   0.699   4.148
 6130TIP3    H118354   3.642   0.727   4.222
 6130TIP3    H218355   3.659   0.746   4.073
 6131TIP3   OH218356   3.301   3.874   3.201
 6131TIP3    H118357   3.230   3.833   3.250
 6131TIP3    H218358   3.257   3.924   3.132
 6132TIP3   OH218359   5.514   4.855   3.153
 6132TIP3    H118360   5.475   4.917   3.092
 6132TIP3    H218361   5.513   4.900   3.237
 6133TIP3   OH218362   5.533   3.353   5.508
 6133TIP3    H118363   5.474   3.385   5.440
 6133TIP3    H218364   5.616   3.399   5.492
 6134TIP3   OH218365   3.797   0.108   2.621
 6134TIP3    H118366   3.711   0.124   2.660
 6134TIP3    H218367   3.856   0.096   2.695
 6135TIP3   OH218368   6.358   2.312   1.055
 6135TIP3    H118369   6.347   2.264   0.972
 6135TIP3    H218370   6.268   2.330   1.084
 6136TIP3   OH218371   5.695   5.467   4.881
 6136TIP3    H118372   5.776   5.429   4.916
 6136TIP3    H218373   5.653   5.508   4.957
 6137TIP3   OH218374   0.449   6.364   3.741
 6137TIP3    H118375   0.519   6.343   3.804
 6137TIP3    H218376   0.392   6.287   3.742
 6138TIP3   OH218377   1.838   2.860   0.906
 6138TIP3    H118378   1.888   2.941   0.895
 6138TIP3    H218379   1.774   2.880   0.974
 6139TIP3   OH218380   3.323   3.710   4.102
 6139TIP3    H118381   3.315   3.787   4.046
 6139TIP3    H218382   3.354   3.641   4.043
 6140TIP3   OH218383   2.994   6.365   2.842
 6140TIP3    H118384   3.072   6.420   2.846
 6140TIP3    H218385   3.027   6.276   2.854
 6141TIP3   OH218386   1.906   5.542   5.810
 6141TIP3    H118387   1.854   5.542   5.730
 6141TIP3    H218388   1.880   5.462   5.856
 6142TIP3   OH218389   1.943   6.004   1.521
 6142TIP3    H118390   1.969   6.085   1.565
 6142TIP3    H218391   2.026   5.963   1.495
 6143TIP3   OH218392   2.466   3.957   5.200
 6143TIP3    H118393   2.516   4.000   5.270
 6143TIP3    H218394   2.470   3.864   5.221
 6144TIP3   OH218395   2.660   4.990   0.278
 6144TIP3    H118396   2.680   4.942   0.198
 6144TIP3    H218397   2.578   4.953   0.309
 6145TIP3   OH218398   6.594   4.082   1.775
 6145TIP3    H118399   6.554   4.006   1.817
 6145TIP3    H218400   6.676   4.096   1.823
 6146TIP3   OH218401   6.891   3.607   5.159
 6146TIP3    H118402   6.985   3.616   5.173
 6146TIP3    H218403   6.851   3.677   5.212
 6147TIP3   OH218404   1.525   3.191   0.971
 6147TIP3    H118405   1.539   3.272   1.020
 6147TIP3    H218406   1.443   3.156   1.006
 6148TIP3   OH218407   5.365   4.189   0.836
 6148TIP3    H118408   5.319   4.106   0.842
 6148TIP3    H218409   5.352   4.230   0.922
 6149TIP3   OH218410   7.013   2.248   2.315
 6149TIP3    H118411   6.945   2.242   2.249
 6149TIP3    H218412   6.984   2.189   2.385
 6150TIP3   OH218413   4.553   6.330   2.711
 6150TIP3    H118414   4.637   6.283   2.716
 6150TIP3    H218415   4.577   6.418   2.685
 6151TIP3   OH218416   3.644   3.470   1.536
 6151TIP3    H118417   3.574   3.441   1.594
 6151TIP3    H218418   3.721   3.478   1.593
 6152TIP3   OH218419   7.063   3.533   3.195
 6152TIP3    H118420   7.127   3.549   3.126
 6152TIP3    H218421   7.114   3.494   3.266
 6153TIP3   OH218422   4.828   2.071   5.079
 6153TIP3    H118423   4.877   2.152   5.094
 6153TIP3    H218424   4.767   2.092   5.008
 6154TIP3   OH218425   0.638   3.685   1.623
 6154TIP3    H118426   0.630   3.590   1.612
 6154TIP3    H218427   0.562   3.710   1.676
 6155TIP3   OH218428   2.300   5.534   3.104
 6155TIP3    H118429   2.223   5.536   3.049
 6155TIP3    H218430   2.356   5.467   3.065
 6156TIP3   OH218431   6.685   3.477   4.595
 6156TIP3    H118432   6.672   3.527   4.676
 6156TIP3    H218433   6.717   3.392   4.625
 6157TIP3   OH218434   4.159   3.608   1.829
 6157TIP3    H118435   4.191   3.698   1.832
 6157TIP3    H218436   4.193   3.567   1.908
 6158TIP3   OH218437   5.300   0.943   5.690
 6158TIP3    H118438   5.260   0.879   5.632
 6158TIP3    H218439   5.341   1.007   5.632
 6159TIP3   OH218440   6.448   1.732   0.946
 6159TIP3    H118441   6.500   1.653   0.931
 6159TIP3    H218442   6.402   1.746   0.864
 6160TIP3   OH218443   3.262   2.951   2.548
 6160TIP3    H118444   3.179   2.904   2.544
 6160TIP3    H218445   3.241   3.030   2.598
 6161TIP3   OH218446   3.501   0.588   2.723
 6161TIP3    H118447   3.513   0.591   2.628
 6161TIP3    H218448   3.560   0.655   2.757
 6162TIP3   OH218449   3.180   5.296   4.551
 6162TIP3    H118450   3.149   5.341   4.629
 6162TIP3    H218451   3.188   5.366   4.485
 6163TIP3   OH218452   3.138   1.801   0.192
 6163TIP3    H118453   3.227   1.779   0.165
 6163TIP3    H218454   3.090   1.719   0.188
 6164TIP3   OH218455   5.073   3.101   2.133
 6164TIP3    H118456   5.005   3.045   2.095
 6164TIP3    H218457   5.109   3.051   2.206
 6165TIP3   OH218458   4.349   5.954   0.266
 6165TIP3    H118459   4.297   5.955   0.346
 6165TIP3    H218460   4.412   5.884   0.279
 6166TIP3   OH218461   1.050   0.216   2.818
 6166TIP3    H118462   1.006   0.280   2.875
 6166TIP3    H218463   1.005   0.134   2.835
 6167TIP3   OH218464   3.559   2.434   1.617
 6167TIP3    H118465   3.483   2.473   1.661
 6167TIP3    H218466   3.549   2.458   1.525
 6168TIP3   OH218467   7.104   3.517   0.381
 6168TIP3    H118468   7.195   3.544   0.381
 6168TIP3    H218469   7.061   3.575   0.319
 6169TIP3   OH218470   0.877   0.541   5.142
 6169TIP3    H118471   0.958   0.492   5.159
 6169TIP3    H218472   0.825   0.483   5.086
 6170TIP3   OH218473   3.904   4.036   3.492
 6170TIP3    H118474   3.934   3.999   3.575
 6170TIP3    H218475   3.959   3.992   3.426
 6171TIP3   OH218476   3.513   1.897   5.739
 6171TIP3    H118477   3.555   1.852   5.665
 6171TIP3    H218478   3.574   1.884   5.812
 6172TIP3   OH218479   5.882   0.126   3.936
 6172TIP3    H118480   5.798   0.165   3.961
 6172TIP3    H218481   5.948   0.179   3.980
 6173TIP3   OH218482   3.231   3.810   2.181
 6173TIP3    H118483   3.189   3.761   2.110
 6173TIP3    H218484   3.224   3.902   2.154
 6174TIP3   OH218485   6.661   3.883   2.954
 6174TIP3    H118486   6.708   3.828   3.016
 6174TIP3    H218487   6.581   3.835   2.936
 6175TIP3   OH218488   2.450   2.656   2.521
 6175TIP3    H118489   2.497   2.600   2.459
 6175TIP3    H218490   2.433   2.599   2.596
 6176TIP3   OH218491   2.637   4.574   4.907
 6176TIP3    H118492   2.638   4.571   5.002
 6176TIP3    H218493   2.691   4.500   4.879
 6177TIP3   OH218494   5.202   3.603   3.028
 6177TIP3    H118495   5.287   3.639   3.053
 6177TIP3    H218496   5.148   3.680   3.009
 6178TIP3   OH218497   7.073   0.304   1.623
 6178TIP3    H118498   7.022   0.348   1.691
 6178TIP3    H218499   7.114   0.230   1.669
 6179TIP3   OH218500   5.852   2.127   4.339
 6179TIP3    H118501   5.784   2.192   4.357
 6179TIP3    H218502   5.902   2.165   4.266
 6180TIP3   OH218503   4.623   6.468   4.678
 6180TIP3    H118504   4.620   6.546   4.622
 6180TIP3    H218505   4.533   6.458   4.710
 6181TIP3   OH218506   5.012   4.016   1.989
 6181TIP3    H118507   5.056   3.950   2.043
 6181TIP3    H218508   4.987   4.085   2.051
 6182TIP3   OH218509   4.222   4.754   0.755
 6182TIP3    H118510   4.240   4.736   0.663
 6182TIP3    H218511   4.243   4.673   0.801
 6183TIP3   OH218512   3.912   1.675   5.630
 6183TIP3    H118513   3.987   1.712   5.582
 6183TIP3    H218514   3.951   1.634   5.707
 6184TIP3   OH218515   0.892   4.987   3.478
 6184TIP3    H118516   0.805   4.978   3.518
 6184TIP3    H218517   0.925   4.898   3.471
 6185TIP3   OH218518   2.467   1.017   2.272
 6185TIP3    H118519   2.555   0.984   2.256
 6185TIP3    H218520   2.455   1.087   2.208
 6186TIP3   OH218521   1.156   3.424   5.268
 6186TIP3    H118522   1.239   3.440   5.224
 6186TIP3    H218523   1.091   3.466   5.211
 6187TIP3   OH218524   3.577   1.761   2.898
 6187TIP3    H118525   3.492   1.755   2.856
 6187TIP3    H218526   3.611   1.672   2.898
 6188TIP3   OH218527   3.903   1.137   1.732
 6188TIP3    H118528   3.893   1.043   1.738
 6188TIP3    H218529   3.834   1.165   1.672
 6189TIP3   OH218530   3.786   6.388   4.327
 6189TIP3    H118531   3.841   6.465   4.312
 6189TIP3    H218532   3.833   6.316   4.286
 6190TIP3   OH218533   4.931   6.597   1.311
 6190TIP3    H118534   4.904   6.589   1.403
 6190TIP3    H218535   4.885   6.527   1.266
 6191TIP3   OH218536   1.234   0.853   1.574
 6191TIP3    H118537   1.279   0.885   1.653
 6191TIP3    H218538   1.211   0.932   1.526
 6192TIP3   OH218539   5.443   3.243   1.571
 6192TIP3    H118540   5.419   3.179   1.638
 6192TIP3    H218541   5.478   3.191   1.499
 6193TIP3   OH218542   0.085   2.349   2.906
 6193TIP3    H118543   0.100   2.329   2.814
 6193TIP3    H218544   0.162   2.398   2.933
 6194TIP3   OH218545   5.663   3.064   5.803
 6194TIP3    H118546   5.729   3.093   5.740
 6194TIP3    H218547   5.583   3.054   5.751
 6195TIP3   OH218548   2.299   3.163   3.073
 6195TIP3    H118549   2.342   3.150   2.988
 6195TIP3    H218550   2.370   3.184   3.133
 6196TIP3   OH218551   3.089   5.627   1.842
 6196TIP3    H118552   3.043   5.663   1.766
 6196TIP3    H218553   3.150   5.697   1.868
 6197TIP3   OH218554   1.654   3.523   3.943
 6197TIP3    H118555   1.625   3.482   3.862
 6197TIP3    H218556   1.720   3.586   3.916
 6198TIP3   OH218557   1.454   6.581   3.987
 6198TIP3    H118558   1.375   6.545   4.027
 6198TIP3    H218559   1.526   6.544   4.038
 6199TIP3   OH218560   2.486   2.798   5.858
 6199TIP3    H118561   2.399   2.772   5.829
 6199TIP3    H218562   2.528   2.717   5.886
 6200TIP3   OH218563   6.914   4.034   1.768
 6200TIP3    H118564   6.993   4.086   1.775
 6200TIP3    H218565   6.928   3.961   1.828
 6201TIP3   OH218566   0.745   2.054   1.698
 6201TIP3    H118567   0.704   1.997   1.633
 6201TIP3    H218568   0.838   2.051   1.679
 6202TIP3   OH218569   0.640   6.410   2.749
 6202TIP3    H118570   0.635   6.503   2.731
 6202TIP3    H218571   0.631   6.368   2.663
 6203TIP3   OH218572   6.989   1.213   3.103
 6203TIP3    H118573   6.896   1.211   3.079
 6203TIP3    H218574   6.992   1.171   3.189
 6204TIP3   OH218575   5.137   5.439   0.356
 6204TIP3    H118576   5.184   5.517   0.329
 6204TIP3    H218577   5.162   5.426   0.447
 6205TIP3   OH218578   6.182   0.203   3.856
 6205TIP3    H118579   6.183   0.127   3.798
 6205TIP3    H218580   6.184   0.278   3.797
 6206TIP3   OH218581   7.155   5.215   3.647
 6206TIP3    H118582   7.070   5.187   3.612
 6206TIP3    H218583   7.157   5.309   3.632
 6207TIP3   OH218584   0.090   0.079   3.742
 6207TIP3    H118585   0.112   0.064   3.834
 6207TIP3    H218586   0.093   0.174   3.731
 6208TIP3   OH218587   3.532   3.165   2.588
 6208TIP3    H118588   3.480   3.160   2.669
 6208TIP3    H218589   3.577   3.080   2.584
 6209TIP3   OH218590   1.305   4.093   2.774
 6209TIP3    H118591   1.255   4.050   2.705
 6209TIP3    H218592   1.311   4.028   2.844
 6210TIP3   OH218593   2.309   4.871   0.588
 6210TIP3    H118594   2.247   4.886   0.516
 6210TIP3    H218595   2.263   4.902   0.666
 6211TIP3   OH218596   6.490   4.753   1.860
 6211TIP3    H118597   6.431   4.784   1.928
 6211TIP3    H218598   6.453   4.669   1.833
 6212TIP3   OH218599   5.457   1.669   5.668
 6212TIP3    H118600   5.489   1.593   5.619
 6212TIP3    H218601   5.536   1.716   5.693
 6213TIP3   OH218602   5.048   6.557   0.157
 6213TIP3    H118603   4.972   6.555   0.100
 6213TIP3    H218604   5.013   6.551   0.246
 6214TIP3   OH218605   7.149   3.457   2.696
 6214TIP3    H118606   7.171   3.387   2.635
 6214TIP3    H218607   7.181   3.425   2.781
 6215TIP3   OH218608   6.971   3.102   1.329
 6215TIP3    H118609   6.956   3.129   1.420
 6215TIP3    H218610   6.890   3.126   1.284
 6216TIP3   OH218611   3.905   5.150   5.454
 6216TIP3    H118612   3.894   5.084   5.386
 6216TIP3    H218613   3.995   5.139   5.484
 6217TIP3   OH218614   0.375   5.199   1.233
 6217TIP3    H118615   0.455   5.176   1.282
 6217TIP3    H218616   0.318   5.123   1.245
 6218TIP3   OH218617   0.639   4.294   1.235
 6218TIP3    H118618   0.642   4.227   1.303
 6218TIP3    H218619   0.627   4.245   1.154
 6219TIP3   OH218620   1.072   0.271   2.264
 6219TIP3    H118621   1.139   0.307   2.323
 6219TIP3    H218622   0.997   0.253   2.321
 6220TIP3   OH218623   1.151   3.685   0.409
 6220TIP3    H118624   1.179   3.771   0.377
 6220TIP3    H218625   1.081   3.659   0.349
 6221TIP3   OH218626   1.651   4.382   1.130
 6221TIP3    H118627   1.692   4.460   1.166
 6221TIP3    H218628   1.681   4.311   1.188
 6222TIP3   OH218629   5.541   1.958   4.471
 6222TIP3    H118630   5.519   1.893   4.404
 6222TIP3    H218631   5.604   1.914   4.527
 6223TIP3   OH218632   0.625   1.222   5.774
 6223TIP3    H118633   0.675   1.195   5.697
 6223TIP3    H218634   0.546   1.262   5.738
 6224TIP3   OH218635   1.329   0.554   4.448
 6224TIP3    H118636   1.276   0.558   4.528
 6224TIP3    H218637   1.374   0.470   4.453
 6225TIP3   OH218638   6.845   3.833   0.328
 6225TIP3    H118639   6.753   3.859   0.321
 6225TIP3    H218640   6.846   3.740   0.306
 6226TIP3   OH218641   0.601   5.878   2.196
 6226TIP3    H118642   0.630   5.941   2.262
 6226TIP3    H218643   0.577   5.931   2.120
 6227TIP3   OH218644   1.262   1.580   5.657
 6227TIP3    H118645   1.186   1.532   5.622
 6227TIP3    H218646   1.265   1.661   5.606
 6228TIP3   OH218647   2.687   3.662   1.504
 6228TIP3    H118648   2.715   3.747   1.468
 6228TIP3    H218649   2.742   3.649   1.581
 6229TIP3   OH218650   6.731   0.285   1.032
 6229TIP3    H118651   6.789   0.312   1.104
 6229TIP3    H218652   6.698   0.367   0.996
 6230TIP3   OH218653   5.334   1.924   3.369
 6230TIP3    H118654   5.320   2.019   3.365
 6230TIP3    H218655   5.257   1.886   3.326
 6231TIP3   OH218656   5.679   3.053   4.760
 6231TIP3    H118657   5.647   3.024   4.675
 6231TIP3    H218658   5.739   3.124   4.740
 6232TIP3   OH218659   2.073   3.384   1.091
 6232TIP3    H118660   1.989   3.377   1.045
 6232TIP3    H218661   2.079   3.476   1.115
 6233TIP3   OH218662   3.869   5.342   5.662
 6233TIP3    H118663   3.858   5.411   5.597
 6233TIP3    H218664   3.873   5.261   5.611
 6234TIP3   OH218665   5.838   2.962   3.519
 6234TIP3    H118666   5.858   2.951   3.612
 6234TIP3    H218667   5.908   2.916   3.474
 6235TIP3   OH218668   4.615   5.646   2.480
 6235TIP3    H118669   4.540   5.589   2.497
 6235TIP3    H218670   4.605   5.672   2.389
 6236TIP3   OH218671   4.179   5.000   0.532
 6236TIP3    H118672   4.188   4.914   0.574
 6236TIP3    H218673   4.125   5.050   0.594
 6237TIP3   OH218674   5.674   2.594   4.454
 6237TIP3    H118675   5.624   2.564   4.378
 6237TIP3    H218676   5.763   2.562   4.439
 6238TIP3   OH218677   3.220   2.882   1.530
 6238TIP3    H118678   3.310   2.866   1.500
 6238TIP3    H218679   3.187   2.951   1.473
 6239TIP3   OH218680   7.221   2.405   0.491
 6239TIP3    H118681   7.210   2.440   0.403
 6239TIP3    H218682   7.133   2.406   0.529
 6240TIP3   OH218683   5.797   0.706   1.381
 6240TIP3    H118684   5.883   0.719   1.419
 6240TIP3    H218685   5.742   0.678   1.454
 6241TIP3   OH218686   3.766   6.527   2.640
 6241TIP3    H118687   3.848   6.575   2.625
 6241TIP3    H218688   3.775   6.491   2.728
 6242TIP3   OH218689   4.523  -0.016   1.501
 6242TIP3    H118690   4.593   0.017   1.557
 6242TIP3    H218691   4.540   0.023   1.415
 6243TIP3   OH218692   2.080   4.667   0.912
 6243TIP3    H118693   1.991   4.648   0.882
 6243TIP3    H218694   2.082   4.635   1.002
 6244TIP3   OH218695   3.370   0.932   5.016
 6244TIP3    H118696   3.325   0.901   4.937
 6244TIP3    H218697   3.368   1.028   5.008
 6245TIP3   OH218698   5.437   5.507   3.554
 6245TIP3    H118699   5.415   5.445   3.484
 6245TIP3    H218700   5.465   5.451   3.627
 6246TIP3   OH218701   0.664   3.928   2.951
 6246TIP3    H118702   0.582   3.973   2.930
 6246TIP3    H218703   0.684   3.956   3.040
 6247TIP3   OH218704   6.839   6.634   3.844
 6247TIP3    H118705   6.761   6.580   3.835
 6247TIP3    H218706   6.895   6.585   3.904
 6248TIP3   OH218707   0.336   1.141   3.709
 6248TIP3    H118708   0.421   1.108   3.679
 6248TIP3    H218709   0.323   1.222   3.660
 6249TIP3   OH218710   2.810   0.826   1.777
 6249TIP3    H118711   2.773   0.801   1.693
 6249TIP3    H218712   2.854   0.910   1.760
 6250TIP3   OH218713   4.829   4.837   2.333
 6250TIP3    H118714   4.901   4.877   2.283
 6250TIP3    H218715   4.862   4.831   2.422
 6251TIP3   OH218716   4.144   5.968   2.422
 6251TIP3    H118717   4.198   5.913   2.364
 6251TIP3    H218718   4.071   5.911   2.447
 6252TIP3   OH218719   2.533   6.819   4.676
 6252TIP3    H118720   2.607   6.826   4.737
 6252TIP3    H218721   2.475   6.755   4.717
 6253TIP3   OH218722   2.730   5.323   1.856
 6253TIP3    H118723   2.814   5.345   1.896
 6253TIP3    H218724   2.674   5.399   1.874
 6254TIP3   OH218725   5.950   3.855   5.247
 6254TIP3    H118726   5.864   3.891   5.224
 6254TIP3    H218727   5.959   3.873   5.340
 6255TIP3   OH218728   0.748   3.567   4.452
 6255TIP3    H118729   0.782   3.478   4.452
 6255TIP3    H218730   0.670   3.563   4.397
 6256TIP3   OH218731   3.732   2.627   3.444
 6256TIP3    H118732   3.666   2.693   3.468
 6256TIP3    H218733   3.712   2.606   3.353
 6257TIP3   OH218734   2.135   4.489   3.655
 6257TIP3    H118735   2.165   4.409   3.696
 6257TIP3    H218736   2.211   4.522   3.608
 6258TIP3   OH218737   3.844   1.902   0.749
 6258TIP3    H118738   3.927   1.926   0.790
 6258TIP3    H218739   3.868   1.837   0.683
 6259TIP3   OH218740   6.709   0.524   4.746
 6259TIP3    H118741   6.681   0.471   4.820
 6259TIP3    H218742   6.737   0.607   4.785
 6260TIP3   OH218743   1.333   2.964   4.808
 6260TIP3    H118744   1.301   3.050   4.834
 6260TIP3    H218745   1.383   2.932   4.883
 6261TIP3   OH218746   1.198   3.135   2.700
 6261TIP3    H118747   1.210   3.044   2.728
 6261TIP3    H218748   1.212   3.132   2.605
 6262TIP3   OH218749   4.460   2.356   5.441
 6262TIP3    H118750   4.445   2.277   5.493
 6262TIP3    H218751   4.487   2.422   5.505
 6263TIP3   OH218752   4.427   4.999   2.328
 6263TIP3    H118753   4.411   4.916   2.282
 6263TIP3    H218754   4.513   4.987   2.369
 6264TIP3   OH218755   1.918   4.156   2.074
 6264TIP3    H118756   1.822   4.152   2.079
 6264TIP3    H218757   1.936   4.193   1.987
 6265TIP3   OH218758   3.276   5.539   2.806
 6265TIP3    H118759   3.287   5.564   2.714
 6265TIP3    H218760   3.237   5.616   2.848
 6266TIP3   OH218761   1.024   6.717   5.093
 6266TIP3    H118762   1.030   6.641   5.036
 6266TIP3    H218763   0.930   6.733   5.101
 6267TIP3   OH218764   4.811   6.710   2.590
 6267TIP3    H118765   4.810   6.802   2.615
 6267TIP3    H218766   4.746   6.703   2.521
 6268TIP3   OH218767   0.599   6.190   4.720
 6268TIP3    H118768   0.565   6.146   4.798
 6268TIP3    H218769   0.608   6.120   4.655
 6269TIP3   OH218770   5.737   0.656   4.283
 6269TIP3    H118771   5.805   0.590   4.295
 6269TIP3    H218772   5.680   0.645   4.358
 6270TIP3   OH218773   4.111   4.055   5.442
 6270TIP3    H118774   4.169   4.118   5.484
 6270TIP3    H218775   4.096   3.988   5.508
 6271TIP3   OH218776   5.834   1.334   3.202
 6271TIP3    H118777   5.889   1.259   3.178
 6271TIP3    H218778   5.896   1.407   3.208
 6272TIP3   OH218779   5.421   0.445   0.352
 6272TIP3    H118780   5.354   0.471   0.289
 6272TIP3    H218781   5.496   0.419   0.298
 6273TIP3   OH218782   4.177   1.446   0.140
 6273TIP3    H118783   4.219   1.491   0.213
 6273TIP3    H218784   4.236   1.460   0.066
 6274TIP3   OH218785   1.910   3.231   4.664
 6274TIP3    H118786   1.912   3.238   4.760
 6274TIP3    H218787   1.948   3.313   4.633
 6275TIP3   OH218788   3.069   1.854   3.613
 6275TIP3    H118789   3.015   1.933   3.622
 6275TIP3    H218790   3.016   1.795   3.559
 6276TIP3   OH218791   1.615   1.056   4.257
 6276TIP3    H118792   1.532   1.083   4.296
 6276TIP3    H218793   1.669   1.136   4.258
 6277TIP3   OH218794   7.238   3.354   0.960
 6277TIP3    H118795   7.177   3.294   0.917
 6277TIP3    H218796   7.184   3.429   0.985
 6278TIP3   OH218797   3.082   5.015   4.393
 6278TIP3    H118798   3.100   4.930   4.432
 6278TIP3    H218799   3.012   5.053   4.447
 6279TIP3   OH218800   5.556   4.646   1.226
 6279TIP3    H118801   5.548   4.651   1.321
 6279TIP3    H218802   5.471   4.614   1.197
 6280TIP3   OH218803   2.589   0.768   4.296
 6280TIP3    H118804   2.642   0.845   4.273
 6280TIP3    H218805   2.554   0.788   4.382
 6281TIP3   OH218806   2.520   3.178   0.903
 6281TIP3    H118807   2.602   3.225   0.918
 6281TIP3    H218808   2.538   3.089   0.932
 6282TIP3   OH218809   2.978   1.546   3.004
 6282TIP3    H118810   3.029   1.475   3.044
 6282TIP3    H218811   3.012   1.626   3.045
 6283TIP3   OH218812   2.997   6.019   2.061
 6283TIP3    H118813   2.975   5.998   1.971
 6283TIP3    H218814   2.912   6.034   2.104
 6284TIP3   OH218815   4.952   0.457   1.323
 6284TIP3    H118816   4.990   0.459   1.235
 6284TIP3    H218817   4.953   0.364   1.347
 6285TIP3   OH218818   5.709   3.998   5.273
 6285TIP3    H118819   5.662   3.966   5.349
 6285TIP3    H218820   5.667   4.080   5.251
 6286TIP3   OH218821   0.449   0.934   2.365
 6286TIP3    H118822   0.413   1.023   2.367
 6286TIP3    H218823   0.409   0.890   2.440
 6287TIP3   OH218824   1.228   6.314   4.971
 6287TIP3    H118825   1.273   6.347   5.049
 6287TIP3    H218826   1.166   6.383   4.948
 6288TIP3   OH218827   0.437   0.361   1.652
 6288TIP3    H118828   0.375   0.388   1.720
 6288TIP3    H218829   0.410   0.273   1.628
 6289TIP3   OH218830   6.394   5.511   1.120
 6289TIP3    H118831   6.382   5.416   1.120
 6289TIP3    H218832   6.371   5.537   1.030
 6290TIP3   OH218833   6.362   2.635   0.181
 6290TIP3    H118834   6.267   2.634   0.169
 6290TIP3    H218835   6.384   2.544   0.202
 6291TIP3   OH218836   4.233   6.710   2.137
 6291TIP3    H118837   4.293   6.641   2.109
 6291TIP3    H218838   4.259   6.787   2.086
 6292TIP3   OH218839   7.017   6.338   5.782
 6292TIP3    H118840   6.975   6.406   5.729
 6292TIP3    H218841   6.974   6.345   5.868
 6293TIP3   OH218842   3.848   6.011   3.544
 6293TIP3    H118843   3.933   5.973   3.521
 6293TIP3    H218844   3.788   5.977   3.478
 6294TIP3   OH218845   2.926   0.757   0.776
 6294TIP3    H118846   2.882   0.679   0.808
 6294TIP3    H218847   2.998   0.724   0.723
 6295TIP3   OH218848   2.855   3.138   3.649
 6295TIP3    H118849   2.886   3.171   3.733
 6295TIP3    H218850   2.906   3.059   3.634
 6296TIP3   OH218851   5.421   0.356   2.171
 6296TIP3    H118852   5.466   0.440   2.182
 6296TIP3    H218853   5.492   0.291   2.174
 6297TIP3   OH218854   2.766   6.732   3.882
 6297TIP3    H118855   2.680   6.702   3.853
 6297TIP3    H218856   2.812   6.754   3.801
 6298TIP3   OH218857   0.286   2.584   3.024
 6298TIP3    H118858   0.359   2.622   3.073
 6298TIP3    H218859   0.325   2.560   2.940
 6299TIP3   OH218860   0.671   3.861   1.422
 6299TIP3    H118861   0.596   3.822   1.376
 6299TIP3    H218862   0.678   3.809   1.502
 6300TIP3   OH218863   5.190   2.436   4.173
 6300TIP3    H118864   5.121   2.397   4.228
 6300TIP3    H218865   5.144   2.468   4.096
 6301TIP3   OH218866   1.884   3.833   0.238
 6301TIP3    H118867   1.912   3.763   0.178
 6301TIP3    H218868   1.965   3.867   0.276
 6302TIP3   OH218869   1.160   6.503   0.587
 6302TIP3    H118870   1.244   6.461   0.605
 6302TIP3    H218871   1.097   6.432   0.583
 6303TIP3   OH218872   4.189   1.331   1.304
 6303TIP3    H118873   4.142   1.258   1.263
 6303TIP3    H218874   4.206   1.301   1.393
 6304TIP3   OH218875   5.996  -0.060   4.341
 6304TIP3    H118876   5.955  -0.112   4.409
 6304TIP3    H218877   6.002   0.028   4.378
 6305TIP3   OH218878   5.338   5.643   0.948
 6305TIP3    H118879   5.389   5.578   0.899
 6305TIP3    H218880   5.280   5.591   1.004
 6306TIP3   OH218881   3.240   0.329   0.788
 6306TIP3    H118882   3.220   0.259   0.726
 6306TIP3    H218883   3.246   0.408   0.735
 6307TIP3   OH218884   2.029   0.546   4.019
 6307TIP3    H118885   2.012   0.598   4.098
 6307TIP3    H218886   2.105   0.491   4.043
 6308TIP3   OH218887   2.840   2.354   1.353
 6308TIP3    H118888   2.846   2.261   1.329
 6308TIP3    H218889   2.931   2.381   1.366
 6309TIP3   OH218890   5.779   6.353   1.042
 6309TIP3    H118891   5.708   6.289   1.053
 6309TIP3    H218892   5.819   6.331   0.959
 6310TIP3   OH218893   3.224   2.970   5.418
 6310TIP3    H118894   3.146   2.916   5.427
 6310TIP3    H218895   3.230   2.987   5.324
 6311TIP3   OH218896   6.100   6.617   4.383
 6311TIP3    H118897   6.186   6.608   4.342
 6311TIP3    H218898   6.118   6.644   4.473
 6312TIP3   OH218899   3.607   3.403   3.270
 6312TIP3    H118900   3.673   3.463   3.234
 6312TIP3    H218901   3.523   3.444   3.250
 6313TIP3   OH218902   3.250   4.838   5.552
 6313TIP3    H118903   3.264   4.929   5.527
 6313TIP3    H218904   3.335   4.796   5.540
 6314TIP3   OH218905   6.044   0.310   4.129
 6314TIP3    H118906   6.136   0.292   4.113
 6314TIP3    H218907   6.033   0.299   4.223
 6315TIP3   OH218908   6.145   2.181   4.949
 6315TIP3    H118909   6.148   2.092   4.986
 6315TIP3    H218910   6.081   2.227   5.004
 6316TIP3   OH218911   7.214   5.321   5.038
 6316TIP3    H118912   7.226   5.301   5.131
 6316TIP3    H218913   7.186   5.413   5.037
 6317TIP3   OH218914   2.842   3.254   2.449
 6317TIP3    H118915   2.887   3.254   2.534
 6317TIP3    H218916   2.750   3.266   2.471
 6318TIP3   OH218917   3.469   4.242   1.733
 6318TIP3    H118918   3.562   4.221   1.727
 6318TIP3    H218919   3.464   4.336   1.717
 6319TIP3   OH218920   1.242   5.395   4.588
 6319TIP3    H118921   1.260   5.397   4.682
 6319TIP3    H218922   1.253   5.304   4.562
 6320TIP3   OH218923   5.183   4.248   0.171
 6320TIP3    H118924   5.161   4.245   0.265
 6320TIP3    H218925   5.264   4.197   0.164
 6321TIP3   OH218926   4.199   3.883   1.971
 6321TIP3    H118927   4.284   3.841   1.980
 6321TIP3    H218928   4.218   3.976   1.965
 6322TIP3   OH218929   3.582   0.838   3.887
 6322TIP3    H118930   3.536   0.754   3.889
 6322TIP3    H218931   3.599   0.853   3.794
 6323TIP3   OH218932   0.208   1.898   0.020
 6323TIP3    H118933   0.115   1.917   0.008
 6323TIP3    H218934   0.212   1.854   0.105
 6324TIP3   OH218935   2.517   3.516   3.684
 6324TIP3    H118936   2.509   3.611   3.685
 6324TIP3    H218937   2.517   3.493   3.591
 6325TIP3   OH218938   6.092   4.549   0.274
 6325TIP3    H118939   6.157   4.584   0.336
 6325TIP3    H218940   6.115   4.457   0.265
 6326TIP3   OH218941   6.133   2.723   5.796
 6326TIP3    H118942   6.107   2.782   5.867
 6326TIP3    H218943   6.141   2.638   5.837
 6327TIP3   OH218944   6.823   4.992   2.855
 6327TIP3    H118945   6.828   4.916   2.913
 6327TIP3    H218946   6.904   4.987   2.803
 6328TIP3   OH218947   0.175   3.377   0.213
 6328TIP3    H118948   0.214   3.402   0.297
 6328TIP3    H218949   0.128   3.295   0.232
 6329TIP3   OH218950   5.139   4.191   0.464
 6329TIP3    H118951   5.099   4.272   0.496
 6329TIP3    H218952   5.219   4.181   0.516
 6330TIP3   OH218953   2.497   2.165   2.549
 6330TIP3    H118954   2.586   2.160   2.514
 6330TIP3    H218955   2.507   2.148   2.643
 6331TIP3   OH218956   1.028   0.517   1.367
 6331TIP3    H118957   0.993   0.602   1.342
 6331TIP3    H218958   1.120   0.519   1.341
 6332TIP3   OH218959   0.093   3.415   5.299
 6332TIP3    H118960   0.042   3.334   5.299
 6332TIP3    H218961   0.144   3.410   5.217
 6333TIP3   OH218962   0.842   5.148   0.566
 6333TIP3    H118963   0.853   5.195   0.648
 6333TIP3    H218964   0.875   5.060   0.585
 6334TIP3   OH218965   1.864   1.889   1.297
 6334TIP3    H118966   1.873   1.875   1.391
 6334TIP3    H218967   1.880   1.803   1.258
 6335TIP3   OH218968   6.593   0.388   0.440
 6335TIP3    H118969   6.631   0.450   0.502
 6335TIP3    H218970   6.605   0.430   0.354
 6336TIP3   OH218971   4.329   2.949   4.901
 6336TIP3    H118972   4.328   2.944   4.806
 6336TIP3    H218973   4.332   3.043   4.921
 6337TIP3   OH218974   0.819   4.654   5.695
 6337TIP3    H118975   0.788   4.727   5.749
 6337TIP3    H218976   0.746   4.593   5.692
 6338TIP3   OH218977   3.836   5.546   1.048
 6338TIP3    H118978   3.785   5.584   1.120
 6338TIP3    H218979   3.866   5.461   1.082
 6339TIP3   OH218980   6.879   1.767   1.432
 6339TIP3    H118981   6.792   1.740   1.462
 6339TIP3    H218982   6.874   1.862   1.424
 6340TIP3   OH218983   7.104   4.768   5.117
 6340TIP3    H118984   7.085   4.684   5.157
 6340TIP3    H218985   7.034   4.781   5.053
 6341TIP3   OH218986   4.534   3.852   1.114
 6341TIP3    H118987   4.506   3.935   1.074
 6341TIP3    H218988   4.577   3.878   1.195
 6342TIP3   OH218989   2.123   4.869   2.618
 6342TIP3    H118990   2.086   4.781   2.622
 6342TIP3    H218991   2.195   4.861   2.555
 6343TIP3   OH218992   1.451   0.941   0.670
 6343TIP3    H118993   1.543   0.966   0.678
 6343TIP3    H218994   1.451   0.845   0.678
 6344TIP3   OH218995   2.238   2.547   4.305
 6344TIP3    H118996   2.247   2.452   4.310
 6344TIP3    H218997   2.210   2.565   4.216
 6345TIP3   OH218998   2.692   4.236   0.766
 6345TIP3    H118999   2.621   4.172   0.766
 6345TIP3    H219000   2.749   4.208   0.837
 6346TIP3   OH219001   0.668   2.152   2.991
 6346TIP3    H119002   0.649   2.136   3.084
 6346TIP3    H219003   0.757   2.188   2.990
 6347TIP3   OH219004   1.575   3.869   5.314
 6347TIP3    H119005   1.618   3.948   5.283
 6347TIP3    H219006   1.524   3.838   5.240
 6348TIP3   OH219007   2.531   4.582   4.614
 6348TIP3    H119008   2.612   4.564   4.566
 6348TIP3    H219009   2.520   4.507   4.672
 6349TIP3   OH219010   3.211   1.812   0.958
 6349TIP3    H119011   3.259   1.767   1.027
 6349TIP3    H219012   3.122   1.778   0.964
 6350TIP3   OH219013   3.922   3.205   3.845
 6350TIP3    H119014   3.880   3.274   3.794
 6350TIP3    H219015   3.890   3.219   3.935
 6351TIP3   OH219016   1.459   3.025   2.204
 6351TIP3    H119017   1.464   2.931   2.222
 6351TIP3    H219018   1.389   3.056   2.260
 6352TIP3   OH219019   1.227   3.055   2.446
 6352TIP3    H119020   1.184   2.978   2.483
 6352TIP3    H219021   1.156   3.104   2.404
 6353TIP3   OH219022   7.086   2.957   5.819
 6353TIP3    H119023   7.008   2.979   5.767
 6353TIP3    H219024   7.069   2.869   5.852
 6354TIP3   OH219025   6.071   5.250   0.327
 6354TIP3    H119026   6.022   5.170   0.306
 6354TIP3    H219027   6.155   5.218   0.360
 6355TIP3   OH219028   2.174   4.796   2.053
 6355TIP3    H119029   2.136   4.765   2.135
 6355TIP3    H219030   2.239   4.862   2.080
 6356TIP3   OH219031   5.216   1.215   1.736
 6356TIP3    H119032   5.238   1.257   1.653
 6356TIP3    H219033   5.202   1.123   1.714
 6357TIP3   OH219034   5.574   6.665   1.760
 6357TIP3    H119035   5.567   6.616   1.677
 6357TIP3    H219036   5.595   6.754   1.733
 6358TIP3   OH219037   4.723   5.175   0.914
 6358TIP3    H119038   4.638   5.184   0.871
 6358TIP3    H219039   4.730   5.082   0.936
 6359TIP3   OH219040   4.877   3.319   3.342
 6359TIP3    H119041   4.955   3.338   3.290
 6359TIP3    H219042   4.820   3.396   3.330
 6360TIP3   OH219043   5.447   1.075   3.132
 6360TIP3    H119044   5.489   1.145   3.183
 6360TIP3    H219045   5.517   1.044   3.073
 6361TIP3   OH219046   2.051   5.715   0.417
 6361TIP3    H119047   2.093   5.799   0.436
 6361TIP3    H219048   2.012   5.726   0.331
 6362TIP3   OH219049   0.369   2.115   2.014
 6362TIP3    H119050   0.330   2.043   2.064
 6362TIP3    H219051   0.445   2.142   2.066
 6363TIP3   OH219052   5.770   0.162   0.757
 6363TIP3    H119053   5.835   0.114   0.808
 6363TIP3    H219054   5.819   0.202   0.686
 6364TIP3   OH219055   7.175   2.041   2.777
 6364TIP3    H119056   7.266   2.024   2.801
 6364TIP3    H219057   7.147   2.110   2.837
 6365TIP3   OH219058   3.888   6.751   1.208
 6365TIP3    H119059   3.845   6.825   1.251
 6365TIP3    H219060   3.974   6.786   1.182
 6366TIP3   OH219061   5.746   6.436   3.950
 6366TIP3    H119062   5.688   6.392   3.888
 6366TIP3    H219063   5.688   6.497   3.997
 6367TIP3   OH219064   4.586   4.147   2.322
 6367TIP3    H119065   4.498   4.115   2.345
 6367TIP3    H219066   4.603   4.217   2.386
 6368TIP3   OH219067   0.430   4.995   3.230
 6368TIP3    H119068   0.338   4.993   3.256
 6368TIP3    H219069   0.469   4.920   3.275
 6369TIP3   OH219070   3.043   0.685   5.445
 6369TIP3    H119071   3.074   0.768   5.479
 6369TIP3    H219072   3.120   0.643   5.408
 6370TIP3   OH219073   4.889   0.136   3.878
 6370TIP3    H119074   4.909   0.202   3.812
 6370TIP3    H219075   4.831   0.075   3.834
 6371TIP3   OH219076   1.295   3.374   0.718
 6371TIP3    H119077   1.230   3.304   0.711
 6371TIP3    H219078   1.294   3.417   0.632
 6372TIP3   OH219079   1.239   4.331   5.429
 6372TIP3    H119080   1.263   4.401   5.369
 6372TIP3    H219081   1.190   4.375   5.499
 6373TIP3   OH219082   0.575   0.517   3.566
 6373TIP3    H119083   0.553   0.428   3.592
 6373TIP3    H219084   0.533   0.528   3.480
 6374TIP3   OH219085   1.393   6.666   3.716
 6374TIP3    H119086   1.481   6.683   3.682
 6374TIP3    H219087   1.407   6.626   3.802
 6375TIP3   OH219088   6.706   5.167   3.227
 6375TIP3    H119089   6.660   5.098   3.275
 6375TIP3    H219090   6.794   5.132   3.213
 6376TIP3   OH219091   2.356   2.440   5.271
 6376TIP3    H119092   2.326   2.506   5.209
 6376TIP3    H219093   2.280   2.383   5.285
 6377TIP3   OH219094   1.784   3.666   5.439
 6377TIP3    H119095   1.783   3.681   5.534
 6377TIP3    H219096   1.759   3.750   5.402
 6378TIP3   OH219097   3.435   1.227   3.692
 6378TIP3    H119098   3.513   1.204   3.641
 6378TIP3    H219099   3.469   1.243   3.780
 6379TIP3   OH219100   3.426   3.168   5.111
 6379TIP3    H119101   3.475   3.236   5.157
 6379TIP3    H219102   3.377   3.216   5.043
 6380TIP3   OH219103   4.937   5.682   2.949
 6380TIP3    H119104   4.886   5.761   2.929
 6380TIP3    H219105   4.994   5.707   3.021
 6381TIP3   OH219106   2.244   1.593   1.905
 6381TIP3    H119107   2.264   1.683   1.931
 6381TIP3    H219108   2.266   1.590   1.812
 6382TIP3   OH219109   4.063   6.437   4.848
 6382TIP3    H119110   4.037   6.447   4.756
 6382TIP3    H219111   4.025   6.353   4.875
 6383TIP3   OH219112   1.551   3.562   1.497
 6383TIP3    H119113   1.619   3.519   1.550
 6383TIP3    H219114   1.587   3.649   1.479
 6384TIP3   OH219115   0.264   2.786   5.066
 6384TIP3    H119116   0.219   2.705   5.090
 6384TIP3    H219117   0.205   2.856   5.096
 6385TIP3   OH219118   2.537   1.777   5.244
 6385TIP3    H119119   2.599   1.777   5.317
 6385TIP3    H219120   2.511   1.686   5.235
 6386TIP3   OH219121   1.667   5.612   2.448
 6386TIP3    H119122   1.602   5.675   2.416
 6386TIP3    H219123   1.749   5.662   2.449
 6387TIP3   OH219124   2.529   4.284   1.977
 6387TIP3    H119125   2.447   4.304   2.022
 6387TIP3    H219126   2.596   4.292   2.045
 6388TIP3   OH219127   4.626   1.356   5.461
 6388TIP3    H119128   4.572   1.426   5.425
 6388TIP3    H219129   4.577   1.276   5.442
 6389TIP3   OH219130   3.923   5.990   1.260
 6389TIP3    H119131   3.988   5.935   1.304
 6389TIP3    H219132   3.839   5.960   1.296
 6390TIP3   OH219133   6.966   2.286   0.416
 6390TIP3    H119134   6.896   2.227   0.387
 6390TIP3    H219135   6.926   2.340   0.483
 6391TIP3   OH219136   6.820   4.061   4.714
 6391TIP3    H119137   6.786   3.972   4.729
 6391TIP3    H219138   6.786   4.111   4.788
 6392TIP3   OH219139   1.394   1.306   5.141
 6392TIP3    H119140   1.486   1.329   5.149
 6392TIP3    H219141   1.371   1.267   5.225
 6393TIP3   OH219142   1.624   5.993   1.736
 6393TIP3    H119143   1.708   5.958   1.766
 6393TIP3    H219144   1.644   6.080   1.703
 6394TIP3   OH219145   4.401   1.561   5.368
 6394TIP3    H119146   4.362   1.634   5.319
 6394TIP3    H219147   4.356   1.562   5.452
 6395TIP3   OH219148   4.927   6.575   5.307
 6395TIP3    H119149   4.905   6.593   5.399
 6395TIP3    H219150   4.964   6.486   5.309
 6396TIP3   OH219151   0.719   3.143   4.960
 6396TIP3    H119152   0.713   3.205   5.032
 6396TIP3    H219153   0.651   3.078   4.978
 6397TIP3   OH219154   2.729   0.981   2.896
 6397TIP3    H119155   2.703   1.036   2.970
 6397TIP3    H219156   2.733   0.893   2.932
 6398TIP3   OH219157   5.235   4.908   0.270
 6398TIP3    H119158   5.187   4.856   0.206
 6398TIP3    H219159   5.225   4.998   0.240
 6399TIP3   OH219160   6.243   3.641   3.100
 6399TIP3    H119161   6.253   3.555   3.058
 6399TIP3    H219162   6.241   3.621   3.194
 6400TIP3   OH219163   0.918   1.491   0.848
 6400TIP3    H119164   0.896   1.400   0.828
 6400TIP3    H219165   0.839   1.540   0.824
 6401TIP3   OH219166   3.560   4.583   2.871
 6401TIP3    H119167   3.626   4.527   2.912
 6401TIP3    H219168   3.487   4.585   2.934
 6402TIP3   OH219169   2.932   1.748   0.995
 6402TIP3    H119170   2.946   1.663   1.038
 6402TIP3    H219171   2.920   1.726   0.903
 6403TIP3   OH219172   6.841   5.347   3.581
 6403TIP3    H119173   6.748   5.327   3.594
 6403TIP3    H219174   6.878   5.268   3.541
 6404TIP3   OH219175   2.825   4.718   5.622
 6404TIP3    H119176   2.813   4.802   5.579
 6404TIP3    H219177   2.911   4.724   5.664
 6405TIP3   OH219178   0.367   3.295   0.775
 6405TIP3    H119179   0.457   3.327   0.773
 6405TIP3    H219180   0.336   3.318   0.863
 6406TIP3   OH219181   2.415   0.645   1.680
 6406TIP3    H119182   2.377   0.733   1.670
 6406TIP3    H219183   2.497   0.649   1.631
 6407TIP3   OH219184   1.849   3.162   1.821
 6407TIP3    H119185   1.839   3.072   1.792
 6407TIP3    H219186   1.767   3.183   1.866
 6408TIP3   OH219187   6.504   3.574   0.545
 6408TIP3    H119188   6.557   3.520   0.486
 6408TIP3    H219189   6.442   3.619   0.487
 6409TIP3   OH219190   0.415   5.521   0.020
 6409TIP3    H119191   0.338   5.466   0.033
 6409TIP3    H219192   0.418   5.577   0.098
 6410TIP3   OH219193   6.879   3.414   2.221
 6410TIP3    H119194   6.796   3.372   2.245
 6410TIP3    H219195   6.934   3.342   2.189
 6411TIP3   OH219196   4.402   5.233   5.248
 6411TIP3    H119197   4.341   5.168   5.283
 6411TIP3    H219198   4.479   5.227   5.304
 6412TIP3   OH219199   4.064   3.775   1.009
 6412TIP3    H119200   4.053   3.684   0.981
 6412TIP3    H219201   3.982   3.797   1.052
 6413TIP3   OH219202   6.489   2.622   2.788
 6413TIP3    H119203   6.491   2.713   2.818
 6413TIP3    H219204   6.522   2.626   2.698
 6414TIP3   OH219205   1.261   0.049   2.436
 6414TIP3    H119206   1.211   0.020   2.360
 6414TIP3    H219207   1.348   0.071   2.402
 6415TIP3   OH219208   5.188   1.177   2.837
 6415TIP3    H119209   5.237   1.259   2.836
 6415TIP3    H219210   5.099   1.202   2.863
 6416TIP3   OH219211   6.255   2.841   0.701
 6416TIP3    H119212   6.220   2.927   0.724
 6416TIP3    H219213   6.185   2.798   0.653
 6417TIP3   OH219214   3.187   6.152   3.205
 6417TIP3    H119215   3.091   6.144   3.202
 6417TIP3    H219216   3.216   6.136   3.116
 6418TIP3   OH219217   4.321   0.943   2.712
 6418TIP3    H119218   4.270   1.022   2.729
 6418TIP3    H219219   4.318   0.932   2.617
 6419TIP3   OH219220   1.014   3.823   3.616
 6419TIP3    H119221   0.954   3.848   3.545
 6419TIP3    H219222   1.081   3.769   3.573
 6420TIP3   OH219223   4.333   6.123   4.412
 6420TIP3    H119224   4.282   6.198   4.384
 6420TIP3    H219225   4.408   6.120   4.352
 6421TIP3   OH219226   6.890   6.639   0.535
 6421TIP3    H119227   6.954   6.701   0.499
 6421TIP3    H219228   6.847   6.601   0.458
 6422TIP3   OH219229   5.610   2.926   3.693
 6422TIP3    H119230   5.671   2.959   3.628
 6422TIP3    H219231   5.618   2.987   3.766
 6423TIP3   OH219232   1.217   5.073   5.677
 6423TIP3    H119233   1.234   5.099   5.767
 6423TIP3    H219234   1.303   5.051   5.641
 6424TIP3   OH219235   6.829   2.687   1.523
 6424TIP3    H119236   6.743   2.728   1.524
 6424TIP3    H219237   6.826   2.626   1.449
 6425TIP3   OH219238   5.919   5.647   3.371
 6425TIP3    H119239   5.949   5.625   3.459
 6425TIP3    H219240   5.835   5.690   3.384
 6426TIP3   OH219241   4.164   1.299   4.679
 6426TIP3    H119242   4.132   1.265   4.762
 6426TIP3    H219243   4.094   1.356   4.647
 6427TIP3   OH219244   4.352   2.495   4.342
 6427TIP3    H119245   4.430   2.549   4.328
 6427TIP3    H219246   4.372   2.446   4.422
 6428TIP3   OH219247   3.343   5.170   2.300
 6428TIP3    H119248   3.324   5.112   2.373
 6428TIP3    H219249   3.435   5.193   2.311
 6429TIP3   OH219250   6.224   6.025   0.929
 6429TIP3    H119251   6.208   5.992   0.841
 6429TIP3    H219252   6.141   6.010   0.975
 6430TIP3   OH219253   3.087   0.086   2.536
 6430TIP3    H119254   3.149   0.156   2.557
 6430TIP3    H219255   3.135   0.029   2.476
 6431TIP3   OH219256   5.398   0.103   0.254
 6431TIP3    H119257   5.487   0.110   0.220
 6431TIP3    H219258   5.357   0.035   0.200
 6432TIP3   OH219259   5.196   1.643   3.935
 6432TIP3    H119260   5.150   1.662   4.017
 6432TIP3    H219261   5.126   1.639   3.869
 6433TIP3   OH219262   4.372   4.961   5.060
 6433TIP3    H119263   4.290   5.010   5.058
 6433TIP3    H219264   4.379   4.924   4.972
 6434TIP3   OH219265   6.129   4.852   1.744
 6434TIP3    H119266   6.169   4.907   1.811
 6434TIP3    H219267   6.128   4.765   1.782
 6435TIP3   OH219268   5.123   0.203   0.307
 6435TIP3    H119269   5.209   0.170   0.282
 6435TIP3    H219270   5.130   0.222   0.401
 6436TIP3   OH219271   6.335   3.945   5.003
 6436TIP3    H119272   6.247   3.910   4.984
 6436TIP3    H219273   6.329   3.977   5.093
 6437TIP3   OH219274   4.386   2.569   3.306
 6437TIP3    H119275   4.433   2.636   3.357
 6437TIP3    H219276   4.364   2.502   3.370
 6438TIP3   OH219277   3.824   6.420   5.312
 6438TIP3    H119278   3.813   6.402   5.406
 6438TIP3    H219279   3.871   6.344   5.278
 6439TIP3   OH219280   6.104   2.591   0.118
 6439TIP3    H119281   6.047   2.574   0.043
 6439TIP3    H219282   6.070   2.672   0.156
 6440TIP3   OH219283   6.566   3.434   3.068
 6440TIP3    H119284   6.642   3.421   3.010
 6440TIP3    H219285   6.580   3.520   3.107
 6441TIP3   OH219286   7.193   3.178   4.909
 6441TIP3    H119287   7.104   3.196   4.939
 6441TIP3    H219288   7.188   3.187   4.813
 6442TIP3   OH219289   5.663   1.587   4.950
 6442TIP3    H119290   5.663   1.503   4.997
 6442TIP3    H219291   5.574   1.620   4.959
 6443TIP3   OH219292   5.511   5.821   2.142
 6443TIP3    H119293   5.603   5.802   2.123
 6443TIP3    H219294   5.505   5.816   2.237
 6444TIP3   OH219295   6.804   3.950   4.451
 6444TIP3    H119296   6.759   3.890   4.511
 6444TIP3    H219297   6.794   4.036   4.492
 6445TIP3   OH219298   1.783   6.434   3.572
 6445TIP3    H119299   1.719   6.405   3.636
 6445TIP3    H219300   1.756   6.392   3.490
 6446TIP3   OH219301   5.412   6.653   0.223
 6446TIP3    H119302   5.408   6.642   0.318
 6446TIP3    H219303   5.449   6.741   0.211
 6447TIP3   OH219304   4.657   2.705   1.992
 6447TIP3    H119305   4.580   2.760   1.978
 6447TIP3    H219306   4.723   2.764   2.027
 6448TIP3   OH219307   5.991   6.147   2.944
 6448TIP3    H119308   5.929   6.092   2.896
 6448TIP3    H219309   6.062   6.164   2.882
 6449TIP3   OH219310   1.019   1.341   4.897
 6449TIP3    H119311   0.932   1.380   4.889
 6449TIP3    H219312   1.003   1.248   4.912
 6450TIP3   OH219313   1.613   1.553   4.845
 6450TIP3    H119314   1.580   1.565   4.756
 6450TIP3    H219315   1.639   1.461   4.848
 6451TIP3   OH219316   7.142   0.422   0.967
 6451TIP3    H119317   7.166   0.503   0.921
 6451TIP3    H219318   7.105   0.452   1.050
 6452TIP3   OH219319   3.558   3.842   0.078
 6452TIP3    H119320   3.629   3.883   0.128
 6452TIP3    H219321   3.555   3.752   0.111
 6453TIP3   OH219322   7.153   5.248   2.845
 6453TIP3    H119323   7.128   5.232   2.754
 6453TIP3    H219324   7.248   5.242   2.845
 6454TIP3   OH219325   6.918   0.938   5.762
 6454TIP3    H119326   6.963   0.924   5.679
 6454TIP3    H219327   6.926   0.854   5.808
 6455TIP3   OH219328   7.099   2.515   5.350
 6455TIP3    H119329   7.059   2.576   5.411
 6455TIP3    H219330   7.167   2.470   5.402
 6456TIP3   OH219331   2.257   0.669   0.976
 6456TIP3    H119332   2.181   0.698   1.027
 6456TIP3    H219333   2.219   0.636   0.894
 6457TIP3   OH219334   7.137   5.681   2.194
 6457TIP3    H119335   7.163   5.720   2.110
 6457TIP3    H219336   7.215   5.633   2.223
 6458TIP3   OH219337   3.417   2.441   0.852
 6458TIP3    H119338   3.337   2.472   0.808
 6458TIP3    H219339   3.471   2.406   0.781
 6459TIP3   OH219340   5.555   5.661   5.760
 6459TIP3    H119341   5.581   5.575   5.795
 6459TIP3    H219342   5.615   5.723   5.801
 6460TIP3   OH219343   0.701   6.823   0.349
 6460TIP3    H119344   0.692   6.793   0.440
 6460TIP3    H219345   0.630   6.779   0.302
 6461TIP3   OH219346   5.235   2.719   2.964
 6461TIP3    H119347   5.139   2.715   2.968
 6461TIP3    H219348   5.262   2.717   3.056
 6462TIP3   OH219349   6.297   3.128   3.134
 6462TIP3    H119350   6.361   3.130   3.205
 6462TIP3    H219351   6.222   3.177   3.168
 6463TIP3   OH219352   2.536   6.607   5.837
 6463TIP3    H119353   2.470   6.618   5.769
 6463TIP3    H219354   2.486   6.600   5.918
 6464TIP3   OH219355   6.547   2.520   1.088
 6464TIP3    H119356   6.506   2.437   1.067
 6464TIP3    H219357   6.575   2.555   1.003
 6465TIP3   OH219358   3.163   2.355   2.002
 6465TIP3    H119359   3.099   2.406   1.954
 6465TIP3    H219360   3.154   2.384   2.093
 6466TIP3   OH219361   1.521   2.558   1.293
 6466TIP3    H119362   1.518   2.496   1.366
 6466TIP3    H219363   1.437   2.548   1.250
 6467TIP3   OH219364   0.436   5.037   0.262
 6467TIP3    H119365   0.366   5.102   0.269
 6467TIP3    H219366   0.489   5.052   0.340
 6468TIP3   OH219367   5.234   2.090   2.726
 6468TIP3    H119368   5.213   2.076   2.818
 6468TIP3    H219369   5.188   2.170   2.702
 6469TIP3   OH219370   2.055   6.640   2.171
 6469TIP3    H119371   2.083   6.635   2.262
 6469TIP3    H219372   1.965   6.673   2.175
 6470TIP3   OH219373   6.390   3.742   1.598
 6470TIP3    H119374   6.335   3.809   1.639
 6470TIP3    H219375   6.477   3.756   1.636
 6471TIP3   OH219376   0.151   0.825   5.611
 6471TIP3    H119377   0.128   0.918   5.618
 6471TIP3    H219378   0.166   0.811   5.518
 6472TIP3   OH219379   6.542   3.289   1.669
 6472TIP3    H119380   6.599   3.334   1.732
 6472TIP3    H219381   6.473   3.352   1.650
 6473TIP3   OH219382   5.151   4.190   1.030
 6473TIP3    H119383   5.113   4.134   0.962
 6473TIP3    H219384   5.075   4.234   1.068
 6474TIP3   OH219385   6.868   4.835   0.359
 6474TIP3    H119386   6.796   4.871   0.411
 6474TIP3    H219387   6.888   4.751   0.401
 6475TIP3   OH219388   2.800   4.343   3.247
 6475TIP3    H119389   2.804   4.304   3.160
 6475TIP3    H219390   2.849   4.425   3.238
 6476TIP3   OH219391   5.007   4.699   5.811
 6476TIP3    H119392   4.999   4.708   5.716
 6476TIP3    H219393   4.965   4.616   5.831
 6477TIP3   OH219394   0.344   3.106   0.174
 6477TIP3    H119395   0.266   3.140   0.130
 6477TIP3    H219396   0.406   3.179   0.174
 6478TIP3   OH219397   0.544   1.460   3.749
 6478TIP3    H119398   0.523   1.506   3.830
 6478TIP3    H219399   0.503   1.375   3.758
 6479TIP3   OH219400   5.285   3.350   4.279
 6479TIP3    H119401   5.245   3.414   4.338
 6479TIP3    H219402   5.261   3.265   4.316
 6480TIP3   OH219403   3.821   6.693   0.842
 6480TIP3    H119404   3.811   6.660   0.753
 6480TIP3    H219405   3.842   6.615   0.894
 6481TIP3   OH219406   1.599   2.950   3.602
 6481TIP3    H119407   1.604   2.865   3.646
 6481TIP3    H219408   1.683   2.957   3.556
 6482TIP3   OH219409   6.770   0.783   5.467
 6482TIP3    H119410   6.782   0.860   5.412
 6482TIP3    H219411   6.794   0.709   5.410
 6483TIP3   OH219412   6.519   1.565   4.099
 6483TIP3    H119413   6.582   1.561   4.171
 6483TIP3    H219414   6.510   1.658   4.080
 6484TIP3   OH219415   6.635   3.028  -0.001
 6484TIP3    H119416   6.557   2.973  -0.005
 6484TIP3    H219417   6.701   2.974   0.041
 6485TIP3   OH219418   6.113   3.533   1.857
 6485TIP3    H119419   6.171   3.506   1.928
 6485TIP3    H219420   6.033   3.481   1.870
 6486TIP3   OH219421   1.526   3.733   3.022
 6486TIP3    H119422   1.461   3.791   2.981
 6486TIP3    H219423   1.475   3.656   3.047
 6487TIP3   OH219424   3.923   4.275   0.060
 6487TIP3    H119425   3.860   4.326   0.111
 6487TIP3    H219426   3.989   4.249   0.124
 6488TIP3   OH219427   5.541   6.833   1.143
 6488TIP3    H119428   5.551   6.749   1.099
 6488TIP3    H219429   5.550   6.898   1.074
 6489TIP3   OH219430   2.282   6.663   0.522
 6489TIP3    H119431   2.203   6.655   0.469
 6489TIP3    H219432   2.319   6.748   0.498
 6490TIP3   OH219433   6.835   4.652   0.768
 6490TIP3    H119434   6.914   4.615   0.808
 6490TIP3    H219435   6.763   4.615   0.818
 6491TIP3   OH219436   2.931   0.434   4.236
 6491TIP3    H119437   3.012   0.384   4.232
 6491TIP3    H219438   2.907   0.451   4.145
 6492TIP3   OH219439   3.077   0.485   0.166
 6492TIP3    H119440   3.011   0.506   0.233
 6492TIP3    H219441   3.026   0.467   0.087
 6493TIP3   OH219442   0.282   4.058   1.806
 6493TIP3    H119443   0.374   4.068   1.781
 6493TIP3    H219444   0.276   4.098   1.893
 6494TIP3   OH219445   4.509   5.637   4.523
 6494TIP3    H119446   4.469   5.554   4.496
 6494TIP3    H219447   4.445   5.703   4.499
 6495TIP3   OH219448   0.290   3.805   5.822
 6495TIP3    H119449   0.243   3.840   5.746
 6495TIP3    H219450   0.346   3.737   5.786
 6496TIP3   OH219451   0.414   6.016   4.564
 6496TIP3    H119452   0.509   6.005   4.560
 6496TIP3    H219453   0.383   5.944   4.619
 6497TIP3   OH219454   6.918   4.568   0.516
 6497TIP3    H119455   6.855   4.508   0.475
 6497TIP3    H219456   6.882   4.586   0.602
 6498TIP3   OH219457   1.285   4.633   2.056
 6498TIP3    H119458   1.210   4.576   2.072
 6498TIP3    H219459   1.285   4.648   1.961
 6499TIP3   OH219460   3.802   5.946   4.725
 6499TIP3    H119461   3.756   5.899   4.794
 6499TIP3    H219462   3.785   5.895   4.645
 6500TIP3   OH219463   5.656   0.389   0.202
 6500TIP3    H119464   5.719   0.450   0.242
 6500TIP3    H219465   5.658   0.411   0.109
 6501TIP3   OH219466   3.887   4.287   2.795
 6501TIP3    H119467   3.899   4.194   2.779
 6501TIP3    H219468   3.796   4.295   2.824
 6502TIP3   OH219469   6.135   6.659   5.603
 6502TIP3    H119470   6.078   6.613   5.664
 6502TIP3    H219471   6.084   6.668   5.523
 6503TIP3   OH219472   6.470   4.214   1.013
 6503TIP3    H119473   6.528   4.244   0.943
 6503TIP3    H219474   6.384   4.249   0.990
 6504TIP3   OH219475   4.533   2.542   1.740
 6504TIP3    H119476   4.440   2.561   1.726
 6504TIP3    H219477   4.559   2.600   1.811
 6505TIP3   OH219478   2.640   0.269   3.659
 6505TIP3    H119479   2.565   0.312   3.700
 6505TIP3    H219480   2.657   0.193   3.713
 6506TIP3   OH219481   1.811   1.082   2.611
 6506TIP3    H119482   1.823   0.987   2.615
 6506TIP3    H219483   1.718   1.093   2.595
 6507TIP3   OH219484   5.868   4.464   1.267
 6507TIP3    H119485   5.884   4.392   1.328
 6507TIP3    H219486   5.943   4.522   1.278
 6508TIP3   OH219487   4.231   1.941   3.203
 6508TIP3    H119488   4.225   1.845   3.200
 6508TIP3    H219489   4.309   1.961   3.150
 6509TIP3   OH219490   4.121   2.622   2.779
 6509TIP3    H119491   4.118   2.638   2.873
 6509TIP3    H219492   4.206   2.579   2.765
 6510TIP3   OH219493   1.171   6.790   1.585
 6510TIP3    H119494   1.207   6.715   1.538
 6510TIP3    H219495   1.242   6.855   1.586
 6511TIP3   OH219496   3.107   1.496   1.287
 6511TIP3    H119497   3.180   1.557   1.304
 6511TIP3    H219498   3.098   1.496   1.191
 6512TIP3   OH219499   1.999   2.118   2.444
 6512TIP3    H119500   2.044   2.085   2.365
 6512TIP3    H219501   2.068   2.122   2.510
 6513TIP3   OH219502   1.439   3.253   4.908
 6513TIP3    H119503   1.444   3.338   4.864
 6513TIP3    H219504   1.513   3.203   4.873
 6514TIP3   OH219505   6.285   5.930   1.532
 6514TIP3    H119506   6.213   5.871   1.556
 6514TIP3    H219507   6.257   5.970   1.450
 6515TIP3   OH219508   0.562   6.408   0.941
 6515TIP3    H119509   0.476   6.412   0.984
 6515TIP3    H219510   0.594   6.498   0.943
 6516TIP3   OH219511   5.916   4.270   4.277
 6516TIP3    H119512   5.837   4.221   4.257
 6516TIP3    H219513   5.885   4.359   4.298
 6517TIP3   OH219514   1.622   0.000   3.428
 6517TIP3    H119515   1.550   0.042   3.475
 6517TIP3    H219516   1.680   0.073   3.404
 6518TIP3   OH219517   2.323   6.309   1.950
 6518TIP3    H119518   2.359   6.280   1.867
 6518TIP3    H219519   2.314   6.229   2.002
 6519TIP3   OH219520   6.933   2.182   2.063
 6519TIP3    H119521   6.988   2.260   2.053
 6519TIP3    H219522   6.995   2.109   2.061
 6520TIP3   OH219523   0.181   2.860   5.646
 6520TIP3    H119524   0.248   2.791   5.647
 6520TIP3    H219525   0.190   2.903   5.732
 6521TIP3   OH219526   5.103   6.218   5.319
 6521TIP3    H119527   5.103   6.229   5.224
 6521TIP3    H219528   5.013   6.193   5.341
 6522TIP3   OH219529   0.637   6.524   5.514
 6522TIP3    H119530   0.596   6.611   5.515
 6522TIP3    H219531   0.677   6.516   5.600
 6523TIP3   OH219532   2.459   5.087   2.714
 6523TIP3    H119533   2.446   5.019   2.779
 6523TIP3    H219534   2.390   5.072   2.649
 6524TIP3   OH219535   5.702   5.189   0.467
 6524TIP3    H119536   5.661   5.211   0.383
 6524TIP3    H219537   5.633   5.146   0.517
 6525TIP3   OH219538   6.147   4.544   1.884
 6525TIP3    H119539   6.168   4.528   1.976
 6525TIP3    H219540   6.232   4.544   1.840
 6526TIP3   OH219541   7.007   3.521   5.816
 6526TIP3    H119542   7.092   3.558   5.793
 6526TIP3    H219543   6.985   3.465   5.740
 6527TIP3   OH219544   6.128   5.093   5.829
 6527TIP3    H119545   6.094   5.182   5.820
 6527TIP3    H219546   6.210   5.103   5.877
 6528TIP3   OH219547   0.394   5.789   1.345
 6528TIP3    H119548   0.323   5.763   1.285
 6528TIP3    H219549   0.362   5.869   1.387
 6529TIP3   OH219550   3.949   5.355   0.846
 6529TIP3    H119551   3.880   5.327   0.788
 6529TIP3    H219552   3.987   5.274   0.880
 6530TIP3   OH219553   7.045   0.515   0.142
 6530TIP3    H119554   6.961   0.473   0.127
 6530TIP3    H219555   7.037   0.601   0.100
 6531TIP3   OH219556   0.757   6.627   0.654
 6531TIP3    H119557   0.811   6.578   0.716
 6531TIP3    H219558   0.696   6.562   0.618
 6532TIP3   OH219559   3.403   6.422   3.660
 6532TIP3    H119560   3.433   6.511   3.680
 6532TIP3    H219561   3.459   6.394   3.588
 6533TIP3   OH219562   4.413   0.673   5.819
 6533TIP3    H119563   4.372   0.589   5.838
 6533TIP3    H219564   4.479   0.684   5.888
 6534TIP3   OH219565   3.440   1.470   4.421
 6534TIP3    H119566   3.475   1.414   4.352
 6534TIP3    H219567   3.512   1.529   4.443
 6535TIP3   OH219568   3.674   2.685   4.904
 6535TIP3    H119569   3.656   2.739   4.981
 6535TIP3    H219570   3.723   2.610   4.938
 6536TIP3   OH219571   2.888   2.708   1.425
 6536TIP3    H119572   2.874   2.779   1.487
 6536TIP3    H219573   2.877   2.628   1.478
 6537TIP3   OH219574   2.248   3.108   3.702
 6537TIP3    H119575   2.328   3.156   3.727
 6537TIP3    H219576   2.208   3.084   3.786
 6538TIP3   OH219577   5.183   0.199   4.505
 6538TIP3    H119578   5.205   0.282   4.463
 6538TIP3    H219579   5.096   0.177   4.473
 6539TIP3   OH219580   2.371   1.797   5.643
 6539TIP3    H119581   2.320   1.807   5.562
 6539TIP3    H219582   2.453   1.757   5.615
 6540TIP3   OH219583   3.461   3.545   1.043
 6540TIP3    H119584   3.399   3.602   1.089
 6540TIP3    H219585   3.532   3.604   1.017
 6541TIP3   OH219586   2.143   3.671   4.457
 6541TIP3    H119587   2.091   3.742   4.495
 6541TIP3    H219588   2.113   3.666   4.366
 6542TIP3   OH219589   5.041   1.861   5.750
 6542TIP3    H119590   5.033   1.780   5.800
 6542TIP3    H219591   4.959   1.908   5.768
 6543TIP3   OH219592   5.940   6.665   2.023
 6543TIP3    H119593   5.846   6.645   2.028
 6543TIP3    H219594   5.963   6.649   1.931
 6544TIP3   OH219595   2.242   2.833   4.164
 6544TIP3    H119596   2.195   2.916   4.158
 6544TIP3    H219597   2.257   2.821   4.258
 6545TIP3   OH219598   5.288   3.309   0.303
 6545TIP3    H119599   5.279   3.400   0.334
 6545TIP3    H219600   5.331   3.317   0.218
 6546TIP3   OH219601   3.564   1.710   4.450
 6546TIP3    H119602   3.480   1.718   4.405
 6546TIP3    H219603   3.564   1.781   4.514
 6547TIP3   OH219604   0.219   3.871   2.153
 6547TIP3    H119605   0.257   3.801   2.206
 6547TIP3    H219606   0.276   3.946   2.168
 6548TIP3   OH219607   4.650   3.128   2.117
 6548TIP3    H119608   4.669   3.214   2.077
 6548TIP3    H219609   4.628   3.149   2.208
 6549TIP3   OH219610   4.989   6.090   3.053
 6549TIP3    H119611   5.073   6.125   3.024
 6549TIP3    H219612   4.982   6.117   3.144
 6550TIP3   OH219613   2.649   6.418   4.011
 6550TIP3    H119614   2.592   6.386   3.940
 6550TIP3    H219615   2.732   6.436   3.967
 6551TIP3   OH219616   4.133   0.730   3.819
 6551TIP3    H119617   4.093   0.658   3.868
 6551TIP3    H219618   4.068   0.753   3.753
 6552TIP3   OH219619   2.487   6.207   1.453
 6552TIP3    H119620   2.439   6.131   1.486
 6552TIP3    H219621   2.427   6.280   1.468
 6553TIP3   OH219622   1.102   0.765   4.950
 6553TIP3    H119623   1.028   0.808   4.994
 6553TIP3    H219624   1.136   0.832   4.891
 6554TIP3   OH219625   4.099   1.059   2.282
 6554TIP3    H119626   4.115   1.018   2.368
 6554TIP3    H219627   4.097   0.985   2.221
 6555TIP3   OH219628   7.094   2.860   1.312
 6555TIP3    H119629   7.042   2.940   1.302
 6555TIP3    H219630   7.106   2.851   1.407
 6556TIP3   OH219631   0.426   4.050   2.829
 6556TIP3    H119632   0.460   4.095   2.907
 6556TIP3    H219633   0.332   4.040   2.847
 6557TIP3   OH219634   2.148   2.746   5.379
 6557TIP3    H119635   2.144   2.832   5.420
 6557TIP3    H219636   2.182   2.688   5.447
 6558TIP3   OH219637   6.055   5.471   3.879
 6558TIP3    H119638   6.113   5.461   3.954
 6558TIP3    H219639   6.053   5.566   3.863
 6559TIP3   OH219640   6.645   1.724   5.689
 6559TIP3    H119641   6.580   1.789   5.665
 6559TIP3    H219642   6.677   1.751   5.775
 6560TIP3   OH219643   6.886   2.875   0.756
 6560TIP3    H119644   6.878   2.917   0.841
 6560TIP3    H219645   6.959   2.921   0.714
 6561TIP3   OH219646   0.178   3.282   4.295
 6561TIP3    H119647   0.104   3.253   4.241
 6561TIP3    H219648   0.208   3.203   4.338
 6562TIP3   OH219649   3.880   2.909   4.850
 6562TIP3    H119650   3.878   2.852   4.927
 6562TIP3    H219651   3.947   2.870   4.793
 6563TIP3   OH219652   3.652   5.686   2.452
 6563TIP3    H119653   3.686   5.658   2.367
 6563TIP3    H219654   3.557   5.688   2.440
 6564TIP3   OH219655   5.544   4.200   5.127
 6564TIP3    H119656   5.546   4.274   5.067
 6564TIP3    H219657   5.524   4.124   5.072
 6565TIP3   OH219658   4.031   2.284   1.605
 6565TIP3    H119659   3.988   2.238   1.677
 6565TIP3    H219660   4.097   2.222   1.573
 6566TIP3   OH219661   3.384   5.517   3.680
 6566TIP3    H119662   3.330   5.558   3.613
 6566TIP3    H219663   3.427   5.445   3.635
 6567TIP3   OH219664   2.848   5.527   3.514
 6567TIP3    H119665   2.875   5.548   3.424
 6567TIP3    H219666   2.753   5.518   3.509
 6568TIP3   OH219667   2.934   4.746   2.982
 6568TIP3    H119668   2.854   4.766   2.933
 6568TIP3    H219669   2.968   4.832   3.009
 6569TIP3   OH219670   4.473   5.456   2.120
 6569TIP3    H119671   4.564   5.426   2.127
 6569TIP3    H219672   4.475   5.544   2.159
 6570TIP3   OH219673   2.270   0.568   0.331
 6570TIP3    H119674   2.333   0.497   0.323
 6570TIP3    H219675   2.301   0.634   0.269
 6571TIP3   OH219676   1.357   1.875   4.117
 6571TIP3    H119677   1.406   1.952   4.144
 6571TIP3    H219678   1.269   1.890   4.151
 6572TIP3   OH219679   3.923   4.035   5.766
 6572TIP3    H119680   3.837   4.033   5.725
 6572TIP3    H219681   3.970   3.962   5.725
 6573TIP3   OH219682   4.282   3.296   1.413
 6573TIP3    H119683   4.376   3.315   1.416
 6573TIP3    H219684   4.250   3.322   1.499
 6574TIP3   OH219685   5.825   2.897   0.488
 6574TIP3    H119686   5.771   2.972   0.465
 6574TIP3    H219687   5.778   2.822   0.451
 6575TIP3   OH219688   0.063   5.475   5.826
 6575TIP3    H119689   0.036   5.427   5.749
 6575TIP3    H219690  -0.005   5.457   5.892
 6576TIP3   OH219691   5.282   1.982   5.655
 6576TIP3    H119692   5.280   2.023   5.742
 6576TIP3    H219693   5.363   2.015   5.616
 6577TIP3   OH219694   1.744   4.209   1.337
 6577TIP3    H119695   1.704   4.235   1.420
 6577TIP3    H219696   1.764   4.116   1.349
 6578TIP3   OH219697   4.030   1.901   1.912
 6578TIP3    H119698   3.941   1.880   1.887
 6578TIP3    H219699   4.083   1.875   1.837
 6579TIP3   OH219700   0.716   1.235   1.217
 6579TIP3    H119701   0.790   1.293   1.235
 6579TIP3    H219702   0.647   1.266   1.275
 6580TIP3   OH219703   2.981   0.353   1.181
 6580TIP3    H119704   3.017   0.421   1.123
 6580TIP3    H219705   3.059   0.310   1.217
 6581TIP3   OH219706   6.679   6.067   2.315
 6581TIP3    H119707   6.665   5.973   2.314
 6581TIP3    H219708   6.709   6.089   2.227
 6582TIP3   OH219709   0.871   6.082   0.504
 6582TIP3    H119710   0.807   6.127   0.558
 6582TIP3    H219711   0.819   6.029   0.444
 6583TIP3   OH219712   3.389   4.199   2.704
 6583TIP3    H119713   3.483   4.189   2.722
 6583TIP3    H219714   3.373   4.137   2.632
 6584TIP3   OH219715   4.233   5.619   3.506
 6584TIP3    H119716   4.149   5.573   3.516
 6584TIP3    H219717   4.274   5.615   3.592
 6585TIP3   OH219718   6.178   6.269   4.297
 6585TIP3    H119719   6.212   6.357   4.311
 6585TIP3    H219720   6.150   6.241   4.384
 6586TIP3   OH219721   6.046   0.390   2.784
 6586TIP3    H119722   6.028   0.296   2.797
 6586TIP3    H219723   5.968   0.423   2.739
 6587TIP3   OH219724   2.221   3.893   1.478
 6587TIP3    H119725   2.188   3.803   1.469
 6587TIP3    H219726   2.297   3.897   1.421
 6588TIP3   OH219727   4.145   4.386   1.653
 6588TIP3    H119728   4.062   4.380   1.701
 6588TIP3    H219729   4.155   4.479   1.636
 6589TIP3   OH219730   6.175   4.692   3.648
 6589TIP3    H119731   6.088   4.724   3.674
 6589TIP3    H219732   6.193   4.737   3.566
 6590TIP3   OH219733   6.076   2.455   4.141
 6590TIP3    H119734   6.168   2.435   4.126
 6590TIP3    H219735   6.030   2.373   4.119
 6591TIP3   OH219736   2.173   1.104   4.722
 6591TIP3    H119737   2.187   1.022   4.674
 6591TIP3    H219738   2.105   1.150   4.672
 6592TIP3   OH219739   3.709   2.176   2.980
 6592TIP3    H119740   3.706   2.167   3.075
 6592TIP3    H219741   3.750   2.262   2.965
 6593TIP3   OH219742   0.017   6.340   1.730
 6593TIP3    H119743   0.016   6.319   1.823
 6593TIP3    H219744  -0.072   6.369   1.710
 6594TIP3   OH219745   6.440   0.262   3.488
 6594TIP3    H119746   6.523   0.306   3.474
 6594TIP3    H219747   6.374   0.327   3.465
 6595TIP3   OH219748   4.228   5.332   0.703
 6595TIP3    H119749   4.148   5.348   0.752
 6595TIP3    H219750   4.221   5.387   0.625
 6596TIP3   OH219751   0.705   2.863   0.110
 6596TIP3    H119752   0.690   2.947   0.155
 6596TIP3    H219753   0.751   2.887   0.030
 6597TIP3   OH219754   3.416   6.697   3.791
 6597TIP3    H119755   3.323   6.697   3.817
 6597TIP3    H219756   3.452   6.776   3.830
 6598TIP3   OH219757   5.677   3.092   3.301
 6598TIP3    H119758   5.720   3.058   3.380
 6598TIP3    H219759   5.729   3.059   3.229
 6599TIP3   OH219760   5.495   3.562   5.907
 6599TIP3    H119761   5.406   3.588   5.932
 6599TIP3    H219762   5.483   3.491   5.845
 6600TIP3   OH219763   7.149   4.949   0.300
 6600TIP3    H119764   7.139   5.044   0.308
 6600TIP3    H219765   7.064   4.914   0.325
 6601TIP3   OH219766   5.999   6.736   1.737
 6601TIP3    H119767   5.960   6.821   1.719
 6601TIP3    H219768   6.093   6.749   1.728
 6602TIP3   OH219769   2.643   0.198   3.351
 6602TIP3    H119770   2.609   0.208   3.440
 6602TIP3    H219771   2.721   0.254   3.350
 6603TIP3   OH219772   2.575   1.231   1.017
 6603TIP3    H119773   2.595   1.256   0.926
 6603TIP3    H219774   2.592   1.310   1.068
 6604TIP3   OH219775   3.211   4.164   4.613
 6604TIP3    H119776   3.153   4.135   4.683
 6604TIP3    H219777   3.291   4.192   4.658
 6605TIP3   OH219778   3.411   0.639   1.393
 6605TIP3    H119779   3.384   0.581   1.321
 6605TIP3    H219780   3.468   0.703   1.352
 6606TIP3   OH219781   4.231   2.630   4.547
 6606TIP3    H119782   4.256   2.577   4.472
 6606TIP3    H219783   4.279   2.593   4.621
 6607TIP3   OH219784   3.675   1.130   0.944
 6607TIP3    H119785   3.722   1.075   1.007
 6607TIP3    H219786   3.711   1.105   0.859
 6608TIP3   OH219787   2.072   3.326   1.811
 6608TIP3    H119788   2.005   3.257   1.816
 6608TIP3    H219789   2.138   3.300   1.875
 6609TIP3   OH219790   1.858   0.433   2.849
 6609TIP3    H119791   1.777   0.410   2.804
 6609TIP3    H219792   1.887   0.514   2.808
 6610TIP3   OH219793   5.691   5.338   3.740
 6610TIP3    H119794   5.707   5.311   3.831
 6610TIP3    H219795   5.753   5.410   3.725
 6611TIP3   OH219796   0.938   6.388   0.361
 6611TIP3    H119797   0.855   6.389   0.410
 6611TIP3    H219798   0.932   6.309   0.306
 6612TIP3   OH219799   4.346   2.257   2.397
 6612TIP3    H119800   4.414   2.237   2.333
 6612TIP3    H219801   4.385   2.233   2.481
 6613TIP3   OH219802   5.154   3.670   0.008
 6613TIP3    H119803   5.241   3.710   0.014
 6613TIP3    H219804   5.124   3.662   0.098
 6614TIP3   OH219805   5.719   6.164   2.318
 6614TIP3    H119806   5.707   6.231   2.385
 6614TIP3    H219807   5.775   6.205   2.253
 6615TIP3   OH219808   1.745   3.093   5.206
 6615TIP3    H119809   1.796   3.034   5.150
 6615TIP3    H219810   1.744   3.049   5.291
 6616TIP3   OH219811   5.888   6.488   3.238
 6616TIP3    H119812   5.911   6.580   3.247
 6616TIP3    H219813   5.852   6.464   3.324
 6617TIP3   OH219814   0.285   3.284   2.082
 6617TIP3    H119815   0.213   3.226   2.059
 6617TIP3    H219816   0.288   3.283   2.177
 6618TIP3   OH219817   5.031   2.884   4.094
 6618TIP3    H119818   5.073   2.803   4.066
 6618TIP3    H219819   4.939   2.862   4.104
 6619TIP3   OH219820   5.875   1.575   2.274
 6619TIP3    H119821   5.876   1.669   2.257
 6619TIP3    H219822   5.836   1.537   2.195
 6620TIP3   OH219823   3.437   2.087   3.139
 6620TIP3    H119824   3.422   2.137   3.058
 6620TIP3    H219825   3.507   2.134   3.184
 6621TIP3   OH219826   3.805   4.450   3.505
 6621TIP3    H119827   3.742   4.392   3.548
 6621TIP3    H219828   3.858   4.486   3.576
 6622TIP3   OH219829   0.224   0.102   4.211
 6622TIP3    H119830   0.291   0.033   4.212
 6622TIP3    H219831   0.274   0.183   4.202
 6623TIP3   OH219832   0.413   2.511   0.601
 6623TIP3    H119833   0.398   2.454   0.677
 6623TIP3    H219834   0.432   2.451   0.529
 6624TIP3   OH219835   5.276   2.456   1.692
 6624TIP3    H119836   5.309   2.516   1.625
 6624TIP3    H219837   5.317   2.486   1.773
 6625TIP3   OH219838   1.756   1.086   1.950
 6625TIP3    H119839   1.741   1.068   2.043
 6625TIP3    H219840   1.847   1.059   1.935
 6626TIP3   OH219841   1.582   1.212   0.875
 6626TIP3    H119842   1.585   1.263   0.794
 6626TIP3    H219843   1.643   1.140   0.859
 6627TIP3   OH219844   5.262   2.426   1.341
 6627TIP3    H119845   5.186   2.483   1.352
 6627TIP3    H219846   5.227   2.338   1.351
 6628TIP3   OH219847   4.752   5.987   5.056
 6628TIP3    H119848   4.674   5.952   5.011
 6628TIP3    H219849   4.739   6.081   5.058
 6629TIP3   OH219850   0.908   2.331   0.685
 6629TIP3    H119851   0.855   2.344   0.607
 6629TIP3    H219852   0.977   2.398   0.679
 6630TIP3   OH219853   6.653   2.943   4.972
 6630TIP3    H119854   6.746   2.920   4.976
 6630TIP3    H219855   6.652   3.036   4.951
 6631TIP3   OH219856   2.745   6.659   5.204
 6631TIP3    H119857   2.703   6.636   5.121
 6631TIP3    H219858   2.673   6.659   5.268
 6632TIP3   OH219859   1.936   4.683   1.966
 6632TIP3    H119860   1.865   4.747   1.973
 6632TIP3    H219861   2.015   4.732   1.991
 6633TIP3   OH219862   4.624   0.245   5.476
 6633TIP3    H119863   4.701   0.267   5.423
 6633TIP3    H219864   4.659   0.196   5.551
 6634TIP3   OH219865   0.689   4.131   1.451
 6634TIP3    H119866   0.671   4.037   1.439
 6634TIP3    H219867   0.777   4.133   1.488
 6635TIP3   OH219868   4.092   4.173   0.244
 6635TIP3    H119869   4.172   4.161   0.296
 6635TIP3    H219870   4.029   4.211   0.305
 6636TIP3   OH219871   2.738   1.355   5.471
 6636TIP3    H119872   2.778   1.374   5.556
 6636TIP3    H219873   2.764   1.264   5.453
 6637TIP3   OH219874   5.109   0.429   3.533
 6637TIP3    H119875   5.196   0.402   3.504
 6637TIP3    H219876   5.101   0.395   3.622
 6638TIP3   OH219877   1.967   4.622   1.606
 6638TIP3    H119878   1.990   4.531   1.624
 6638TIP3    H219879   2.018   4.674   1.668
 6639TIP3   OH219880   5.832   3.616   2.045
 6639TIP3    H119881   5.841   3.682   1.976
 6639TIP3    H219882   5.851   3.533   2.001
 6640TIP3   OH219883   5.372   4.419   4.176
 6640TIP3    H119884   5.346   4.463   4.095
 6640TIP3    H219885   5.404   4.489   4.233
 6641TIP3   OH219886   6.138   3.507   5.572
 6641TIP3    H119887   6.089   3.560   5.635
 6641TIP3    H219888   6.098   3.527   5.488
 6642TIP3   OH219889   6.428   2.983   4.755
 6642TIP3    H119890   6.476   2.927   4.693
 6642TIP3    H219891   6.484   2.986   4.832
 6643TIP3   OH219892   1.470   4.846   1.059
 6643TIP3    H119893   1.480   4.914   1.126
 6643TIP3    H219894   1.469   4.894   0.976
 6644TIP3   OH219895   1.893   3.286   2.072
 6644TIP3    H119896   1.943   3.206   2.055
 6644TIP3    H219897   1.811   3.272   2.025
 6645TIP3   OH219898   5.917   6.629   1.095
 6645TIP3    H119899   5.865   6.587   1.164
 6645TIP3    H219900   5.915   6.722   1.116
 6646TIP3   OH219901   1.800   0.445   5.265
 6646TIP3    H119902   1.870   0.441   5.200
 6646TIP3    H219903   1.722   0.469   5.215
 6647TIP3   OH219904   3.084   3.923   0.012
 6647TIP3    H119905   3.001   3.920   0.061
 6647TIP3    H219906   3.152   3.914   0.079
 6648TIP3   OH219907   5.660   0.539   2.159
 6648TIP3    H119908   5.704   0.615   2.121
 6648TIP3    H219909   5.677   0.546   2.253
 6649TIP3   OH219910   2.518   5.218   2.158
 6649TIP3    H119911   2.533   5.264   2.240
 6649TIP3    H219912   2.527   5.286   2.090
 6650TIP3   OH219913   5.528   3.783   2.549
 6650TIP3    H119914   5.535   3.699   2.593
 6650TIP3    H219915   5.484   3.763   2.466
 6651TIP3   OH219916   5.847   2.959   2.079
 6651TIP3    H119917   5.860   2.951   2.174
 6651TIP3    H219918   5.837   2.869   2.049
 6652TIP3   OH219919   5.024   3.829   2.946
 6652TIP3    H119920   4.994   3.850   2.858
 6652TIP3    H219921   5.068   3.909   2.976
 6653TIP3   OH219922   0.663   1.775   3.303
 6653TIP3    H119923   0.691   1.691   3.268
 6653TIP3    H219924   0.682   1.838   3.233
 6654TIP3   OH219925   1.975   1.603   3.162
 6654TIP3    H119926   2.028   1.557   3.227
 6654TIP3    H219927   2.034   1.670   3.127
 6655TIP3   OH219928   2.999   1.210   2.913
 6655TIP3    H119929   3.056   1.176   2.844
 6655TIP3    H219930   3.005   1.146   2.983
 6656TIP3   OH219931   1.999   1.618   5.562
 6656TIP3    H119932   2.079   1.658   5.528
 6656TIP3    H219933   2.029   1.553   5.625
 6657TIP3   OH219934   0.128   5.533   2.899
 6657TIP3    H119935   0.221   5.524   2.878
 6657TIP3    H219936   0.114   5.470   2.970
 6658TIP3   OH219937   3.659   5.273   0.629
 6658TIP3    H119938   3.618   5.212   0.689
 6658TIP3    H219939   3.608   5.353   0.636
 6659TIP3   OH219940   4.522   1.334   0.030
 6659TIP3    H119941   4.477   1.416   0.011
 6659TIP3    H219942   4.458   1.266   0.008
 6660TIP3   OH219943   5.079   5.806   1.633
 6660TIP3    H119944   5.156   5.861   1.648
 6660TIP3    H219945   5.055   5.775   1.720
 6661TIP3   OH219946   0.455   4.164   5.131
 6661TIP3    H119947   0.509   4.232   5.172
 6661TIP3    H219948   0.517   4.093   5.113
 6662TIP3   OH219949   1.324   0.275   4.739
 6662TIP3    H119950   1.416   0.303   4.735
 6662TIP3    H219951   1.309   0.257   4.832
 6663TIP3   OH219952   5.821   4.077   1.279
 6663TIP3    H119953   5.906   4.101   1.244
 6663TIP3    H219954   5.816   4.121   1.364
 6664TIP3   OH219955   6.689   0.709   0.507
 6664TIP3    H119956   6.705   0.769   0.580
 6664TIP3    H219957   6.760   0.726   0.446
 6665TIP3   OH219958   3.007   1.018   0.715
 6665TIP3    H119959   2.997   0.923   0.727
 6665TIP3    H219960   3.066   1.027   0.640
 6666TIP3   OH219961   2.250   2.765   2.370
 6666TIP3    H119962   2.304   2.735   2.444
 6666TIP3    H219963   2.162   2.771   2.407
 6667TIP3   OH219964   3.191   3.548   0.042
 6667TIP3    H119965   3.232   3.595   0.115
 6667TIP3    H219966   3.265   3.519  -0.012
 6668TIP3   OH219967   7.159   4.336   2.555
 6668TIP3    H119968   7.188   4.246   2.569
 6668TIP3    H219969   7.083   4.328   2.497
 6669TIP3   OH219970   3.181   3.670   0.606
 6669TIP3    H119971   3.148   3.605   0.667
 6669TIP3    H219972   3.209   3.743   0.661
 6670TIP3   OH219973   0.438   4.193   1.523
 6670TIP3    H119974   0.411   4.264   1.581
 6670TIP3    H219975   0.531   4.210   1.506
 6671TIP3   OH219976   6.411   2.412   0.348
 6671TIP3    H119977   6.501   2.438   0.327
 6671TIP3    H219978   6.419   2.322   0.380
 6672TIP3   OH219979   6.616   2.286   3.766
 6672TIP3    H119980   6.527   2.257   3.788
 6672TIP3    H219981   6.653   2.213   3.716
 6673TIP3   OH219982   1.597   3.647   1.218
 6673TIP3    H119983   1.582   3.723   1.274
 6673TIP3    H219984   1.684   3.615   1.244
 6674TIP3   OH219985   5.778   1.816   2.196
 6674TIP3    H119986   5.714   1.885   2.215
 6674TIP3    H219987   5.763   1.795   2.103
 6675TIP3   OH219988   1.105   1.969   4.000
 6675TIP3    H119989   1.039   2.031   4.031
 6675TIP3    H219990   1.173   2.024   3.961
 6676TIP3   OH219991   5.272   3.953   4.178
 6676TIP3    H119992   5.320   4.030   4.150
 6676TIP3    H219993   5.202   3.987   4.234
 6677TIP3   OH219994   0.462   6.470   5.080
 6677TIP3    H119995   0.515   6.516   5.015
 6677TIP3    H219996   0.523   6.448   5.150
 6678TIP3   OH219997   2.940   0.197   1.467
 6678TIP3    H119998   2.871   0.167   1.526
 6678TIP3    H219999   2.928   0.292   1.462
 6679TIP3   OH220000   0.518   4.680   1.808
 6679TIP3    H120001   0.534   4.674   1.713
 6679TIP3    H220002   0.587   4.739   1.840
 6680TIP3   OH220003   5.415   1.109   3.537
 6680TIP3    H120004   5.448   1.199   3.532
 6680TIP3    H220005   5.438   1.080   3.626
 6681TIP3   OH220006   1.808   5.221   1.736
 6681TIP3    H120007   1.903   5.211   1.728
 6681TIP3    H220008   1.796   5.288   1.803
 6682TIP3   OH220009   2.633   4.981   3.695
 6682TIP3    H120010   2.709   4.937   3.734
 6682TIP3    H220011   2.565   4.914   3.694
 6683TIP3   OH220012   5.840   4.965   4.475
 6683TIP3    H120013   5.753   4.943   4.441
 6683TIP3    H220014   5.842   5.061   4.475
 6684TIP3   OH220015   1.110   2.852   2.567
 6684TIP3    H120016   1.016   2.842   2.548
 6684TIP3    H220017   1.114   2.859   2.663
 6685TIP3   OH220018   2.579   3.218   2.476
 6685TIP3    H120019   2.556   3.195   2.386
 6685TIP3    H220020   2.498   3.256   2.512
 6686TIP3   OH220021   6.867   4.999   1.856
 6686TIP3    H120022   6.867   5.086   1.896
 6686TIP3    H220023   6.887   5.015   1.764
 6687TIP3   OH220024   6.307   2.247   2.098
 6687TIP3    H120025   6.276   2.286   2.016
 6687TIP3    H220026   6.324   2.321   2.156
 6688TIP3   OH220027   7.212   4.174   1.893
 6688TIP3    H120028   7.145   4.213   1.838
 6688TIP3    H220029   7.277   4.245   1.905
 6689TIP3   OH220030   7.186   2.158   0.199
 6689TIP3    H120031   7.253   2.226   0.204
 6689TIP3    H220032   7.126   2.179   0.272
 6690TIP3   OH220033   5.419   4.299   5.848
 6690TIP3    H120034   5.458   4.382   5.821
 6690TIP3    H220035   5.489   4.235   5.838
 6691TIP3   OH220036   1.398   1.163   3.502
 6691TIP3    H120037   1.435   1.116   3.577
 6691TIP3    H220038   1.473   1.205   3.461
 6692TIP3   OH220039   0.195   5.589   0.752
 6692TIP3    H120040   0.257   5.610   0.821
 6692TIP3    H220041   0.111   5.580   0.797
 6693TIP3   OH220042   6.255   6.624   1.894
 6693TIP3    H120043   6.271   6.533   1.871
 6693TIP3    H220044   6.220   6.664   1.814
 6694TIP3   OH220045   2.088   1.439   3.348
 6694TIP3    H120046   2.173   1.443   3.391
 6694TIP3    H220047   2.066   1.346   3.345
 6695TIP3   OH220048   2.950   1.911   2.881
 6695TIP3    H120049   3.031   1.958   2.862
 6695TIP3    H220050   2.948   1.904   2.976
 6696TIP3   OH220051   1.312   6.275   2.167
 6696TIP3    H120052   1.316   6.281   2.071
 6696TIP3    H220053   1.292   6.364   2.196
 6697TIP3   OH220054   6.167   1.856   2.240
 6697TIP3    H120055   6.234   1.914   2.277
 6697TIP3    H220056   6.145   1.895   2.156
 6698TIP3   OH220057   1.243   1.656   2.161
 6698TIP3    H120058   1.217   1.660   2.069
 6698TIP3    H220059   1.286   1.739   2.178
 6699TIP3   OH220060   4.073   1.457   2.654
 6699TIP3    H120061   4.019   1.380   2.637
 6699TIP3    H220062   4.074   1.464   2.750
 6700TIP3   OH220063   4.388   3.075   0.496
 6700TIP3    H120064   4.468   3.057   0.447
 6700TIP3    H220065   4.416   3.082   0.587
 6701TIP3   OH220066   5.383   1.665   3.110
 6701TIP3    H120067   5.453   1.603   3.094
 6701TIP3    H220068   5.342   1.677   3.024
 6702TIP3   OH220069   6.469   6.365   2.110
 6702TIP3    H120070   6.428   6.363   2.197
 6702TIP3    H220071   6.400   6.336   2.050
 6703TIP3   OH220072   3.755   3.653   3.165
 6703TIP3    H120073   3.785   3.656   3.075
 6703TIP3    H220074   3.709   3.736   3.179
 6704TIP3   OH220075   2.352   3.048   5.051
 6704TIP3    H120076   2.390   3.106   4.985
 6704TIP3    H220077   2.416   3.047   5.122
 6705TIP3   OH220078   4.273   5.131   1.992
 6705TIP3    H120079   4.249   5.224   1.991
 6705TIP3    H220080   4.353   5.127   1.939
 6706TIP3   OH220081   4.301   4.220   5.568
 6706TIP3    H120082   4.321   4.295   5.511
 6706TIP3    H220083   4.260   4.259   5.645
 6707TIP3   OH220084   5.133   4.683   3.358
 6707TIP3    H120085   5.087   4.600   3.346
 6707TIP3    H220086   5.219   4.658   3.390
 6708TIP3   OH220087   0.479   6.590   5.914
 6708TIP3    H120088   0.480   6.683   5.937
 6708TIP3    H220089   0.551   6.552   5.965
 6709TIP3   OH220090   0.545   4.124   1.802
 6709TIP3    H120091   0.610   4.072   1.756
 6709TIP3    H220092   0.595   4.174   1.867
 6710TIP3   OH220093   7.038   5.562   3.853
 6710TIP3    H120094   7.071   5.552   3.764
 6710TIP3    H220095   7.114   5.549   3.909
 6711TIP3   OH220096   3.389   2.646   3.770
 6711TIP3    H120097   3.361   2.715   3.710
 6711TIP3    H220098   3.464   2.684   3.817
 6712TIP3   OH220099   1.104   1.377   0.123
 6712TIP3    H120100   1.079   1.470   0.116
 6712TIP3    H220101   1.199   1.379   0.135
 6713TIP3   OH220102   3.627   2.136   5.902
 6713TIP3    H120103   3.567   2.141   5.828
 6713TIP3    H220104   3.649   2.043   5.909
 6714TIP3   OH220105   0.305   3.022   4.316
 6714TIP3    H120106   0.297   2.962   4.242
 6714TIP3    H220107   0.357   2.974   4.381
 6715TIP3   OH220108   2.328   5.252   4.785
 6715TIP3    H120109   2.238   5.229   4.762
 6715TIP3    H220110   2.381   5.209   4.719
 6716TIP3   OH220111   4.880   2.300   2.535
 6716TIP3    H120112   4.809   2.349   2.494
 6716TIP3    H220113   4.881   2.216   2.490
 6717TIP3   OH220114   7.171   0.389   1.372
 6717TIP3    H120115   7.262   0.360   1.369
 6717TIP3    H220116   7.141   0.365   1.459
 6718TIP3   OH220117   2.314   1.733   2.420
 6718TIP3    H120118   2.220   1.743   2.407
 6718TIP3    H220119   2.335   1.650   2.378
 6719TIP3   OH220120   2.453   2.634   1.093
 6719TIP3    H120121   2.529   2.667   1.045
 6719TIP3    H220122   2.485   2.622   1.182
 6720TIP3   OH220123   0.164   6.447   4.434
 6720TIP3    H120124   0.175   6.506   4.359
 6720TIP3    H220125   0.226   6.376   4.418
 6721TIP3   OH220126   5.822   0.545   2.632
 6721TIP3    H120127   5.754   0.600   2.593
 6721TIP3    H220128   5.841   0.480   2.565
 6722TIP3   OH220129   1.467   4.867   4.313
 6722TIP3    H120130   1.555   4.864   4.275
 6722TIP3    H220131   1.409   4.857   4.238
 6723TIP3   OH220132   5.574   1.767   0.480
 6723TIP3    H120133   5.617   1.817   0.410
 6723TIP3    H220134   5.638   1.700   0.503
 6724TIP3   OH220135   1.114   5.949   2.103
 6724TIP3    H120136   1.056   5.880   2.136
 6724TIP3    H220137   1.195   5.939   2.153
 6725TIP3   OH220138   4.452   5.926   0.899
 6725TIP3    H120139   4.478   6.018   0.898
 6725TIP3    H220140   4.498   5.889   0.974
 6726TIP3   OH220141   6.746   4.927   5.833
 6726TIP3    H120142   6.695   4.939   5.753
 6726TIP3    H220143   6.765   5.016   5.863
 6727TIP3   OH220144   1.318   4.615   0.458
 6727TIP3    H120145   1.366   4.604   0.376
 6727TIP3    H220146   1.261   4.539   0.463
 6728TIP3   OH220147   6.654   4.711   4.114
 6728TIP3    H120148   6.680   4.801   4.094
 6728TIP3    H220149   6.559   4.710   4.102
 6729TIP3   OH220150   2.795   2.446   4.025
 6729TIP3    H120151   2.761   2.407   3.944
 6729TIP3    H220152   2.723   2.499   4.058
 6730TIP3   OH220153   5.386   0.304   4.771
 6730TIP3    H120154   5.327   0.289   4.845
 6730TIP3    H220155   5.414   0.394   4.782
 6731TIP3   OH220156   2.267   1.642   2.759
 6731TIP3    H120157   2.229   1.669   2.676
 6731TIP3    H220158   2.299   1.723   2.798
 6732TIP3   OH220159   2.359   3.488   4.444
 6732TIP3    H120160   2.331   3.461   4.356
 6732TIP3    H220161   2.302   3.561   4.466
 6733TIP3   OH220162   1.533   5.453   5.259
 6733TIP3    H120163   1.568   5.368   5.286
 6733TIP3    H220164   1.532   5.450   5.163
 6734TIP3   OH220165   1.045   4.386   1.173
 6734TIP3    H120166   1.116   4.448   1.192
 6734TIP3    H220167   0.970   4.421   1.221
 6735TIP3   OH220168   5.411   4.268   3.597
 6735TIP3    H120169   5.457   4.333   3.545
 6735TIP3    H220170   5.478   4.234   3.657
 6736TIP3   OH220171   7.150   6.707   3.966
 6736TIP3    H120172   7.123   6.703   3.874
 6736TIP3    H220173   7.101   6.781   4.001
 6737TIP3   OH220174   4.123   0.269   0.059
 6737TIP3    H120175   4.161   0.261   0.146
 6737TIP3    H220176   4.132   0.181   0.021
 6738TIP3   OH220177   1.090   2.237   5.930
 6738TIP3    H120178   1.048   2.318   5.899
 6738TIP3    H220179   1.177   2.239   5.891
 6739TIP3   OH220180   6.324   3.097   2.611
 6739TIP3    H120181   6.271   3.095   2.691
 6739TIP3    H220182   6.306   3.183   2.573
 6740TIP3   OH220183   4.401   6.120   2.284
 6740TIP3    H120184   4.449   6.171   2.349
 6740TIP3    H220185   4.345   6.184   2.239
 6741TIP3   OH220186   7.229   4.139   2.385
 6741TIP3    H120187   7.258   4.081   2.315
 6741TIP3    H220188   7.140   4.164   2.361
 6742TIP3   OH220189   4.760   1.836   2.196
 6742TIP3    H120190   4.690   1.849   2.133
 6742TIP3    H220191   4.786   1.745   2.184
 6743TIP3   OH220192   6.440   1.431   3.085
 6743TIP3    H120193   6.481   1.387   3.011
 6743TIP3    H220194   6.371   1.484   3.047
 6744TIP3   OH220195   7.048   2.767   2.544
 6744TIP3    H120196   7.128   2.796   2.588
 6744TIP3    H220197   7.015   2.696   2.598
 6745TIP3   OH220198   5.983   4.792   4.290
 6745TIP3    H120199   5.951   4.868   4.338
 6745TIP3    H220200   6.022   4.828   4.210
 6746TIP3   OH220201   6.885   5.434   5.097
 6746TIP3    H120202   6.886   5.506   5.159
 6746TIP3    H220203   6.861   5.474   5.013
 6747TIP3   OH220204   4.369   3.651   2.562
 6747TIP3    H120205   4.365   3.731   2.614
 6747TIP3    H220206   4.442   3.602   2.599
 6748TIP3   OH220207   4.213   4.289   2.664
 6748TIP3    H120208   4.194   4.383   2.671
 6748TIP3    H220209   4.175   4.263   2.581
 6749TIP3   OH220210   2.113   5.954   0.318
 6749TIP3    H120211   2.097   6.012   0.393
 6749TIP3    H220212   2.086   6.005   0.242
 6750TIP3   OH220213   4.164   2.088   0.897
 6750TIP3    H120214   4.072   2.090   0.922
 6750TIP3    H220215   4.172   2.011   0.840
 6751TIP3   OH220216   4.489   4.837   1.751
 6751TIP3    H120217   4.555   4.818   1.818
 6751TIP3    H220218   4.462   4.752   1.717
 6752TIP3   OH220219   7.168   5.625   0.840
 6752TIP3    H120220   7.122   5.541   0.842
 6752TIP3    H220221   7.129   5.676   0.911
 6753TIP3   OH220222   3.623   4.747   2.566
 6753TIP3    H120223   3.564   4.821   2.583
 6753TIP3    H220224   3.701   4.767   2.617
 6754TIP3   OH220225   5.428   2.642   5.006
 6754TIP3    H120226   5.370   2.566   5.009
 6754TIP3    H220227   5.502   2.614   4.951
 6755TIP3   OH220228   6.769   0.709   3.469
 6755TIP3    H120229   6.730   0.749   3.547
 6755TIP3    H220230   6.855   0.678   3.498
 6756TIP3   OH220231   6.569   2.606   3.182
 6756TIP3    H120232   6.570   2.699   3.158
 6756TIP3    H220233   6.513   2.565   3.117
 6757TIP3   OH220234   0.433   4.773   2.468
 6757TIP3    H120235   0.397   4.769   2.557
 6757TIP3    H220236   0.494   4.846   2.469
 6758TIP3   OH220237   3.582   5.305   4.700
 6758TIP3    H120238   3.604   5.220   4.661
 6758TIP3    H220239   3.501   5.289   4.749
 6759TIP3   OH220240   1.631   4.558   1.387
 6759TIP3    H120241   1.726   4.550   1.380
 6759TIP3    H220242   1.608   4.624   1.321
 6760TIP3   OH220243   6.048   4.150   4.040
 6760TIP3    H120244   6.111   4.143   3.968
 6760TIP3    H220245   6.047   4.244   4.061
 6761TIP3   OH220246   2.868   3.868   3.948
 6761TIP3    H120247   2.910   3.825   4.022
 6761TIP3    H220248   2.914   3.835   3.871
 6762TIP3   OH220249   0.173   6.328   2.818
 6762TIP3    H120250   0.161   6.325   2.912
 6762TIP3    H220251   0.251   6.383   2.806
 6763TIP3   OH220252   1.543   3.753   2.141
 6763TIP3    H120253   1.484   3.684   2.110
 6763TIP3    H220254   1.625   3.737   2.096
 6764TIP3   OH220255   3.090   1.531   5.193
 6764TIP3    H120256   3.090   1.529   5.097
 6764TIP3    H220257   3.013   1.478   5.218
 6765TIP3   OH220258   4.132   2.072   2.096
 6765TIP3    H120259   4.199   2.128   2.057
 6765TIP3    H220260   4.102   2.018   2.023
 6766TIP3   OH220261   2.857   1.400   2.322
 6766TIP3    H120262   2.780   1.454   2.304
 6766TIP3    H220263   2.841   1.365   2.410
 6767TIP3   OH220264   3.092   2.678   1.701
 6767TIP3    H120265   3.133   2.735   1.636
 6767TIP3    H220266   3.075   2.736   1.775
 6768TIP3   OH220267   4.302   2.267   5.774
 6768TIP3    H120268   4.322   2.310   5.691
 6768TIP3    H220269   4.382   2.275   5.825
 6769TIP3   OH220270   6.146   1.122   3.334
 6769TIP3    H120271   6.236   1.155   3.324
 6769TIP3    H220272   6.109   1.127   3.245
 6770TIP3   OH220273   3.717   6.797   4.781
 6770TIP3    H120274   3.640   6.801   4.837
 6770TIP3    H220275   3.741   6.704   4.779
 6771TIP3   OH220276   3.336   5.822   2.762
 6771TIP3    H120277   3.314   5.889   2.697
 6771TIP3    H220278   3.430   5.830   2.774
 6772TIP3   OH220279   6.018   5.884   1.114
 6772TIP3    H120280   6.034   5.802   1.160
 6772TIP3    H220281   5.955   5.931   1.168
 6773TIP3   OH220282   1.811   6.742   2.870
 6773TIP3    H120283   1.829   6.792   2.790
 6773TIP3    H220284   1.744   6.793   2.916
 6774TIP3   OH220285   5.883   5.148   3.636
 6774TIP3    H120286   5.854   5.239   3.634
 6774TIP3    H220287   5.835   5.108   3.709
 6775TIP3   OH220288   6.413   2.453   5.057
 6775TIP3    H120289   6.352   2.483   5.125
 6775TIP3    H220290   6.480   2.521   5.053
 6776TIP3   OH220291   1.764   4.506   0.124
 6776TIP3    H120292   1.773   4.570   0.194
 6776TIP3    H220293   1.813   4.430   0.154
 6777TIP3   OH220294   6.687   2.913   5.507
 6777TIP3    H120295   6.686   2.915   5.411
 6777TIP3    H220296   6.602   2.876   5.531
 6778TIP3   OH220297   6.565   1.118   2.609
 6778TIP3    H120298   6.499   1.175   2.648
 6778TIP3    H220299   6.635   1.177   2.580
 6779TIP3   OH220300   6.628   6.576   5.100
 6779TIP3    H120301   6.538   6.559   5.075
 6779TIP3    H220302   6.622   6.613   5.188
 6780TIP3   OH220303   2.158   3.156   2.006
 6780TIP3    H120304   2.202   3.108   1.936
 6780TIP3    H220305   2.142   3.090   2.073
 6781TIP3   OH220306   2.117   3.255   1.325
 6781TIP3    H120307   2.120   3.293   1.237
 6781TIP3    H220308   2.059   3.180   1.316
 6782TIP3   OH220309   4.458   2.490   3.963
 6782TIP3    H120310   4.511   2.445   3.898
 6782TIP3    H220311   4.489   2.581   3.961
 6783TIP3   OH220312   5.222   0.763   4.082
 6783TIP3    H120313   5.171   0.818   4.142
 6783TIP3    H220314   5.299   0.737   4.133
 6784TIP3   OH220315   6.054   1.730   1.259
 6784TIP3    H120316   5.977   1.713   1.205
 6784TIP3    H220317   6.121   1.671   1.224
 6785TIP3   OH220318   5.881   6.777   3.981
 6785TIP3    H120319   5.913   6.704   4.034
 6785TIP3    H220320   5.808   6.813   4.032
 6786TIP3   OH220321   6.338   5.680   2.366
 6786TIP3    H120322   6.351   5.710   2.456
 6786TIP3    H220323   6.392   5.602   2.358
 6787TIP3   OH220324   3.895   4.808   2.849
 6787TIP3    H120325   3.956   4.854   2.791
 6787TIP3    H220326   3.825   4.872   2.865
 6788TIP3   OH220327   0.432   1.377   2.233
 6788TIP3    H120328   0.480   1.425   2.166
 6788TIP3    H220329   0.493   1.308   2.261
 6789TIP3   OH220330   3.754   6.422   2.883
 6789TIP3    H120331   3.735   6.473   2.962
 6789TIP3    H220332   3.711   6.338   2.898
 6790TIP3   OH220333   2.591   1.109   5.697
 6790TIP3    H120334   2.622   1.048   5.764
 6790TIP3    H220335   2.608   1.065   5.614
 6791TIP3   OH220336   2.712   2.496   1.155
 6791TIP3    H120337   2.738   2.428   1.091
 6791TIP3    H220338   2.736   2.459   1.240
 6792TIP3   OH220339   2.658   4.647   3.592
 6792TIP3    H120340   2.592   4.617   3.654
 6792TIP3    H220341   2.741   4.636   3.638
 6793TIP3   OH220342   2.917   4.899   2.235
 6793TIP3    H120343   2.830   4.938   2.235
 6793TIP3    H220344   2.963   4.941   2.162
 6794TIP3   OH220345   5.525   5.544   5.463
 6794TIP3    H120346   5.535   5.551   5.558
 6794TIP3    H220347   5.461   5.611   5.440
 6795TIP3   OH220348   6.274   0.566   4.029
 6795TIP3    H120349   6.191   0.579   3.984
 6795TIP3    H220350   6.326   0.644   4.007
 6796TIP3   OH220351   5.065   0.585   3.286
 6796TIP3    H120352   5.078   0.536   3.367
 6796TIP3    H220353   4.992   0.645   3.305
 6797TIP3   OH220354   0.614   0.223   4.773
 6797TIP3    H120355   0.681   0.168   4.733
 6797TIP3    H220356   0.532   0.175   4.759
 6798TIP3   OH220357   1.922   0.493   5.518
 6798TIP3    H120358   1.869   0.558   5.565
 6798TIP3    H220359   1.874   0.477   5.437
 6799TIP3   OH220360   0.302   1.324   4.409
 6799TIP3    H120361   0.256   1.241   4.424
 6799TIP3    H220362   0.332   1.350   4.496
 6800TIP3   OH220363   6.547   2.174   5.214
 6800TIP3    H120364   6.518   2.229   5.141
 6800TIP3    H220365   6.535   2.229   5.291
 6801TIP3   OH220366   3.034   2.249   1.567
 6801TIP3    H120367   3.103   2.242   1.632
 6801TIP3    H220368   3.056   2.184   1.501
 6802TIP3   OH220369   5.193   6.409   0.954
 6802TIP3    H120370   5.279   6.368   0.949
 6802TIP3    H220371   5.176   6.441   0.866
 6803TIP3   OH220372   0.330   3.369   2.871
 6803TIP3    H120373   0.389   3.299   2.898
 6803TIP3    H220374   0.386   3.447   2.863
 6804TIP3   OH220375   6.894   4.575   4.036
 6804TIP3    H120376   6.817   4.621   4.069
 6804TIP3    H220377   6.861   4.489   4.011
 6805TIP3   OH220378   4.883   0.251   3.484
 6805TIP3    H120379   4.912   0.330   3.531
 6805TIP3    H220380   4.905   0.268   3.393
 6806TIP3   OH220381   6.894   1.503   3.119
 6806TIP3    H120382   6.815   1.509   3.173
 6806TIP3    H220383   6.894   1.412   3.089
 6807TIP3   OH220384   2.529   2.823   4.277
 6807TIP3    H120385   2.524   2.883   4.202
 6807TIP3    H220386   2.567   2.876   4.347
 6808TIP3   OH220387   5.815   4.313   5.763
 6808TIP3    H120388   5.887   4.289   5.822
 6808TIP3    H220389   5.851   4.384   5.710
 6809TIP3   OH220390   2.772   0.573   5.870
 6809TIP3    H120391   2.760   0.564   5.776
 6809TIP3    H220392   2.689   0.607   5.902
 6810TIP3   OH220393   0.097   2.594   0.749
 6810TIP3    H120394   0.181   2.588   0.704
 6810TIP3    H220395   0.119   2.601   0.842
 6811TIP3   OH220396   4.531   2.355   2.926
 6811TIP3    H120397   4.476   2.431   2.944
 6811TIP3    H220398   4.468   2.283   2.911
 6812TIP3   OH220399   1.414   4.460   5.784
 6812TIP3    H120400   1.335   4.407   5.799
 6812TIP3    H220401   1.390   4.547   5.816
 6813TIP3   OH220402   0.581   5.856   1.826
 6813TIP3    H120403   0.540   5.921   1.883
 6813TIP3    H220404   0.600   5.903   1.745
 6814TIP3   OH220405   2.720   1.497   1.012
 6814TIP3    H120406   2.693   1.588   1.008
 6814TIP3    H220407   2.816   1.500   1.008
 6815TIP3   OH220408   2.376   0.810   4.560
 6815TIP3    H120409   2.404   0.902   4.554
 6815TIP3    H220410   2.294   0.807   4.511
 6816TIP3   OH220411   4.205   5.398   1.078
 6816TIP3    H120412   4.152   5.439   1.147
 6816TIP3    H220413   4.232   5.471   1.022
 6817TIP3   OH220414   5.250   1.918   2.461
 6817TIP3    H120415   5.322   1.863   2.432
 6817TIP3    H220416   5.293   1.992   2.505
 6818TIP3   OH220417   3.828   1.233   5.516
 6818TIP3    H120418   3.873   1.219   5.433
 6818TIP3    H220419   3.878   1.301   5.559
 6819TIP3   OH220420   1.428   4.559   3.964
 6819TIP3    H120421   1.353   4.547   3.906
 6819TIP3    H220422   1.487   4.487   3.942
 6820TIP3   OH220423   6.783   3.531   0.873
 6820TIP3    H120424   6.738   3.473   0.934
 6820TIP3    H220425   6.730   3.611   0.871
 6821TIP3   OH220426   1.929   6.206   4.147
 6821TIP3    H120427   1.873   6.230   4.073
 6821TIP3    H220428   1.974   6.127   4.118
 6822TIP3   OH220429   1.770   1.686   3.335
 6822TIP3    H120430   1.798   1.649   3.419
 6822TIP3    H220431   1.830   1.648   3.271
 6823TIP3   OH220432   0.277   2.343   1.940
 6823TIP3    H120433   0.281   2.337   1.845
 6823TIP3    H220434   0.315   2.261   1.971
 6824TIP3   OH220435   3.803   5.669   1.820
 6824TIP3    H120436   3.893   5.637   1.832
 6824TIP3    H220437   3.813   5.763   1.804
 6825TIP3   OH220438   3.284   2.758   5.637
 6825TIP3    H120439   3.249   2.830   5.585
 6825TIP3    H220440   3.363   2.794   5.677
 6826TIP3   OH220441   3.083   2.195   1.159
 6826TIP3    H120442   3.028   2.128   1.121
 6826TIP3    H220443   3.135   2.149   1.225
 6827TIP3   OH220444   4.949   3.572   1.245
 6827TIP3    H120445   4.874   3.539   1.295
 6827TIP3    H220446   4.956   3.664   1.270
 6828TIP3   OH220447   7.256   0.482   1.992
 6828TIP3    H120448   7.267   0.518   2.080
 6828TIP3    H220449   7.205   0.401   2.006
 6829TIP3   OH220450   3.743   5.919   2.276
 6829TIP3    H120451   3.762   5.948   2.187
 6829TIP3    H220452   3.705   5.996   2.319
 6830TIP3   OH220453   1.264   1.866  -0.021
 6830TIP3    H120454   1.227   1.940   0.028
 6830TIP3    H220455   1.322   1.907  -0.085
 6831TIP3   OH220456   0.322   0.215   3.267
 6831TIP3    H120457   0.302   0.148   3.202
 6831TIP3    H220458   0.418   0.219   3.270
 6832TIP3   OH220459   5.667   0.230   4.751
 6832TIP3    H120460   5.713   0.147   4.765
 6832TIP3    H220461   5.615   0.243   4.830
 6833TIP3   OH220462   3.237   5.094   3.898
 6833TIP3    H120463   3.230   5.041   3.978
 6833TIP3    H220464   3.278   5.036   3.834
 6834TIP3   OH220465   5.737   2.860   4.931
 6834TIP3    H120466   5.827   2.873   4.961
 6834TIP3    H220467   5.723   2.931   4.868
 6835TIP3   OH220468   3.325   4.699   1.022
 6835TIP3    H120469   3.377   4.779   1.020
 6835TIP3    H220470   3.244   4.723   1.067
 6836TIP3   OH220471   4.159   4.613   1.000
 6836TIP3    H120472   4.165   4.518   1.001
 6836TIP3    H220473   4.110   4.633   0.920
 6837TIP3   OH220474   2.278   0.408   0.024
 6837TIP3    H120475   2.365   0.429   0.058
 6837TIP3    H220476   2.292   0.331  -0.030
 6838TIP3   OH220477   4.046   5.102   0.985
 6838TIP3    H120478   4.130   5.057   0.973
 6838TIP3    H220479   3.995   5.078   0.907
 6839TIP3   OH220480   3.487   0.204   0.821
 6839TIP3    H120481   3.417   0.264   0.795
 6839TIP3    H220482   3.441   0.133   0.866
 6840TIP3   OH220483   6.175   5.025   3.703
 6840TIP3    H120484   6.088   5.031   3.743
 6840TIP3    H220485   6.162   4.968   3.627
 6841TIP3   OH220486   3.338   2.530   1.742
 6841TIP3    H120487   3.245   2.554   1.737
 6841TIP3    H220488   3.375   2.590   1.807
 6842TIP3   OH220489   2.297   6.746   2.327
 6842TIP3    H120490   2.317   6.790   2.245
 6842TIP3    H220491   2.298   6.817   2.392
 6843TIP3   OH220492   3.945   0.558   1.019
 6843TIP3    H120493   4.008   0.543   1.089
 6843TIP3    H220494   3.948   0.479   0.966
 6844TIP3   OH220495   4.707   4.485   3.483
 6844TIP3    H120496   4.631   4.522   3.437
 6844TIP3    H220497   4.757   4.562   3.511
 6845TIP3   OH220498   6.306   4.602   0.472
 6845TIP3    H120499   6.240   4.590   0.540
 6845TIP3    H220500   6.389   4.607   0.518
 6846TIP3   OH220501   2.742   5.380   5.100
 6846TIP3    H120502   2.700   5.418   5.023
 6846TIP3    H220503   2.675   5.381   5.168
 6847TIP3   OH220504   5.767   3.398   2.275
 6847TIP3    H120505   5.835   3.430   2.217
 6847TIP3    H220506   5.697   3.463   2.269
 6848TIP3   OH220507   2.337   6.034   2.977
 6848TIP3    H120508   2.349   5.941   2.960
 6848TIP3    H220509   2.272   6.062   2.913
 6849TIP3   OH220510   5.811   5.132   1.931
 6849TIP3    H120511   5.845   5.043   1.928
 6849TIP3    H220512   5.761   5.141   1.850
 6850TIP3   OH220513   4.550   4.077   3.827
 6850TIP3    H120514   4.491   4.148   3.803
 6850TIP3    H220515   4.630   4.120   3.855
 6851TIP3   OH220516   0.856   2.703   2.999
 6851TIP3    H120517   0.796   2.777   2.988
 6851TIP3    H220518   0.890   2.712   3.088
 6852TIP3   OH220519   2.728   2.778   5.428
 6852TIP3    H120520   2.779   2.858   5.443
 6852TIP3    H220521   2.653   2.786   5.487
 6853TIP3   OH220522   1.449   3.709   0.665
 6853TIP3    H120523   1.496   3.709   0.748
 6853TIP3    H220524   1.395   3.630   0.668
 6854TIP3   OH220525   1.217   1.713   3.553
 6854TIP3    H120526   1.187   1.648   3.616
 6854TIP3    H220527   1.241   1.789   3.606
 6855TIP3   OH220528   6.776   0.197   3.331
 6855TIP3    H120529   6.778   0.206   3.236
 6855TIP3    H220530   6.702   0.138   3.348
 6856TIP3   OH220531   0.368   4.935   4.217
 6856TIP3    H120532   0.398   5.026   4.220
 6856TIP3    H220533   0.306   4.928   4.289
 6857TIP3   OH220534   3.609   1.803   0.357
 6857TIP3    H120535   3.699   1.821   0.384
 6857TIP3    H220536   3.601   1.845   0.271
 6858TIP3   OH220537   3.858   1.712   2.830
 6858TIP3    H120538   3.856   1.800   2.868
 6858TIP3    H220539   3.768   1.698   2.799
 6859TIP3   OH220540   0.449   4.917   4.551
 6859TIP3    H120541   0.499   4.992   4.519
 6859TIP3    H220542   0.362   4.928   4.514
 6860TIP3   OH220543   5.108   5.873   1.242
 6860TIP3    H120544   5.194   5.875   1.200
 6860TIP3    H220545   5.109   5.794   1.296
 6861TIP3   OH220546   2.190   2.920   1.789
 6861TIP3    H120547   2.103   2.960   1.785
 6861TIP3    H220548   2.173   2.826   1.779
 6862TIP3   OH220549   3.182   2.362   3.429
 6862TIP3    H120550   3.169   2.330   3.340
 6862TIP3    H220551   3.098   2.400   3.454
 6863TIP3   OH220552   3.525   4.796   5.146
 6863TIP3    H120553   3.510   4.859   5.215
 6863TIP3    H220554   3.441   4.750   5.137
 6864TIP3   OH220555   6.442   1.028   5.189
 6864TIP3    H120556   6.503   1.012   5.117
 6864TIP3    H220557   6.465   0.961   5.254
 6865TIP3   OH220558   6.794   0.389   1.671
 6865TIP3    H120559   6.722   0.385   1.733
 6865TIP3    H220560   6.754   0.417   1.589
 6866TIP3   OH220561   2.401   2.723   4.668
 6866TIP3    H120562   2.411   2.629   4.677
 6866TIP3    H220563   2.491   2.757   4.665
 6867TIP3   OH220564   2.480   4.806   0.379
 6867TIP3    H120565   2.436   4.830   0.460
 6867TIP3    H220566   2.423   4.741   0.339
 6868TIP3   OH220567   0.759   0.117   2.201
 6868TIP3    H120568   0.671   0.081   2.215
 6868TIP3    H220569   0.757   0.148   2.111
 6869TIP3   OH220570   0.634   4.705   2.223
 6869TIP3    H120571   0.620   4.616   2.192
 6869TIP3    H220572   0.546   4.743   2.226
 6870TIP3   OH220573   4.565   0.240   0.638
 6870TIP3    H120574   4.514   0.189   0.575
 6870TIP3    H220575   4.654   0.238   0.604
 6871TIP3   OH220576   1.848   6.312   5.249
 6871TIP3    H120577   1.791   6.383   5.217
 6871TIP3    H220578   1.905   6.354   5.313
 6872TIP3   OH220579   2.940   5.488   1.006
 6872TIP3    H120580   2.875   5.544   0.962
 6872TIP3    H220581   2.935   5.405   0.959
 6873TIP3   OH220582   1.034   4.805   4.567
 6873TIP3    H120583   1.000   4.789   4.479
 6873TIP3    H220584   1.099   4.737   4.580
 6874TIP3   OH220585   4.821   5.431   3.830
 6874TIP3    H120586   4.804   5.520   3.861
 6874TIP3    H220587   4.757   5.419   3.759
 6875TIP3   OH220588   0.218   1.114   4.001
 6875TIP3    H120589   0.135   1.162   4.004
 6875TIP3    H220590   0.283   1.179   3.973
 6876TIP3   OH220591   4.518   2.196   4.121
 6876TIP3    H120592   4.470   2.232   4.047
 6876TIP3    H220593   4.524   2.269   4.183
 6877TIP3   OH220594   2.013   1.492   1.476
 6877TIP3    H120595   2.042   1.579   1.448
 6877TIP3    H220596   2.005   1.499   1.571
 6878TIP3   OH220597   1.915   0.665   2.046
 6878TIP3    H120598   1.893   0.751   2.082
 6878TIP3    H220599   1.973   0.683   1.972
 6879TIP3   OH220600   5.884   0.861   0.221
 6879TIP3    H120601   5.799   0.817   0.225
 6879TIP3    H220602   5.884   0.920   0.296
 6880TIP3   OH220603   1.667   6.404   2.367
 6880TIP3    H120604   1.714   6.321   2.373
 6880TIP3    H220605   1.575   6.381   2.377
 6881TIP3   OH220606   5.210   6.005   5.048
 6881TIP3    H120607   5.164   5.932   5.089
 6881TIP3    H220608   5.233   5.972   4.961
 6882TIP3   OH220609   2.291   3.722   2.422
 6882TIP3    H120610   2.291   3.790   2.355
 6882TIP3    H220611   2.204   3.682   2.416
 6883TIP3   OH220612   2.875   0.874   5.725
 6883TIP3    H120613   2.793   0.886   5.773
 6883TIP3    H220614   2.907   0.963   5.710
 6884TIP3   OH220615   5.413   3.343   5.786
 6884TIP3    H120616   5.364   3.262   5.800
 6884TIP3    H220617   5.442   3.339   5.695
 6885TIP3   OH220618   0.938   3.465   2.693
 6885TIP3    H120619   0.989   3.434   2.618
 6885TIP3    H220620   0.930   3.388   2.750
 6886TIP3   OH220621   7.085   3.839   0.034
 6886TIP3    H120622   7.050   3.922   0.066
 6886TIP3    H220623   7.027   3.772   0.071
 6887TIP3   OH220624   2.269   5.230   4.034
 6887TIP3    H120625   2.330   5.184   3.977
 6887TIP3    H220626   2.321   5.257   4.109
 6888TIP3   OH220627   6.717   6.628   2.814
 6888TIP3    H120628   6.721   6.704   2.757
 6888TIP3    H220629   6.709   6.664   2.902
 6889TIP3   OH220630   2.398   4.640   2.803
 6889TIP3    H120631   2.333   4.609   2.739
 6889TIP3    H220632   2.481   4.635   2.756
 6890TIP3   OH220633   2.565   1.153   2.002
 6890TIP3    H120634   2.566   1.209   1.924
 6890TIP3    H220635   2.652   1.165   2.040
 6891TIP3   OH220636   1.943   6.716   5.567
 6891TIP3    H120637   1.935   6.812   5.567
 6891TIP3    H220638   1.869   6.686   5.515
 6892TIP3   OH220639   3.537   1.947   4.577
 6892TIP3    H120640   3.573   1.984   4.496
 6892TIP3    H220641   3.536   2.021   4.639
 6893TIP3   OH220642   5.303   5.369   1.334
 6893TIP3    H120643   5.315   5.394   1.426
 6893TIP3    H220644   5.277   5.277   1.337
 6894TIP3   OH220645   1.371   2.240   0.337
 6894TIP3    H120646   1.311   2.170   0.362
 6894TIP3    H220647   1.316   2.301   0.287
 6895TIP3   OH220648   3.921   0.602   5.435
 6895TIP3    H120649   3.986   0.669   5.456
 6895TIP3    H220650   3.892   0.570   5.521
 6896TIP3   OH220651   4.127   1.013   5.379
 6896TIP3    H120652   4.089   0.994   5.465
 6896TIP3    H220653   4.052   1.026   5.321
 6897TIP3   OH220654   0.867   2.773   2.464
 6897TIP3    H120655   0.794   2.744   2.517
 6897TIP3    H220656   0.846   2.743   2.375
 6898TIP3   OH220657   1.919   6.604   1.874
 6898TIP3    H120658   1.898   6.697   1.883
 6898TIP3    H220659   2.012   6.597   1.896
 6899TIP3   OH220660   0.457   6.423   3.491
 6899TIP3    H120661   0.509   6.342   3.483
 6899TIP3    H220662   0.456   6.441   3.585
 6900TIP3   OH220663   5.858   6.477   2.756
 6900TIP3    H120664   5.916   6.465   2.831
 6900TIP3    H220665   5.772   6.450   2.788
 6901TIP3   OH220666   7.023   1.531   2.569
 6901TIP3    H120667   6.957   1.491   2.512
 6901TIP3    H220668   7.071   1.591   2.511
 6902TIP3   OH220669   4.330   4.335   4.995
 6902TIP3    H120670   4.335   4.324   5.089
 6902TIP3    H220671   4.271   4.410   4.983
 6903TIP3   OH220672   3.659   4.304   3.665
 6903TIP3    H120673   3.589   4.241   3.650
 6903TIP3    H220674   3.615   4.381   3.702
 6904TIP3   OH220675   2.733   1.936   5.413
 6904TIP3    H120676   2.720   2.009   5.353
 6904TIP3    H220677   2.826   1.916   5.407
 6905TIP3   OH220678   1.935   4.079   4.823
 6905TIP3    H120679   1.890   4.115   4.748
 6905TIP3    H220680   1.874   4.015   4.860
 6906TIP3   OH220681   1.694   1.341   1.924
 6906TIP3    H120682   1.768   1.382   1.879
 6906TIP3    H220683   1.708   1.247   1.914
 6907TIP3   OH220684   3.664   0.602   0.576
 6907TIP3    H120685   3.728   0.651   0.525
 6907TIP3    H220686   3.636   0.532   0.517
 6908TIP3   OH220687   0.596   1.137   3.578
 6908TIP3    H120688   0.587   1.061   3.522
 6908TIP3    H220689   0.652   1.197   3.528
 6909TIP3   OH220690   0.090   5.851   2.673
 6909TIP3    H120691   0.081   5.889   2.586
 6909TIP3    H220692   0.156   5.782   2.662
 6910TIP3   OH220693   6.952   5.998   2.805
 6910TIP3    H120694   6.951   5.931   2.873
 6910TIP3    H220695   7.009   6.067   2.841
 6911TIP3   OH220696   4.658   5.903   4.629
 6911TIP3    H120697   4.751   5.899   4.649
 6911TIP3    H220698   4.640   5.824   4.578
 6912TIP3   OH220699   2.861   5.337   4.471
 6912TIP3    H120700   2.782   5.320   4.420
 6912TIP3    H220701   2.837   5.410   4.529
 6913TIP3   OH220702   6.334   4.812   4.524
 6913TIP3    H120703   6.266   4.874   4.551
 6913TIP3    H220704   6.290   4.727   4.524
 6914TIP3   OH220705   7.165   2.834   2.296
 6914TIP3    H120706   7.108   2.814   2.370
 6914TIP3    H220707   7.104   2.843   2.222
 6915TIP3   OH220708   0.450   0.327   0.663
 6915TIP3    H120709   0.514   0.318   0.592
 6915TIP3    H220710   0.365   0.312   0.620
 6916TIP3   OH220711   2.045   5.122   0.928
 6916TIP3    H120712   1.960   5.149   0.961
 6916TIP3    H220713   2.100   5.200   0.937
 6917TIP3   OH220714   0.099   4.741   1.354
 6917TIP3    H120715   0.030   4.674   1.354
 6917TIP3    H220716   0.088   4.787   1.437
 6918TIP3   OH220717   1.235  -0.003   1.453
 6918TIP3    H120718   1.278   0.004   1.538
 6918TIP3    H220719   1.270   0.070   1.402
 6919TIP3   OH220720   2.911   6.391   1.584
 6919TIP3    H120721   2.980   6.450   1.552
 6919TIP3    H220722   2.851   6.383   1.510
 6920TIP3   OH220723   4.654   2.213   3.146
 6920TIP3    H120724   4.592   2.271   3.103
 6920TIP3    H220725   4.603   2.135   3.167
 6921TIP3   OH220726   5.752   4.225   1.891
 6921TIP3    H120727   5.776   4.161   1.958
 6921TIP3    H220728   5.657   4.228   1.894
 6922TIP3   OH220729   5.492   3.778   0.866
 6922TIP3    H120730   5.436   3.706   0.894
 6922TIP3    H220731   5.517   3.821   0.947
 6923TIP3   OH220732   1.330   2.813   4.111
 6923TIP3    H120733   1.421   2.817   4.084
 6923TIP3    H220734   1.330   2.756   4.187
 6924TIP3   OH220735   6.874   3.076   2.751
 6924TIP3    H120736   6.791   3.030   2.750
 6924TIP3    H220737   6.919   3.043   2.829
 6925TIP3   OH220738   4.226   2.633   5.480
 6925TIP3    H120739   4.256   2.658   5.568
 6925TIP3    H220740   4.215   2.538   5.485
 6926TIP3   OH220741   0.270   3.318   0.494
 6926TIP3    H120742   0.321   3.394   0.465
 6926TIP3    H220743   0.295   3.306   0.585
 6927TIP3   OH220744   0.407   5.847   3.781
 6927TIP3    H120745   0.368   5.786   3.844
 6927TIP3    H220746   0.341   5.856   3.712
 6928TIP3   OH220747   1.660   1.764   3.895
 6928TIP3    H120748   1.744   1.760   3.941
 6928TIP3    H220749   1.672   1.832   3.829
 6929TIP3   OH220750   5.174   0.033   0.915
 6929TIP3    H120751   5.254   0.086   0.909
 6929TIP3    H220752   5.138   0.053   1.001
 6930TIP3   OH220753   3.754   0.389   3.941
 6930TIP3    H120754   3.788   0.313   3.894
 6930TIP3    H220755   3.706   0.351   4.015
 6931TIP3   OH220756   2.303   5.419   1.664
 6931TIP3    H120757   2.320   5.446   1.754
 6931TIP3    H220758   2.237   5.481   1.632
 6932TIP3   OH220759   3.196   4.466   1.089
 6932TIP3    H120760   3.127   4.528   1.115
 6932TIP3    H220761   3.272   4.521   1.070
 6933TIP3   OH220762   6.607   3.758   1.759
 6933TIP3    H120763   6.597   3.706   1.839
 6933TIP3    H220764   6.695   3.738   1.728
 6934TIP3   OH220765   1.783   1.842   0.042
 6934TIP3    H120766   1.847   1.771   0.045
 6934TIP3    H220767   1.723   1.825   0.114
 6935TIP3   OH220768   4.883   1.870   4.258
 6935TIP3    H120769   4.806   1.814   4.264
 6935TIP3    H220770   4.853   1.955   4.291
 6936TIP3   OH220771   3.077   3.629   0.928
 6936TIP3    H120772   3.055   3.663   1.015
 6936TIP3    H220773   3.121   3.546   0.945
 6937TIP3   OH220774   6.039   1.065   1.148
 6937TIP3    H120775   6.047   1.038   1.239
 6937TIP3    H220776   5.958   1.115   1.144
 6938TIP3   OH220777   5.705   4.077   4.323
 6938TIP3    H120778   5.702   4.000   4.267
 6938TIP3    H220779   5.703   4.042   4.412
 6939TIP3   OH220780   0.670   5.194   0.130
 6939TIP3    H120781   0.733   5.196   0.202
 6939TIP3    H220782   0.596   5.246   0.161
 6940TIP3   OH220783   2.879   1.333   5.730
 6940TIP3    H120784   2.824   1.325   5.808
 6940TIP3    H220785   2.914   1.245   5.715
 6941TIP3   OH220786   2.034   6.562   3.650
 6941TIP3    H120787   2.109   6.566   3.591
 6941TIP3    H220788   1.958   6.580   3.594
 6942TIP3   OH220789   3.902   5.557   0.571
 6942TIP3    H120790   3.842   5.513   0.631
 6942TIP3    H220791   3.850   5.625   0.530
 6943TIP3   OH220792   5.753   6.396   5.763
 6943TIP3    H120793   5.744   6.318   5.708
 6943TIP3    H220794   5.670   6.442   5.755
 6944TIP3   OH220795   4.019   4.227   4.245
 6944TIP3    H120796   4.036   4.165   4.316
 6944TIP3    H220797   4.053   4.310   4.278
 6945TIP3   OH220798   3.481   0.224   1.917
 6945TIP3    H120799   3.390   0.206   1.894
 6945TIP3    H220800   3.517   0.139   1.942
 6946TIP3   OH220801   3.482   2.657   0.644
 6946TIP3    H120802   3.399   2.626   0.681
 6946TIP3    H220803   3.516   2.719   0.708
 6947TIP3   OH220804   1.537   2.091   4.131
 6947TIP3    H120805   1.540   2.185   4.149
 6947TIP3    H220806   1.626   2.060   4.148
 6948TIP3   OH220807   2.458   2.445   4.761
 6948TIP3    H120808   2.366   2.420   4.755
 6948TIP3    H220809   2.478   2.441   4.854
 6949TIP3   OH220810   5.221   0.773   4.774
 6949TIP3    H120811   5.127   0.767   4.788
 6949TIP3    H220812   5.256   0.796   4.860
 6950TIP3   OH220813   5.375   0.721   1.907
 6950TIP3    H120814   5.314   0.699   1.978
 6950TIP3    H220815   5.449   0.762   1.951
 6951TIP3   OH220816   4.482   1.224   4.715
 6951TIP3    H120817   4.522   1.168   4.781
 6951TIP3    H220818   4.389   1.201   4.717
 6952TIP3   OH220819   3.739   2.222   1.688
 6952TIP3    H120820   3.704   2.132   1.688
 6952TIP3    H220821   3.672   2.272   1.640
 6953TIP3   OH220822   2.236   6.451   1.021
 6953TIP3    H120823   2.228   6.500   0.939
 6953TIP3    H220824   2.179   6.375   1.009
 6954TIP3   OH220825   0.811   0.286   4.308
 6954TIP3    H120826   0.721   0.271   4.338
 6954TIP3    H220827   0.824   0.380   4.319
 6955TIP3   OH220828   6.306   6.464   4.027
 6955TIP3    H120829   6.285   6.511   3.947
 6955TIP3    H220830   6.387   6.505   4.058
 6956TIP3   OH220831   1.249   1.206   4.757
 6956TIP3    H120832   1.263   1.118   4.790
 6956TIP3    H220833   1.156   1.224   4.775
 6957TIP3   OH220834   6.975   5.287   4.875
 6957TIP3    H120835   7.048   5.226   4.866
 6957TIP3    H220836   6.977   5.313   4.967
 6958TIP3   OH220837   0.406   2.208   2.918
 6958TIP3    H120838   0.488   2.161   2.932
 6958TIP3    H220839   0.433   2.298   2.901
 6959TIP3   OH220840   7.131   0.440   2.920
 6959TIP3    H120841   7.058   0.471   2.974
 6959TIP3    H220842   7.178   0.379   2.977
 6960TIP3   OH220843   1.266   2.942   5.207
 6960TIP3    H120844   1.199   3.006   5.186
 6960TIP3    H220845   1.344   2.994   5.227
 6961TIP3   OH220846   6.430   5.698   3.690
 6961TIP3    H120847   6.459   5.698   3.781
 6961TIP3    H220848   6.497   5.650   3.642
 6962TIP3   OH220849   1.160   5.539   3.393
 6962TIP3    H120850   1.171   5.533   3.488
 6962TIP3    H220851   1.248   5.526   3.358
 6963TIP3   OH220852   6.232   1.517   1.195
 6963TIP3    H120853   6.307   1.516   1.254
 6963TIP3    H220854   6.247   1.443   1.136
 6964TIP3   OH220855   6.543   4.469   3.400
 6964TIP3    H120856   6.633   4.453   3.373
 6964TIP3    H220857   6.530   4.563   3.384
 6965TIP3   OH220858   0.199   6.721   4.612
 6965TIP3    H120859   0.231   6.760   4.531
 6965TIP3    H220860   0.107   6.702   4.595
 6966TIP3   OH220861   6.516   4.160   5.403
 6966TIP3    H120862   6.582   4.211   5.356
 6966TIP3    H220863   6.461   4.123   5.334
 6967TIP3   OH220864   2.680   5.666   2.859
 6967TIP3    H120865   2.772   5.645   2.842
 6967TIP3    H220866   2.671   5.662   2.954
 6968TIP3   OH220867   0.679   3.870   5.569
 6968TIP3    H120868   0.767   3.868   5.532
 6968TIP3    H220869   0.660   3.778   5.592
 6969TIP3   OH220870   3.331   3.931   3.908
 6969TIP3    H120871   3.249   3.963   3.871
 6969TIP3    H220872   3.394   4.001   3.891
 6970TIP3   OH220873   3.064   0.444   1.709
 6970TIP3    H120874   3.075   0.507   1.780
 6970TIP3    H220875   2.996   0.384   1.740
 6971TIP3   OH220876   2.412   2.270   5.678
 6971TIP3    H120877   2.489   2.272   5.621
 6971TIP3    H220878   2.382   2.361   5.681
 6972TIP3   OH220879   5.506   1.970   2.239
 6972TIP3    H120880   5.534   1.993   2.327
 6972TIP3    H220881   5.493   2.054   2.194
 6973TIP3   OH220882   0.416   4.836   2.113
 6973TIP3    H120883   0.418   4.930   2.094
 6973TIP3    H220884   0.345   4.802   2.059
 6974TIP3   OH220885   0.183   2.286   0.622
 6974TIP3    H120886   0.110   2.336   0.585
 6974TIP3    H220887   0.150   2.256   0.707
 6975TIP3   OH220888   7.138   6.496   3.381
 6975TIP3    H120889   7.202   6.565   3.365
 6975TIP3    H220890   7.132   6.489   3.476
 6976TIP3   OH220891   1.942   3.560   1.866
 6976TIP3    H120892   1.996   3.481   1.869
 6976TIP3    H220893   1.995   3.624   1.817
 6977TIP3   OH220894   3.771   4.554   5.760
 6977TIP3    H120895   3.850   4.606   5.752
 6977TIP3    H220896   3.802   4.464   5.770
 6978TIP3   OH220897   0.043   0.050   1.568
 6978TIP3    H120898   0.126   0.004   1.564
 6978TIP3    H220899   0.035   0.077   1.659
 6979TIP3   OH220900   4.698   6.294   5.155
 6979TIP3    H120901   4.683   6.337   5.239
 6979TIP3    H220902   4.781   6.330   5.124
 6980TIP3   OH220903   2.728   3.341   0.936
 6980TIP3    H120904   2.701   3.424   0.898
 6980TIP3    H220905   2.769   3.365   1.019
 6981TIP3   OH220906   1.823   4.005   3.601
 6981TIP3    H120907   1.909   4.011   3.559
 6981TIP3    H220908   1.767   4.061   3.548
 6982TIP3   OH220909   0.856   4.152   2.840
 6982TIP3    H120910   0.789   4.101   2.794
 6982TIP3    H220911   0.822   4.242   2.840
 6983TIP3   OH220912   0.857   3.128   5.297
 6983TIP3    H120913   0.825   3.041   5.322
 6983TIP3    H220914   0.778   3.182   5.289
 6984TIP3   OH220915   5.141   6.120   0.985
 6984TIP3    H120916   5.119   6.061   0.913
 6984TIP3    H220917   5.124   6.208   0.950
 6985TIP3   OH220918   5.068   5.260   2.335
 6985TIP3    H120919   5.004   5.228   2.399
 6985TIP3    H220920   5.115   5.181   2.307
 6986TIP3   OH220921   0.215   4.884   3.344
 6986TIP3    H120922   0.135   4.928   3.370
 6986TIP3    H220923   0.187   4.815   3.284
 6987TIP3   OH220924   3.209   1.486   4.194
 6987TIP3    H120925   3.171   1.427   4.129
 6987TIP3    H220926   3.235   1.428   4.266
 6988TIP3   OH220927   7.099   6.228   0.432
 6988TIP3    H120928   7.102   6.288   0.506
 6988TIP3    H220929   7.025   6.171   0.449
 6989TIP3   OH220930   4.494   0.841   5.113
 6989TIP3    H120931   4.444   0.870   5.189
 6989TIP3    H220932   4.430   0.835   5.042
 6990TIP3   OH220933   2.370   3.724   2.713
 6990TIP3    H120934   2.284   3.766   2.711
 6990TIP3    H220935   2.416   3.761   2.638
 6991TIP3   OH220936   3.931   1.130   5.199
 6991TIP3    H120937   3.852   1.085   5.166
 6991TIP3    H220938   3.988   1.136   5.122
 6992TIP3   OH220939   6.544   2.859   3.110
 6992TIP3    H120940   6.517   2.930   3.052
 6992TIP3    H220941   6.509   2.882   3.195
 6993TIP3   OH220942   3.455   4.178   4.138
 6993TIP3    H120943   3.418   4.266   4.139
 6993TIP3    H220944   3.461   4.152   4.230
 6994TIP3   OH220945   5.586   5.592   0.047
 6994TIP3    H120946   5.649   5.651   0.007
 6994TIP3    H220947   5.611   5.505   0.014
 6995TIP3   OH220948   0.387   0.302   3.842
 6995TIP3    H120949   0.453   0.371   3.843
 6995TIP3    H220950   0.362   0.291   3.934
 6996TIP3   OH220951   5.040   6.808   3.109
 6996TIP3    H120952   5.112   6.745   3.105
 6996TIP3    H220953   4.993   6.795   3.027
 6997TIP3   OH220954   6.994   1.063   5.525
 6997TIP3    H120955   6.928   1.126   5.555
 6997TIP3    H220956   7.037   1.107   5.451
 6998TIP3   OH220957   5.315   6.135   5.484
 6998TIP3    H120958   5.220   6.133   5.470
 6998TIP3    H220959   5.352   6.147   5.397
 6999TIP3   OH220960   2.224   5.678   4.817
 6999TIP3    H120961   2.279   5.608   4.853
 6999TIP3    H220962   2.140   5.635   4.800
 7000TIP3   OH220963   6.669   1.597   3.706
 7000TIP3    H120964   6.699   1.674   3.754
 7000TIP3    H220965   6.750   1.556   3.675
 7001TIP3   OH220966   1.084   0.819   3.047
 7001TIP3    H120967   1.072   0.755   3.117
 7001TIP3    H220968   1.059   0.903   3.087
 7002TIP3   OH220969   1.260   5.073   2.164
 7002TIP3    H120970   1.314   5.001   2.131
 7002TIP3    H220971   1.177   5.032   2.190
 7003TIP3   OH220972   3.862   2.548   3.747
 7003TIP3    H120973   3.873   2.582   3.658
 7003TIP3    H220974   3.952   2.542   3.780
 7004TIP3   OH220975   1.540   5.543   1.653
 7004TIP3    H120976   1.541   5.526   1.558
 7004TIP3    H220977   1.525   5.457   1.692
 7005TIP3   OH220978   4.535   1.081   3.916
 7005TIP3    H120979   4.468   1.018   3.891
 7005TIP3    H220980   4.559   1.124   3.833
 7006TIP3   OH220981   4.899   0.932   3.820
 7006TIP3    H120982   4.857   0.859   3.866
 7006TIP3    H220983   4.886   0.914   3.727
 7007TIP3   OH220984   4.236   6.265   2.483
 7007TIP3    H120985   4.229   6.313   2.566
 7007TIP3    H220986   4.175   6.309   2.424
 7008TIP3   OH220987   3.386   1.577   4.749
 7008TIP3    H120988   3.290   1.575   4.748
 7008TIP3    H220989   3.409   1.554   4.839
 7009TIP3   OH220990   1.162   0.855   2.348
 7009TIP3    H120991   1.089   0.826   2.403
 7009TIP3    H220992   1.131   0.840   2.258
 7010TIP3   OH220993   6.221   2.539   1.665
 7010TIP3    H120994   6.274   2.503   1.736
 7010TIP3    H220995   6.281   2.599   1.619
 7011TIP3   OH220996   4.696   3.997   5.237
 7011TIP3    H120997   4.654   4.044   5.165
 7011TIP3    H220998   4.632   3.932   5.265
 7012TIP3   OH220999   5.826   3.616   0.136
 7012TIP3    H121000   5.781   3.588   0.057
 7012TIP3    H221001   5.917   3.629   0.109
 7013TIP3   OH221002   0.219   2.379   5.244
 7013TIP3    H121003   0.187   2.318   5.178
 7013TIP3    H221004   0.174   2.353   5.324
 7014TIP3   OH221005   5.913   2.323   3.500
 7014TIP3    H121006   5.990   2.380   3.503
 7014TIP3    H221007   5.839   2.383   3.495
 7015TIP3   OH221008   5.992   1.839   5.718
 7015TIP3    H121009   5.950   1.871   5.797
 7015TIP3    H221010   6.056   1.907   5.695
 7016TIP3   OH221011   4.414   6.525   2.088
 7016TIP3    H121012   4.391   6.451   2.032
 7016TIP3    H221013   4.494   6.498   2.132
 7017TIP3   OH221014   5.036   1.402   0.682
 7017TIP3    H121015   4.962   1.384   0.741
 7017TIP3    H221016   5.009   1.365   0.598
 7018TIP3   OH221017   4.655   1.592   4.759
 7018TIP3    H121018   4.638   1.655   4.689
 7018TIP3    H221019   4.615   1.510   4.729
 7019TIP3   OH221020   6.018   0.805   1.516
 7019TIP3    H121021   6.012   0.892   1.478
 7019TIP3    H221022   6.044   0.820   1.607
 7020TIP3   OH221023   0.985   6.456   5.039
 7020TIP3    H121024   0.901   6.454   5.086
 7020TIP3    H221025   0.969   6.405   4.959
 7021TIP3   OH221026   3.360   2.431   2.417
 7021TIP3    H121027   3.428   2.469   2.361
 7021TIP3    H221028   3.407   2.368   2.472
 7022TIP3   OH221029   3.881   5.708   3.034
 7022TIP3    H121030   3.948   5.686   2.969
 7022TIP3    H221031   3.930   5.723   3.115
 7023TIP3   OH221032   6.540   3.445   5.815
 7023TIP3    H121033   6.501   3.361   5.841
 7023TIP3    H221034   6.491   3.470   5.736
 7024TIP3   OH221035   5.912   1.845   1.716
 7024TIP3    H121036   5.966   1.791   1.658
 7024TIP3    H221037   5.831   1.860   1.667
 7025TIP3   OH221038   4.915   1.299   3.021
 7025TIP3    H121039   4.862   1.315   3.099
 7025TIP3    H221040   4.905   1.378   2.968
 7026TIP3   OH221041   3.616   4.272   0.941
 7026TIP3    H121042   3.663   4.288   1.023
 7026TIP3    H221043   3.619   4.356   0.895
 7027TIP3   OH221044   4.639   0.936   4.525
 7027TIP3    H121045   4.692   1.004   4.482
 7027TIP3    H221046   4.549   0.966   4.513
 7028TIP3   OH221047   2.223   0.436   4.202
 7028TIP3    H121048   2.191   0.407   4.288
 7028TIP3    H221049   2.278   0.511   4.221
 7029TIP3   OH221050   2.179   3.897   0.941
 7029TIP3    H121051   2.149   3.818   0.898
 7029TIP3    H221052   2.256   3.869   0.992
 7030TIP3   OH221053   7.059   3.041   0.607
 7030TIP3    H121054   7.100   2.975   0.551
 7030TIP3    H221055   7.017   3.101   0.545
 7031TIP3   OH221056   2.174   6.588   1.946
 7031TIP3    H121057   2.252   6.533   1.953
 7031TIP3    H221058   2.148   6.606   2.036
 7032TIP3   OH221059   4.817   2.254   1.778
 7032TIP3    H121060   4.822   2.182   1.716
 7032TIP3    H221061   4.890   2.311   1.755
 7033TIP3   OH221062   2.026   2.516   1.174
 7033TIP3    H121063   1.997   2.504   1.084
 7033TIP3    H221064   2.081   2.440   1.192
 7034TIP3   OH221065   5.816   0.834   2.994
 7034TIP3    H121066   5.733   0.877   2.976
 7034TIP3    H221067   5.872   0.903   3.029
 7035TIP3   OH221068   6.732   5.533   5.649
 7035TIP3    H121069   6.667   5.463   5.656
 7035TIP3    H221070   6.802   5.507   5.708
 7036TIP3   OH221071   3.971   1.123   3.646
 7036TIP3    H121072   3.969   1.119   3.550
 7036TIP3    H221073   3.899   1.067   3.675
 7037TIP3   OH221074   0.698   2.050   4.730
 7037TIP3    H121075   0.636   1.979   4.744
 7037TIP3    H221076   0.697   2.098   4.813
 7038TIP3   OH221077   3.005   5.772   4.142
 7038TIP3    H121078   3.031   5.795   4.053
 7038TIP3    H221079   3.088   5.751   4.186
 7039TIP3   OH221080   5.167   1.153   1.069
 7039TIP3    H121081   5.147   1.226   1.127
 7039TIP3    H221082   5.108   1.083   1.097
 7040TIP3   OH221083   4.981   6.209   3.837
 7040TIP3    H121084   5.015   6.125   3.805
 7040TIP3    H221085   5.010   6.213   3.928
 7041TIP3   OH221086   4.304   6.403   3.115
 7041TIP3    H121087   4.322   6.349   3.191
 7041TIP3    H221088   4.313   6.493   3.147
 7042TIP3   OH221089   0.817   1.413   2.745
 7042TIP3    H121090   0.909   1.404   2.770
 7042TIP3    H221091   0.779   1.327   2.761
 7043TIP3   OH221092   1.431   5.050   0.090
 7043TIP3    H121093   1.461   5.121   0.033
 7043TIP3    H221094   1.360   5.089   0.142
 7044TIP3   OH221095   5.801   5.954   4.462
 7044TIP3    H121096   5.826   5.882   4.404
 7044TIP3    H221097   5.876   5.965   4.521
 7045TIP3   OH221098   4.982   0.872   3.112
 7045TIP3    H121099   4.938   0.911   3.037
 7045TIP3    H221100   5.075   0.895   3.099
 7046TIP3   OH221101   5.020   0.346   5.819
 7046TIP3    H121102   5.085   0.379   5.758
 7046TIP3    H221103   4.971   0.424   5.846
 7047TIP3   OH221104   6.752   4.230   5.241
 7047TIP3    H121105   6.764   4.220   5.146
 7047TIP3    H221106   6.729   4.322   5.252
 7048TIP3   OH221107   0.328   1.632   2.341
 7048TIP3    H121108   0.244   1.625   2.296
 7048TIP3    H221109   0.380   1.558   2.307
 7049TIP3   OH221110   1.265   4.857   3.842
 7049TIP3    H121111   1.346   4.856   3.791
 7049TIP3    H221112   1.207   4.917   3.795
 7050TIP3   OH221113   0.668   6.203   0.659
 7050TIP3    H121114   0.601   6.160   0.712
 7050TIP3    H221115   0.673   6.292   0.694
 7051TIP3   OH221116   3.153   6.490   4.047
 7051TIP3    H121117   3.088   6.542   4.095
 7051TIP3    H221118   3.233   6.496   4.100
 7052TIP3   OH221119   0.571   1.423   3.346
 7052TIP3    H121120   0.653   1.446   3.303
 7052TIP3    H221121   0.511   1.401   3.274
 7053TIP3   OH221122   7.189   0.718   3.119
 7053TIP3    H121123   7.175   0.635   3.164
 7053TIP3    H221124   7.213   0.693   3.030
 7054TIP3   OH221125   5.736   2.963   1.455
 7054TIP3    H121126   5.679   3.035   1.428
 7054TIP3    H221127   5.823   3.002   1.460
 7055TIP3   OH221128   0.625   6.668   1.312
 7055TIP3    H121129   0.692   6.727   1.276
 7055TIP3    H221130   0.639   6.670   1.406
 7056TIP3   OH221131   6.625   5.189   3.628
 7056TIP3    H121132   6.675   5.114   3.661
 7056TIP3    H221133   6.539   5.181   3.670
 7057TIP3   OH221134   5.190   3.588   1.963
 7057TIP3    H121135   5.224   3.516   2.015
 7057TIP3    H221136   5.265   3.619   1.913
 7058TIP3   OH221137   5.207   1.561   1.768
 7058TIP3    H121138   5.177   1.648   1.796
 7058TIP3    H221139   5.302   1.568   1.766
 7059TIP3   OH221140   6.931   1.706   4.996
 7059TIP3    H121141   6.985   1.708   4.917
 7059TIP3    H221142   6.847   1.742   4.968
 7060TIP3   OH221143   3.823   6.577   0.560
 7060TIP3    H121144   3.765   6.540   0.493
 7060TIP3    H221145   3.909   6.540   0.540
 7061TIP3   OH221146   1.313   2.918   1.374
 7061TIP3    H121147   1.347   2.855   1.438
 7061TIP3    H221148   1.225   2.887   1.353
 7062TIP3   OH221149   2.724   6.061   1.779
 7062TIP3    H121150   2.652   6.027   1.725
 7062TIP3    H221151   2.776   5.984   1.801
 7063TIP3   OH221152   6.233   2.503   2.700
 7063TIP3    H121153   6.138   2.509   2.692
 7063TIP3    H221154   6.257   2.578   2.754
 7064TIP3   OH221155   5.371   5.941   0.950
 7064TIP3    H121156   5.349   5.993   0.873
 7064TIP3    H221157   5.384   5.852   0.917
 7065TIP3   OH221158   4.547   4.777   0.106
 7065TIP3    H121159   4.459   4.763   0.139
 7065TIP3    H221160   4.598   4.703   0.139
 7066TIP3   OH221161   5.419   4.938   5.636
 7066TIP3    H121162   5.477   4.903   5.703
 7066TIP3    H221163   5.334   4.947   5.679
 7067TIP3   OH221164   3.359   4.352   5.088
 7067TIP3    H121165   3.438   4.382   5.133
 7067TIP3    H221166   3.314   4.298   5.153
 7068TIP3   OH221167   6.348   3.274   4.051
 7068TIP3    H121168   6.382   3.307   3.967
 7068TIP3    H221169   6.427   3.258   4.104
 7069TIP3   OH221170   6.064  -0.043   4.079
 7069TIP3    H121171   6.021  -0.065   4.162
 7069TIP3    H221172   5.993  -0.009   4.024
 7070TIP3   OH221173   3.735   2.142   2.384
 7070TIP3    H121174   3.717   2.051   2.408
 7070TIP3    H221175   3.713   2.147   2.291
 7071TIP3   OH221176   5.662   2.163   3.362
 7071TIP3    H121177   5.724   2.236   3.355
 7071TIP3    H221178   5.589   2.198   3.414
 7072TIP3   OH221179   1.744   3.098   0.559
 7072TIP3    H121180   1.787   3.056   0.484
 7072TIP3    H221181   1.760   3.192   0.546
 7073TIP3   OH221182   1.952   4.877   1.099
 7073TIP3    H121183   1.940   4.972   1.102
 7073TIP3    H221184   2.039   4.862   1.135
 7074TIP3   OH221185   5.045   5.801   5.432
 7074TIP3    H121186   5.015   5.828   5.345
 7074TIP3    H221187   4.974   5.747   5.467
 7075TIP3   OH221188   1.381   2.426   1.811
 7075TIP3    H121189   1.390   2.380   1.894
 7075TIP3    H221190   1.321   2.499   1.831
 7076TIP3   OH221191   4.366   2.532   4.774
 7076TIP3    H121192   4.433   2.473   4.809
 7076TIP3    H221193   4.347   2.591   4.847
 7077TIP3   OH221194   3.984   4.915   4.432
 7077TIP3    H121195   3.892   4.890   4.427
 7077TIP3    H221196   3.998   4.935   4.525
 7078TIP3   OH221197   1.482   4.503   1.614
 7078TIP3    H121198   1.514   4.414   1.628
 7078TIP3    H221199   1.528   4.534   1.536
 7079TIP3   OH221200   0.373   5.368   3.488
 7079TIP3    H121201   0.420   5.285   3.481
 7079TIP3    H221202   0.350   5.374   3.581
 7080TIP3   OH221203   3.348   1.442   3.450
 7080TIP3    H121204   3.341   1.365   3.507
 7080TIP3    H221205   3.342   1.516   3.510
 7081TIP3   OH221206   5.122   0.688   0.639
 7081TIP3    H121207   5.188   0.737   0.688
 7081TIP3    H221208   5.169   0.655   0.562
 7082TIP3   OH221209   4.461   1.254   1.001
 7082TIP3    H121210   4.493   1.168   0.974
 7082TIP3    H221211   4.393   1.234   1.065
 7083TIP3   OH221212   6.462   3.653   5.034
 7083TIP3    H121213   6.427   3.640   4.946
 7083TIP3    H221214   6.545   3.605   5.035
 7084TIP3   OH221215   1.860   0.334   4.190
 7084TIP3    H121216   1.883   0.427   4.191
 7084TIP3    H221217   1.918   0.296   4.124
 7085TIP3   OH221218   5.981   4.789   2.538
 7085TIP3    H121219   5.948   4.822   2.621
 7085TIP3    H221220   5.952   4.854   2.473
 7086TIP3   OH221221   1.727   1.821   4.750
 7086TIP3    H121222   1.700   1.762   4.820
 7086TIP3    H221223   1.721   1.909   4.788
 7087TIP3   OH221224   0.393   4.412   4.606
 7087TIP3    H121225   0.379   4.319   4.625
 7087TIP3    H221226   0.389   4.455   4.691
 7088TIP3   OH221227   2.726   1.466   3.656
 7088TIP3    H121228   2.637   1.435   3.639
 7088TIP3    H221229   2.735   1.462   3.751
 7089TIP3   OH221230   5.909   4.233   5.257
 7089TIP3    H121231   5.923   4.264   5.347
 7089TIP3    H221232   5.882   4.142   5.266
 7090TIP3   OH221233   1.637   3.984   2.292
 7090TIP3    H121234   1.632   4.043   2.217
 7090TIP3    H221235   1.599   3.902   2.261
 7091TIP3   OH221236   4.508   4.142   1.148
 7091TIP3    H121237   4.554   4.219   1.180
 7091TIP3    H221238   4.501   4.085   1.224
 7092TIP3   OH221239   2.301   0.909   1.629
 7092TIP3    H121240   2.372   0.969   1.608
 7092TIP3    H221241   2.229   0.935   1.571
 7093TIP3   OH221242   1.167   2.637   1.550
 7093TIP3    H121243   1.254   2.669   1.530
 7093TIP3    H221244   1.174   2.600   1.638
 7094TIP3   OH221245   6.611   3.001   2.257
 7094TIP3    H121246   6.586   2.987   2.348
 7094TIP3    H221247   6.665   2.926   2.234
 7095TIP3   OH221248   1.435   6.558   2.998
 7095TIP3    H121249   1.393   6.644   2.997
 7095TIP3    H221250   1.404   6.516   3.078
 7096TIP3   OH221251   6.465   2.606   2.126
 7096TIP3    H121252   6.544   2.655   2.152
 7096TIP3    H221253   6.440   2.646   2.043
 7097TIP3   OH221254   6.509   2.397   0.793
 7097TIP3    H121255   6.519   2.492   0.793
 7097TIP3    H221256   6.598   2.364   0.781
 7098TIP3   OH221257   1.315   4.035   3.559
 7098TIP3    H121258   1.258   4.107   3.586
 7098TIP3    H221259   1.402   4.075   3.551
 7099TIP3   OH221260   0.457   5.833   3.167
 7099TIP3    H121261   0.547   5.857   3.144
 7099TIP3    H221262   0.466   5.774   3.241
 7100TIP3   OH221263   3.570   5.389   0.314
 7100TIP3    H121264   3.544   5.376   0.405
 7100TIP3    H221265   3.578   5.484   0.304
 7101TIP3   OH221266   5.466   2.940   0.211
 7101TIP3    H121267   5.536   3.004   0.214
 7101TIP3    H221268   5.420   2.956   0.129
 7102TIP3   OH221269   4.873   0.125   0.838
 7102TIP3    H121270   4.873   0.063   0.765
 7102TIP3    H221271   4.911   0.077   0.911
 7103TIP3   OH221272   2.147   5.681   0.946
 7103TIP3    H121273   2.215   5.703   1.009
 7103TIP3    H221274   2.072   5.734   0.971
 7104TIP3   OH221275   6.599   4.172   2.787
 7104TIP3    H121276   6.563   4.234   2.723
 7104TIP3    H221277   6.679   4.140   2.747
 7105TIP3   OH221278   1.557   2.839   1.247
 7105TIP3    H121279   1.563   2.744   1.245
 7105TIP3    H221280   1.464   2.856   1.262
 7106TIP3   OH221281   0.735   2.381   1.689
 7106TIP3    H121282   0.727   2.305   1.630
 7106TIP3    H221283   0.750   2.343   1.775
 7107TIP3   OH221284   1.325   3.808   2.334
 7107TIP3    H121285   1.399   3.790   2.276
 7107TIP3    H221286   1.306   3.725   2.376
 7108TIP3   OH221287   0.948   1.092   4.101
 7108TIP3    H121288   1.021   1.132   4.053
 7108TIP3    H221289   0.888   1.164   4.118
 7109TIP3   OH221290   6.587   1.953   1.064
 7109TIP3    H121291   6.532   1.876   1.053
 7109TIP3    H221292   6.604   1.983   0.975
 7110TIP3   OH221293   4.923   5.406   1.330
 7110TIP3    H121294   4.846   5.378   1.280
 7110TIP3    H221295   4.986   5.334   1.319
 7111TIP3   OH221296   2.581   4.276   2.629
 7111TIP3    H121297   2.652   4.339   2.619
 7111TIP3    H221298   2.501   4.330   2.630
 7112TIP3   OH221299   4.646   4.688   1.910
 7112TIP3    H121300   4.569   4.632   1.907
 7112TIP3    H221301   4.690   4.663   1.991
 7113TIP3   OH221302   1.163   2.242   0.796
 7113TIP3    H121303   1.068   2.249   0.781
 7113TIP3    H221304   1.174   2.255   0.890
 7114TIP3   OH221305   0.251   3.521   1.913
 7114TIP3    H121306   0.297   3.485   1.989
 7114TIP3    H221307   0.158   3.514   1.935
 7115TIP3   OH221308   0.694   0.184   1.934
 7115TIP3    H121309   0.623   0.144   1.883
 7115TIP3    H221310   0.762   0.202   1.869
 7116TIP3   OH221311   4.509   4.334   0.611
 7116TIP3    H121312   4.543   4.254   0.573
 7116TIP3    H221313   4.521   4.401   0.544
 7117TIP3   OH221314   5.817   3.393   3.351
 7117TIP3    H121315   5.868   3.381   3.431
 7117TIP3    H221316   5.729   3.364   3.374
 7118TIP3   OH221317   4.115   3.097   3.535
 7118TIP3    H121318   4.208   3.076   3.531
 7118TIP3    H221319   4.109   3.168   3.599
 7119TIP3   OH221320   2.163   2.680   0.608
 7119TIP3    H121321   2.192   2.717   0.691
 7119TIP3    H221322   2.086   2.731   0.585
 7120TIP3   OH221323   5.361   3.257   0.964
 7120TIP3    H121324   5.339   3.215   1.048
 7120TIP3    H221325   5.309   3.209   0.899
 7121TIP3   OH221326   5.268   1.159   5.876
 7121TIP3    H121327   5.313   1.227   5.826
 7121TIP3    H221328   5.285   1.079   5.826
 7122TIP3   OH221329   5.480   5.647   3.273
 7122TIP3    H121330   5.441   5.734   3.271
 7122TIP3    H221331   5.524   5.639   3.188
 7123TIP3   OH221332   3.094   3.275   2.615
 7123TIP3    H121333   3.160   3.321   2.564
 7123TIP3    H221334   3.057   3.342   2.673
 7124TIP3   OH221335   1.541   6.048   5.480
 7124TIP3    H121336   1.625   6.057   5.435
 7124TIP3    H221337   1.530   5.953   5.491
 7125TIP3   OH221338   2.479   4.088   0.100
 7125TIP3    H121339   2.442   4.172   0.073
 7125TIP3    H221340   2.444   4.025   0.038
 7126TIP3   OH221341   0.616   5.571   3.061
 7126TIP3    H121342   0.650   5.659   3.075
 7126TIP3    H221343   0.551   5.558   3.131
 7127TIP3   OH221344   0.193   5.438   0.127
 7127TIP3    H121345   0.103   5.469   0.136
 7127TIP3    H221346   0.206   5.381   0.203
 7128TIP3   OH221347   3.096   5.578   3.609
 7128TIP3    H121348   3.081   5.573   3.704
 7128TIP3    H221349   3.008   5.591   3.572
 7129TIP3   OH221350   3.189   2.086   1.999
 7129TIP3    H121351   3.280   2.073   2.028
 7129TIP3    H221352   3.175   2.181   2.006
 7130TIP3   OH221353   1.377   1.864   4.531
 7130TIP3    H121354   1.361   1.955   4.509
 7130TIP3    H221355   1.335   1.851   4.616
 7131TIP3   OH221356   4.383   3.104   3.442
 7131TIP3    H121357   4.434   3.161   3.500
 7131TIP3    H221358   4.365   3.157   3.365
 7132TIP3   OH221359   0.936   3.975   2.380
 7132TIP3    H121360   0.866   4.018   2.330
 7132TIP3    H221361   0.896   3.895   2.413
 7133TIP3   OH221362   6.994   2.409   4.922
 7133TIP3    H121363   7.067   2.359   4.886
 7133TIP3    H221364   6.972   2.473   4.854
 7134TIP3   OH221365   6.018   1.625   5.557
 7134TIP3    H121366   5.994   1.683   5.629
 7134TIP3    H221367   6.095   1.667   5.517
 7135TIP3   OH221368   2.883   3.574   3.338
 7135TIP3    H121369   2.866   3.630   3.262
 7135TIP3    H221370   2.834   3.493   3.319
 7136TIP3   OH221371   5.376   6.687   5.074
 7136TIP3    H121372   5.329   6.604   5.081
 7136TIP3    H221373   5.313   6.747   5.034
 7137TIP3   OH221374   1.643   3.426   4.604
 7137TIP3    H121375   1.564   3.452   4.652
 7137TIP3    H221376   1.709   3.411   4.672
 7138TIP3   OH221377   2.113   1.761   1.471
 7138TIP3    H121378   2.186   1.738   1.529
 7138TIP3    H221379   2.050   1.804   1.529
 7139TIP3   OH221380   7.145   1.096   5.299
 7139TIP3    H121381   7.241   1.101   5.301
 7139TIP3    H221382   7.120   1.156   5.229
 7140TIP3   OH221383   2.716   0.375   2.393
 7140TIP3    H121384   2.635   0.357   2.441
 7140TIP3    H221385   2.785   0.364   2.459
 7141TIP3   OH221386   1.069   4.472   5.053
 7141TIP3    H121387   1.147   4.527   5.053
 7141TIP3    H221388   1.003   4.525   5.007
 7142TIP3   OH221389   3.109   5.762   5.277
 7142TIP3    H121390   3.081   5.673   5.255
 7142TIP3    H221391   3.167   5.787   5.205
 7143TIP3   OH221392   7.043   4.543   2.991
 7143TIP3    H121393   7.063   4.472   3.051
 7143TIP3    H221394   7.099   4.527   2.915
 7144TIP3   OH221395   1.048   0.295   3.435
 7144TIP3    H121396   1.039   0.388   3.456
 7144TIP3    H221397   0.963   0.258   3.458
 7145TIP3   OH221398   4.689   0.170   1.727
 7145TIP3    H121399   4.721   0.251   1.686
 7145TIP3    H221400   4.760   0.108   1.717
 7146TIP3   OH221401   5.695   2.497   3.426
 7146TIP3    H121402   5.742   2.559   3.372
 7146TIP3    H221403   5.622   2.467   3.371
 7147TIP3   OH221404   6.262   2.109   4.110
 7147TIP3    H121405   6.259   2.076   4.200
 7147TIP3    H221406   6.342   2.071   4.074
 7148TIP3   OH221407   6.357   4.178   1.807
 7148TIP3    H121408   6.445   4.151   1.780
 7148TIP3    H221409   6.321   4.224   1.731
 7149TIP3   OH221410   0.197   6.459   0.802
 7149TIP3    H121411   0.243   6.524   0.750
 7149TIP3    H221412   0.230   6.472   0.891
 7150TIP3   OH221413   3.665   4.961   2.864
 7150TIP3    H121414   3.662   5.055   2.845
 7150TIP3    H221415   3.578   4.929   2.840
 7151TIP3   OH221416   0.819   6.639   2.672
 7151TIP3    H121417   0.871   6.707   2.628
 7151TIP3    H221418   0.868   6.617   2.751
 7152TIP3   OH221419   1.299   2.998   0.720
 7152TIP3    H121420   1.277   3.017   0.811
 7152TIP3    H221421   1.394   3.008   0.715
 7153TIP3   OH221422   5.414   0.625   0.558
 7153TIP3    H121423   5.470   0.569   0.612
 7153TIP3    H221424   5.405   0.578   0.476
 7154TIP3   OH221425   5.676   3.053   2.712
 7154TIP3    H121426   5.692   3.146   2.692
 7154TIP3    H221427   5.610   3.055   2.781
 7155TIP3   OH221428   7.004   0.881   0.414
 7155TIP3    H121429   7.005   0.819   0.341
 7155TIP3    H221430   6.924   0.932   0.402
 7156TIP3   OH221431   2.480   5.518   1.469
 7156TIP3    H121432   2.433   5.470   1.538
 7156TIP3    H221433   2.537   5.453   1.429
 7157TIP3   OH221434   0.744   2.224   0.161
 7157TIP3    H121435   0.714   2.135   0.181
 7157TIP3    H221436   0.724   2.235   0.067
 7158TIP3   OH221437   4.671   4.898   0.646
 7158TIP3    H121438   4.682   4.904   0.741
 7158TIP3    H221439   4.692   4.985   0.613
 7159TIP3   OH221440   2.724   0.713   1.532
 7159TIP3    H121441   2.759   0.627   1.509
 7159TIP3    H221442   2.689   0.747   1.450
 7160TIP3   OH221443   6.117   3.352   2.244
 7160TIP3    H121444   6.033   3.374   2.285
 7160TIP3    H221445   6.162   3.299   2.309
 7161TIP3   OH221446   3.127   5.744   2.944
 7161TIP3    H121447   3.200   5.782   2.893
 7161TIP3    H221448   3.166   5.719   3.027
 7162TIP3   OH221449   4.874   6.266   0.863
 7162TIP3    H121450   4.958   6.271   0.819
 7162TIP3    H221451   4.875   6.182   0.909
 7163TIP3   OH221452   0.417   1.293   3.982
 7163TIP3    H121453   0.505   1.267   3.957
 7163TIP3    H221454   0.421   1.306   4.077
 7164TIP3   OH221455   3.833   0.569   5.025
 7164TIP3    H121456   3.789   0.608   5.100
 7164TIP3    H221457   3.820   0.475   5.035
 7165TIP3   OH221458   4.575   5.364   4.137
 7165TIP3    H121459   4.531   5.293   4.183
 7165TIP3    H221460   4.577   5.336   4.045
 7166TIP3   OH221461   2.482   5.327   1.053
 7166TIP3    H121462   2.518   5.238   1.049
 7166TIP3    H221463   2.395   5.316   1.091
 7167TIP3   OH221464   5.523   4.200   1.661
 7167TIP3    H121465   5.531   4.171   1.570
 7167TIP3    H221466   5.457   4.142   1.699
 7168TIP3   OH221467   3.370   4.874   0.213
 7168TIP3    H121468   3.367   4.968   0.231
 7168TIP3    H221469   3.449   4.863   0.160
 7169TIP3   OH221470   6.187   2.076   4.374
 7169TIP3    H121471   6.217   2.109   4.459
 7169TIP3    H221472   6.175   1.982   4.388
 7170TIP3   OH221473   1.073   2.215   2.183
 7170TIP3    H121474   1.077   2.127   2.144
 7170TIP3    H221475   0.986   2.219   2.222
 7171TIP3   OH221476   0.165   1.372   2.096
 7171TIP3    H121477   0.238   1.380   2.158
 7171TIP3    H221478   0.206   1.359   2.011
 7172TIP3   OH221479   5.689   3.735   3.314
 7172TIP3    H121480   5.725   3.793   3.381
 7172TIP3    H221481   5.630   3.677   3.362
 7173TIP3   OH221482   6.190   0.558   5.383
 7173TIP3    H121483   6.154   0.470   5.397
 7173TIP3    H221484   6.267   0.561   5.440
 7174TIP3   OH221485   5.099   5.368   3.149
 7174TIP3    H121486   5.026   5.322   3.192
 7174TIP3    H221487   5.067   5.458   3.140
 7175TIP3   OH221488   5.708   1.912   4.154
 7175TIP3    H121489   5.716   1.913   4.058
 7175TIP3    H221490   5.798   1.902   4.185
 7176TIP3   OH221491   1.680   3.595   2.826
 7176TIP3    H121492   1.714   3.529   2.887
 7176TIP3    H221493   1.640   3.661   2.883
 7177TIP3   OH221494   6.538   0.799   4.919
 7177TIP3    H121495   6.531   0.890   4.889
 7177TIP3    H221496   6.466   0.754   4.875
 7178TIP3   OH221497   2.017   6.433   1.351
 7178TIP3    H121498   1.995   6.366   1.286
 7178TIP3    H221499   2.075   6.387   1.413
 7179TIP3   OH221500   4.964   5.513   2.258
 7179TIP3    H121501   5.014   5.431   2.265
 7179TIP3    H221502   4.984   5.561   2.338
 7180TIP3   OH221503   2.301   3.499   2.035
 7180TIP3    H121504   2.359   3.431   2.000
 7180TIP3    H221505   2.316   3.497   2.130
 7181TIP3   OH221506   1.587   0.606   3.064
 7181TIP3    H121507   1.538   0.639   3.139
 7181TIP3    H221508   1.551   0.654   2.989
 7182TIP3   OH221509   2.567   5.344   3.230
 7182TIP3    H121510   2.635   5.404   3.201
 7182TIP3    H221511   2.546   5.372   3.319
 7183TIP3   OH221512   0.179   2.765   1.667
 7183TIP3    H121513   0.238   2.823   1.619
 7183TIP3    H221514   0.228   2.742   1.747
 7184TIP3   OH221515   1.716  -0.085   0.283
 7184TIP3    H121516   1.767  -0.064   0.361
 7184TIP3    H221517   1.681  -0.001   0.253
 7185TIP3   OH221518   5.429   6.697   3.907
 7185TIP3    H121519   5.493   6.659   3.967
 7185TIP3    H221520   5.478   6.710   3.826
 7186TIP3   OH221521   4.407   1.096   4.443
 7186TIP3    H121522   4.390   1.060   4.356
 7186TIP3    H221523   4.353   1.042   4.502
 7187TIP3   OH221524   2.272   4.553   4.298
 7187TIP3    H121525   2.364   4.534   4.318
 7187TIP3    H221526   2.228   4.469   4.310
 7188TIP3   OH221527   1.185   3.265   3.580
 7188TIP3    H121528   1.229   3.181   3.587
 7188TIP3    H221529   1.225   3.307   3.504
 7189TIP3   OH221530   5.346   3.829   3.441
 7189TIP3    H121531   5.259   3.791   3.429
 7189TIP3    H221532   5.405   3.754   3.430
 7190TIP3   OH221533   5.095   3.346   0.898
 7190TIP3    H121534   5.152   3.295   0.841
 7190TIP3    H221535   5.148   3.367   0.975
 7191TIP3   OH221536   2.121   1.877   4.611
 7191TIP3    H121537   2.197   1.821   4.630
 7191TIP3    H221538   2.087   1.900   4.697
 7192TIP3   OH221539   2.421   2.309   1.125
 7192TIP3    H121540   2.432   2.356   1.042
 7192TIP3    H221541   2.499   2.332   1.176
 7193TIP3   OH221542   1.774   4.966   0.803
 7193TIP3    H121543   1.681   4.979   0.821
 7193TIP3    H221544   1.816   4.973   0.889
 7194TIP3   OH221545   6.606   4.034   3.697
 7194TIP3    H121546   6.589   4.059   3.788
 7194TIP3    H221547   6.608   3.939   3.698
 7195TIP3   OH221548   2.351   4.172   4.587
 7195TIP3    H121549   2.422   4.223   4.547
 7195TIP3    H221550   2.279   4.235   4.597
 7196TIP3   OH221551   4.983   6.717   5.610
 7196TIP3    H121552   5.000   6.742   5.520
 7196TIP3    H221553   5.065   6.734   5.656
 7197TIP3   OH221554   7.155   6.291   1.414
 7197TIP3    H121555   7.155   6.369   1.470
 7197TIP3    H221556   7.062   6.275   1.395
 7198TIP3   OH221557   2.406   1.670   4.585
 7198TIP3    H121558   2.371   1.581   4.577
 7198TIP3    H221559   2.462   1.667   4.662
 7199TIP3   OH221560   5.098   2.403   5.178
 7199TIP3    H121561   5.164   2.401   5.108
 7199TIP3    H221562   5.016   2.420   5.133
 7200TIP3   OH221563   5.838   6.126   0.185
 7200TIP3    H121564   5.862   6.213   0.215
 7200TIP3    H221565   5.907   6.068   0.219
 7201TIP3   OH221566   3.431   1.173   4.014
 7201TIP3    H121567   3.390   1.252   3.979
 7201TIP3    H221568   3.358   1.112   4.027
 7202TIP3   OH221569   2.305   0.378   0.658
 7202TIP3    H121570   2.271   0.352   0.572
 7202TIP3    H221571   2.248   0.450   0.685
 7203TIP3   OH221572   1.887   3.001   0.367
 7203TIP3    H121573   1.981   2.991   0.351
 7203TIP3    H221574   1.847   2.994   0.280
 7204TIP3   OH221575   2.010   5.778   3.122
 7204TIP3    H121576   2.008   5.684   3.141
 7204TIP3    H221577   1.918   5.802   3.110
 7205TIP3   OH221578   1.547   5.745   3.360
 7205TIP3    H121579   1.576   5.737   3.451
 7205TIP3    H221580   1.485   5.673   3.347
 7206TIP3   OH221581   6.593   3.605   5.360
 7206TIP3    H121582   6.613   3.553   5.438
 7206TIP3    H221583   6.499   3.621   5.366
 7207TIP3   OH221584   3.690   4.815   1.856
 7207TIP3    H121585   3.714   4.797   1.765
 7207TIP3    H221586   3.699   4.731   1.900
 7208TIP3   OH221587   1.610   4.204   5.715
 7208TIP3    H121588   1.528   4.206   5.763
 7208TIP3    H221589   1.629   4.111   5.701
 7209TIP3   OH221590   6.358   5.095   2.347
 7209TIP3    H121591   6.364   5.000   2.357
 7209TIP3    H221592   6.445   5.127   2.373
 7210TIP3   OH221593   0.693   0.947   1.183
 7210TIP3    H121594   0.712   1.036   1.214
 7210TIP3    H221595   0.713   0.950   1.090
 7211TIP3   OH221596   1.638   4.348   3.706
 7211TIP3    H121597   1.586   4.312   3.778
 7211TIP3    H221598   1.718   4.382   3.747
 7212TIP3   OH221599   0.718   5.693   5.760
 7212TIP3    H121600   0.669   5.673   5.839
 7212TIP3    H221601   0.809   5.675   5.782
 7213TIP3   OH221602   4.100   0.379   3.535
 7213TIP3    H121603   4.151   0.432   3.473
 7213TIP3    H221604   4.021   0.430   3.550
 7214TIP3   OH221605   0.627   1.946   1.145
 7214TIP3    H121606   0.700   1.950   1.207
 7214TIP3    H221607   0.640   1.864   1.098
 7215TIP3   OH221608   1.596   0.031   4.027
 7215TIP3    H121609   1.594   0.109   4.083
 7215TIP3    H221610   1.520   0.042   3.969
 7216TIP3   OH221611   1.183   2.607   1.835
 7216TIP3    H121612   1.093   2.619   1.864
 7216TIP3    H221613   1.220   2.695   1.833
 7217TIP3   OH221614   0.636   4.616   5.197
 7217TIP3    H121615   0.562   4.645   5.251
 7217TIP3    H221616   0.634   4.521   5.203
 7218TIP3   OH221617   2.771   4.002   1.995
 7218TIP3    H121618   2.841   4.042   2.046
 7218TIP3    H221619   2.806   3.916   1.970
 7219TIP3   OH221620   5.707   5.495   4.388
 7219TIP3    H121621   5.671   5.583   4.400
 7219TIP3    H221622   5.688   5.449   4.469
 7220TIP3   OH221623   0.134   2.997   4.584
 7220TIP3    H121624   0.076   2.942   4.530
 7220TIP3    H221625   0.214   3.005   4.532
 7221TIP3   OH221626   1.001   3.684   4.048
 7221TIP3    H121627   1.081   3.651   4.007
 7221TIP3    H221628   0.938   3.614   4.036
 7222TIP3   OH221629   4.418   0.491   5.104
 7222TIP3    H121630   4.504   0.449   5.098
 7222TIP3    H221631   4.414   0.524   5.194
 7223TIP3   OH221632   6.932   5.109   3.512
 7223TIP3    H121633   6.923   5.070   3.425
 7223TIP3    H221634   6.889   5.047   3.570
 7224TIP3   OH221635   1.505   2.762   2.579
 7224TIP3    H121636   1.527   2.677   2.616
 7224TIP3    H221637   1.520   2.752   2.485
 7225TIP3   OH221638   1.585   2.007   2.596
 7225TIP3    H121639   1.566   2.017   2.689
 7225TIP3    H221640   1.651   1.938   2.592
 7226TIP3   OH221641   4.322   4.142   3.069
 7226TIP3    H121642   4.262   4.157   3.142
 7226TIP3    H221643   4.344   4.229   3.038
 7227TIP3   OH221644   0.825   4.583   3.929
 7227TIP3    H121645   0.753   4.522   3.947
 7227TIP3    H221646   0.830   4.639   4.006
 7228TIP3   OH221647   0.893   4.257   3.145
 7228TIP3    H121648   0.862   4.216   3.226
 7228TIP3    H221649   0.986   4.235   3.141
 7229TIP3   OH221650   0.814   1.914   4.431
 7229TIP3    H121651   0.817   1.857   4.354
 7229TIP3    H221652   0.797   1.855   4.504
 7230TIP3   OH221653   5.556   1.710   1.117
 7230TIP3    H121654   5.587   1.752   1.036
 7230TIP3    H221655   5.527   1.783   1.172
 7231TIP3   OH221656   4.337   2.025   5.010
 7231TIP3    H121657   4.412   2.069   5.050
 7231TIP3    H221658   4.368   1.936   4.992
 7232TIP3   OH221659   6.719   6.293   5.687
 7232TIP3    H121660   6.652   6.337   5.635
 7232TIP3    H221661   6.704   6.324   5.776
 7233TIP3   OH221662   5.290   1.830   4.189
 7233TIP3    H121663   5.352   1.762   4.163
 7233TIP3    H221664   5.279   1.817   4.284
 7234TIP3   OH221665   2.975   6.811   0.512
 7234TIP3    H121666   3.014   6.897   0.528
 7234TIP3    H221667   3.009   6.784   0.426
 7235TIP3   OH221668   5.751   3.527   4.733
 7235TIP3    H121669   5.816   3.577   4.684
 7235TIP3    H221670   5.675   3.524   4.675
 7236TIP3   OH221671   3.037   3.488   2.778
 7236TIP3    H121672   2.952   3.528   2.793
 7236TIP3    H221673   3.098   3.561   2.769
 7237TIP3   OH221674   1.315   3.558   1.368
 7237TIP3    H121675   1.396   3.582   1.414
 7237TIP3    H221676   1.302   3.628   1.304
 7238TIP3   OH221677   5.370   3.561   0.403
 7238TIP3    H121678   5.368   3.614   0.483
 7238TIP3    H221679   5.443   3.597   0.352
 7239TIP3   OH221680   6.536   4.811   2.228
 7239TIP3    H121681   6.483   4.748   2.180
 7239TIP3    H221682   6.599   4.844   2.164
 7240TIP3   OH221683   2.815   1.160   2.135
 7240TIP3    H121684   2.817   1.226   2.204
 7240TIP3    H221685   2.906   1.150   2.109
 7241TIP3   OH221686   1.220   1.290   1.583
 7241TIP3    H121687   1.127   1.286   1.564
 7241TIP3    H221688   1.263   1.266   1.500
 7242TIP3   OH221689   4.181   3.052   3.948
 7242TIP3    H121690   4.100   3.099   3.931
 7242TIP3    H221691   4.250   3.118   3.938
 7243TIP3   OH221692   5.407   2.503   1.955
 7243TIP3    H121693   5.356   2.567   2.005
 7243TIP3    H221694   5.375   2.418   1.985
 7244TIP3   OH221695   0.507   2.018   0.912
 7244TIP3    H121696   0.558   2.004   0.992
 7244TIP3    H221697   0.553   1.969   0.844
 7245TIP3   OH221698   4.187   6.692   0.831
 7245TIP3    H121699   4.128   6.620   0.853
 7245TIP3    H221700   4.138   6.771   0.855
 7246TIP3   OH221701   4.717   6.501   0.549
 7246TIP3    H121702   4.631   6.511   0.590
 7246TIP3    H221703   4.705   6.429   0.487
 7247TIP3   OH221704   0.700   5.664   1.970
 7247TIP3    H121705   0.647   5.634   2.043
 7247TIP3    H221706   0.660   5.747   1.943
 7248TIP3   OH221707   1.732   3.167   2.742
 7248TIP3    H121708   1.671   3.117   2.795
 7248TIP3    H221709   1.809   3.111   2.734
 7249TIP3   OH221710   4.548   3.997   4.499
 7249TIP3    H121711   4.525   3.950   4.579
 7249TIP3    H221712   4.530   3.935   4.429
 7250TIP3   OH221713   2.800   1.651   0.485
 7250TIP3    H121714   2.881   1.700   0.468
 7250TIP3    H221715   2.815   1.565   0.445
 7251TIP3   OH221716   0.878   0.797   3.714
 7251TIP3    H121717   0.906   0.824   3.626
 7251TIP3    H221718   0.950   0.744   3.747
 7252TIP3   OH221719   1.679   6.145   5.074
 7252TIP3    H121720   1.640   6.065   5.108
 7252TIP3    H221721   1.773   6.128   5.073
 7253TIP3   OH221722   0.991   5.626   5.709
 7253TIP3    H121723   1.051   5.562   5.671
 7253TIP3    H221724   0.951   5.669   5.633
 7254TIP3   OH221725   0.478   4.470   1.600
 7254TIP3    H121726   0.570   4.467   1.574
 7254TIP3    H221727   0.432   4.500   1.522
 7255TIP3   OH221728   7.186   0.812   4.591
 7255TIP3    H121729   7.258   0.760   4.554
 7255TIP3    H221730   7.107   0.771   4.558
 7256TIP3   OH221731   0.724   2.821   5.285
 7256TIP3    H121732   0.772   2.817   5.367
 7256TIP3    H221733   0.654   2.884   5.301
 7257TIP3   OH221734   0.811   6.143   3.638
 7257TIP3    H121735   0.842   6.223   3.596
 7257TIP3    H221736   0.885   6.083   3.636
 7258TIP3   OH221737   5.533   3.811   4.235
 7258TIP3    H121738   5.483   3.772   4.307
 7258TIP3    H221739   5.473   3.875   4.196
 7259TIP3   OH221740   1.284   3.116   1.048
 7259TIP3    H121741   1.262   3.209   1.038
 7259TIP3    H221742   1.225   3.085   1.116
 7260TIP3   OH221743   4.494   3.290   3.190
 7260TIP3    H121744   4.571   3.238   3.165
 7260TIP3    H221745   4.524   3.381   3.185
 7261TIP3   OH221746   3.697   6.507   3.683
 7261TIP3    H121747   3.682   6.413   3.669
 7261TIP3    H221748   3.743   6.511   3.767
 7262TIP3   OH221749   1.746   5.708   1.961
 7262TIP3    H121750   1.675   5.680   2.019
 7262TIP3    H221751   1.753   5.802   1.976
 7263TIP3   OH221752   1.766   6.451   3.270
 7263TIP3    H121753   1.797   6.541   3.259
 7263TIP3    H221754   1.677   6.461   3.305
 7264TIP3   OH221755   2.003   5.162   5.135
 7264TIP3    H121756   1.982   5.070   5.150
 7264TIP3    H221757   1.932   5.194   5.079
 7265TIP3   OH221758   6.362   0.772   2.086
 7265TIP3    H121759   6.451   0.807   2.092
 7265TIP3    H221760   6.319   0.800   2.167
 7266TIP3   OH221761   5.670   5.002   2.553
 7266TIP3    H121762   5.675   4.973   2.644
 7266TIP3    H221763   5.752   5.048   2.538
 7267TIP3   OH221764   2.750   6.562   0.942
 7267TIP3    H121765   2.788   6.530   1.023
 7267TIP3    H221766   2.803   6.638   0.919
 7268TIP3   OH221767   3.148   2.676   4.159
 7268TIP3    H121768   3.078   2.736   4.185
 7268TIP3    H221769   3.137   2.600   4.216
 7269TIP3   OH221770   5.659   1.870   0.902
 7269TIP3    H121771   5.695   1.958   0.908
 7269TIP3    H221772   5.612   1.869   0.819
 7270TIP3   OH221773   4.235   3.528   2.137
 7270TIP3    H121774   4.228   3.577   2.219
 7270TIP3    H221775   4.156   3.475   2.134
 7271TIP3   OH221776   6.019   3.681   5.759
 7271TIP3    H121777   5.960   3.632   5.816
 7271TIP3    H221778   6.086   3.716   5.817
 7272TIP3   OH221779   3.379   2.909   3.639
 7272TIP3    H121780   3.461   2.954   3.656
 7272TIP3    H221781   3.312   2.965   3.678
 7273TIP3   OH221782   6.797   5.557   1.413
 7273TIP3    H121783   6.738   5.568   1.487
 7273TIP3    H221784   6.752   5.596   1.339
 7274TIP3   OH221785   2.574   5.491   4.574
 7274TIP3    H121786   2.527   5.487   4.657
 7274TIP3    H221787   2.576   5.400   4.544
 7275TIP3   OH221788   6.267   3.275   3.682
 7275TIP3    H121789   6.195   3.262   3.743
 7275TIP3    H221790   6.291   3.367   3.692
 7276TIP3   OH221791   4.083   6.691   4.985
 7276TIP3    H121792   4.065   6.648   5.069
 7276TIP3    H221793   4.095   6.618   4.923
 7277TIP3   OH221794   5.318   0.441   4.372
 7277TIP3    H121795   5.387   0.451   4.306
 7277TIP3    H221796   5.330   0.516   4.430
 7278TIP3   OH221797   6.422   1.125   0.298
 7278TIP3    H121798   6.352   1.072   0.258
 7278TIP3    H221799   6.474   1.155   0.224
 7279TIP3   OH221800   6.311   1.671   2.761
 7279TIP3    H121801   6.352   1.734   2.820
 7279TIP3    H221802   6.384   1.637   2.708
 7280TIP3   OH221803   2.615   5.561   4.954
 7280TIP3    H121804   2.608   5.652   4.926
 7280TIP3    H221805   2.526   5.527   4.948
 7281TIP3   OH221806   2.906   1.910   4.309
 7281TIP3    H121807   2.928   1.827   4.266
 7281TIP3    H221808   2.909   1.975   4.238
 7282TIP3   OH221809   4.748   0.443   1.566
 7282TIP3    H121810   4.790   0.518   1.523
 7282TIP3    H221811   4.678   0.482   1.619
 7283TIP3   OH221812   5.299   6.768   1.382
 7283TIP3    H121813   5.373   6.786   1.441
 7283TIP3    H221814   5.223   6.761   1.440
 7284TIP3   OH221815   2.824   4.023   2.308
 7284TIP3    H121816   2.810   4.068   2.391
 7284TIP3    H221817   2.761   3.950   2.309
 7285TIP3   OH221818   5.907   3.129   1.281
 7285TIP3    H121819   5.999   3.106   1.272
 7285TIP3    H221820   5.863   3.081   1.211
 7286TIP3   OH221821   0.479   0.594   0.797
 7286TIP3    H121822   0.411   0.575   0.862
 7286TIP3    H221823   0.511   0.508   0.769
 7287TIP3   OH221824   6.274   4.536   2.148
 7287TIP3    H121825   6.276   4.561   2.240
 7287TIP3    H221826   6.243   4.446   2.147
 7288TIP3   OH221827   5.597   1.544   2.332
 7288TIP3    H121828   5.576   1.536   2.425
 7288TIP3    H221829   5.692   1.549   2.328
 7289TIP3   OH221830   3.596   0.927   0.046
 7289TIP3    H121831   3.623   0.934   0.137
 7289TIP3    H221832   3.653   0.858   0.010
 7290TIP3   OH221833   5.203   3.177   4.735
 7290TIP3    H121834   5.137   3.134   4.680
 7290TIP3    H221835   5.281   3.122   4.726
 7291TIP3   OH221836   2.397   6.752   1.958
 7291TIP3    H121837   2.420   6.780   1.870
 7291TIP3    H221838   2.315   6.704   1.949
 7292TIP3   OH221839   2.868   1.624   1.404
 7292TIP3    H121840   2.909   1.561   1.345
 7292TIP3    H221841   2.874   1.584   1.490
 7293TIP3   OH221842   2.470   0.480   3.772
 7293TIP3    H121843   2.532   0.540   3.730
 7293TIP3    H221844   2.393   0.482   3.715
 7294TIP3   OH221845   4.742   3.700   0.612
 7294TIP3    H121846   4.648   3.717   0.619
 7294TIP3    H221847   4.757   3.626   0.672
 7295TIP3   OH221848   5.702   3.950   3.091
 7295TIP3    H121849   5.755   3.940   3.170
 7295TIP3    H221850   5.624   3.997   3.120
 7296TIP3   OH221851   6.766   4.501   5.803
 7296TIP3    H121852   6.834   4.434   5.796
 7296TIP3    H221853   6.750   4.528   5.712
 7297TIP3   OH221854   6.375   2.415   2.301
 7297TIP3    H121855   6.429   2.479   2.256
 7297TIP3    H221856   6.288   2.456   2.306
 7298TIP3   OH221857   4.137   5.885   0.066
 7298TIP3    H121858   4.155   5.882  -0.028
 7298TIP3    H221859   4.221   5.865   0.107
 7299TIP3   OH221860   1.801   6.270   4.554
 7299TIP3    H121861   1.831   6.309   4.636
 7299TIP3    H221862   1.749   6.338   4.512
 7300TIP3   OH221863   0.362   0.107   1.718
 7300TIP3    H121864   0.350   0.028   1.665
 7300TIP3    H221865   0.372   0.075   1.807
 7301TIP3   OH221866   5.740   1.550   1.533
 7301TIP3    H121867   5.659   1.557   1.583
 7301TIP3    H221868   5.725   1.605   1.455
 7302TIP3   OH221869   5.972   0.350   0.629
 7302TIP3    H121870   6.027   0.378   0.703
 7302TIP3    H221871   6.007   0.265   0.605
 7303TIP3   OH221872   2.054   6.622   5.111
 7303TIP3    H121873   1.979   6.679   5.132
 7303TIP3    H221874   2.117   6.680   5.069
 7304TIP3   OH221875   3.054   1.389   1.736
 7304TIP3    H121876   3.126   1.327   1.746
 7304TIP3    H221877   3.072   1.457   1.801
 7305TIP3   OH221878   5.234   5.151   3.390
 7305TIP3    H121879   5.289   5.076   3.369
 7305TIP3    H221880   5.152   5.135   3.345
 7306TIP3   OH221881   1.160   2.394   0.261
 7306TIP3    H121882   1.069   2.423   0.253
 7306TIP3    H221883   1.156   2.314   0.313
 7307TIP3   OH221884   6.504   1.170   2.922
 7307TIP3    H121885   6.438   1.206   2.863
 7307TIP3    H221886   6.486   1.076   2.923
 7308TIP3   OH221887   6.005   5.399   1.188
 7308TIP3    H121888   5.938   5.407   1.120
 7308TIP3    H221889   6.020   5.305   1.197
 7309TIP3   OH221890   4.904   4.925   2.769
 7309TIP3    H121891   4.950   4.903   2.688
 7309TIP3    H221892   4.823   4.967   2.739
 7310TIP3   OH221893   0.916   5.763   2.820
 7310TIP3    H121894   0.914   5.857   2.837
 7310TIP3    H221895   1.001   5.748   2.779
 7311TIP3   OH221896   2.038   3.650   0.060
 7311TIP3    H121897   2.095   3.626   0.133
 7311TIP3    H221898   2.049   3.578  -0.003
 7312TIP3   OH221899   1.388   3.878   4.429
 7312TIP3    H121900   1.345   3.803   4.387
 7312TIP3    H221901   1.388   3.946   4.362
 7313TIP3   OH221902   2.364   3.981   0.374
 7313TIP3    H121903   2.374   3.963   0.281
 7313TIP3    H221904   2.281   3.939   0.398
 7314TIP3   OH221905   4.153   6.186   0.174
 7314TIP3    H121906   4.075   6.170   0.228
 7314TIP3    H221907   4.204   6.105   0.181
 7315TIP3   OH221908   5.891   2.247   5.528
 7315TIP3    H121909   5.841   2.327   5.512
 7315TIP3    H221910   5.835   2.194   5.584
 7316TIP3   OH221911   6.500   6.372   2.512
 7316TIP3    H121912   6.451   6.385   2.593
 7316TIP3    H221913   6.437   6.392   2.443
 7317TIP3   OH221914   5.347   4.612   1.693
 7317TIP3    H121915   5.319   4.616   1.784
 7317TIP3    H221916   5.266   4.622   1.643
 7318TIP3   OH221917   2.880   1.823   0.034
 7318TIP3    H121918   2.891   1.889   0.102
 7318TIP3    H221919   2.944   1.756   0.055
 7319TIP3   OH221920   2.001   2.084   5.789
 7319TIP3    H121921   2.096   2.086   5.772
 7319TIP3    H221922   1.987   2.002   5.836
 7320TIP3   OH221923   6.213   3.021   4.572
 7320TIP3    H121924   6.257   3.022   4.487
 7320TIP3    H221925   6.283   3.032   4.636
 7321TIP3   OH221926   1.788   4.229   4.384
 7321TIP3    H121927   1.794   4.138   4.356
 7321TIP3    H221928   1.864   4.271   4.344
 7322TIP3   OH221929   1.415   1.646   3.977
 7322TIP3    H121930   1.497   1.674   3.935
 7322TIP3    H221931   1.378   1.727   4.013
 7323TIP3   OH221932   4.762   1.665   0.763
 7323TIP3    H121933   4.695   1.599   0.745
 7323TIP3    H221934   4.819   1.663   0.686
 7324TIP3   OH221935   4.854   5.442   2.878
 7324TIP3    H121936   4.903   5.524   2.885
 7324TIP3    H221937   4.833   5.435   2.785
 7325TIP3   OH221938   1.893   4.068   2.390
 7325TIP3    H121939   1.837   4.017   2.331
 7325TIP3    H221940   1.978   4.069   2.346
 7326TIP3   OH221941   4.368   2.925   4.602
 7326TIP3    H121942   4.371   2.977   4.522
 7326TIP3    H221943   4.316   2.848   4.580
 7327TIP3   OH221944   1.432   4.869   2.078
 7327TIP3    H121945   1.380   4.791   2.062
 7327TIP3    H221946   1.481   4.850   2.158
 7328TIP3   OH221947   2.499   3.411   0.248
 7328TIP3    H121948   2.539   3.498   0.251
 7328TIP3    H221949   2.551   3.362   0.185
 7329TIP3   OH221950   3.666  -0.053   2.433
 7329TIP3    H121951   3.666  -0.002   2.352
 7329TIP3    H221952   3.702   0.006   2.499
 7330TIP3   OH221953   0.115   3.572   0.810
 7330TIP3    H121954   0.106   3.479   0.831
 7330TIP3    H221955   0.032   3.597   0.771
 7331TIP3   OH221956   0.478   5.030   2.739
 7331TIP3    H121957   0.561   4.991   2.766
 7331TIP3    H221958   0.421   5.020   2.816
 7332TIP3   OH221959   1.235   2.487   1.293
 7332TIP3    H121960   1.276   2.449   1.371
 7332TIP3    H221961   1.232   2.581   1.310
 7333TIP3   OH221962   3.114   5.814   5.540
 7333TIP3    H121963   3.100   5.722   5.561
 7333TIP3    H221964   3.112   5.817   5.444
 7334TIP3   OH221965   4.178   0.995   3.197
 7334TIP3    H121966   4.257   1.035   3.162
 7334TIP3    H221967   4.107   1.035   3.147
 7335TIP3   OH221968   4.764   5.729   0.584
 7335TIP3    H121969   4.749   5.656   0.523
 7335TIP3    H221970   4.731   5.696   0.668
 7336TIP3   OH221971   4.896   1.452   2.337
 7336TIP3    H121972   4.962   1.385   2.318
 7336TIP3    H221973   4.833   1.444   2.265
 7337TIP3   OH221974   3.710   5.235   2.816
 7337TIP3    H121975   3.722   5.326   2.844
 7337TIP3    H221976   3.715   5.239   2.721
 7338TIP3   OH221977   4.508   0.540   1.948
 7338TIP3    H121978   4.577   0.586   1.996
 7338TIP3    H221979   4.531   0.447   1.956
 7339TIP3   OH221980   3.161   0.299   4.203
 7339TIP3    H121981   3.164   0.255   4.118
 7339TIP3    H221982   3.246   0.344   4.209
 7340TIP3   OH221983   1.251   4.666   5.028
 7340TIP3    H121984   1.265   4.618   4.946
 7340TIP3    H221985   1.298   4.749   5.015
 7341TIP3   OH221986   3.191   3.736   2.772
 7341TIP3    H121987   3.270   3.688   2.748
 7341TIP3    H221988   3.218   3.790   2.846
 7342TIP3   OH221989   1.589   4.167   4.826
 7342TIP3    H121990   1.606   4.244   4.772
 7342TIP3    H221991   1.606   4.093   4.769
 7343TIP3   OH221992   6.200   4.809   2.947
 7343TIP3    H121993   6.211   4.759   2.866
 7343TIP3    H221994   6.161   4.746   3.008
 7344TIP3   OH221995   1.872   5.172   5.511
 7344TIP3    H121996   1.841   5.105   5.572
 7344TIP3    H221997   1.800   5.235   5.506
 7345TIP3   OH221998   0.437   2.314   0.883
 7345TIP3    H121999   0.438   2.275   0.796
 7345TIP3    H222000   0.454   2.240   0.942
 7346TIP3   OH222001   0.927   0.972   0.623
 7346TIP3    H122002   0.950   0.976   0.531
 7346TIP3    H222003   0.990   1.028   0.667
 7347TIP3   OH222004   7.135   0.454   3.855
 7347TIP3    H122005   7.217   0.437   3.809
 7347TIP3    H222006   7.069   0.405   3.806
 7348TIP3   OH222007   5.079   4.051   3.932
 7348TIP3    H122008   5.136   3.985   3.972
 7348TIP3    H222009   5.015   4.072   4.000
 7349TIP3   OH222010   0.795   6.611   2.186
 7349TIP3    H122011   0.827   6.549   2.251
 7349TIP3    H222012   0.708   6.578   2.163
 7350TIP3   OH222013   7.054   2.561   0.759
 7350TIP3    H122014   7.034   2.611   0.838
 7350TIP3    H222015   7.149   2.549   0.761
 7351TIP3   OH222016   0.260   4.423   3.626
 7351TIP3    H122017   0.294   4.469   3.550
 7351TIP3    H222018   0.336   4.376   3.661
 7352TIP3   OH222019   5.385   1.036   4.278
 7352TIP3    H122020   5.364   0.979   4.204
 7352TIP3    H222021   5.382   0.978   4.355
 7353TIP3   OH222022   3.279   2.383   0.262
 7353TIP3    H122023   3.369   2.414   0.274
 7353TIP3    H222024   3.226   2.445   0.312
 7354TIP3   OH222025   1.917   4.879   5.293
 7354TIP3    H122026   1.845   4.937   5.267
 7354TIP3    H222027   1.881   4.790   5.283
 7355TIP3   OH222028   5.148   0.374   5.562
 7355TIP3    H122029   5.219   0.346   5.620
 7355TIP3    H222030   5.161   0.324   5.482
 7356TIP3   OH222031   2.590   2.911   3.034
 7356TIP3    H122032   2.569   2.835   2.980
 7356TIP3    H222033   2.505   2.950   3.055
 7357TIP3   OH222034   5.351   2.957   2.456
 7357TIP3    H122035   5.282   3.024   2.454
 7357TIP3    H222036   5.370   2.945   2.549
 7358TIP3   OH222037   1.098   4.584   4.094
 7358TIP3    H122038   1.039   4.575   4.019
 7358TIP3    H222039   1.102   4.496   4.132
 7359TIP3   OH222040   1.571   5.737   4.948
 7359TIP3    H122041   1.576   5.786   5.030
 7359TIP3    H222042   1.649   5.765   4.899
 7360TIP3   OH222043   0.192   0.376   3.455
 7360TIP3    H122044   0.186   0.462   3.415
 7360TIP3    H222045   0.232   0.321   3.388
 7361TIP3   OH222046   0.313   4.260   4.889
 7361TIP3    H122047   0.348   4.213   4.965
 7361TIP3    H222048   0.345   4.349   4.899
 7362TIP3   OH222049   0.640   5.573   4.711
 7362TIP3    H122050   0.618   5.570   4.803
 7362TIP3    H222051   0.671   5.663   4.697
 7363TIP3   OH222052   3.269   2.349   0.590
 7363TIP3    H122053   3.348   2.297   0.601
 7363TIP3    H222054   3.247   2.338   0.497
 7364TIP3   OH222055   4.316   0.912   3.915
 7364TIP3    H122056   4.251   0.843   3.901
 7364TIP3    H222057   4.274   0.992   3.882
 7365TIP3   OH222058   1.758   1.308   0.612
 7365TIP3    H122059   1.833   1.248   0.616
 7365TIP3    H222060   1.774   1.361   0.533
 7366TIP3   OH222061   1.402   2.046   3.039
 7366TIP3    H122062   1.424   1.978   3.102
 7366TIP3    H222063   1.399   2.001   2.955
 7367TIP3   OH222064   6.855   2.832   3.954
 7367TIP3    H122065   6.783   2.770   3.952
 7367TIP3    H222066   6.815   2.915   3.979
 7368TIP3   OH222067   3.183   0.096   1.849
 7368TIP3    H122068   3.096   0.064   1.824
 7368TIP3    H222069   3.167   0.180   1.891
 7369TIP3   OH222070   1.234   3.719   5.384
 7369TIP3    H122071   1.216   3.798   5.332
 7369TIP3    H222072   1.329   3.714   5.388
 7370TIP3   OH222073   0.494   3.445   2.495
 7370TIP3    H122074   0.403   3.431   2.522
 7370TIP3    H222075   0.489   3.519   2.434
 7371TIP3   OH222076   1.396   5.061   1.435
 7371TIP3    H122077   1.339   5.137   1.422
 7371TIP3    H222078   1.356   5.013   1.508
 7372TIP3   OH222079   1.134   5.555   5.187
 7372TIP3    H122080   1.143   5.485   5.123
 7372TIP3    H222081   1.054   5.533   5.236
 7373TIP3   OH222082   6.136   2.541   2.295
 7373TIP3    H122083   6.047   2.530   2.327
 7373TIP3    H222084   6.161   2.629   2.322
 7374TIP3   OH222085   1.338   5.620   5.370
 7374TIP3    H122086   1.254   5.591   5.334
 7374TIP3    H222087   1.399   5.549   5.350
 7375TIP3   OH222088   6.027   3.225   2.509
 7375TIP3    H122089   5.942   3.234   2.552
 7375TIP3    H222090   6.082   3.291   2.550
 7376TIP3   OH222091   5.465   1.673   4.553
 7376TIP3    H122092   5.514   1.697   4.475
 7376TIP3    H222093   5.530   1.638   4.614
 7377TIP3   OH222094   4.063   0.299   2.762
 7377TIP3    H122095   4.120   0.375   2.752
 7377TIP3    H222096   4.103   0.231   2.707
 7378TIP3   OH222097   4.439   3.961   2.114
 7378TIP3    H122098   4.385   4.033   2.146
 7378TIP3    H222099   4.454   3.906   2.191
 7379TIP3   OH222100   0.341   5.475   1.312
 7379TIP3    H122101   0.346   5.567   1.283
 7379TIP3    H222102   0.422   5.460   1.360
 7380TIP3   OH222103   4.037   4.980   0.092
 7380TIP3    H122104   3.971   4.968   0.161
 7380TIP3    H222105   4.110   5.023   0.136
 7381TIP3   OH222106   4.378   3.946   0.897
 7381TIP3    H122107   4.350   3.858   0.874
 7381TIP3    H222108   4.299   4.000   0.890
 7382TIP3   OH222109   0.993   0.859   5.417
 7382TIP3    H122110   1.013   0.824   5.330
 7382TIP3    H222111   1.074   0.850   5.466
 7383TIP3   OH222112   0.453   1.459   4.978
 7383TIP3    H122113   0.448   1.532   5.040
 7383TIP3    H222114   0.392   1.484   4.908
 7384TIP3   OH222115   6.775   4.375   4.948
 7384TIP3    H122116   6.783   4.280   4.946
 7384TIP3    H222117   6.820   4.405   4.869
 7385TIP3   OH222118   5.322   4.485   4.963
 7385TIP3    H122119   5.417   4.475   4.965
 7385TIP3    H222120   5.288   4.396   4.973
 7386TIP3   OH222121   6.216   5.846   2.154
 7386TIP3    H122122   6.243   5.776   2.214
 7386TIP3    H222123   6.277   5.840   2.081
 7387TIP3   OH222124   3.228   0.786   5.200
 7387TIP3    H122125   3.220   0.701   5.158
 7387TIP3    H222126   3.266   0.843   5.134
 7388TIP3   OH222127   6.437   0.207   3.185
 7388TIP3    H122128   6.357   0.251   3.213
 7388TIP3    H222129   6.496   0.277   3.159
 7389TIP3   OH222130   4.464   5.016   0.232
 7389TIP3    H122131   4.482   4.940   0.176
 7389TIP3    H222132   4.534   5.078   0.211
 7390TIP3   OH222133   3.705   1.723   1.185
 7390TIP3    H122134   3.777   1.771   1.143
 7390TIP3    H222135   3.639   1.790   1.201
 7391TIP3   OH222136   3.412   3.453   1.662
 7391TIP3    H122137   3.426   3.545   1.682
 7391TIP3    H222138   3.329   3.451   1.613
 7392TIP3   OH222139   6.858   1.319   0.822
 7392TIP3    H122140   6.894   1.354   0.740
 7392TIP3    H222141   6.823   1.396   0.867
 7393TIP3   OH222142   1.113   0.593   1.089
 7393TIP3    H122143   1.166   0.634   1.157
 7393TIP3    H222144   1.076   0.515   1.131
 7394TIP3   OH222145   1.836   0.720   0.291
 7394TIP3    H122146   1.820   0.702   0.198
 7394TIP3    H222147   1.749   0.722   0.330
 7395TIP3   OH222148   6.185   0.290   4.973
 7395TIP3    H122149   6.240   0.282   5.051
 7395TIP3    H222150   6.097   0.270   5.003
 7396TIP3   OH222151   2.437   5.326   4.221
 7396TIP3    H122152   2.526   5.340   4.189
 7396TIP3    H222153   2.450   5.287   4.308
 7397TIP3   OH222154   2.105   2.619   2.166
 7397TIP3    H122155   2.097   2.524   2.155
 7397TIP3    H222156   2.193   2.632   2.203
 7398TIP3   OH222157   3.790   4.608   2.160
 7398TIP3    H122158   3.792   4.590   2.254
 7398TIP3    H222159   3.825   4.697   2.152
 7399TIP3   OH222160   5.066   4.389   5.550
 7399TIP3    H122161   4.980   4.415   5.518
 7399TIP3    H222162   5.048   4.316   5.610
 7400TIP3   OH222163   5.034   5.717   4.582
 7400TIP3    H122164   4.999   5.764   4.657
 7400TIP3    H222165   4.958   5.699   4.526
 7401TIP3   OH222166   6.454   2.051   1.979
 7401TIP3    H122167   6.540   2.053   1.935
 7401TIP3    H222168   6.438   2.142   2.004
 7402TIP3   OH222169   4.212   6.116   5.869
 7402TIP3    H122170   4.168   6.189   5.912
 7402TIP3    H222171   4.157   6.093   5.794
 7403TIP3   OH222172   1.184   1.548   3.914
 7403TIP3    H122173   1.278   1.566   3.920
 7403TIP3    H222174   1.142   1.626   3.949
 7404TIP3   OH222175   2.529   5.652   0.187
 7404TIP3    H122176   2.449   5.688   0.150
 7404TIP3    H222177   2.514   5.557   0.189
 7405TIP3   OH222178   2.621   3.372   4.821
 7405TIP3    H122179   2.611   3.452   4.770
 7405TIP3    H222180   2.534   3.354   4.856
 7406TIP3   OH222181   2.823   1.681   2.503
 7406TIP3    H122182   2.892   1.623   2.471
 7406TIP3    H222183   2.844   1.767   2.467
 7407TIP3   OH222184   5.813   4.702   0.829
 7407TIP3    H122185   5.775   4.696   0.741
 7407TIP3    H222186   5.739   4.689   0.888
 7408TIP3   OH222187   2.618   0.635   3.612
 7408TIP3    H122188   2.703   0.651   3.654
 7408TIP3    H222189   2.632   0.659   3.521
 7409TIP3   OH222190   4.044   3.133   4.739
 7409TIP3    H122191   3.994   3.074   4.794
 7409TIP3    H222192   4.117   3.081   4.706
 7410TIP3   OH222193   4.769   0.375   4.013
 7410TIP3    H122194   4.792   0.311   3.945
 7410TIP3    H222195   4.785   0.330   4.095
 7411TIP3   OH222196   4.604   1.013   2.563
 7411TIP3    H122197   4.623   0.975   2.477
 7411TIP3    H222198   4.533   1.075   2.546
 7412TIP3   OH222199   0.357   2.737   2.564
 7412TIP3    H122200   0.431   2.779   2.520
 7412TIP3    H222201   0.354   2.649   2.527
 7413TIP3   OH222202   3.900   2.315   1.920
 7413TIP3    H122203   3.839   2.289   1.851
 7413TIP3    H222204   3.894   2.411   1.922
 7414TIP3   OH222205   0.427   1.321   2.647
 7414TIP3    H122206   0.450   1.411   2.623
 7414TIP3    H222207   0.498   1.293   2.705
 7415TIP3   OH222208   5.617   2.727   2.818
 7415TIP3    H122209   5.682   2.662   2.844
 7415TIP3    H222210   5.631   2.801   2.877
 7416TIP3   OH222211   6.798   4.720   5.309
 7416TIP3    H122212   6.759   4.752   5.228
 7416TIP3    H222213   6.873   4.778   5.323
 7417TIP3   OH222214   0.430   5.167   5.741
 7417TIP3    H122215   0.434   5.167   5.837
 7417TIP3    H222216   0.504   5.113   5.714
 7418TIP3   OH222217   4.313   1.927   1.134
 7418TIP3    H122218   4.345   1.876   1.059
 7418TIP3    H222219   4.347   2.016   1.119
 7419TIP3   OH222220   1.016   5.567   4.652
 7419TIP3    H122221   0.925   5.546   4.633
 7419TIP3    H222222   1.067   5.501   4.606
 7420TIP3   OH222223   4.489   4.676   1.028
 7420TIP3    H122224   4.400   4.667   1.063
 7420TIP3    H222225   4.487   4.627   0.946
 7421TIP3   OH222226   2.155   0.297   0.395
 7421TIP3    H122227   2.067   0.262   0.389
 7421TIP3    H222228   2.162   0.359   0.322
 7422TIP3   OH222229   3.104   3.231   2.318
 7422TIP3    H122230   3.101   3.325   2.301
 7422TIP3    H222231   3.046   3.218   2.393
 7423TIP3   OH222232   0.998   5.199   5.534
 7423TIP3    H122233   1.072   5.162   5.582
 7423TIP3    H222234   1.039   5.252   5.465
 7424TIP3   OH222235   4.938   6.463   2.152
 7424TIP3    H122236   4.988   6.470   2.233
 7424TIP3    H222237   4.939   6.552   2.116
 7425TIP3   OH222238   1.140   5.783   4.966
 7425TIP3    H122239   1.059   5.767   5.014
 7425TIP3    H222240   1.209   5.782   5.032
 7426TIP3   OH222241   3.985   6.054   0.409
 7426TIP3    H122242   4.043   5.985   0.442
 7426TIP3    H222243   3.899   6.032   0.445
 7427TIP3   OH222244   0.811   4.065   5.002
 7427TIP3    H122245   0.856   3.998   4.952
 7427TIP3    H222246   0.851   4.147   4.975
 7428TIP3   OH222247   6.486   3.905   5.232
 7428TIP3    H122248   6.477   3.841   5.162
 7428TIP3    H222249   6.408   3.893   5.286
 7429TIP3   OH222250   0.366   0.713   1.352
 7429TIP3    H122251   0.278   0.726   1.385
 7429TIP3    H222252   0.370   0.620   1.330
 7430TIP3   OH222253   5.631   1.021   2.912
 7430TIP3    H122254   5.672   1.100   2.876
 7430TIP3    H222255   5.562   1.000   2.849
 7431TIP3   OH222256   6.655   2.671   3.855
 7431TIP3    H122257   6.703   2.591   3.879
 7431TIP3    H222258   6.574   2.667   3.905
 7432TIP3   OH222259   1.558   6.185   3.112
 7432TIP3    H122260   1.479   6.235   3.093
 7432TIP3    H222261   1.525   6.098   3.135
 7433TIP3   OH222262   5.054   3.152   1.694
 7433TIP3    H122263   4.998   3.126   1.766
 7433TIP3    H222264   5.005   3.221   1.649
 7434TIP3   OH222265   3.114   3.087   1.372
 7434TIP3    H122266   3.089   3.095   1.280
 7434TIP3    H222267   3.080   3.166   1.414
 7435TIP3   OH222268   5.976   0.680   5.523
 7435TIP3    H122269   6.046   0.655   5.462
 7435TIP3    H222270   6.003   0.765   5.557
 7436TIP3   OH222271   5.851   4.955   2.764
 7436TIP3    H122272   5.773   4.925   2.810
 7436TIP3    H222273   5.854   5.049   2.779
 7437TIP3   OH222274  -0.009   0.031   5.107
 7437TIP3    H122275   0.063   0.013   5.167
 7437TIP3    H222276  -0.086  -0.006   5.149
 7438TIP3   OH222277   3.938   2.324   2.472
 7438TIP3    H122278   3.947   2.341   2.566
 7438TIP3    H222279   3.859   2.270   2.465
 7439TIP3   OH222280   1.772   4.292   2.813
 7439TIP3    H122281   1.772   4.242   2.894
 7439TIP3    H222282   1.682   4.285   2.781
 7440TIP3   OH222283   4.433   3.579   3.430
 7440TIP3    H122284   4.502   3.586   3.496
 7440TIP3    H222285   4.480   3.580   3.346
 7441TIP3   OH222286   4.639   4.507   4.674
 7441TIP3    H122287   4.702   4.559   4.624
 7441TIP3    H222288   4.563   4.499   4.615
 7442TIP3   OH222289   4.795   1.107   2.888
 7442TIP3    H122290   4.721   1.078   2.941
 7442TIP3    H222291   4.835   1.178   2.939
 7443TIP3   OH222292   2.226   0.772   5.570
 7443TIP3    H122293   2.255   0.680   5.569
 7443TIP3    H222294   2.252   0.806   5.485
 7444TIP3   OH222295   3.526   6.430   1.363
 7444TIP3    H122296   3.622   6.423   1.369
 7444TIP3    H222297   3.511   6.508   1.311
 7445TIP3   OH222298   5.616   4.208   4.718
 7445TIP3    H122299   5.531   4.232   4.680
 7445TIP3    H222300   5.645   4.287   4.762
 7446TIP3   OH222301   5.438   1.022   0.024
 7446TIP3    H122302   5.389   1.021  -0.058
 7446TIP3    H222303   5.440   1.115   0.049
 7447TIP3   OH222304   3.798   1.220   4.555
 7447TIP3    H122305   3.887   1.225   4.521
 7447TIP3    H222306   3.753   1.294   4.515
 7448TIP3   OH222307   7.011   6.481   4.923
 7448TIP3    H122308   7.034   6.475   4.830
 7448TIP3    H222309   6.983   6.571   4.935
 7449TIP3   OH222310   0.798   3.749   3.400
 7449TIP3    H122311   0.752   3.784   3.476
 7449TIP3    H222312   0.743   3.676   3.370
 7450TIP3   OH222313   6.941   5.085   3.959
 7450TIP3    H122314   6.914   5.167   3.917
 7450TIP3    H222315   7.036   5.082   3.947
 7451TIP3   OH222316   4.783   4.393   0.759
 7451TIP3    H122317   4.760   4.483   0.780
 7451TIP3    H222318   4.711   4.362   0.704
 7452TIP3   OH222319   5.389   6.617   0.503
 7452TIP3    H122320   5.305   6.634   0.546
 7452TIP3    H222321   5.452   6.670   0.552
 7453TIP3   OH222322   2.541   4.439   4.260
 7453TIP3    H122323   2.587   4.390   4.192
 7453TIP3    H222324   2.541   4.381   4.336
 7454TIP3   OH222325   0.116   6.518   5.712
 7454TIP3    H122326   0.086   6.608   5.721
 7454TIP3    H222327   0.177   6.505   5.785
 7455TIP3   OH222328   1.637   1.282   0.277
 7455TIP3    H122329   1.574   1.258   0.209
 7455TIP3    H222330   1.718   1.237   0.252
 7456TIP3   OH222331   2.959   3.891   0.785
 7456TIP3    H122332   2.917   3.919   0.866
 7456TIP3    H222333   3.047   3.862   0.812
 7457TIP3   OH222334   4.138   5.863   0.522
 7457TIP3    H122335   4.079   5.877   0.595
 7457TIP3    H222336   4.224   5.852   0.562
 7458TIP3   OH222337   0.722   4.281   1.938
 7458TIP3    H122338   0.716   4.352   2.002
 7458TIP3    H222339   0.776   4.316   1.868
 7459TIP3   OH222340   7.208   2.500   2.268
 7459TIP3    H122341   7.162   2.581   2.248
 7459TIP3    H222342   7.294   2.510   2.228
 7460TIP3   OH222343   5.435   1.697   5.004
 7460TIP3    H122344   5.394   1.738   4.928
 7460TIP3    H222345   5.384   1.729   5.079
 7461TIP3   OH222346   1.848   3.326   3.341
 7461TIP3    H122347   1.914   3.273   3.296
 7461TIP3    H222348   1.889   3.412   3.351
 7462TIP3   OH222349   4.595   5.200   3.910
 7462TIP3    H122350   4.687   5.179   3.922
 7462TIP3    H222351   4.581   5.195   3.815
 7463TIP3   OH222352   4.950   2.670   5.404
 7463TIP3    H122353   5.044   2.666   5.384
 7463TIP3    H222354   4.907   2.645   5.322
 7464TIP3   OH222355   6.449   4.030   4.431
 7464TIP3    H122356   6.366   4.051   4.388
 7464TIP3    H222357   6.430   3.954   4.486
 7465TIP3   OH222358   2.032   0.175   5.673
 7465TIP3    H122359   2.103   0.200   5.731
 7465TIP3    H222360   2.057   0.088   5.640
 7466TIP3   OH222361   5.178   3.459   4.034
 7466TIP3    H122362   5.204   3.550   4.049
 7466TIP3    H222363   5.211   3.412   4.111
 7467TIP3   OH222364   0.699   2.399   2.206
 7467TIP3    H122365   0.782   2.444   2.188
 7467TIP3    H222366   0.721   2.332   2.270
 7468TIP3   OH222367   5.182   1.459   0.230
 7468TIP3    H122368   5.215   1.470   0.141
 7468TIP3    H222369   5.252   1.492   0.286
 7469TIP3   OH222370   6.491   2.100   4.833
 7469TIP3    H122371   6.420   2.156   4.863
 7469TIP3    H222372   6.549   2.159   4.784
 7470TIP3   OH222373   6.777   3.829   2.667
 7470TIP3    H122374   6.864   3.791   2.681
 7470TIP3    H222375   6.726   3.798   2.742
 7471TIP3   OH222376   0.203   4.278   1.656
 7471TIP3    H122377   0.211   4.183   1.651
 7471TIP3    H222378   0.168   4.295   1.743
 7472TIP3   OH222379   0.140   3.697   4.870
 7472TIP3    H122380   0.204   3.627   4.878
 7472TIP3    H222381   0.062   3.655   4.834
 7473TIP3   OH222382   5.586   0.071   2.974
 7473TIP3    H122383   5.545   0.046   3.057
 7473TIP3    H222384   5.550   0.157   2.955
 7474TIP3   OH222385   2.689   2.117   5.214
 7474TIP3    H122386   2.758   2.097   5.150
 7474TIP3    H222387   2.608   2.103   5.165
 7475TIP3   OH222388   1.815   4.593   5.336
 7475TIP3    H122389   1.903   4.558   5.327
 7475TIP3    H222390   1.795   4.584   5.429
 7476TIP3   OH222391   5.796   3.210   4.032
 7476TIP3    H122392   5.790   3.297   4.071
 7476TIP3    H222393   5.886   3.183   4.050
 7477TIP3   OH222394   1.515   4.788   2.321
 7477TIP3    H122395   1.446   4.814   2.382
 7477TIP3    H222396   1.579   4.742   2.375
 7478TIP3   OH222397   7.021   5.730   4.775
 7478TIP3    H122398   7.064   5.708   4.858
 7478TIP3    H222399   6.948   5.787   4.799
 7479TIP3   OH222400   2.492   3.252   2.006
 7479TIP3    H122401   2.573   3.297   1.981
 7479TIP3    H222402   2.449   3.233   1.923
 7480TIP3   OH222403   2.075   3.797   3.346
 7480TIP3    H122404   2.148   3.752   3.390
 7480TIP3    H222405   2.092   3.890   3.361
 7481TIP3   OH222406   5.166   4.306   3.814
 7481TIP3    H122407   5.227   4.318   3.741
 7481TIP3    H222408   5.142   4.214   3.810
 7482TIP3   OH222409   0.671   1.136   3.273
 7482TIP3    H122410   0.753   1.172   3.307
 7482TIP3    H222411   0.635   1.206   3.219
 7483TIP3   OH222412   5.849   1.786   0.659
 7483TIP3    H122413   5.841   1.804   0.752
 7483TIP3    H222414   5.793   1.710   0.644
 7484TIP3   OH222415   0.622   6.709   3.453
 7484TIP3    H122416   0.716   6.716   3.470
 7484TIP3    H222417   0.585   6.678   3.537
 7485TIP3   OH222418   0.552   4.411   3.351
 7485TIP3    H122419   0.643   4.423   3.379
 7485TIP3    H222420   0.534   4.318   3.368
 7486TIP3   OH222421   1.492   1.902   1.555
 7486TIP3    H122422   1.556   1.861   1.613
 7486TIP3    H222423   1.544   1.936   1.482
 7487TIP3   OH222424   0.897   1.891   0.993
 7487TIP3    H122425   0.874   1.953   0.924
 7487TIP3    H222426   0.967   1.838   0.954
 7488TIP3   OH222427   0.063   4.235   4.770
 7488TIP3    H122428   0.153   4.225   4.799
 7488TIP3    H222429   0.030   4.146   4.762
 7489TIP3   OH222430   4.211   0.529   2.770
 7489TIP3    H122431   4.188   0.556   2.681
 7489TIP3    H222432   4.162   0.589   2.826
 7490TIP3   OH222433   1.513   2.909   5.757
 7490TIP3    H122434   1.481   2.837   5.811
 7490TIP3    H222435   1.599   2.929   5.794
 7491TIP3   OH222436   3.849   1.249   1.470
 7491TIP3    H122437   3.857   1.181   1.403
 7491TIP3    H222438   3.793   1.315   1.429
 7492TIP3   OH222439   1.532   0.273   0.359
 7492TIP3    H122440   1.591   0.316   0.421
 7492TIP3    H222441   1.455   0.251   0.411
 7493TIP3   OH222442   5.256   3.252   3.750
 7493TIP3    H122443   5.218   3.181   3.802
 7493TIP3    H222444   5.184   3.316   3.741
 7494TIP3   OH222445   5.928   1.811   3.411
 7494TIP3    H122446   5.839   1.782   3.434
 7494TIP3    H222447   5.924   1.830   3.318
 7495TIP3   OH222448   1.768   1.731   5.761
 7495TIP3    H122449   1.689   1.717   5.813
 7495TIP3    H222450   1.824   1.785   5.816
 7496TIP3   OH222451   2.151   0.787   2.516
 7496TIP3    H122452   2.106   0.763   2.435
 7496TIP3    H222453   2.082   0.795   2.581
 7497TIP3   OH222454   4.291   3.528   1.141
 7497TIP3    H122455   4.212   3.479   1.117
 7497TIP3    H222456   4.359   3.495   1.083
 7498TIP3   OH222457   0.880   3.929   5.852
 7498TIP3    H122458   0.820   4.003   5.861
 7498TIP3    H222459   0.919   3.939   5.765
 7499TIP3   OH222460   0.709   4.739   0.799
 7499TIP3    H122461   0.733   4.704   0.885
 7499TIP3    H222462   0.698   4.833   0.815
 7500TIP3   OH222463   4.426   3.801   4.712
 7500TIP3    H122464   4.516   3.773   4.699
 7500TIP3    H222465   4.391   3.743   4.779
 7501TIP3   OH222466   3.636   3.874   3.710
 7501TIP3    H122467   3.595   3.944   3.761
 7501TIP3    H222468   3.664   3.917   3.629
 7502TIP3   OH222469   5.969   1.952   4.007
 7502TIP3    H122470   5.908   1.994   3.947
 7502TIP3    H222471   5.969   1.860   3.981
 7503TIP3   OH222472   4.874   4.884   2.029
 7503TIP3    H122473   4.905   4.806   1.984
 7503TIP3    H222474   4.797   4.911   1.979
 7504TIP3   OH222475   6.002   2.817   3.958
 7504TIP3    H122476   5.980   2.872   4.033
 7504TIP3    H222477   5.938   2.746   3.961
 7505TIP3   OH222478   2.703   0.316   0.476
 7505TIP3    H122479   2.625   0.366   0.454
 7505TIP3    H222480   2.691   0.292   0.568
 7506TIP3   OH222481   1.621   1.822   4.490
 7506TIP3    H122482   1.682   1.833   4.563
 7506TIP3    H222483   1.539   1.860   4.522
 7507TIP3   OH222484   4.877   1.552   1.518
 7507TIP3    H122485   4.927   1.539   1.438
 7507TIP3    H222486   4.807   1.613   1.494
 7508TIP3   OH222487   0.110   4.183   0.350
 7508TIP3    H122488   0.110   4.262   0.403
 7508TIP3    H222489   0.203   4.161   0.340
 7509TIP3   OH222490   3.267   0.228   0.231
 7509TIP3    H122491   3.200   0.254   0.167
 7509TIP3    H222492   3.230   0.151   0.274
 7510TIP3   OH222493   6.511   4.083   3.954
 7510TIP3    H122494   6.454   4.159   3.967
 7510TIP3    H222495   6.489   4.024   4.027
 7511TIP3   OH222496   1.168   1.302   3.521
 7511TIP3    H122497   1.248   1.259   3.490
 7511TIP3    H222498   1.199   1.363   3.588
 7512TIP3   OH222499   5.748   5.773   5.386
 7512TIP3    H122500   5.828   5.782   5.438
 7512TIP3    H222501   5.704   5.696   5.423
 7513TIP3   OH222502   4.074   2.881   2.366
 7513TIP3    H122503   4.083   2.890   2.461
 7513TIP3    H222504   3.984   2.851   2.353
 7514TIP3   OH222505   6.484   5.035   4.289
 7514TIP3    H122506   6.566   5.076   4.265
 7514TIP3    H222507   6.416   5.090   4.250
 7515TIP3   OH222508   5.789   1.698   1.918
 7515TIP3    H122509   5.841   1.735   1.847
 7515TIP3    H222510   5.799   1.603   1.910
 7516TIP3   OH222511   5.283   5.282   4.856
 7516TIP3    H122512   5.330   5.228   4.919
 7516TIP3    H222513   5.195   5.245   4.854
 7517TIP3   OH222514   2.511   3.570   2.455
 7517TIP3    H122515   2.586   3.627   2.474
 7517TIP3    H222516   2.436   3.630   2.454
 7518TIP3   OH222517   6.285   4.422   1.281
 7518TIP3    H122518   6.308   4.329   1.287
 7518TIP3    H222519   6.359   4.468   1.320
 7519TIP3   OH222520   3.780   0.301   5.060
 7519TIP3    H122521   3.850   0.257   5.011
 7519TIP3    H222522   3.700   0.282   5.010
 7520TIP3   OH222523   1.273   2.322   2.062
 7520TIP3    H122524   1.290   2.403   2.110
 7520TIP3    H222525   1.197   2.283   2.106
 7521TIP3   OH222526   2.759   6.047   2.182
 7521TIP3    H122527   2.698   6.121   2.178
 7521TIP3    H222528   2.776   6.035   2.275
 7522TIP3   OH222529   5.827   0.177   5.764
 7522TIP3    H122530   5.828   0.135   5.678
 7522TIP3    H222531   5.908   0.229   5.766
 7523TIP3   OH222532   1.225   0.964   5.536
 7523TIP3    H122533   1.167   1.033   5.569
 7523TIP3    H222534   1.249   0.914   5.614
 7524TIP3   OH222535   4.658   0.129   2.529
 7524TIP3    H122536   4.625   0.165   2.611
 7524TIP3    H222537   4.686   0.206   2.479
 7525TIP3   OH222538   3.097   1.154   5.115
 7525TIP3    H122539   3.131   1.146   5.205
 7525TIP3    H222540   3.174   1.173   5.062
 7526TIP3   OH222541   1.274   3.297   1.359
 7526TIP3    H122542   1.350   3.238   1.356
 7526TIP3    H222543   1.305   3.374   1.407
 7527TIP3   OH222544   4.745   2.608   3.189
 7527TIP3    H122545   4.740   2.530   3.246
 7527TIP3    H222546   4.733   2.682   3.249
 7528TIP3   OH222547   5.906   4.063   0.719
 7528TIP3    H122548   5.929   4.025   0.804
 7528TIP3    H222549   5.829   4.117   0.736
 7529TIP3   OH222550   3.789   5.345   0.106
 7529TIP3    H122551   3.723   5.330   0.174
 7529TIP3    H222552   3.871   5.313   0.144
 7530TIP3   OH222553   0.770   4.302   4.611
 7530TIP3    H122554   0.764   4.214   4.648
 7530TIP3    H222555   0.774   4.289   4.516
 7531TIP3   OH222556   5.263   6.425   3.817
 7531TIP3    H122557   5.257   6.518   3.837
 7531TIP3    H222558   5.190   6.408   3.758
 7532TIP3   OH222559   3.326   4.044   2.473
 7532TIP3    H122560   3.385   4.000   2.412
 7532TIP3    H222561   3.238   4.013   2.448
 7533TIP3   OH222562   5.505   1.070   3.785
 7533TIP3    H122563   5.557   0.990   3.780
 7533TIP3    H222564   5.428   1.044   3.838
 7534TIP3   OH222565   1.553   5.768   1.008
 7534TIP3    H122566   1.617   5.746   0.941
 7534TIP3    H222567   1.468   5.755   0.966
 7535TIP3   OH222568   1.260   2.642   4.308
 7535TIP3    H122569   1.302   2.559   4.330
 7535TIP3    H222570   1.281   2.699   4.382
 7536TIP3   OH222571   5.035   6.832   0.789
 7536TIP3    H122572   5.064   6.761   0.848
 7536TIP3    H222573   5.097   6.828   0.716
 7537TIP3   OH222574   6.902   0.799   3.030
 7537TIP3    H122575   6.989   0.811   3.068
 7537TIP3    H222576   6.905   0.846   2.947
 7538TIP3   OH222577   2.752   1.664   3.121
 7538TIP3    H122578   2.823   1.611   3.086
 7538TIP3    H222579   2.697   1.603   3.171
 7539TIP3   OH222580   2.961   6.204   5.752
 7539TIP3    H122581   2.934   6.292   5.725
 7539TIP3    H222582   2.898   6.145   5.709
 7540TIP3   OH222583   4.167   1.694   2.316
 7540TIP3    H122584   4.073   1.696   2.332
 7540TIP3    H222585   4.202   1.635   2.383
 7541TIP3   OH222586   2.460   4.107   4.960
 7541TIP3    H122587   2.368   4.127   4.974
 7541TIP3    H222588   2.488   4.065   5.041
 7542TIP3   OH222589   1.255   1.925   4.743
 7542TIP3    H122590   1.183   1.977   4.707
 7542TIP3    H222591   1.297   1.984   4.806
 7543TIP3   OH222592   6.744   3.927   2.153
 7543TIP3    H122593   6.795   3.850   2.128
 7543TIP3    H222594   6.784   3.999   2.104
 7544TIP3   OH222595   4.477   0.966   0.970
 7544TIP3    H122596   4.433   0.951   0.886
 7544TIP3    H222597   4.406   0.987   1.031
 7545TIP3   OH222598   3.353   1.690   1.805
 7545TIP3    H122599   3.435   1.735   1.786
 7545TIP3    H222600   3.379   1.600   1.824
 7546TIP3   OH222601   0.844   0.502   4.496
 7546TIP3    H122602   0.891   0.437   4.549
 7546TIP3    H222603   0.753   0.498   4.527
 7547TIP3   OH222604   3.120   0.678   0.605
 7547TIP3    H122605   3.082   0.657   0.520
 7547TIP3    H222606   3.210   0.645   0.601
 7548TIP3   OH222607   3.201   0.523   5.127
 7548TIP3    H122608   3.265   0.458   5.156
 7548TIP3    H222609   3.159   0.483   5.051
 7549TIP3   OH222610   5.285   1.037   1.390
 7549TIP3    H122611   5.324   1.100   1.329
 7549TIP3    H222612   5.208   1.003   1.343
 7550TIP3   OH222613   4.870   1.243   4.659
 7550TIP3    H122614   4.808   1.186   4.706
 7550TIP3    H222615   4.893   1.310   4.723
 7551TIP3   OH222616   5.427   5.195   0.982
 7551TIP3    H122617   5.448   5.176   1.074
 7551TIP3    H222618   5.512   5.192   0.938
 7552TIP3   OH222619   3.978   1.080   3.050
 7552TIP3    H122620   3.910   1.036   3.101
 7552TIP3    H222621   3.977   1.037   2.965
 7553TIP3   OH222622   6.912   0.915   1.833
 7553TIP3    H122623   6.836   0.857   1.826
 7553TIP3    H222624   6.945   0.924   1.744
 7554TIP3   OH222625   1.131   1.970   0.713
 7554TIP3    H122626   1.191   1.937   0.780
 7554TIP3    H222627   1.147   2.064   0.711
 7555TIP3   OH222628   3.257   5.598   0.450
 7555TIP3    H122629   3.230   5.597   0.542
 7555TIP3    H222630   3.182   5.633   0.403
 7556TIP3   OH222631   6.864   0.516   2.257
 7556TIP3    H122632   6.945   0.566   2.258
 7556TIP3    H222633   6.889   0.431   2.219
 7557TIP3   OH222634   2.548   3.041   4.866
 7557TIP3    H122635   2.467   3.000   4.835
 7557TIP3    H222636   2.582   3.087   4.789
 7558TIP3   OH222637   2.996   4.378   5.377
 7558TIP3    H122638   2.959   4.365   5.464
 7558TIP3    H222639   2.957   4.460   5.346
 7559TIP3   OH222640   5.117   3.614   0.285
 7559TIP3    H122641   5.111   3.710   0.287
 7559TIP3    H222642   5.202   3.593   0.323
 7560TIP3   OH222643   6.510   6.410   0.669
 7560TIP3    H122644   6.450   6.482   0.690
 7560TIP3    H222645   6.476   6.373   0.587
 7561TIP3   OH222646   4.056   1.231   4.434
 7561TIP3    H122647   4.081   1.150   4.389
 7561TIP3    H222648   4.111   1.232   4.513
 7562TIP3   OH222649   2.826   3.591   4.503
 7562TIP3    H122650   2.820   3.527   4.433
 7562TIP3    H222651   2.738   3.592   4.543
 7563TIP3   OH222652   4.613   5.225   0.109
 7563TIP3    H122653   4.659   5.291   0.160
 7563TIP3    H222654   4.677   5.197   0.042
 7564TIP3   OH222655   1.360   3.177   4.219
 7564TIP3    H122656   1.451   3.201   4.201
 7564TIP3    H222657   1.311   3.207   4.142
 7565TIP3   OH222658   3.666   2.533   3.197
 7565TIP3    H122659   3.729   2.509   3.129
 7565TIP3    H222660   3.587   2.558   3.150
 7566TIP3   OH222661   3.354   4.844   0.668
 7566TIP3    H122662   3.393   4.907   0.608
 7566TIP3    H222663   3.425   4.820   0.727
 7567TIP3   OH222664   0.693   4.857   2.821
 7567TIP3    H122665   0.658   4.790   2.880
 7567TIP3    H222666   0.781   4.875   2.855
 7568TIP3   OH222667   6.416   6.709   2.367
 7568TIP3    H122668   6.375   6.791   2.342
 7568TIP3    H222669   6.369   6.642   2.317
 7569TIP3   OH222670   5.706   5.368   1.720
 7569TIP3    H122671   5.708   5.448   1.772
 7569TIP3    H222672   5.618   5.333   1.732
 7570TIP3   OH222673   5.572   6.187   4.523
 7570TIP3    H122674   5.633   6.258   4.539
 7570TIP3    H222675   5.622   6.108   4.538
 7571TIP3   OH222676   1.288   0.166   0.478
 7571TIP3    H122677   1.246   0.171   0.392
 7571TIP3    H222678   1.301   0.072   0.493
 7572TIP3   OH222679   1.437   5.819   1.664
 7572TIP3    H122680   1.514   5.873   1.678
 7572TIP3    H222681   1.451   5.778   1.579
 7573TIP3   OH222682   6.758   4.274   3.381
 7573TIP3    H122683   6.840   4.316   3.406
 7573TIP3    H222684   6.751   4.198   3.439
 7574TIP3   OH222685   4.876   0.818   0.938
 7574TIP3    H122686   4.943   0.766   0.981
 7574TIP3    H222687   4.823   0.754   0.890
 7575TIP3   OH222688   5.007   0.498   4.448
 7575TIP3    H122689   4.971   0.465   4.366
 7575TIP3    H222690   5.058   0.575   4.423
 7576TIP3   OH222691   6.408   0.444   0.113
 7576TIP3    H122692   6.375   0.356   0.094
 7576TIP3    H222693   6.332   0.501   0.106
 7577TIP3   OH222694   1.075   0.395   3.769
 7577TIP3    H122695   1.168   0.390   3.792
 7577TIP3    H222696   1.042   0.470   3.818
 7578TIP3   OH222697   2.189   6.035   5.652
 7578TIP3    H122698   2.282   6.019   5.640
 7578TIP3    H222699   2.183   6.090   5.730
 7579TIP3   OH222700   4.121   0.648   0.210
 7579TIP3    H122701   4.193   0.620   0.267
 7579TIP3    H222702   4.162   0.703   0.144
 7580TIP3   OH222703   7.108   3.133   3.437
 7580TIP3    H122704   7.069   3.220   3.441
 7580TIP3    H222705   7.052   3.084   3.377
 7581TIP3   OH222706   6.077   4.923   0.966
 7581TIP3    H122707   5.998   4.951   0.919
 7581TIP3    H222708   6.076   4.827   0.960
 7582TIP3   OH222709   3.840   0.471   3.629
 7582TIP3    H122710   3.863   0.382   3.652
 7582TIP3    H222711   3.764   0.462   3.571
 7583TIP3   OH222712  -0.003   2.922   2.674
 7583TIP3    H122713  -0.037   3.003   2.712
 7583TIP3    H222714   0.050   2.883   2.744
 7584TIP3   OH222715   5.170   5.972   3.366
 7584TIP3    H122716   5.197   6.055   3.404
 7584TIP3    H222717   5.242   5.912   3.387
 7585TIP3   OH222718   0.657   6.533   4.097
 7585TIP3    H122719   0.610   6.458   4.133
 7585TIP3    H222720   0.593   6.604   4.095
 7586TIP3   OH222721   5.146   2.682   1.228
 7586TIP3    H122722   5.059   2.688   1.189
 7586TIP3    H222723   5.144   2.742   1.302
 7587TIP3   OH222724   3.387   6.576   2.174
 7587TIP3    H122725   3.464   6.529   2.207
 7587TIP3    H222726   3.314   6.516   2.188
 7588TIP3   OH222727   3.502   5.819   2.209
 7588TIP3    H122728   3.462   5.792   2.292
 7588TIP3    H222729   3.594   5.834   2.230
 7589TIP3   OH222730   6.254   2.494   5.926
 7589TIP3    H122731   6.310   2.439   5.980
 7589TIP3    H222732   6.236   2.441   5.848
 7590TIP3   OH222733   1.552   5.786   4.401
 7590TIP3    H122734   1.630   5.787   4.346
 7590TIP3    H222735   1.494   5.723   4.358
 7591TIP3   OH222736   1.991   1.091   4.413
 7591TIP3    H122737   1.985   1.035   4.336
 7591TIP3    H222738   1.923   1.058   4.472
 7592TIP3   OH222739   6.050   2.124   1.644
 7592TIP3    H122740   5.956   2.131   1.660
 7592TIP3    H222741   6.058   2.072   1.565
 7593TIP3   OH222742   2.354   1.280   3.031
 7593TIP3    H122743   2.303   1.273   3.112
 7593TIP3    H222744   2.307   1.347   2.980
 7594TIP3   OH222745   6.429   6.150   1.479
 7594TIP3    H122746   6.370   6.084   1.515
 7594TIP3    H222747   6.390   6.234   1.505
 7595TIP3   OH222748   3.891   3.939   2.383
 7595TIP3    H122749   3.837   3.860   2.377
 7595TIP3    H222750   3.848   4.001   2.325
 7596TIP3   OH222751   4.831   2.988   1.125
 7596TIP3    H122752   4.908   3.035   1.155
 7596TIP3    H222753   4.864   2.901   1.101
 7597TIP3   OH222754   4.659   6.176   1.170
 7597TIP3    H122755   4.665   6.270   1.185
 7597TIP3    H222756   4.745   6.142   1.196
 7598TIP3   OH222757   6.484   0.973   3.506
 7598TIP3    H122758   6.533   0.913   3.563
 7598TIP3    H222759   6.462   0.920   3.430
 7599TIP3   OH222760   3.940   0.356   5.335
 7599TIP3    H122761   3.926   0.439   5.381
 7599TIP3    H222762   3.987   0.380   5.255
 7600TIP3   OH222763   2.490   6.343   3.795
 7600TIP3    H122764   2.417   6.333   3.734
 7600TIP3    H222765   2.526   6.255   3.805
 7601TIP3   OH222766   1.297   4.591   2.332
 7601TIP3    H122767   1.323   4.612   2.242
 7601TIP3    H222768   1.339   4.659   2.385
 7602TIP3   OH222769   7.140   2.937   3.666
 7602TIP3    H122770   7.094   2.861   3.630
 7602TIP3    H222771   7.140   3.001   3.595
 7603TIP3   OH222772   0.852   4.441   0.949
 7603TIP3    H122773   0.867   4.455   1.043
 7603TIP3    H222774   0.931   4.474   0.907
 7604TIP3   OH222775   5.512   6.831   2.962
 7604TIP3    H122776   5.539   6.853   2.872
 7604TIP3    H222777   5.561   6.752   2.982
 7605TIP3   OH222778   6.346   3.470   1.589
 7605TIP3    H122779   6.251   3.456   1.594
 7605TIP3    H222780   6.357   3.564   1.603
 7606TIP3   OH222781   5.315   1.557   5.880
 7606TIP3    H122782   5.279   1.588   5.964
 7606TIP3    H222783   5.343   1.636   5.835
 7607TIP3   OH222784   6.895   3.640   4.013
 7607TIP3    H122785   6.889   3.642   3.918
 7607TIP3    H222786   6.967   3.700   4.034
 7608TIP3   OH222787   5.923   5.820   5.606
 7608TIP3    H122788   5.897   5.737   5.648
 7608TIP3    H222789   5.891   5.887   5.665
 7609TIP3   OH222790   1.922   2.088   3.694
 7609TIP3    H122791   1.944   2.083   3.787
 7609TIP3    H222792   1.828   2.102   3.692
 7610TIP3   OH222793   6.757   4.759   1.360
 7610TIP3    H122794   6.743   4.780   1.452
 7610TIP3    H222795   6.809   4.833   1.327
 7611TIP3   OH222796   1.601   0.479   3.716
 7611TIP3    H122797   1.509   0.457   3.732
 7611TIP3    H222798   1.640   0.484   3.803
 7612TIP3   OH222799   3.671   6.361   1.915
 7612TIP3    H122800   3.736   6.298   1.947
 7612TIP3    H222801   3.694   6.443   1.959
 7613TIP3   OH222802   5.051   0.404   1.071
 7613TIP3    H122803   4.985   0.413   1.001
 7613TIP3    H222804   5.105   0.331   1.043
 7614TIP3   OH222805   1.386   3.177   0.362
 7614TIP3    H122806   1.348   3.239   0.300
 7614TIP3    H222807   1.313   3.152   0.419
 7615TIP3   OH222808   6.710   6.755   3.476
 7615TIP3    H122809   6.617   6.759   3.500
 7615TIP3    H222810   6.728   6.662   3.463
 7616TIP3   OH222811   5.241   2.591   5.713
 7616TIP3    H122812   5.162   2.583   5.765
 7616TIP3    H222813   5.253   2.505   5.673
 7617TIP3   OH222814   6.180   2.449   3.768
 7617TIP3    H122815   6.229   2.528   3.746
 7617TIP3    H222816   6.246   2.388   3.800
 7618TIP3   OH222817   0.846   1.503   1.650
 7618TIP3    H122818   0.830   1.427   1.707
 7618TIP3    H222819   0.759   1.540   1.635
 7619TIP3   OH222820   2.049   4.735   3.516
 7619TIP3    H122821   2.003   4.651   3.517
 7619TIP3    H222822   2.139   4.713   3.491
 7620TIP3   OH222823   4.528   3.392   5.660
 7620TIP3    H122824   4.568   3.311   5.627
 7620TIP3    H222825   4.511   3.443   5.581
 7621TIP3   OH222826   6.250   3.962   1.366
 7621TIP3    H122827   6.306   4.038   1.379
 7621TIP3    H222828   6.311   3.892   1.342
 7622TIP3   OH222829   5.419   1.626   2.615
 7622TIP3    H122830   5.396   1.648   2.705
 7622TIP3    H222831   5.378   1.541   2.600
 7623TIP3   OH222832   1.223   2.062   5.177
 7623TIP3    H122833   1.149   2.004   5.158
 7623TIP3    H222834   1.234   2.055   5.272
 7624TIP3   OH222835   2.398   2.452   3.972
 7624TIP3    H122836   2.456   2.446   4.048
 7624TIP3    H222837   2.312   2.427   4.005
 7625TIP3   OH222838   1.467   0.682   0.712
 7625TIP3    H122839   1.413   0.604   0.709
 7625TIP3    H222840   1.553   0.651   0.740
 7626TIP3   OH222841   0.731   4.528   1.531
 7626TIP3    H122842   0.751   4.529   1.437
 7626TIP3    H222843   0.817   4.535   1.574
 7627TIP3   OH222844   1.636   6.501   5.162
 7627TIP3    H122845   1.573   6.574   5.159
 7627TIP3    H222846   1.585   6.427   5.194
 7628TIP3   OH222847   3.518   1.263   3.303
 7628TIP3    H122848   3.472   1.338   3.340
 7628TIP3    H222849   3.538   1.289   3.213
 7629TIP3   OH222850   6.372   0.546   4.512
 7629TIP3    H122851   6.340   0.559   4.423
 7629TIP3    H222852   6.347   0.456   4.534
 7630TIP3   OH222853   2.602   2.840   5.022
 7630TIP3    H122854   2.551   2.920   5.034
 7630TIP3    H222855   2.647   2.852   4.938
 7631TIP3   OH222856   0.087   0.985   5.088
 7631TIP3    H122857  -0.008   0.974   5.097
 7631TIP3    H222858   0.118   1.001   5.177
 7632TIP3   OH222859   3.247   1.740   3.387
 7632TIP3    H122860   3.305   1.803   3.431
 7632TIP3    H222861   3.179   1.721   3.452
 7633TIP3   OH222862   5.605   4.645   1.532
 7633TIP3    H122863   5.511   4.642   1.551
 7633TIP3    H222864   5.626   4.739   1.532
 7634TIP3   OH222865   2.197   3.602   1.417
 7634TIP3    H122866   2.274   3.545   1.417
 7634TIP3    H222867   2.130   3.553   1.464
 7635TIP3   OH222868   2.554   5.761   0.452
 7635TIP3    H122869   2.484   5.825   0.464
 7635TIP3    H222870   2.538   5.725   0.364
 7636TIP3   OH222871   2.790   5.373   0.111
 7636TIP3    H122872   2.824   5.298   0.160
 7636TIP3    H222873   2.863   5.399   0.055
 7637TIP3   OH222874   4.856   2.844   0.064
 7637TIP3    H122875   4.826   2.892  -0.013
 7637TIP3    H222876   4.837   2.752   0.043
 7638TIP3   OH222877   0.136   2.860   0.073
 7638TIP3    H122878   0.224   2.830   0.095
 7638TIP3    H222879   0.133   2.951   0.103
 7639TIP3   OH222880   3.893   2.431   2.194
 7639TIP3    H122881   3.900   2.365   2.263
 7639TIP3    H222882   3.946   2.396   2.122
 7640TIP3   OH222883   1.431   6.834   4.113
 7640TIP3    H122884   1.449   6.811   4.022
 7640TIP3    H222885   1.437   6.750   4.160
 7641TIP3   OH222886   5.131   5.025   5.820
 7641TIP3    H122887   5.197   5.067   5.875
 7641TIP3    H222888   5.054   5.018   5.876
 7642TIP3   OH222889   0.334   5.585   5.137
 7642TIP3    H122890   0.370   5.591   5.049
 7642TIP3    H222891   0.397   5.630   5.193
 7643TIP3   OH222892   0.680   4.887   1.943
 7643TIP3    H122893   0.677   4.962   2.003
 7643TIP3    H222894   0.753   4.834   1.974
 7644TIP3   OH222895   0.130   6.604   3.037
 7644TIP3    H122896   0.148   6.517   3.072
 7644TIP3    H222897   0.203   6.621   2.977
 7645TIP3   OH222898   1.204   5.905   4.305
 7645TIP3    H122899   1.274   5.962   4.338
 7645TIP3    H222900   1.185   5.846   4.378
 7646TIP3   OH222901   0.285   5.978   1.512
 7646TIP3    H122902   0.258   6.013   1.597
 7646TIP3    H222903   0.304   6.056   1.459
 7647TIP3   OH222904   3.684   4.853   4.366
 7647TIP3    H122905   3.688   4.763   4.400
 7647TIP3    H222906   3.592   4.879   4.379
 7648TIP3   OH222907   0.570   1.190   5.246
 7648TIP3    H122908   0.548   1.164   5.336
 7648TIP3    H222909   0.657   1.230   5.254
 7649TIP3   OH222910   3.796   6.568   3.195
 7649TIP3    H122911   3.756   6.650   3.166
 7649TIP3    H222912   3.836   6.588   3.279
 7650TIP3   OH222913   5.200   4.580   1.939
 7650TIP3    H122914   5.226   4.506   1.994
 7650TIP3    H222915   5.106   4.568   1.926
 7651TIP3   OH222916   3.970   4.933   1.798
 7651TIP3    H122917   3.878   4.936   1.824
 7651TIP3    H222918   3.987   5.019   1.760
 7652TIP3   OH222919   3.176   3.041   4.648
 7652TIP3    H122920   3.083   3.021   4.655
 7652TIP3    H222921   3.216   2.991   4.720
 7653TIP3   OH222922   6.411   3.255   4.699
 7653TIP3    H122923   6.429   3.260   4.605
 7653TIP3    H222924   6.409   3.161   4.718
 7654TIP3   OH222925   0.673   2.674   2.635
 7654TIP3    H122926   0.591   2.625   2.635
 7654TIP3    H222927   0.730   2.626   2.695
 7655TIP3   OH222928   0.834   0.590   0.985
 7655TIP3    H122929   0.922   0.604   0.949
 7655TIP3    H222930   0.776   0.593   0.909
 7656TIP3   OH222931   5.663   5.683   3.497
 7656TIP3    H122932   5.617   5.688   3.413
 7656TIP3    H222933   5.609   5.626   3.551
 7657TIP3   OH222934   5.533   4.640   4.357
 7657TIP3    H122935   5.605   4.644   4.420
 7657TIP3    H222936   5.456   4.662   4.408
 7658TIP3   OH222937   0.412   0.044   1.021
 7658TIP3    H122938   0.484   0.072   0.964
 7658TIP3    H222939   0.378  -0.035   0.980
 7659TIP3   OH222940   3.398   0.426   4.211
 7659TIP3    H122941   3.430   0.377   4.286
 7659TIP3    H222942   3.400   0.518   4.240
 7660TIP3   OH222943   6.518   0.736   2.782
 7660TIP3    H122944   6.432   0.698   2.797
 7660TIP3    H222945   6.539   0.781   2.864
 7661TIP3   OH222946   4.440   5.316   1.215
 7661TIP3    H122947   4.352   5.322   1.177
 7661TIP3    H222948   4.436   5.367   1.295
 7662TIP3   OH222949   0.242   5.714   1.942
 7662TIP3    H122950   0.185   5.643   1.971
 7662TIP3    H222951   0.260   5.695   1.851
 7663TIP3   OH222952   2.114   6.652   2.524
 7663TIP3    H122953   2.104   6.732   2.575
 7663TIP3    H222954   2.188   6.671   2.465
 7664TIP3   OH222955   5.067   6.052   5.854
 7664TIP3    H122956   5.121   5.998   5.912
 7664TIP3    H222957   5.077   6.141   5.888
 7665TIP3   OH222958   5.895   0.453   0.911
 7665TIP3    H122959   5.942   0.497   0.841
 7665TIP3    H222960   5.858   0.524   0.963
 7666TIP3   OH222961   1.037   6.056   1.318
 7666TIP3    H122962   1.081   5.987   1.368
 7666TIP3    H222963   0.996   6.111   1.385
 7667TIP3   OH222964   2.778   2.972   2.156
 7667TIP3    H122965   2.713   2.968   2.086
 7667TIP3    H222966   2.824   3.054   2.142
 7668TIP3   OH222967   3.393   3.603   3.302
 7668TIP3    H122968   3.401   3.692   3.268
 7668TIP3    H222969   3.324   3.609   3.368
 7669TIP3   OH222970   5.212   1.713   5.493
 7669TIP3    H122971   5.181   1.673   5.412
 7669TIP3    H222972   5.261   1.644   5.537
 7670TIP3   OH222973  -0.010   0.986   0.724
 7670TIP3    H122974  -0.082   0.938   0.766
 7670TIP3    H222975   0.023   0.925   0.658
 7671TIP3   OH222976   4.550   2.774   0.615
 7671TIP3    H122977   4.463   2.753   0.650
 7671TIP3    H222978   4.610   2.725   0.671
 7672TIP3   OH222979   5.871   0.224   5.036
 7672TIP3    H122980   5.781   0.192   5.045
 7672TIP3    H222981   5.862   0.312   5.001
 7673TIP3   OH222982   2.955   4.390   2.044
 7673TIP3    H122983   2.993   4.305   2.068
 7673TIP3    H222984   3.031   4.447   2.033
 7674TIP3   OH222985   1.838   6.434   1.039
 7674TIP3    H122986   1.888   6.360   1.074
 7674TIP3    H222987   1.885   6.461   0.961
 7675TIP3   OH222988   4.987   3.913   2.698
 7675TIP3    H122989   5.007   3.850   2.628
 7675TIP3    H222990   4.913   3.962   2.664
 7676TIP3   OH222991   0.661   2.670   1.755
 7676TIP3    H122992   0.711   2.593   1.727
 7676TIP3    H222993   0.715   2.712   1.821
 7677TIP3   OH222994   4.497   1.642   5.777
 7677TIP3    H122995   4.439   1.571   5.747
 7677TIP3    H222996   4.537   1.676   5.697
 7678TIP3   OH222997   3.497   4.278   2.329
 7678TIP3    H122998   3.546   4.335   2.388
 7678TIP3    H222999   3.504   4.191   2.369
 7679TIP3   OH223000   0.196   1.081   1.230
 7679TIP3    H123001   0.273   1.069   1.286
 7679TIP3    H223002   0.158   1.164   1.259
 7680TIP3   OH223003   6.410   6.575   3.579
 7680TIP3    H123004   6.429   6.656   3.532
 7680TIP3    H223005   6.361   6.521   3.517
 7681TIP3   OH223006   0.776   4.236   2.552
 7681TIP3    H123007   0.690   4.197   2.566
 7681TIP3    H223008   0.776   4.315   2.606
 7682TIP3   OH223009   1.897   6.497   4.683
 7682TIP3    H123010   1.871   6.464   4.769
 7682TIP3    H223011   1.817   6.532   4.644
 7683TIP3   OH223012   5.883   1.618   1.078
 7683TIP3    H123013   5.800   1.619   1.031
 7683TIP3    H223014   5.932   1.546   1.038
 7684TIP3   OH223015   2.607   1.811   4.987
 7684TIP3    H123016   2.573   1.796   5.075
 7684TIP3    H223017   2.695   1.775   4.989
 7685TIP3   OH223018   0.032   3.122   2.007
 7685TIP3    H123019  -0.036   3.136   1.941
 7685TIP3    H223020   0.111   3.103   1.957
 7686TIP3   OH223021   4.447   5.770   5.152
 7686TIP3    H123022   4.364   5.813   5.130
 7686TIP3    H223023   4.508   5.799   5.084
 7687TIP3   OH223024   5.590   4.487   0.693
 7687TIP3    H123025   5.529   4.471   0.620
 7687TIP3    H223026   5.534   4.517   0.765
 7688TIP3   OH223027   5.893   6.288   4.154
 7688TIP3    H123028   5.976   6.267   4.110
 7688TIP3    H223029   5.829   6.294   4.083
 7689TIP3   OH223030   1.686   3.635   0.906
 7689TIP3    H123031   1.747   3.705   0.879
 7689TIP3    H223032   1.679   3.579   0.829
 7690TIP3   OH223033   1.806   3.336   5.836
 7690TIP3    H123034   1.845   3.364   5.919
 7690TIP3    H223035   1.719   3.376   5.836
 7691TIP3   OH223036   5.136   0.737   5.570
 7691TIP3    H123037   5.047   0.742   5.536
 7691TIP3    H223038   5.127   0.697   5.657
 7692TIP3   OH223039   0.093   1.316   2.731
 7692TIP3    H123040   0.131   1.245   2.782
 7692TIP3    H223041   0.044   1.368   2.794
 7693TIP3   OH223042   0.694   2.886   0.863
 7693TIP3    H123043   0.670   2.903   0.954
 7693TIP3    H223044   0.737   2.966   0.834
 7694TIP3   OH223045   1.142   1.708   4.490
 7694TIP3    H123046   1.114   1.652   4.562
 7694TIP3    H223047   1.237   1.716   4.501
 7695TIP3   OH223048   1.093   1.093   3.715
 7695TIP3    H123049   1.053   1.178   3.737
 7695TIP3    H223050   1.168   1.115   3.661
 7696TIP3   OH223051   1.998   5.787   5.687
 7696TIP3    H123052   2.067   5.791   5.621
 7696TIP3    H223053   1.940   5.860   5.665
 7697TIP3   OH223054   3.601   5.411   3.549
 7697TIP3    H123055   3.528   5.348   3.551
 7697TIP3    H223056   3.665   5.371   3.491
 7698TIP3   OH223057   6.952   6.211   4.952
 7698TIP3    H123058   6.887   6.239   5.016
 7698TIP3    H223059   7.002   6.290   4.933
 7699TIP3   OH223060   2.850   2.380   3.087
 7699TIP3    H123061   2.842   2.335   3.004
 7699TIP3    H223062   2.940   2.364   3.116
 7700TIP3   OH223063   0.341   5.730   4.594
 7700TIP3    H123064   0.285   5.685   4.656
 7700TIP3    H223065   0.425   5.685   4.600
 7701TIP3   OH223066   4.077   4.133   4.851
 7701TIP3    H123067   4.123   4.120   4.934
 7701TIP3    H223068   4.086   4.050   4.805
 7702TIP3   OH223069   0.890   5.487   5.310
 7702TIP3    H123070   0.853   5.491   5.398
 7702TIP3    H223071   0.841   5.416   5.267
 7703TIP3   OH223072   4.361   6.176   0.664
 7703TIP3    H123073   4.433   6.239   0.654
 7703TIP3    H223074   4.403   6.090   0.656
 7704TIP3   OH223075   6.284   3.352   2.500
 7704TIP3    H123076   6.217   3.421   2.507
 7704TIP3    H223077   6.364   3.400   2.479
 7705TIP3   OH223078   6.324   2.900   5.192
 7705TIP3    H123079   6.313   2.864   5.104
 7705TIP3    H223080   6.352   2.991   5.177
 7706TIP3   OH223081   4.718   0.660   3.877
 7706TIP3    H123082   4.643   0.697   3.923
 7706TIP3    H223083   4.755   0.596   3.938
 7707TIP3   OH223084   3.157   2.041   5.118
 7707TIP3    H123085   3.234   2.096   5.103
 7707TIP3    H223086   3.182   1.956   5.081
 7708TIP3   OH223087   2.983   2.114   3.732
 7708TIP3    H123088   2.990   2.209   3.742
 7708TIP3    H223089   2.927   2.087   3.805
 7709TIP3   OH223090   1.968   5.839   4.611
 7709TIP3    H123091   1.901   5.824   4.677
 7709TIP3    H223092   1.946   5.924   4.573
 7710TIP3   OH223093   5.076   5.136   1.301
 7710TIP3    H123094   5.135   5.061   1.295
 7710TIP3    H223095   5.000   5.103   1.348
 7711TIP3   OH223096   0.932   3.859   1.306
 7711TIP3    H123097   0.847   3.876   1.347
 7711TIP3    H223098   0.922   3.775   1.262
 7712TIP3   OH223099   4.139   4.390   2.924
 7712TIP3    H123100   4.166   4.334   2.852
 7712TIP3    H223101   4.051   4.418   2.901
 7713TIP3   OH223102   3.853   1.343   1.124
 7713TIP3    H123103   3.800   1.293   1.063
 7713TIP3    H223104   3.871   1.425   1.079
 7714TIP3   OH223105   4.761   1.370   5.144
 7714TIP3    H123106   4.793   1.301   5.085
 7714TIP3    H223107   4.733   1.323   5.223
 7715TIP3   OH223108   6.604   2.306   4.615
 7715TIP3    H123109   6.539   2.283   4.548
 7715TIP3    H223110   6.583   2.397   4.639
 7716TIP3   OH223111   2.803   1.515   1.676
 7716TIP3    H123112   2.882   1.460   1.668
 7716TIP3    H223113   2.767   1.494   1.762
 7717TIP3   OH223114   5.592   5.336   0.262
 7717TIP3    H123115   5.503   5.315   0.235
 7717TIP3    H223116   5.645   5.319   0.184
 7718TIP3   OH223117   5.018   2.672   1.780
 7718TIP3    H123118   4.960   2.700   1.850
 7718TIP3    H223119   5.106   2.678   1.818
 7719TIP3   OH223120   1.429   2.714   1.543
 7719TIP3    H123121   1.479   2.778   1.593
 7719TIP3    H223122   1.486   2.638   1.536
 7720TIP3   OH223123   3.827   3.662   1.735
 7720TIP3    H123124   3.753   3.637   1.790
 7720TIP3    H223125   3.900   3.609   1.767
 7721TIP3   OH223126   3.857   2.242   4.475
 7721TIP3    H123127   3.856   2.291   4.393
 7721TIP3    H223128   3.784   2.180   4.468
 7722TIP3   OH223129   2.513   3.215   3.708
 7722TIP3    H123130   2.507   3.310   3.705
 7722TIP3    H223131   2.596   3.196   3.663
 7723TIP3   OH223132   6.069   0.662   4.504
 7723TIP3    H123133   6.101   0.611   4.430
 7723TIP3    H223134   6.146   0.705   4.540
 7724TIP3   OH223135   1.167   4.293   3.613
 7724TIP3    H123136   1.209   4.365   3.660
 7724TIP3    H223137   1.093   4.268   3.669
 7725TIP3   OH223138   3.624   1.491   4.104
 7725TIP3    H123139   3.681   1.449   4.040
 7725TIP3    H223140   3.582   1.419   4.150
 7726TIP3   OH223141   4.651   1.961   1.308
 7726TIP3    H123142   4.664   1.980   1.215
 7726TIP3    H223143   4.566   1.999   1.329
 7727TIP3   OH223144   4.765   1.363   5.919
 7727TIP3    H123145   4.780   1.452   5.888
 7727TIP3    H223146   4.725   1.374   6.005
 7728TIP3   OH223147   1.320   5.899   0.511
 7728TIP3    H123148   1.352   5.940   0.591
 7728TIP3    H223149   1.357   5.951   0.440
 7729TIP3   OH223150   3.012   2.819   5.433
 7729TIP3    H123151   3.001   2.743   5.376
 7729TIP3    H223152   2.970   2.794   5.515
 7730TIP3   OH223153   1.407   1.962   0.894
 7730TIP3    H123154   1.380   1.986   0.982
 7730TIP3    H223155   1.421   1.867   0.899
 7731TIP3   OH223156   6.558   4.971   2.734
 7731TIP3    H123157   6.644   4.977   2.777
 7731TIP3    H223158   6.497   5.009   2.797
 7732TIP3   OH223159   0.814   2.846   5.594
 7732TIP3    H123160   0.908   2.851   5.580
 7732TIP3    H223161   0.805   2.809   5.682
 7733TIP3   OH223162   6.533   4.505   5.611
 7733TIP3    H123163   6.471   4.470   5.546
 7733TIP3    H223164   6.486   4.500   5.694
 7734TIP3   OH223165   1.575   6.628   2.593
 7734TIP3    H123166   1.521   6.693   2.547
 7734TIP3    H223167   1.582   6.555   2.532
 7735TIP3   OH223168   6.576   3.462   1.398
 7735TIP3    H123169   6.567   3.421   1.483
 7735TIP3    H223170   6.493   3.508   1.384
 7736TIP3   OH223171   0.285   4.108   4.034
 7736TIP3    H123172   0.226   4.100   4.109
 7736TIP3    H223173   0.370   4.082   4.068
 7737TIP3   OH223174   5.364   1.257   5.214
 7737TIP3    H123175   5.297   1.315   5.250
 7737TIP3    H223176   5.323   1.219   5.136
 7738TIP3   OH223177   5.929   2.637   1.583
 7738TIP3    H123178   5.853   2.589   1.616
 7738TIP3    H223179   6.003   2.577   1.594
 7739TIP3   OH223180   1.045   5.811   3.342
 7739TIP3    H123181   1.016   5.820   3.251
 7739TIP3    H223182   1.120   5.750   3.337
 7740TIP3   OH223183   6.526   5.498   2.441
 7740TIP3    H123184   6.621   5.508   2.428
 7740TIP3    H223185   6.517   5.468   2.531
 7741TIP3   OH223186   2.940   3.831   1.452
 7741TIP3    H123187   2.996   3.765   1.493
 7741TIP3    H223188   2.980   3.915   1.477
 7742TIP3   OH223189   1.832   2.670   4.358
 7742TIP3    H123190   1.765   2.646   4.293
 7742TIP3    H223191   1.794   2.643   4.442
 7743TIP3   OH223192   4.438   4.325   3.515
 7743TIP3    H123193   4.464   4.384   3.444
 7743TIP3    H223194   4.475   4.240   3.491
 7744TIP3   OH223195   0.431   3.756   1.813
 7744TIP3    H123196   0.374   3.811   1.760
 7744TIP3    H223197   0.372   3.708   1.871
 7745TIP3   OH223198   5.806   0.563   3.930
 7745TIP3    H123199   5.787   0.496   3.996
 7745TIP3    H223200   5.787   0.646   3.973
 7746TIP3   OH223201   2.024   6.553   5.781
 7746TIP3    H123202   1.993   6.604   5.707
 7746TIP3    H223203   1.948   6.503   5.810
 7747TIP3   OH223204   5.760   1.811   4.628
 7747TIP3    H123205   5.776   1.877   4.696
 7747TIP3    H223206   5.779   1.727   4.671
 7748TIP3   OH223207   0.648   3.596   1.258
 7748TIP3    H123208   0.609   3.608   1.345
 7748TIP3    H223209   0.626   3.506   1.234
 7749TIP3   OH223210   6.090   0.903   1.770
 7749TIP3    H123211   6.034   0.954   1.828
 7749TIP3    H223212   6.109   0.823   1.819
 7750TIP3   OH223213   2.855   4.424   1.122
 7750TIP3    H123214   2.905   4.451   1.199
 7750TIP3    H223215   2.820   4.506   1.086
 7751TIP3   OH223216   4.190   5.869   5.163
 7751TIP3    H123217   4.119   5.874   5.227
 7751TIP3    H223218   4.156   5.913   5.086
 7752TIP3   OH223219   2.504   4.921   4.306
 7752TIP3    H123220   2.516   4.993   4.369
 7752TIP3    H223221   2.446   4.859   4.351
 7753TIP3   OH223222   4.319   4.517   2.206
 7753TIP3    H123223   4.235   4.501   2.163
 7753TIP3    H223224   4.371   4.439   2.186
 7754TIP3   OH223225   4.866   4.465   3.111
 7754TIP3    H123226   4.775   4.456   3.085
 7754TIP3    H223227   4.915   4.457   3.030
 7755TIP3   OH223228   2.805   6.623   0.602
 7755TIP3    H123229   2.730   6.663   0.646
 7755TIP3    H223230   2.854   6.698   0.566
 7756TIP3   OH223231   1.710   4.609   1.778
 7756TIP3    H123232   1.770   4.615   1.703
 7756TIP3    H223233   1.630   4.654   1.749
 7757TIP3   OH223234   1.147   0.357   4.219
 7757TIP3    H123235   1.189   0.409   4.287
 7757TIP3    H223236   1.057   0.346   4.249
 7758TIP3   OH223237   4.831   5.935   2.881
 7758TIP3    H123238   4.841   5.974   2.795
 7758TIP3    H223239   4.879   5.994   2.940
 7759TIP3   OH223240   6.027   1.218   2.353
 7759TIP3    H123241   6.120   1.235   2.368
 7759TIP3    H223242   5.995   1.295   2.308
 7760TIP3   OH223243   5.883   2.867   2.712
 7760TIP3    H123244   5.930   2.918   2.646
 7760TIP3    H223245   5.795   2.904   2.713
 7761TIP3   OH223246   2.597   3.498   4.587
 7761TIP3    H123247   2.554   3.572   4.630
 7761TIP3    H223248   2.548   3.486   4.506
 7762TIP3   OH223249   4.022   0.078   3.811
 7762TIP3    H123250   4.067   0.001   3.846
 7762TIP3    H223251   4.092   0.129   3.769
 7763TIP3   OH223252   7.018   0.110   3.274
 7763TIP3    H123253   6.925   0.101   3.295
 7763TIP3    H223254   7.052   0.172   3.339
 7764TIP3   OH223255   5.595   1.902   3.443
 7764TIP3    H123256   5.619   1.985   3.403
 7764TIP3    H223257   5.500   1.896   3.430
 7765TIP3   OH223258   5.472   6.200   4.772
 7765TIP3    H123259   5.496   6.207   4.680
 7765TIP3    H223260   5.420   6.120   4.777
 7766TIP3   OH223261   4.774   0.869   5.660
 7766TIP3    H123262   4.847   0.929   5.642
 7766TIP3    H223263   4.766   0.870   5.755
 7767TIP3   OH223264   2.050   6.150   0.127
 7767TIP3    H123265   2.132   6.136   0.079
 7767TIP3    H223266   1.991   6.188   0.063
 7768TIP3   OH223267   5.738   5.632   1.803
 7768TIP3    H123268   5.739   5.727   1.803
 7768TIP3    H223269   5.818   5.608   1.850
 7769TIP3   OH223270   5.777   5.728   0.914
 7769TIP3    H123271   5.776   5.719   1.010
 7769TIP3    H223272   5.778   5.638   0.882
 7770TIP3   OH223273   1.584   5.116   3.899
 7770TIP3    H123274   1.537   5.046   3.855
 7770TIP3    H223275   1.551   5.115   3.989
 7771TIP3   OH223276   2.126   6.112   2.787
 7771TIP3    H123277   2.130   6.022   2.754
 7771TIP3    H223278   2.080   6.161   2.718
 7772TIP3   OH223279   3.960   5.143   4.299
 7772TIP3    H123280   3.972   5.055   4.334
 7772TIP3    H223281   3.940   5.197   4.375
 7773TIP3   OH223282   0.229   1.884   2.074
 7773TIP3    H123283   0.183   1.853   1.996
 7773TIP3    H223284   0.201   1.825   2.144
 7774TIP3   OH223285   6.315   5.865   5.834
 7774TIP3    H123286   6.284   5.868   5.744
 7774TIP3    H223287   6.409   5.850   5.826
 7775TIP3   OH223288   3.360   0.373   5.566
 7775TIP3    H123289   3.434   0.434   5.577
 7775TIP3    H223290   3.396   0.299   5.518
 7776TIP3   OH223291   7.194   6.727   3.639
 7776TIP3    H123292   7.157   6.640   3.625
 7776TIP3    H223293   7.286   6.711   3.661
 7777TIP3   OH223294   0.749   5.612   3.923
 7777TIP3    H123295   0.746   5.527   3.968
 7777TIP3    H223296   0.696   5.599   3.844
 7778TIP3   OH223297   5.671   0.680   5.628
 7778TIP3    H123298   5.681   0.585   5.618
 7778TIP3    H223299   5.591   0.701   5.580
 7779TIP3   OH223300   5.840   1.232   4.521
 7779TIP3    H123301   5.868   1.142   4.507
 7779TIP3    H223302   5.881   1.257   4.604
 7780TIP3   OH223303   0.801   1.275   1.846
 7780TIP3    H123304   0.763   1.328   1.916
 7780TIP3    H223305   0.893   1.266   1.869
 7781TIP3   OH223306   0.934   0.554   2.117
 7781TIP3    H123307   0.926   0.645   2.145
 7781TIP3    H223308   1.016   0.523   2.156
 7782TIP3   OH223309   0.626   5.263   3.774
 7782TIP3    H123310   0.654   5.322   3.703
 7782TIP3    H223311   0.561   5.314   3.822
 7783TIP3   OH223312   2.127   4.095   2.256
 7783TIP3    H123313   2.062   4.130   2.194
 7783TIP3    H223314   2.173   4.027   2.207
 7784TIP3   OH223315   6.075   5.024   3.430
 7784TIP3    H123316   5.982   5.048   3.432
 7784TIP3    H223317   6.110   5.067   3.352
 7785TIP3   OH223318   3.323   6.775   4.796
 7785TIP3    H123319   3.240   6.768   4.843
 7785TIP3    H223320   3.388   6.791   4.864
 7786TIP3   OH223321   2.212   3.420   0.174
 7786TIP3    H123322   2.306   3.418   0.194
 7786TIP3    H223323   2.174   3.352   0.229
 7787TIP3   OH223324   1.438   4.370   2.137
 7787TIP3    H123325   1.374   4.412   2.079
 7787TIP3    H223326   1.392   4.363   2.221
 7788TIP3   OH223327   2.077   0.263   4.384
 7788TIP3    H123328   2.055   0.244   4.475
 7788TIP3    H223329   2.003   0.314   4.351
 7789TIP3   OH223330   5.383   5.036   2.993
 7789TIP3    H123331   5.424   5.111   2.950
 7789TIP3    H223332   5.289   5.049   2.980
 7790TIP3   OH223333   5.545   0.974   4.782
 7790TIP3    H123334   5.471   0.985   4.843
 7790TIP3    H223335   5.596   0.902   4.820
 7791TIP3   OH223336   6.669   5.927   5.483
 7791TIP3    H123337   6.574   5.917   5.471
 7791TIP3    H223338   6.702   5.944   5.395
 7792TIP3   OH223339   1.722   6.637   5.456
 7792TIP3    H123340   1.714   6.549   5.417
 7792TIP3    H223341   1.653   6.639   5.523
 7793TIP3   OH223342   4.433   0.362   3.503
 7793TIP3    H123343   4.410   0.300   3.571
 7793TIP3    H223344   4.441   0.310   3.424
 7794TIP3   OH223345   0.337   2.974   1.538
 7794TIP3    H123346   0.285   2.961   1.458
 7794TIP3    H223347   0.360   3.067   1.537
 7795TIP3   OH223348   0.932   0.605   5.560
 7795TIP3    H123349   0.861   0.563   5.512
 7795TIP3    H223350   0.918   0.699   5.548
 7796TIP3   OH223351   1.667   0.191   2.808
 7796TIP3    H123352   1.672   0.117   2.747
 7796TIP3    H223353   1.703   0.156   2.890
 7797TIP3   OH223354   5.296   0.318   3.255
 7797TIP3    H123355   5.326   0.347   3.341
 7797TIP3    H223356   5.344   0.373   3.193
 7798TIP3   OH223357   0.692   4.195   0.152
 7798TIP3    H123358   0.725   4.273   0.105
 7798TIP3    H223359   0.600   4.190   0.127
 7799TIP3   OH223360   2.544   4.702   5.627
 7799TIP3    H123361   2.548   4.764   5.699
 7799TIP3    H223362   2.636   4.690   5.600
 7800TIP3   OH223363   0.672   0.720   1.871
 7800TIP3    H123364   0.629   0.759   1.795
 7800TIP3    H223365   0.632   0.633   1.879
 7801TIP3   OH223366   6.131   1.932   4.714
 7801TIP3    H123367   6.148   1.925   4.808
 7801TIP3    H223368   6.037   1.946   4.707
 7802TIP3   OH223369   1.833   4.818   2.787
 7802TIP3    H123370   1.910   4.805   2.731
 7802TIP3    H223371   1.796   4.731   2.797
 7803TIP3   OH223372   4.043   6.416   0.404
 7803TIP3    H123373   4.060   6.402   0.497
 7803TIP3    H223374   4.111   6.364   0.360
 7804TIP3   OH223375   3.333   1.440   5.345
 7804TIP3    H123376   3.266   1.461   5.280
 7804TIP3    H223377   3.415   1.444   5.297
 7805TIP3   OH223378   3.452   4.146   3.563
 7805TIP3    H123379   3.503   4.072   3.531
 7805TIP3    H223380   3.395   4.171   3.490
 7806TIP3   OH223381   5.301   0.061   3.502
 7806TIP3    H123382   5.220   0.038   3.549
 7806TIP3    H223383   5.279   0.141   3.455
 7807TIP3   OH223384   0.966   0.727   2.478
 7807TIP3    H123385   0.878   0.758   2.498
 7807TIP3    H223386   0.961   0.632   2.491
 7808TIP3   OH223387   3.922   2.172   5.673
 7808TIP3    H123388   3.852   2.237   5.682
 7808TIP3    H223389   3.876   2.089   5.660
 7809TIP3   OH223390   1.648   3.292   4.372
 7809TIP3    H123391   1.594   3.349   4.317
 7809TIP3    H223392   1.647   3.333   4.458
 7810TIP3   OH223393   0.555   3.133   4.369
 7810TIP3    H123394   0.563   3.043   4.401
 7810TIP3    H223395   0.464   3.138   4.337
 7811TIP3   OH223396   5.043   0.514   3.036
 7811TIP3    H123397   5.056   0.535   3.128
 7811TIP3    H223398   4.954   0.545   3.017
 7812TIP3   OH223399   5.848   2.552   5.888
 7812TIP3    H123400   5.845   2.632   5.940
 7812TIP3    H223401   5.802   2.487   5.942
 7813TIP3   OH223402   3.773   2.175   5.327
 7813TIP3    H123403   3.758   2.091   5.285
 7813TIP3    H223404   3.772   2.156   5.421
 7814TIP3   OH223405   1.012   5.505   1.078
 7814TIP3    H123406   1.036   5.514   0.986
 7814TIP3    H223407   0.916   5.507   1.079
 7815TIP3   OH223408   4.238   4.604   5.353
 7815TIP3    H123409   4.240   4.556   5.436
 7815TIP3    H223410   4.161   4.661   5.360
 7816TIP3   OH223411   7.234   4.183   5.591
 7816TIP3    H123412   7.205   4.183   5.500
 7816TIP3    H223413   7.180   4.250   5.634
 7817TIP3   OH223414   3.456   5.939   3.174
 7817TIP3    H123415   3.503   5.970   3.096
 7817TIP3    H223416   3.385   5.884   3.139
 7818TIP3   OH223417   1.271   5.047   3.081
 7818TIP3    H123418   1.238   4.976   3.136
 7818TIP3    H223419   1.193   5.085   3.040
 7819TIP3   OH223420   0.639   4.135   1.021
 7819TIP3    H123421   0.583   4.126   0.944
 7819TIP3    H223422   0.618   4.060   1.075
 7820TIP3   OH223423   3.793   4.954   3.102
 7820TIP3    H123424   3.809   4.864   3.131
 7820TIP3    H223425   3.728   4.946   3.032
 7821TIP3   OH223426   6.726   1.253   3.018
 7821TIP3    H123427   6.654   1.193   2.997
 7821TIP3    H223428   6.707   1.332   2.967
 7822TIP3   OH223429   0.914   2.699   4.513
 7822TIP3    H123430   0.898   2.608   4.538
 7822TIP3    H223431   0.917   2.746   4.597
 7823TIP3   OH223432   4.187   3.970   0.590
 7823TIP3    H123433   4.184   3.920   0.671
 7823TIP3    H223434   4.228   3.911   0.527
 7824TIP3   OH223435   6.112   5.807   4.962
 7824TIP3    H123436   6.176   5.737   4.974
 7824TIP3    H223437   6.032   5.775   5.005
 7825TIP3   OH223438   6.831   2.203   4.015
 7825TIP3    H123439   6.839   2.126   4.071
 7825TIP3    H223440   6.908   2.200   3.959
 7826TIP3   OH223441   2.137   0.933   5.202
 7826TIP3    H123442   2.060   0.877   5.193
 7826TIP3    H223443   2.165   0.949   5.112
 7827TIP3   OH223444   3.355   6.036   5.835
 7827TIP3    H123445   3.288   5.981   5.876
 7827TIP3    H223446   3.308   6.116   5.812
 7828TIP3   OH223447   1.240   3.930   3.299
 7828TIP3    H123448   1.276   3.944   3.386
 7828TIP3    H223449   1.175   3.999   3.288
 7829TIP3   OH223450   0.458   0.777   2.129
 7829TIP3    H123451   0.454   0.841   2.200
 7829TIP3    H223452   0.522   0.712   2.158
 7830TIP3   OH223453   1.017   3.243   0.792
 7830TIP3    H123454   1.013   3.322   0.846
 7830TIP3    H223455   0.926   3.212   0.790
 7831TIP3   OH223456   5.541   5.991   1.760
 7831TIP3    H123457   5.554   6.085   1.747
 7831TIP3    H223458   5.629   5.956   1.773
 7832TIP3   OH223459   6.585   6.585   4.503
 7832TIP3    H123460   6.632   6.570   4.421
 7832TIP3    H223461   6.632   6.656   4.545
 7833TIP3   OH223462   1.533   1.710   3.576
 7833TIP3    H123463   1.467   1.749   3.520
 7833TIP3    H223464   1.578   1.784   3.616
 7834TIP3   OH223465   1.323   1.450   3.675
 7834TIP3    H123466   1.346   1.407   3.757
 7834TIP3    H223467   1.389   1.518   3.663
 7835TIP3   OH223468   1.805   0.089   0.499
 7835TIP3    H123469   1.811   0.164   0.440
 7835TIP3    H223470   1.883   0.095   0.553
 7836TIP3   OH223471   2.501   0.659   5.143
 7836TIP3    H123472   2.586   0.648   5.100
 7836TIP3    H223473   2.470   0.570   5.158
 7837TIP3   OH223474   4.242   4.137   2.169
 7837TIP3    H123475   4.187   4.137   2.091
 7837TIP3    H223476   4.217   4.216   2.216
 7838TIP3   OH223477   0.313   0.851   3.481
 7838TIP3    H123478   0.292   0.850   3.574
 7838TIP3    H223479   0.401   0.814   3.476
 7839TIP3   OH223480   4.051   5.726   4.849
 7839TIP3    H123481   4.056   5.677   4.932
 7839TIP3    H223482   4.041   5.817   4.876
 7840TIP3   OH223483   5.633   2.559   0.931
 7840TIP3    H123484   5.550   2.598   0.958
 7840TIP3    H223485   5.633   2.568   0.835
 7841TIP3   OH223486   3.932   1.459   4.650
 7841TIP3    H123487   3.840   1.434   4.660
 7841TIP3    H223488   3.953   1.507   4.730
 7842TIP3   OH223489   0.622   3.651   4.675
 7842TIP3    H123490   0.638   3.578   4.735
 7842TIP3    H223491   0.680   3.633   4.601
 7843TIP3   OH223492   1.171   5.006   4.245
 7843TIP3    H123493   1.085   4.999   4.203
 7843TIP3    H223494   1.215   4.924   4.222
 7844TIP3   OH223495   3.831   2.454   4.971
 7844TIP3    H123496   3.923   2.472   4.994
 7844TIP3    H223497   3.836   2.385   4.905
 7845TIP3   OH223498   4.116   4.042   1.634
 7845TIP3    H123499   4.065   3.968   1.600
 7845TIP3    H223500   4.066   4.119   1.609
 7846TIP3   OH223501   2.355   4.097   2.487
 7846TIP3    H123502   2.264   4.081   2.515
 7846TIP3    H223503   2.354   4.186   2.454
 7847TIP3   OH223504   6.439   4.133   0.305
 7847TIP3    H123505   6.347   4.131   0.281
 7847TIP3    H223506   6.482   4.177   0.231
 7848TIP3   OH223507   4.113   1.909   5.931
 7848TIP3    H123508   4.106   1.936   5.839
 7848TIP3    H223509   4.207   1.915   5.950
 7849TIP3   OH223510   5.931   5.033   0.152
 7849TIP3    H123511   5.865   5.098   0.126
 7849TIP3    H223512   5.894   4.991   0.230
 7850TIP3   OH223513   4.014   3.177   0.078
 7850TIP3    H123514   4.084   3.112   0.064
 7850TIP3    H223515   3.933   3.126   0.073
 7851TIP3   OH223516   3.216   6.190  -0.028
 7851TIP3    H123517   3.181   6.103  -0.008
 7851TIP3    H223518   3.303   6.190   0.012
 7852TIP3   OH223519   2.971   1.061   4.103
 7852TIP3    H123520   2.900   1.108   4.059
 7852TIP3    H223521   2.945   0.969   4.101
 7853TIP3   OH223522   5.491   5.513   1.183
 7853TIP3    H123523   5.529   5.464   1.110
 7853TIP3    H223524   5.437   5.449   1.229
 7854TIP3   OH223525   0.543   2.114   2.241
 7854TIP3    H123526   0.620   2.100   2.186
 7854TIP3    H223527   0.578   2.144   2.324
 7855TIP3   OH223528   5.941   5.544   2.768
 7855TIP3    H123529   5.961   5.473   2.829
 7855TIP3    H223530   6.023   5.559   2.721
 7856TIP3   OH223531   6.352   1.635   4.319
 7856TIP3    H123532   6.297   1.644   4.396
 7856TIP3    H223533   6.306   1.684   4.251
 7857TIP3   OH223534   1.002   5.958   3.774
 7857TIP3    H123535   0.965   5.906   3.845
 7857TIP3    H223536   1.090   5.981   3.805
 7858TIP3   OH223537   2.228   5.050   1.447
 7858TIP3    H123538   2.250   4.969   1.493
 7858TIP3    H223539   2.305   5.106   1.459
 7859TIP3   OH223540   3.899   5.069   4.670
 7859TIP3    H123541   3.816   5.044   4.710
 7859TIP3    H223542   3.917   5.156   4.706
 7860TIP3   OH223543   6.153   0.920   4.268
 7860TIP3    H123544   6.166   0.825   4.260
 7860TIP3    H223545   6.145   0.936   4.362
 7861TIP3   OH223546   0.196   1.564   2.685
 7861TIP3    H123547   0.139   1.594   2.756
 7861TIP3    H223548   0.180   1.470   2.679
 7862TIP3   OH223549   6.489   2.272   3.170
 7862TIP3    H123550   6.443   2.191   3.145
 7862TIP3    H223551   6.574   2.242   3.202
 7863TIP3   OH223552   2.732   6.353   1.348
 7863TIP3    H123553   2.673   6.301   1.402
 7863TIP3    H223554   2.689   6.355   1.262
 7864TIP3   OH223555   6.109   2.396   5.453
 7864TIP3    H123556   6.024   2.367   5.418
 7864TIP3    H223557   6.170   2.386   5.379
 7865TIP3   OH223558   6.010   3.847   5.540
 7865TIP3    H123559   5.985   3.898   5.617
 7865TIP3    H223560   5.985   3.757   5.561
 7866TIP3   OH223561   1.365   5.436   0.613
 7866TIP3    H123562   1.280   5.393   0.622
 7866TIP3    H223563   1.381   5.438   0.518
 7867TIP3   OH223564   3.397   1.339   2.551
 7867TIP3    H123565   3.354   1.380   2.625
 7867TIP3    H223566   3.470   1.291   2.589
 7868TIP3   OH223567   2.734   1.240   4.401
 7868TIP3    H123568   2.649   1.285   4.398
 7868TIP3    H223569   2.798   1.311   4.397
 7869TIP3   OH223570   2.624   1.113   4.171
 7869TIP3    H123571   2.658   1.152   4.251
 7869TIP3    H223572   2.533   1.140   4.168
 7870TIP3   OH223573   1.754   6.101   1.293
 7870TIP3    H123574   1.681   6.039   1.295
 7870TIP3    H223575   1.802   6.083   1.374
 7871TIP3   OH223576   0.512   1.602   3.988
 7871TIP3    H123577   0.578   1.650   3.939
 7871TIP3    H223578   0.444   1.667   4.008
 7872TIP3   OH223579   5.247   2.921   5.409
 7872TIP3    H123580   5.237   2.849   5.347
 7872TIP3    H223581   5.315   2.977   5.371
 7873TIP3   OH223582   0.782   6.538   5.758
 7873TIP3    H123583   0.743   6.574   5.838
 7873TIP3    H223584   0.835   6.464   5.788
 7874TIP3   OH223585   0.635   0.306   2.947
 7874TIP3    H123586   0.635   0.378   3.010
 7874TIP3    H223587   0.666   0.230   2.997
 7875TIP3   OH223588   0.919   3.425   4.097
 7875TIP3    H123589   0.883   3.387   4.177
 7875TIP3    H223590   0.904   3.359   4.030
 7876TIP3   OH223591   4.439   5.445   2.538
 7876TIP3    H123592   4.411   5.370   2.486
 7876TIP3    H223593   4.439   5.413   2.628
 7877TIP3   OH223594   7.175   6.349   0.005
 7877TIP3    H123595   7.143   6.429  -0.038
 7877TIP3    H223596   7.179   6.372   0.098
 7878TIP3   OH223597   4.984   0.618   5.746
 7878TIP3    H123598   4.908   0.566   5.719
 7878TIP3    H223599   4.951   0.676   5.814
 7879TIP3   OH223600   3.708   1.585   3.310
 7879TIP3    H123601   3.709   1.585   3.406
 7879TIP3    H223602   3.643   1.650   3.286
 7880TIP3   OH223603   2.262   2.782   4.449
 7880TIP3    H123604   2.286   2.759   4.539
 7880TIP3    H223605   2.257   2.699   4.403
 7881TIP3   OH223606   6.723   6.470   3.477
 7881TIP3    H123607   6.658   6.421   3.527
 7881TIP3    H223608   6.789   6.405   3.452
 7882TIP3   OH223609   6.710   1.141   5.032
 7882TIP3    H123610   6.623   1.154   4.995
 7882TIP3    H223611   6.753   1.226   5.021
 7883TIP3   OH223612   1.051   1.599   3.077
 7883TIP3    H123613   1.089   1.617   3.163
 7883TIP3    H223614   1.069   1.678   3.026
 7884TIP3   OH223615   1.091   2.244   1.273
 7884TIP3    H123616   1.051   2.235   1.359
 7884TIP3    H223617   1.157   2.313   1.284
 7885TIP3   OH223618   3.967   5.908   0.721
 7885TIP3    H123619   3.881   5.899   0.681
 7885TIP3    H223620   3.956   5.876   0.811
 7886TIP3   OH223621   0.845   4.455   2.705
 7886TIP3    H123622   0.834   4.544   2.670
 7886TIP3    H223623   0.815   4.462   2.795
 7887TIP3   OH223624   5.408   0.484   2.463
 7887TIP3    H123625   5.354   0.562   2.478
 7887TIP3    H223626   5.380   0.451   2.378
 7888TIP3   OH223627   2.659   3.958   4.404
 7888TIP3    H123628   2.619   3.967   4.317
 7888TIP3    H223629   2.603   3.895   4.449
 7889TIP3   OH223630   3.872   0.826   0.097
 7889TIP3    H123631   3.922   0.863   0.169
 7889TIP3    H223632   3.842   0.741   0.130
 7890TIP3   OH223633   5.266   1.498   4.782
 7890TIP3    H123634   5.335   1.516   4.846
 7890TIP3    H223635   5.280   1.407   4.756
 7891TIP3   OH223636   3.973   5.517   3.507
 7891TIP3    H123637   3.936   5.488   3.591
 7891TIP3    H223638   3.932   5.459   3.443
 7892TIP3   OH223639   0.111   5.945   0.567
 7892TIP3    H123640   0.026   5.938   0.611
 7892TIP3    H223641   0.135   6.037   0.574
 7893TIP3   OH223642   2.649   3.676   1.878
 7893TIP3    H123643   2.660   3.763   1.840
 7893TIP3    H223644   2.738   3.646   1.897
 7894TIP3   OH223645   4.851   4.720   3.257
 7894TIP3    H123646   4.844   4.635   3.215
 7894TIP3    H223647   4.898   4.775   3.195
 7895TIP3   OH223648   3.741   3.318   1.887
 7895TIP3    H123649   3.816   3.359   1.844
 7895TIP3    H223650   3.761   3.225   1.886
 7896TIP3   OH223651   6.631   6.516   3.227
 7896TIP3    H123652   6.662   6.481   3.311
 7896TIP3    H223653   6.652   6.609   3.231
 7897TIP3   OH223654   0.325   3.450   4.896
 7897TIP3    H123655   0.288   3.485   4.815
 7897TIP3    H223656   0.415   3.429   4.874
 7898TIP3   OH223657   5.125   4.426   0.865
 7898TIP3    H123658   5.135   4.332   0.849
 7898TIP3    H223659   5.046   4.432   0.919
 7899TIP3   OH223660   3.488   2.329   4.888
 7899TIP3    H123661   3.502   2.328   4.793
 7899TIP3    H223662   3.566   2.372   4.924
 7900TIP3   OH223663   2.536   0.413   4.868
 7900TIP3    H123664   2.624   0.375   4.874
 7900TIP3    H223665   2.542   0.476   4.796
 7901TIP3   OH223666   6.528   3.018   1.980
 7901TIP3    H123667   6.556   3.002   2.070
 7901TIP3    H223668   6.457   3.082   1.989
 7902TIP3   OH223669   2.467   6.448   4.556
 7902TIP3    H123670   2.429   6.364   4.531
 7902TIP3    H223671   2.449   6.455   4.650
 7903TIP3   OH223672   2.034   3.714   0.800
 7903TIP3    H123673   1.958   3.733   0.744
 7903TIP3    H223674   2.062   3.627   0.772
 7904TIP3   OH223675   6.665   2.329   4.209
 7904TIP3    H123676   6.718   2.404   4.237
 7904TIP3    H223677   6.722   2.280   4.149
 7905TIP3   OH223678   5.213   5.683   2.683
 7905TIP3    H123679   5.305   5.663   2.704
 7905TIP3    H223680   5.167   5.674   2.767
 7906TIP3   OH223681   5.771   6.733   2.249
 7906TIP3    H123682   5.723   6.802   2.202
 7906TIP3    H223683   5.718   6.654   2.236
 7907TIP3   OH223684   6.589   3.548   3.595
 7907TIP3    H123685   6.588   3.482   3.525
 7907TIP3    H223686   6.632   3.624   3.556
 7908TIP3   OH223687   3.432   3.662   3.622
 7908TIP3    H123688   3.470   3.731   3.676
 7908TIP3    H223689   3.506   3.627   3.572
 7909TIP3   OH223690   2.938   5.565   2.835
 7909TIP3    H123691   2.966   5.487   2.883
 7909TIP3    H223692   2.993   5.636   2.869
 7910TIP3   OH223693   5.439   1.522   3.860
 7910TIP3    H123694   5.362   1.544   3.913
 7910TIP3    H223695   5.404   1.505   3.773
 7911TIP3   OH223696   1.754   6.689   0.639
 7911TIP3    H123697   1.779   6.701   0.548
 7911TIP3    H223698   1.661   6.670   0.637
 7912TIP3   OH223699   2.746   2.883   0.666
 7912TIP3    H123700   2.732   2.962   0.615
 7912TIP3    H223701   2.841   2.873   0.669
 7913TIP3   OH223702   5.576   1.451   5.494
 7913TIP3    H123703   5.666   1.449   5.526
 7913TIP3    H223704   5.584   1.444   5.399
 7914TIP3   OH223705   3.257   4.754   4.257
 7914TIP3    H123706   3.167   4.723   4.267
 7914TIP3    H223707   3.249   4.849   4.244
 7915TIP3   OH223708   6.831   5.382   3.929
 7915TIP3    H123709   6.886   5.427   3.865
 7915TIP3    H223710   6.805   5.450   3.991
 7916TIP3   OH223711   3.664   1.042   5.401
 7916TIP3    H123712   3.742   1.077   5.444
 7916TIP3    H223713   3.690   0.954   5.375
 7917TIP3   OH223714   7.049   5.540   1.295
 7917TIP3    H123715   7.022   5.524   1.205
 7917TIP3    H223716   6.967   5.551   1.343
 7918TIP3   OH223717   0.906   3.386   1.013
 7918TIP3    H123718   0.949   3.349   1.090
 7918TIP3    H223719   0.879   3.473   1.040
 7919TIP3   OH223720   3.668   1.847   2.388
 7919TIP3    H123721   3.739   1.814   2.333
 7919TIP3    H223722   3.700   1.837   2.477
 7920TIP3   OH223723   1.549   5.471   5.888
 7920TIP3    H123724   1.468   5.453   5.936
 7920TIP3    H223725   1.529   5.447   5.798
 7921TIP3   OH223726   5.821   5.479   0.844
 7921TIP3    H123727   5.856   5.398   0.881
 7921TIP3    H223728   5.770   5.451   0.768
 7922TIP3   OH223729   4.886   3.388   1.579
 7922TIP3    H123730   4.917   3.316   1.524
 7922TIP3    H223731   4.867   3.459   1.517
 7923TIP3   OH223732   1.184   1.276   1.299
 7923TIP3    H123733   1.122   1.332   1.346
 7923TIP3    H223734   1.270   1.316   1.316
 7924TIP3   OH223735   0.379   3.615   3.190
 7924TIP3    H123736   0.370   3.604   3.095
 7924TIP3    H223737   0.362   3.708   3.205
 7925TIP3   OH223738   2.046   0.825   2.925
 7925TIP3    H123739   2.001   0.794   2.847
 7925TIP3    H223740   1.981   0.879   2.971
 7926TIP3   OH223741   4.131   6.750   5.897
 7926TIP3    H123742   4.123   6.658   5.872
 7926TIP3    H223743   4.152   6.796   5.816
 7927TIP3   OH223744   2.475   6.733  -0.014
 7927TIP3    H123745   2.388   6.693  -0.015
 7927TIP3    H223746   2.458   6.825  -0.037
 7928TIP3   OH223747   6.971   0.690   4.485
 7928TIP3    H123748   6.932   0.751   4.548
 7928TIP3    H223749   6.972   0.606   4.530
 7929TIP3   OH223750   1.080   4.763   5.714
 7929TIP3    H123751   1.030   4.683   5.731
 7929TIP3    H223752   1.101   4.758   5.620
 7930TIP3   OH223753   3.032   2.805   4.836
 7930TIP3    H123754   3.107   2.759   4.798
 7930TIP3    H223755   3.030   2.775   4.927
 7931TIP3   OH223756   1.479   2.592   2.073
 7931TIP3    H123757   1.401   2.636   2.107
 7931TIP3    H223758   1.505   2.645   1.998
 7932TIP3   OH223759   4.339   2.556   3.037
 7932TIP3    H123760   4.384   2.639   3.021
 7932TIP3    H223761   4.350   2.541   3.131
 7933TIP3   OH223762   6.789   3.246   1.170
 7933TIP3    H123763   6.729   3.316   1.147
 7933TIP3    H223764   6.814   3.207   1.086
 7934TIP3   OH223765   6.102   0.621   4.954
 7934TIP3    H123766   6.171   0.602   4.890
 7934TIP3    H223767   6.149   0.658   5.029
 7935TIP3   OH223768   3.177   6.596   1.071
 7935TIP3    H123769   3.103   6.553   1.027
 7935TIP3    H223770   3.245   6.602   1.004
 7936TIP3   OH223771   2.999   0.902   5.215
 7936TIP3    H123772   3.058   0.835   5.249
 7936TIP3    H223773   3.057   0.971   5.183
 7937TIP3   OH223774   0.765   2.116   2.100
 7937TIP3    H123775   0.824   2.050   2.063
 7937TIP3    H223776   0.811   2.150   2.176
 7938TIP3   OH223777   7.125   6.229   2.327
 7938TIP3    H123778   7.079   6.308   2.297
 7938TIP3    H223779   7.139   6.178   2.247
 7939TIP3   OH223780   3.149   3.690   1.566
 7939TIP3    H123781   3.168   3.608   1.520
 7939TIP3    H223782   3.213   3.753   1.533
 7940TIP3   OH223783   3.777   4.206   0.688
 7940TIP3    H123784   3.784   4.216   0.783
 7940TIP3    H223785   3.690   4.169   0.673
 7941TIP3   OH223786   3.521   3.951   2.278
 7941TIP3    H123787   3.594   3.983   2.223
 7941TIP3    H223788   3.507   3.861   2.249
 7942TIP3   OH223789   3.435   3.689   0.798
 7942TIP3    H123790   3.465   3.663   0.711
 7942TIP3    H223791   3.421   3.606   0.844
 7943TIP3   OH223792   0.551   5.359   1.038
 7943TIP3    H123793   0.619   5.402   1.088
 7943TIP3    H223794   0.498   5.313   1.103
 7944TIP3   OH223795   4.578   0.256   0.930
 7944TIP3    H123796   4.641   0.318   0.966
 7944TIP3    H223797   4.625   0.213   0.858
 7945TIP3   OH223798   2.443   6.196   4.818
 7945TIP3    H123799   2.453   6.129   4.885
 7945TIP3    H223800   2.464   6.151   4.736
 7946TIP3   OH223801   4.022   4.805   1.224
 7946TIP3    H123802   4.020   4.827   1.317
 7946TIP3    H223803   3.937   4.833   1.191
 7947TIP3   OH223804   2.997   5.597   2.216
 7947TIP3    H123805   3.067   5.660   2.203
 7947TIP3    H223806   3.025   5.545   2.292
 7948TIP3   OH223807   4.638   1.706   0.305
 7948TIP3    H123808   4.703   1.647   0.341
 7948TIP3    H223809   4.660   1.792   0.342
 7949TIP3   OH223810   1.924   1.287   2.756
 7949TIP3    H123811   1.887   1.215   2.705
 7949TIP3    H223812   1.902   1.365   2.705
 7950TIP3   OH223813   5.772   2.017   2.705
 7950TIP3    H123814   5.680   2.018   2.733
 7950TIP3    H223815   5.814   1.951   2.761
 7951TIP3   OH223816   0.635   5.289   0.506
 7951TIP3    H123817   0.569   5.222   0.527
 7951TIP3    H223818   0.717   5.240   0.501
 7952TIP3   OH223819   0.208   5.856   3.579
 7952TIP3    H123820   0.264   5.847   3.501
 7952TIP3    H223821   0.128   5.896   3.546
 7953TIP3   OH223822   6.865   6.252   3.368
 7953TIP3    H123823   6.919   6.211   3.435
 7953TIP3    H223824   6.926   6.273   3.297
 7954TIP3   OH223825   2.216   0.838   4.371
 7954TIP3    H123826   2.157   0.890   4.317
 7954TIP3    H223827   2.258   0.777   4.310
 7955TIP3   OH223828   2.596   6.795   2.517
 7955TIP3    H123829   2.527   6.766   2.457
 7955TIP3    H223830   2.577   6.750   2.599
 7956TIP3   OH223831   5.553   3.400   2.020
 7956TIP3    H123832   5.513   3.318   2.048
 7956TIP3    H223833   5.557   3.453   2.099
 7957TIP3   OH223834   5.953   4.451   5.537
 7957TIP3    H123835   6.007   4.508   5.591
 7957TIP3    H223836   5.916   4.509   5.470
 7958TIP3   OH223837   5.459   4.374   2.353
 7958TIP3    H123838   5.538   4.331   2.384
 7958TIP3    H223839   5.478   4.399   2.262
 7959TIP3   OH223840   1.984   5.653   4.426
 7959TIP3    H123841   1.969   5.716   4.496
 7959TIP3    H223842   1.977   5.704   4.345
 7960TIP3   OH223843   5.653   3.114   2.334
 7960TIP3    H123844   5.635   3.102   2.428
 7960TIP3    H223845   5.725   3.178   2.332
 7961TIP3   OH223846   0.934   5.662   2.344
 7961TIP3    H123847   1.027   5.687   2.339
 7961TIP3    H223848   0.894   5.733   2.395
 7962TIP3   OH223849   7.111   1.279   0.964
 7962TIP3    H123850   7.033   1.316   0.923
 7962TIP3    H223851   7.174   1.351   0.967
 7963TIP3   OH223852   2.969   4.203   0.210
 7963TIP3    H123853   2.903   4.196   0.140
 7963TIP3    H223854   2.920   4.186   0.290
 7964TIP3   OH223855   4.463   6.770   0.104
 7964TIP3    H123856   4.441   6.711   0.176
 7964TIP3    H223857   4.557   6.757   0.091
 7965TIP3   OH223858   5.520   6.084   0.541
 7965TIP3    H123859   5.540   6.142   0.467
 7965TIP3    H223860   5.502   5.999   0.500
 7966TIP3   OH223861   2.867   5.710   5.124
 7966TIP3    H123862   2.865   5.616   5.105
 7966TIP3    H223863   2.959   5.734   5.120
 7967TIP3   OH223864   2.839   4.820   4.395
 7967TIP3    H123865   2.831   4.908   4.432
 7967TIP3    H223866   2.777   4.818   4.322
 7968TIP3   OH223867   1.409   0.303   5.868
 7968TIP3    H123868   1.406   0.213   5.836
 7968TIP3    H223869   1.327   0.313   5.916
 7969TIP3   OH223870   5.048   0.100   1.142
 7969TIP3    H123871   5.012   0.011   1.144
 7969TIP3    H223872   5.031   0.134   1.230
 7970TIP3   OH223873   2.210   1.243   4.455
 7970TIP3    H123874   2.153   1.168   4.466
 7970TIP3    H223875   2.155   1.319   4.475
 7971TIP3   OH223876   3.153   6.301   3.603
 7971TIP3    H123877   3.240   6.321   3.636
 7971TIP3    H223878   3.103   6.382   3.616
 7972TIP3   OH223879   5.243   0.226   5.352
 7972TIP3    H123880   5.292   0.154   5.393
 7972TIP3    H223881   5.299   0.254   5.279
 7973TIP3   OH223882   2.313   6.176   4.014
 7973TIP3    H123883   2.335   6.258   3.970
 7973TIP3    H223884   2.392   6.151   4.061
 7974TIP3   OH223885   0.893   4.740   2.081
 7974TIP3    H123886   0.933   4.653   2.071
 7974TIP3    H223887   0.842   4.733   2.162
 7975TIP3   OH223888   5.927   5.760   4.275
 7975TIP3    H123889   5.864   5.731   4.210
 7975TIP3    H223890   6.001   5.793   4.224
 7976TIP3   OH223891   5.728   3.552   5.148
 7976TIP3    H123892   5.794   3.539   5.080
 7976TIP3    H223893   5.647   3.519   5.109
 7977TIP3   OH223894   7.032   3.814   1.877
 7977TIP3    H123895   7.004   3.737   1.928
 7977TIP3    H223896   7.127   3.815   1.888
 7978TIP3   OH223897   0.303   1.423   3.023
 7978TIP3    H123898   0.263   1.483   3.087
 7978TIP3    H223899   0.244   1.348   3.020
 7979TIP3   OH223900   3.220   3.106   0.108
 7979TIP3    H123901   3.223   3.174   0.041
 7979TIP3    H223902   3.307   3.067   0.108
 7980TIP3   OH223903   4.814   5.768   5.696
 7980TIP3    H123904   4.899   5.723   5.691
 7980TIP3    H223905   4.769   5.725   5.769
 7981TIP3   OH223906   5.960   5.399   4.978
 7981TIP3    H123907   6.006   5.385   4.896
 7981TIP3    H223908   5.958   5.312   5.019
 7982TIP3   OH223909   3.768   5.919   2.001
 7982TIP3    H123910   3.675   5.927   1.982
 7982TIP3    H223911   3.811   5.937   1.917
 7983TIP3   OH223912   3.919   4.592   3.000
 7983TIP3    H123913   3.916   4.673   2.949
 7983TIP3    H223914   3.899   4.620   3.089
 7984TIP3   OH223915   2.585   3.706   5.320
 7984TIP3    H123916   2.671   3.717   5.360
 7984TIP3    H223917   2.588   3.619   5.280
 7985TIP3   OH223918   4.798   3.431   4.703
 7985TIP3    H123919   4.704   3.425   4.721
 7985TIP3    H223920   4.829   3.341   4.703
 7986TIP3   OH223921   5.126   6.732   2.698
 7986TIP3    H123922   5.055   6.695   2.751
 7986TIP3    H223923   5.154   6.810   2.747
 7987TIP3   OH223924   0.553   4.516   2.460
 7987TIP3    H123925   0.616   4.549   2.524
 7987TIP3    H223926   0.512   4.595   2.424
 7988TIP3   OH223927   3.981   5.305   2.512
 7988TIP3    H123928   3.917   5.238   2.487
 7988TIP3    H223929   4.027   5.267   2.587
 7989TIP3   OH223930   3.428   5.825   5.189
 7989TIP3    H123931   3.429   5.775   5.108
 7989TIP3    H223932   3.378   5.904   5.167
 7990TIP3   OH223933   1.007   1.375   3.779
 7990TIP3    H123934   0.990   1.456   3.731
 7990TIP3    H223935   1.049   1.403   3.860
 7991TIP3   OH223936   3.662   4.385   3.218
 7991TIP3    H123937   3.645   4.477   3.194
 7991TIP3    H223938   3.665   4.386   3.314
 7992TIP3   OH223939   5.602   6.144   2.666
 7992TIP3    H123940   5.614   6.238   2.654
 7992TIP3    H223941   5.600   6.108   2.577
 7993TIP3   OH223942   6.620   1.463   3.309
 7993TIP3    H123943   6.570   1.479   3.229
 7993TIP3    H223944   6.634   1.368   3.310
 7994TIP3   OH223945   5.421   0.369   3.508
 7994TIP3    H123946   5.494   0.401   3.456
 7994TIP3    H223947   5.461   0.313   3.574
 7995TIP3   OH223948   5.443   3.292   3.965
 7995TIP3    H123949   5.387   3.266   3.892
 7995TIP3    H223950   5.433   3.387   3.970
 7996TIP3   OH223951   3.985   1.978   3.377
 7996TIP3    H123952   3.978   1.888   3.409
 7996TIP3    H223953   4.065   1.979   3.325
 7997TIP3   OH223954   1.882   2.994   3.454
 7997TIP3    H123955   1.861   2.985   3.361
 7997TIP3    H223956   1.937   3.072   3.458
 7998TIP3   OH223957   2.991   1.665   3.873
 7998TIP3    H123958   3.038   1.581   3.870
 7998TIP3    H223959   3.001   1.700   3.784
 7999TIP3   OH223960   4.617   5.599   3.006
 7999TIP3    H123961   4.540   5.576   2.954
 7999TIP3    H223962   4.613   5.694   3.014
 8000TIP3   OH223963   0.789   5.018   1.009
 8000TIP3    H123964   0.774   5.079   0.936
 8000TIP3    H223965   0.816   5.075   1.081
 8001TIP3   OH223966   0.445   6.589   4.402
 8001TIP3    H123967   0.426   6.532   4.476
 8001TIP3    H223968   0.368   6.645   4.395
 8002TIP3   OH223969   4.436   4.625   2.755
 8002TIP3    H123970   4.497   4.695   2.733
 8002TIP3    H223971   4.407   4.646   2.844
 8003TIP3   OH223972   4.346   5.472   0.271
 8003TIP3    H123973   4.274   5.525   0.306
 8003TIP3    H223974   4.382   5.427   0.348
 8004TIP3   OH223975   5.927   5.244   1.637
 8004TIP3    H123976   5.855   5.288   1.682
 8004TIP3    H223977   5.884   5.184   1.577
 8005TIP3   OH223978   5.790   2.365   0.331
 8005TIP3    H123979   5.791   2.398   0.420
 8005TIP3    H223980   5.732   2.289   0.334
 8006TIP3   OH223981   0.748   5.196   4.286
 8006TIP3    H123982   0.726   5.183   4.378
 8006TIP3    H223983   0.685   5.143   4.238
 8007TIP3   OH223984  -0.031   6.052   2.133
 8007TIP3    H123985  -0.074   5.967   2.129
 8007TIP3    H223986   0.062   6.033   2.127
 8008TIP3   OH223987   7.055   1.536   4.607
 8008TIP3    H123988   7.040   1.592   4.531
 8008TIP3    H223989   7.104   1.461   4.572
 8009TIP3   OH223990   3.646   1.507   2.835
 8009TIP3    H123991   3.588   1.498   2.759
 8009TIP3    H223992   3.717   1.446   2.818
 8010TIP3   OH223993   0.144   5.649   3.276
 8010TIP3    H123994   0.239   5.639   3.284
 8010TIP3    H223995   0.132   5.698   3.195
 8011TIP3   OH223996   0.850   4.028   0.575
 8011TIP3    H123997   0.837   4.097   0.640
 8011TIP3    H223998   0.936   4.047   0.537
 8012TIP3   OH223999   1.787   1.715   0.496
 8012TIP3    H124000   1.751   1.745   0.412
 8012TIP3    H224001   1.731   1.758   0.562
 8013TIP3   OH224002   3.693   5.786   0.655
 8013TIP3    H124003   3.668   5.770   0.564
 8013TIP3    H224004   3.697   5.699   0.695
 8014TIP3   OH224005   2.061   2.944   2.164
 8014TIP3    H124006   2.091   2.853   2.156
 8014TIP3    H224007   2.050   2.958   2.258
 8015TIP3   OH224008   0.936   1.688   4.309
 8015TIP3    H124009   1.009   1.709   4.366
 8015TIP3    H224010   0.891   1.616   4.353
 8016TIP3   OH224011   1.142   4.380   3.176
 8016TIP3    H124012   1.120   4.455   3.121
 8016TIP3    H224013   1.236   4.367   3.162
 8017TIP3   OH224014   3.377   5.722   5.448
 8017TIP3    H124015   3.398   5.777   5.372
 8017TIP3    H224016   3.281   5.722   5.452
 8018TIP3   OH224017   0.685   3.375   5.145
 8018TIP3    H124018   0.641   3.328   5.215
 8018TIP3    H224019   0.716   3.456   5.186
 8019TIP3   OH224020   6.850   3.681   2.069
 8019TIP3    H124021   6.880   3.608   2.123
 8019TIP3    H224022   6.758   3.661   2.051
 8020TIP3   OH224023   6.392   5.510   5.861
 8020TIP3    H124024   6.401   5.579   5.795
 8020TIP3    H224025   6.353   5.555   5.937
 8021TIP3   OH224026   0.991   6.701   4.707
 8021TIP3    H124027   1.056   6.740   4.765
 8021TIP3    H224028   1.038   6.630   4.663
 8022TIP3   OH224029   0.654   4.762   0.105
 8022TIP3    H124030   0.605   4.829   0.057
 8022TIP3    H224031   0.727   4.740   0.048
 8023TIP3   OH224032   0.671   0.932   5.833
 8023TIP3    H124033   0.747   0.932   5.776
 8023TIP3    H224034   0.692   0.869   5.902
 8024TIP3   OH224035   1.012   0.536   1.855
 8024TIP3    H124036   1.015   0.536   1.951
 8024TIP3    H224037   0.994   0.627   1.832
 8025TIP3   OH224038   6.629   5.533   0.519
 8025TIP3    H124039   6.594   5.509   0.605
 8025TIP3    H224040   6.552   5.555   0.467
 8026TIP3   OH224041   3.307   0.915   2.543
 8026TIP3    H124042   3.299   0.916   2.447
 8026TIP3    H224043   3.382   0.972   2.561
 8027TIP3   OH224044   0.152   2.682   4.284
 8027TIP3    H124045   0.118   2.601   4.244
 8027TIP3    H224046   0.246   2.680   4.266
 8028TIP3   OH224047   6.079   6.037   0.675
 8028TIP3    H124048   6.162   6.062   0.635
 8028TIP3    H224049   6.043   5.970   0.617
 8029TIP3   OH224050   4.878   1.899   0.226
 8029TIP3    H124051   4.919   1.984   0.244
 8029TIP3    H224052   4.950   1.836   0.235
 8030TIP3   OH224053   6.823   6.106   0.449
 8030TIP3    H124054   6.771   6.173   0.493
 8030TIP3    H224055   6.838   6.039   0.516
 8031TIP3   OH224056   4.862   1.424   4.473
 8031TIP3    H124057   4.864   1.356   4.541
 8031TIP3    H224058   4.768   1.443   4.462
 8032TIP3   OH224059   1.774   3.050   4.398
 8032TIP3    H124060   1.742   3.140   4.387
 8032TIP3    H224061   1.793   3.043   4.492
 8033TIP3   OH224062   7.097   2.170   4.349
 8033TIP3    H124063   7.160   2.109   4.387
 8033TIP3    H224064   7.135   2.257   4.366
 8034TIP3   OH224065   0.331   1.823   4.000
 8034TIP3    H124066   0.388   1.858   3.931
 8034TIP3    H224067   0.252   1.796   3.954
 8035TIP3   OH224068   6.947   3.288   5.256
 8035TIP3    H124069   6.863   3.258   5.292
 8035TIP3    H224070   6.942   3.383   5.257
 8036TIP3   OH224071   0.956   6.750   1.992
 8036TIP3    H124072   0.932   6.710   2.075
 8036TIP3    H224073   0.882   6.807   1.970
 8037TIP3   OH224074   3.037   6.568   4.439
 8037TIP3    H124075   2.981   6.646   4.437
 8037TIP3    H224076   3.112   6.592   4.385
 8038TIP3   OH224077   3.092   0.014   5.476
 8038TIP3    H124078   3.015   0.066   5.497
 8038TIP3    H224079   3.084  -0.003   5.382
 8039TIP3   OH224080   6.815   0.685   1.699
 8039TIP3    H124081   6.869   0.615   1.736
 8039TIP3    H224082   6.762   0.641   1.632
 8040TIP3   OH224083   5.428   5.296   4.611
 8040TIP3    H124084   5.376   5.229   4.657
 8040TIP3    H224085   5.400   5.378   4.651
 8041TIP3   OH224086   5.747   0.877   5.263
 8041TIP3    H124087   5.744   0.895   5.356
 8041TIP3    H224088   5.833   0.837   5.249
 8042TIP3   OH224089   3.395   4.554   2.659
 8042TIP3    H124090   3.463   4.565   2.725
 8042TIP3    H224091   3.442   4.536   2.578
 8043TIP3   OH224092   5.715   3.996   2.515
 8043TIP3    H124093   5.800   3.961   2.489
 8043TIP3    H224094   5.667   3.919   2.549
 8044TIP3   OH224095   1.882   0.592   4.842
 8044TIP3    H124096   1.856   0.565   4.754
 8044TIP3    H224097   1.806   0.572   4.896
 8045TIP3   OH224098   2.102   4.670   4.892
 8045TIP3    H124099   2.190   4.671   4.854
 8045TIP3    H224100   2.106   4.733   4.963
 8046TIP3   OH224101   3.841   3.156   4.543
 8046TIP3    H124102   3.843   3.242   4.502
 8046TIP3    H224103   3.891   3.166   4.624
 8047TIP3   OH224104   5.147   3.497   2.602
 8047TIP3    H124105   5.169   3.471   2.513
 8047TIP3    H224106   5.169   3.590   2.605
 8048TIP3   OH224107   0.954   1.707   4.033
 8048TIP3    H124108   0.990   1.796   4.034
 8048TIP3    H224109   0.924   1.693   4.123
 8049TIP3   OH224110   6.596   1.486   1.927
 8049TIP3    H124111   6.532   1.542   1.971
 8049TIP3    H224112   6.603   1.522   1.839
 8050TIP3   OH224113   5.990   1.435   1.290
 8050TIP3    H124114   6.079   1.447   1.258
 8050TIP3    H224115   5.934   1.471   1.221
 8051TIP3   OH224116   1.947   4.729   4.622
 8051TIP3    H124117   2.008   4.802   4.614
 8051TIP3    H224118   1.897   4.731   4.540
 8052TIP3   OH224119   6.543   3.167   4.214
 8052TIP3    H124120   6.609   3.144   4.149
 8052TIP3    H224121   6.592   3.180   4.295
 8053TIP3   OH224122   1.375   0.758   3.266
 8053TIP3    H124123   1.346   0.719   3.349
 8053TIP3    H224124   1.322   0.837   3.257
 8054TIP3   OH224125   6.895   5.549   2.747
 8054TIP3    H124126   6.984   5.583   2.742
 8054TIP3    H224127   6.894   5.496   2.826
 8055TIP3   OH224128   4.466   5.090   1.377
 8055TIP3    H124129   4.498   5.107   1.465
 8055TIP3    H224130   4.459   5.177   1.337
 8056TIP3   OH224131   1.735   4.405   3.182
 8056TIP3    H124132   1.830   4.408   3.198
 8056TIP3    H224133   1.723   4.330   3.124
 8057TIP3   OH224134   0.189   1.137   5.311
 8057TIP3    H124135   0.281   1.112   5.305
 8057TIP3    H224136   0.191   1.223   5.352
 8058TIP3   OH224137   1.284   1.379   5.419
 8058TIP3    H124138   1.312   1.468   5.401
 8058TIP3    H224139   1.364   1.331   5.436
 8059TIP3   OH224140   3.003   2.433   4.919
 8059TIP3    H124141   3.044   2.518   4.939
 8059TIP3    H224142   3.054   2.398   4.846
 8060TIP3   OH224143   3.724   6.325   5.867
 8060TIP3    H124144   3.785   6.347   5.938
 8060TIP3    H224145   3.654   6.275   5.910
 8061TIP3   OH224146   2.505   2.392   5.029
 8061TIP3    H124147   2.463   2.384   5.114
 8061TIP3    H224148   2.598   2.384   5.047
 8062TIP3   OH224149   2.378   0.862   5.311
 8062TIP3    H124150   2.395   0.788   5.253
 8062TIP3    H224151   2.295   0.899   5.280
 8063TIP3   OH224152   5.135   3.778   2.140
 8063TIP3    H124153   5.070   3.717   2.175
 8063TIP3    H224154   5.155   3.745   2.052
 8064TIP3   OH224155   2.500   3.763   3.533
 8064TIP3    H124156   2.570   3.826   3.548
 8064TIP3    H224157   2.421   3.816   3.523
 8065TIP3   OH224158   3.461   4.506   1.664
 8065TIP3    H124159   3.505   4.511   1.580
 8065TIP3    H224160   3.381   4.556   1.652
 8066TIP3   OH224161   3.957   6.191   4.225
 8066TIP3    H124162   3.990   6.223   4.141
 8066TIP3    H224163   4.036   6.173   4.276
 8067TIP3   OH224164   1.917   0.890   2.199
 8067TIP3    H124165   1.960   0.952   2.139
 8067TIP3    H224166   1.835   0.932   2.223
 8068TIP3   OH224167   0.654   4.942   5.831
 8068TIP3    H124168   0.747   4.968   5.827
 8068TIP3    H224169   0.613   5.010   5.884
 8069TIP3   OH224170   6.552   6.537   1.820
 8069TIP3    H124171   6.490   6.538   1.747
 8069TIP3    H224172   6.499   6.519   1.897
 8070TIP3   OH224173   1.764   3.856   4.921
 8070TIP3    H124174   1.803   3.802   4.989
 8070TIP3    H224175   1.736   3.794   4.854
 8071TIP3   OH224176   2.390   1.455   0.252
 8071TIP3    H124177   2.432   1.482   0.170
 8071TIP3    H224178   2.382   1.536   0.302
 8072TIP3   OH224179   1.103   5.675   0.718
 8072TIP3    H124180   1.049   5.627   0.656
 8072TIP3    H224181   1.073   5.766   0.710
 8073TIP3   OH224182   6.653   0.534   0.193
 8073TIP3    H124183   6.727   0.474   0.179
 8073TIP3    H224184   6.577   0.483   0.166
 8074TIP3   OH224185   4.971   4.185   5.726
 8074TIP3    H124186   4.894   4.144   5.686
 8074TIP3    H224187   4.944   4.202   5.816
 8075TIP3   OH224188   4.048   2.324   3.678
 8075TIP3    H124189   4.082   2.401   3.723
 8075TIP3    H224190   4.085   2.250   3.726
 8076TIP3   OH224191   2.689   2.832   1.238
 8076TIP3    H124192   2.772   2.804   1.275
 8076TIP3    H224193   2.631   2.844   1.313
 8077TIP3   OH224194   3.648   4.939   4.697
 8077TIP3    H124195   3.630   4.976   4.610
 8077TIP3    H224196   3.578   4.875   4.710
 8078TIP3   OH224197   2.159   1.411   2.868
 8078TIP3    H124198   2.079   1.359   2.860
 8078TIP3    H224199   2.138   1.496   2.829
 8079TIP3   OH224200   3.479   3.804   4.786
 8079TIP3    H124201   3.411   3.736   4.788
 8079TIP3    H224202   3.558   3.759   4.814
 8080TIP3   OH224203   1.551   1.283   3.167
 8080TIP3    H124204   1.586   1.359   3.120
 8080TIP3    H224205   1.498   1.321   3.237
 8081TIP3   OH224206   0.766   1.123   2.531
 8081TIP3    H124207   0.856   1.134   2.563
 8081TIP3    H224208   0.713   1.120   2.611
 8082TIP3   OH224209   0.951   2.620   0.951
 8082TIP3    H124210   1.018   2.592   1.013
 8082TIP3    H224211   0.974   2.575   0.870
 8083TIP3   OH224212   5.870   2.535   2.377
 8083TIP3    H124213   5.846   2.443   2.385
 8083TIP3    H224214   5.790   2.577   2.345
 8084TIP3   OH224215   3.132   5.548   5.553
 8084TIP3    H124216   3.043   5.524   5.529
 8084TIP3    H224217   3.187   5.485   5.505
 8085TIP3   OH224218   0.221   5.541   5.617
 8085TIP3    H124219   0.190   5.520   5.705
 8085TIP3    H224220   0.280   5.469   5.595
 8086TIP3   OH224221   3.959   0.356   0.802
 8086TIP3    H124222   3.943   0.278   0.749
 8086TIP3    H224223   4.008   0.324   0.878
 8087TIP3   OH224224   2.765   6.406   4.480
 8087TIP3    H124225   2.673   6.430   4.486
 8087TIP3    H224226   2.787   6.371   4.566
 8088TIP3   OH224227   4.137   4.659   4.169
 8088TIP3    H124228   4.146   4.636   4.077
 8088TIP3    H224229   4.043   4.660   4.185
 8089TIP3   OH224230   0.453   5.183   4.292
 8089TIP3    H124231   0.457   5.207   4.385
 8089TIP3    H224232   0.401   5.252   4.252
 8090TIP3   OH224233   1.620   0.773   2.111
 8090TIP3    H124234   1.670   0.714   2.168
 8090TIP3    H224235   1.622   0.730   2.025
 8091TIP3   OH224236   5.657   3.593   5.428
 8091TIP3    H124237   5.657   3.596   5.333
 8091TIP3    H224238   5.629   3.680   5.455
 8092TIP3   OH224239   6.555   6.338   4.225
 8092TIP3    H124240   6.527   6.430   4.233
 8092TIP3    H224241   6.525   6.312   4.138
 8093TIP3   OH224242   6.020   5.785   3.162
 8093TIP3    H124243   5.957   5.793   3.091
 8093TIP3    H224244   5.971   5.746   3.235
 8094TIP3   OH224245   1.399   6.562   4.946
 8094TIP3    H124246   1.334   6.612   4.895
 8094TIP3    H224247   1.434   6.626   5.008
 8095TIP3   OH224248   2.094   5.573   1.278
 8095TIP3    H124249   2.013   5.610   1.243
 8095TIP3    H224250   2.115   5.501   1.218
 8096TIP3   OH224251   3.390   5.399   1.954
 8096TIP3    H124252   3.468   5.344   1.943
 8096TIP3    H224253   3.421   5.488   1.938
 8097TIP3   OH224254   6.947   5.471   2.216
 8097TIP3    H124255   7.018   5.412   2.242
 8097TIP3    H224256   6.991   5.555   2.200
 8098TIP3   OH224257   3.823   4.707   3.222
 8098TIP3    H124258   3.867   4.679   3.303
 8098TIP3    H224259   3.730   4.709   3.246
 8099TIP3   OH224260   0.674   1.003   4.835
 8099TIP3    H124261   0.677   0.915   4.797
 8099TIP3    H224262   0.646   1.059   4.763
 8100TIP3   OH224263   6.594   1.685   2.217
 8100TIP3    H124264   6.509   1.653   2.189
 8100TIP3    H224265   6.643   1.698   2.135
 8101TIP3   OH224266   4.323   2.250   2.033
 8101TIP3    H124267   4.398   2.287   1.987
 8101TIP3    H224268   4.356   2.227   2.120
 8102TIP3   OH224269   4.481   6.115   0.092
 8102TIP3    H124270   4.446   6.077   0.172
 8102TIP3    H224271   4.565   6.071   0.079
 8103TIP3   OH224272   2.343   5.755   2.897
 8103TIP3    H124273   2.399   5.766   2.820
 8103TIP3    H224274   2.398   5.707   2.959
 8104TIP3   OH224275   1.856   5.809   0.942
 8104TIP3    H124276   1.844   5.760   0.860
 8104TIP3    H224277   1.818   5.895   0.924
 8105TIP3   OH224278   7.266   6.633   4.838
 8105TIP3    H124279   7.354   6.671   4.844
 8105TIP3    H224280   7.216   6.698   4.789
 8106TIP3   OH224281   5.491   1.386   3.503
 8106TIP3    H124282   5.454   1.472   3.487
 8106TIP3    H224283   5.549   1.397   3.578
 8107TIP3   OH224284   4.751   5.198   1.792
 8107TIP3    H124285   4.841   5.217   1.764
 8107TIP3    H224286   4.759   5.176   1.885
 8108TIP3   OH224287   5.225   1.586   0.734
 8108TIP3    H124288   5.159   1.532   0.690
 8108TIP3    H224289   5.228   1.552   0.824
 8109TIP3   OH224290   4.105   3.425   4.049
 8109TIP3    H124291   4.033   3.459   3.996
 8109TIP3    H224292   4.172   3.493   4.045
 8110TIP3   OH224293   1.837   2.570   3.125
 8110TIP3    H124294   1.905   2.594   3.189
 8110TIP3    H224295   1.755   2.581   3.173
 8111TIP3   OH224296   5.315   4.559   1.122
 8111TIP3    H124297   5.310   4.587   1.031
 8111TIP3    H224298   5.225   4.566   1.155
 8112TIP3   OH224299   6.271   4.785   1.139
 8112TIP3    H124300   6.296   4.838   1.214
 8112TIP3    H224301   6.219   4.844   1.084
 8113TIP3   OH224302   0.495   2.475   4.549
 8113TIP3    H124303   0.509   2.557   4.595
 8113TIP3    H224304   0.579   2.456   4.507
 8114TIP3   OH224305   3.663   6.406   4.759
 8114TIP3    H124306   3.715   6.326   4.772
 8114TIP3    H224307   3.701   6.469   4.820
 8115TIP3   OH224308   4.148   1.833   0.815
 8115TIP3    H124309   4.199   1.778   0.874
 8115TIP3    H224310   4.159   1.792   0.729
 8116TIP3   OH224311   1.870   0.065   4.306
 8116TIP3    H124312   1.777   0.057   4.327
 8116TIP3    H224313   1.880   0.156   4.277
 8117TIP3   OH224314   1.927   5.397   3.945
 8117TIP3    H124315   1.967   5.411   4.031
 8117TIP3    H224316   1.884   5.311   3.952
 8118TIP3   OH224317   3.402   3.283   1.942
 8118TIP3    H124318   3.391   3.257   2.033
 8118TIP3    H224319   3.416   3.200   1.896
 8119TIP3   OH224320   6.077   2.482   2.005
 8119TIP3    H124321   6.003   2.422   2.010
 8119TIP3    H224322   6.097   2.503   2.097
 8120TIP3   OH224323   1.076   2.602   5.539
 8120TIP3    H124324   1.084   2.692   5.572
 8120TIP3    H224325   1.163   2.580   5.507
 8121TIP3   OH224326   6.106   2.853   1.552
 8121TIP3    H124327   6.183   2.798   1.568
 8121TIP3    H224328   6.033   2.792   1.547
 8122TIP3   OH224329   0.613   2.773   1.145
 8122TIP3    H124330   0.678   2.766   1.214
 8122TIP3    H224331   0.635   2.703   1.084
 8123TIP3   OH224332   6.222   5.870   5.568
 8123TIP3    H124333   6.131   5.871   5.539
 8123TIP3    H224334   6.272   5.894   5.490
 8124TIP3   OH224335   4.932   1.638   1.227
 8124TIP3    H124336   4.908   1.731   1.222
 8124TIP3    H224337   4.915   1.605   1.139
 8125TIP3   OH224338   3.494   4.504   4.167
 8125TIP3    H124339   3.447   4.580   4.133
 8125TIP3    H224340   3.511   4.525   4.259
 8126TIP3   OH224341   2.222   6.602   1.268
 8126TIP3    H124342   2.247   6.556   1.188
 8126TIP3    H224343   2.138   6.565   1.292
 8127TIP3   OH224344   6.994   4.341   5.523
 8127TIP3    H124345   6.904   4.314   5.542
 8127TIP3    H224346   7.010   4.310   5.434
 8128TIP3   OH224347   3.025   2.332   4.098
 8128TIP3    H124348   3.092   2.362   4.036
 8128TIP3    H224349   2.943   2.368   4.064
 8129TIP3   OH224350   3.137   4.068   4.867
 8129TIP3    H124351   3.143   4.002   4.936
 8129TIP3    H224352   3.224   4.108   4.865
 8130TIP3   OH224353   0.777   2.426   4.786
 8130TIP3    H124354   0.764   2.399   4.696
 8130TIP3    H224355   0.769   2.346   4.837
 8131TIP3   OH224356   6.654   0.563   1.506
 8131TIP3    H124357   6.718   0.602   1.446
 8131TIP3    H224358   6.585   0.530   1.449
 8132TIP3   OH224359   0.762   4.407   2.968
 8132TIP3    H124360   0.743   4.478   3.029
 8132TIP3    H224361   0.820   4.348   3.016
 8133TIP3   OH224362   4.724   1.046   0.824
 8133TIP3    H124363   4.783   0.971   0.821
 8133TIP3    H224364   4.658   1.023   0.889
 8134TIP3   OH224365   1.501   4.281   5.205
 8134TIP3    H124366   1.511   4.317   5.293
 8134TIP3    H224367   1.544   4.195   5.210
 8135TIP3   OH224368   2.652   5.576   1.918
 8135TIP3    H124369   2.574   5.605   1.871
 8135TIP3    H224370   2.718   5.643   1.899
 8136TIP3   OH224371   5.245   6.562   2.177
 8136TIP3    H124372   5.219   6.519   2.096
 8136TIP3    H224373   5.304   6.500   2.219
 8137TIP3   OH224374   4.451   0.204   3.269
 8137TIP3    H124375   4.509   0.131   3.246
 8137TIP3    H224376   4.364   0.166   3.269
 8138TIP3   OH224377   6.039   1.474   5.009
 8138TIP3    H124378   5.992   1.556   5.024
 8138TIP3    H224379   6.132   1.499   5.015
 8139TIP3   OH224380   5.900   4.956   5.664
 8139TIP3    H124381   5.927   4.898   5.593
 8139TIP3    H224382   5.976   4.960   5.722
 8140TIP3   OH224383   5.540   0.024   3.959
 8140TIP3    H124384   5.469  -0.036   3.933
 8140TIP3    H224385   5.509   0.064   4.040
 8141TIP3   OH224386   1.834   2.762   2.630
 8141TIP3    H124387   1.752   2.714   2.644
 8141TIP3    H224388   1.890   2.701   2.583
 8142TIP3   OH224389   2.746   4.770   4.709
 8142TIP3    H124390   2.693   4.723   4.773
 8142TIP3    H224391   2.707   4.858   4.706
 8143TIP3   OH224392   5.322   5.527   4.751
 8143TIP3    H124393   5.312   5.444   4.798
 8143TIP3    H224394   5.239   5.572   4.764
 8144TIP3   OH224395   0.960   5.542   1.992
 8144TIP3    H124396   1.048   5.571   2.016
 8144TIP3    H224397   0.906   5.620   1.996
 8145TIP3   OH224398   3.539   0.395   4.678
 8145TIP3    H124399   3.586   0.478   4.674
 8145TIP3    H224400   3.526   0.379   4.771
 8146TIP3   OH224401   0.104   4.851   1.623
 8146TIP3    H124402   0.010   4.856   1.638
 8146TIP3    H224403   0.138   4.935   1.655
 8147TIP3   OH224404   0.167   4.106   2.896
 8147TIP3    H124405   0.076   4.120   2.872
 8147TIP3    H224406   0.197   4.189   2.932
 8148TIP3   OH224407   3.092   3.298   2.964
 8148TIP3    H124408   3.067   3.364   2.900
 8148TIP3    H224409   3.135   3.348   3.034
 8149TIP3   OH224410   3.033   2.277   0.130
 8149TIP3    H124411   3.080   2.251   0.051
 8149TIP3    H224412   3.101   2.291   0.196
 8150TIP3   OH224413   7.028   4.547   1.882
 8150TIP3    H124414   7.093   4.614   1.859
 8150TIP3    H224415   6.944   4.589   1.864
 8151TIP3   OH224416   5.091   5.645   4.895
 8151TIP3    H124417   5.025   5.582   4.866
 8151TIP3    H224418   5.052   5.731   4.879
 8152TIP3   OH224419   4.680   3.149   0.717
 8152TIP3    H124420   4.729   3.067   0.705
 8152TIP3    H224421   4.673   3.159   0.812
 8153TIP3   OH224422   2.923   6.773   1.971
 8153TIP3    H124423   2.903   6.841   1.907
 8153TIP3    H224424   2.842   6.722   1.977
 8154TIP3   OH224425   5.981   3.017   4.737
 8154TIP3    H124426   6.035   3.034   4.660
 8154TIP3    H224427   5.906   3.076   4.727
 8155TIP3   OH224428   3.667   5.920   3.371
 8155TIP3    H124429   3.661   5.829   3.399
 8155TIP3    H224430   3.594   5.932   3.310
 8156TIP3   OH224431   7.036   1.107   4.066
 8156TIP3    H124432   6.990   1.175   4.016
 8156TIP3    H224433   7.126   1.139   4.072
 8157TIP3   OH224434   6.584   4.876   4.597
 8157TIP3    H124435   6.495   4.865   4.566
 8157TIP3    H224436   6.639   4.860   4.520
 8158TIP3   OH224437   1.230   0.696   5.294
 8158TIP3    H124438   1.211   0.616   5.245
 8158TIP3    H224439   1.296   0.741   5.242
 8159TIP3   OH224440   5.010   0.081   5.363
 8159TIP3    H124441   5.016   0.023   5.439
 8159TIP3    H224442   5.083   0.141   5.372
 8160TIP3   OH224443   7.021   0.939   3.676
 8160TIP3    H124444   7.109   0.959   3.707
 8160TIP3    H224445   6.971   1.020   3.691
 8161TIP3   OH224446   4.371   3.149   2.068
 8161TIP3    H124447   4.465   3.146   2.052
 8161TIP3    H224448   4.356   3.086   2.139
 8162TIP3   OH224449   3.246   1.183   5.367
 8162TIP3    H124450   3.258   1.277   5.378
 8162TIP3    H224451   3.286   1.144   5.445
 8163TIP3   OH224452   0.160   1.342   5.809
 8163TIP3    H124453   0.186   1.397   5.735
 8163TIP3    H224454   0.104   1.398   5.862
 8164TIP3   OH224455   4.637   3.550   2.668
 8164TIP3    H124456   4.704   3.510   2.724
 8164TIP3    H224457   4.657   3.518   2.580
 8165TIP3   OH224458   2.191   1.393   0.979
 8165TIP3    H124459   2.124   1.453   0.945
 8165TIP3    H224460   2.274   1.437   0.960
 8166TIP3   OH224461   4.156   2.954   1.228
 8166TIP3    H124462   4.148   2.866   1.265
 8166TIP3    H224463   4.083   2.961   1.167
 8167TIP3   OH224464   2.892   4.719   0.327
 8167TIP3    H124465   2.865   4.678   0.245
 8167TIP3    H224466   2.843   4.674   0.395
 8168TIP3   OH224467   1.253   0.696   1.288
 8168TIP3    H124468   1.227   0.788   1.298
 8168TIP3    H224469   1.311   0.679   1.361
 8169TIP3   OH224470   2.780   5.761   4.293
 8169TIP3    H124471   2.847   5.785   4.229
 8169TIP3    H224472   2.714   5.830   4.286
 8170TIP3   OH224473   2.713   4.226   3.514
 8170TIP3    H124474   2.720   4.254   3.422
 8170TIP3    H224475   2.742   4.302   3.565
 8171TIP3   OH224476   7.010   2.438   1.980
 8171TIP3    H124477   6.981   2.484   1.902
 8171TIP3    H224478   7.094   2.399   1.955
 8172TIP3   OH224479   2.712   5.049   0.796
 8172TIP3    H124480   2.748   5.133   0.768
 8172TIP3    H224481   2.700   5.000   0.715
 8173TIP3   OH224482   0.466   4.818   1.550
 8173TIP3    H124483   0.376   4.795   1.574
 8173TIP3    H224484   0.492   4.884   1.615
 8174TIP3   OH224485   6.016   5.415   5.324
 8174TIP3    H124486   5.933   5.385   5.287
 8174TIP3    H224487   6.031   5.357   5.398
 8175TIP3   OH224488   3.306   2.958   0.642
 8175TIP3    H124489   3.229   2.950   0.699
 8175TIP3    H224490   3.271   2.998   0.562
 8176TIP3   OH224491   4.003   4.042   2.696
 8176TIP3    H124492   3.967   3.964   2.653
 8176TIP3    H224493   4.097   4.037   2.681
 8177TIP3   OH224494   6.814   5.572   4.129
 8177TIP3    H124495   6.824   5.557   4.223
 8177TIP3    H224496   6.874   5.644   4.110
 8178TIP3   OH224497   6.318   4.326   2.828
 8178TIP3    H124498   6.376   4.321   2.753
 8178TIP3    H224499   6.324   4.240   2.869
 8179TIP3   OH224500   0.048   2.073   4.000
 8179TIP3    H124501   0.074   2.021   3.924
 8179TIP3    H224502   0.128   2.118   4.027
 8180TIP3   OH224503   4.740   2.120   3.943
 8180TIP3    H124504   4.668   2.139   4.004
 8180TIP3    H224505   4.703   2.058   3.881
 8181TIP3   OH224506   0.322   6.649   0.618
 8181TIP3    H124507   0.392   6.670   0.681
 8181TIP3    H224508   0.328   6.718   0.552
 8182TIP3   OH224509   2.673   0.402   1.612
 8182TIP3    H124510   2.737   0.400   1.541
 8182TIP3    H224511   2.588   0.403   1.568
 8183TIP3   OH224512   0.867   6.013   4.931
 8183TIP3    H124513   0.842   6.089   4.878
 8183TIP3    H224514   0.895   5.947   4.867
 8184TIP3   OH224515   2.186   2.286   5.429
 8184TIP3    H124516   2.226   2.206   5.462
 8184TIP3    H224517   2.130   2.317   5.501
 8185TIP3   OH224518   0.145   4.985   5.696
 8185TIP3    H124519   0.093   5.001   5.775
 8185TIP3    H224520   0.097   4.918   5.649
 8186TIP3   OH224521   5.434   4.580   0.053
 8186TIP3    H124522   5.414   4.619   0.138
 8186TIP3    H224523   5.528   4.594   0.041
 8187TIP3   OH224524   3.639   0.177   1.329
 8187TIP3    H124525   3.629   0.235   1.254
 8187TIP3    H224526   3.576   0.210   1.393
 8188TIP3   OH224527   2.411   2.717   5.194
 8188TIP3    H124528   2.486   2.751   5.145
 8188TIP3    H224529   2.336   2.729   5.135
 8189TIP3   OH224530   1.581   0.401   5.678
 8189TIP3    H124531   1.511   0.382   5.740
 8189TIP3    H224532   1.653   0.343   5.705
 8190TIP3   OH224533   0.069   3.618   3.061
 8190TIP3    H124534   0.083   3.652   3.149
 8190TIP3    H224535   0.092   3.691   3.003
 8191TIP3   OH224536   6.181   0.583   0.352
 8191TIP3    H124537   6.200   0.494   0.379
 8191TIP3    H224538   6.264   0.629   0.362
 8192TIP3   OH224539   5.594   4.477   4.973
 8192TIP3    H124540   5.623   4.559   5.013
 8192TIP3    H224541   5.662   4.456   4.909
 8193TIP3   OH224542   5.508   0.449   4.154
 8193TIP3    H124543   5.460   0.429   4.074
 8193TIP3    H224544   5.587   0.396   4.148
 8194TIP3   OH224545   5.759   3.322   3.072
 8194TIP3    H124546   5.757   3.277   3.157
 8194TIP3    H224547   5.668   3.344   3.054
 8195TIP3   OH224548   3.847   5.526   5.491
 8195TIP3    H124549   3.763   5.517   5.445
 8195TIP3    H224550   3.848   5.617   5.521
 8196TIP3   OH224551   6.381   6.520   1.577
 8196TIP3    H124552   6.344   6.573   1.507
 8196TIP3    H224553   6.462   6.485   1.540
 8197TIP3   OH224554   3.284   1.950   4.074
 8197TIP3    H124555   3.192   1.976   4.069
 8197TIP3    H224556   3.331   2.032   4.092
 8198TIP3   OH224557   1.140   1.352   4.351
 8198TIP3    H124558   1.072   1.405   4.392
 8198TIP3    H224559   1.211   1.351   4.416
 8199TIP3   OH224560   6.691   3.793   4.654
 8199TIP3    H124561   6.723   3.748   4.733
 8199TIP3    H224562   6.617   3.846   4.685
 8200TIP3   OH224563   3.003   2.727   3.900
 8200TIP3    H124564   3.009   2.674   3.980
 8200TIP3    H224565   2.982   2.815   3.932
 8201TIP3   OH224566   2.449   2.623   5.479
 8201TIP3    H124567   2.421   2.594   5.392
 8201TIP3    H224568   2.434   2.717   5.479
 8202TIP3   OH224569   3.232   6.443   3.265
 8202TIP3    H124570   3.281   6.405   3.192
 8202TIP3    H224571   3.179   6.371   3.299
 8203TIP3   OH224572   2.185   5.318   1.138
 8203TIP3    H124573   2.133   5.258   1.193
 8203TIP3    H224574   2.124   5.344   1.068
 8204TIP3   OH224575   6.352   5.446   0.616
 8204TIP3    H124576   6.340   5.452   0.521
 8204TIP3    H224577   6.330   5.355   0.637
 8205TIP3   OH224578   4.929   4.997   4.820
 8205TIP3    H124579   4.976   5.078   4.841
 8205TIP3    H224580   4.941   4.941   4.897
 8206TIP3   OH224581   3.387   1.427   3.909
 8206TIP3    H124582   3.414   1.515   3.937
 8206TIP3    H224583   3.407   1.423   3.816
 8207TIP3   OH224584   7.020   0.560   1.205
 8207TIP3    H124585   6.979   0.609   1.276
 8207TIP3    H224586   7.087   0.507   1.247
 8208TIP3   OH224587   3.372   6.246   2.603
 8208TIP3    H124588   3.303   6.310   2.623
 8208TIP3    H224589   3.450   6.300   2.586
 8209TIP3   OH224590  -0.002   5.095   3.875
 8209TIP3    H124591  -0.018   5.119   3.784
 8209TIP3    H224592   0.028   5.176   3.916
 8210TIP3   OH224593   3.805   0.256   4.526
 8210TIP3    H124594   3.800   0.340   4.480
 8210TIP3    H224595   3.899   0.242   4.539
 8211TIP3   OH224596   2.866   6.129   4.897
 8211TIP3    H124597   2.840   6.084   4.978
 8211TIP3    H224598   2.783   6.142   4.850
 8212TIP3   OH224599   6.180   6.344   2.588
 8212TIP3    H124600   6.186   6.290   2.667
 8212TIP3    H224601   6.166   6.433   2.621
 8213TIP3   OH224602   4.734   2.180   0.738
 8213TIP3    H124603   4.755   2.216   0.824
 8213TIP3    H224604   4.703   2.091   0.755
 8214TIP3   OH224605   4.983   5.654   4.082
 8214TIP3    H124606   4.969   5.571   4.128
 8214TIP3    H224607   4.905   5.664   4.027
 8215TIP3   OH224608   1.320   3.626   1.934
 8215TIP3    H124609   1.360   3.568   1.869
 8215TIP3    H224610   1.270   3.689   1.882
 8216TIP3   OH224611   2.973   6.376   0.677
 8216TIP3    H124612   2.915   6.448   0.654
 8216TIP3    H224613   2.940   6.301   0.627
 8217TIP3   OH224614   4.396   1.125   1.395
 8217TIP3    H124615   4.326   1.141   1.460
 8217TIP3    H224616   4.446   1.206   1.394
 8218TIP3   OH224617   1.252   4.801   3.177
 8218TIP3    H124618   1.182   4.745   3.142
 8218TIP3    H224619   1.331   4.747   3.169
 8219TIP3   OH224620   1.188   1.628   1.872
 8219TIP3    H124621   1.099   1.662   1.882
 8219TIP3    H224622   1.217   1.663   1.788
 8220TIP3   OH224623   3.419   2.737   5.370
 8220TIP3    H124624   3.350   2.671   5.359
 8220TIP3    H224625   3.388   2.792   5.443
 8221TIP3   OH224626   3.775   3.344   1.183
 8221TIP3    H124627   3.813   3.275   1.236
 8221TIP3    H224628   3.836   3.418   1.194
 8222TIP3   OH224629   3.074   5.656   4.514
 8222TIP3    H124630   3.115   5.610   4.441
 8222TIP3    H224631   2.981   5.632   4.508
 8223TIP3   OH224632   6.909   4.882   4.949
 8223TIP3    H124633   6.864   4.959   4.915
 8223TIP3    H224634   6.839   4.825   4.981
 8224TIP3   OH224635   3.708   6.226   3.662
 8224TIP3    H124636   3.759   6.182   3.595
 8224TIP3    H224637   3.733   6.183   3.744
 8225TIP3   OH224638   3.005   6.204   0.424
 8225TIP3    H124639   3.049   6.286   0.402
 8225TIP3    H224640   2.913   6.227   0.429
 8226TIP3   OH224641   5.320   0.006   1.578
 8226TIP3    H124642   5.337   0.011   1.484
 8226TIP3    H224643   5.407  -0.003   1.618
 8227TIP3   OH224644   5.760   0.418   3.689
 8227TIP3    H124645   5.678   0.372   3.674
 8227TIP3    H224646   5.759   0.441   3.782
 8228TIP3   OH224647   1.047   0.887   1.070
 8228TIP3    H124648   1.092   0.805   1.051
 8228TIP3    H224649   0.964   0.880   1.023
 8229TIP3   OH224650   4.693   4.869   0.924
 8229TIP3    H124651   4.616   4.814   0.940
 8229TIP3    H224652   4.765   4.823   0.968
 8230TIP3   OH224653   3.118   5.727   0.990
 8230TIP3    H124654   3.088   5.761   0.907
 8230TIP3    H224655   3.086   5.637   0.993
 8231TIP3   OH224656   3.988   5.244   0.260
 8231TIP3    H124657   4.079   5.216   0.254
 8231TIP3    H224658   3.962   5.223   0.350
 8232TIP3   OH224659   2.540   6.492   5.057
 8232TIP3    H124660   2.516   6.451   5.141
 8232TIP3    H224661   2.457   6.504   5.011
 8233TIP3   OH224662   4.169   3.288   1.936
 8233TIP3    H124663   4.201   3.244   1.857
 8233TIP3    H224664   4.233   3.264   2.004
 8234TIP3   OH224665   7.023   0.202   4.704
 8234TIP3    H124666   6.977   0.286   4.703
 8234TIP3    H224667   7.097   0.216   4.764
 8235TIP3   OH224668   1.852   5.416   2.480
 8235TIP3    H124669   1.827   5.355   2.550
 8235TIP3    H224670   1.782   5.482   2.480
 8236TIP3   OH224671   4.194   5.943   1.075
 8236TIP3    H124672   4.241   5.874   1.028
 8236TIP3    H224673   4.180   5.907   1.162
 8237TIP3   OH224674   6.335   4.852   5.624
 8237TIP3    H124675   6.424   4.887   5.610
 8237TIP3    H224676   6.342   4.800   5.704
 8238TIP3   OH224677   6.767   6.006   5.729
 8238TIP3    H124678   6.723   5.977   5.650
 8238TIP3    H224679   6.748   6.100   5.735
 8239TIP3   OH224680   1.239   0.598   2.627
 8239TIP3    H124681   1.231   0.668   2.562
 8239TIP3    H224682   1.184   0.626   2.700
 8240TIP3   OH224683   0.476   5.325   5.064
 8240TIP3    H124684   0.433   5.242   5.080
 8240TIP3    H224685   0.446   5.382   5.136
 8241TIP3   OH224686   2.978   3.800   2.581
 8241TIP3    H124687   3.045   3.772   2.644
 8241TIP3    H224688   3.027   3.837   2.508
 8242TIP3   OH224689   1.034   4.976   1.916
 8242TIP3    H124690   1.005   4.918   1.986
 8242TIP3    H224691   0.998   5.062   1.939
 8243TIP3   OH224692   0.101   5.515   2.334
 8243TIP3    H124693   0.141   5.435   2.367
 8243TIP3    H224694   0.007   5.500   2.342
 8244TIP3   OH224695   1.088   5.970   5.785
 8244TIP3    H124696   1.035   5.977   5.706
 8244TIP3    H224697   1.028   5.940   5.852
 8245TIP3   OH224698   5.192   1.519   0.989
 8245TIP3    H124699   5.202   1.603   1.034
 8245TIP3    H224700   5.097   1.509   0.979
 8246TIP3   OH224701   4.090   1.778   1.580
 8246TIP3    H124702   4.162   1.823   1.624
 8246TIP3    H224703   4.133   1.711   1.526
 8247TIP3   OH224704   5.063   0.185   1.941
 8247TIP3    H124705   5.087   0.278   1.944
 8247TIP3    H224706   5.059   0.165   1.847
 8248TIP3   OH224707   6.586   3.099   5.776
 8248TIP3    H124708   6.523   3.151   5.825
 8248TIP3    H224709   6.534   3.035   5.728
 8249TIP3   OH224710   0.238   1.439   3.798
 8249TIP3    H124711   0.216   1.510   3.859
 8249TIP3    H224712   0.305   1.389   3.844
 8250TIP3   OH224713   3.330   5.471   1.559
 8250TIP3    H124714   3.283   5.410   1.616
 8250TIP3    H224715   3.286   5.463   1.474
 8251TIP3   OH224716   4.937   6.710   2.012
 8251TIP3    H124717   5.025   6.749   2.016
 8251TIP3    H224718   4.878   6.783   2.032
 8252TIP3   OH224719   5.693   0.866   3.788
 8252TIP3    H124720   5.707   0.842   3.880
 8252TIP3    H224721   5.769   0.920   3.766
 8253TIP3   OH224722   5.501   3.889   0.079
 8253TIP3    H124723   5.586   3.934   0.072
 8253TIP3    H224724   5.466   3.890  -0.010
 8254TIP3   OH224725   1.626   3.184   3.372
 8254TIP3    H124726   1.654   3.108   3.321
 8254TIP3    H224727   1.700   3.245   3.366
 8255TIP3   OH224728   3.748   0.663   0.261
 8255TIP3    H124729   3.732   0.583   0.212
 8255TIP3    H224730   3.837   0.652   0.297
 8256TIP3   OH224731   7.067   4.650   4.263
 8256TIP3    H124732   7.021   4.613   4.188
 8256TIP3    H224733   7.094   4.737   4.233
 8257TIP3   OH224734   2.389   1.227   3.377
 8257TIP3    H124735   2.364   1.245   3.286
 8257TIP3    H224736   2.314   1.181   3.413
 8258TIP3   OH224737   2.596   4.486   0.736
 8258TIP3    H124738   2.565   4.474   0.826
 8258TIP3    H224739   2.646   4.407   0.717
 8259TIP3   OH224740   0.849   3.797   4.835
 8259TIP3    H124741   0.759   3.766   4.826
 8259TIP3    H224742   0.902   3.719   4.819
 8260TIP3   OH224743   0.536   6.636   3.747
 8260TIP3    H124744   0.447   6.668   3.757
 8260TIP3    H224745   0.527   6.540   3.744
 8261TIP3   OH224746   4.773   4.621   4.470
 8261TIP3    H124747   4.691   4.632   4.422
 8261TIP3    H224748   4.831   4.688   4.434
 8262TIP3   OH224749   2.283   3.630   3.424
 8262TIP3    H124750   2.315   3.558   3.370
 8262TIP3    H224751   2.362   3.673   3.457
 8263TIP3   OH224752   3.843   0.899   3.908
 8263TIP3    H124753   3.751   0.924   3.899
 8263TIP3    H224754   3.858   0.837   3.836
 8264TIP3   OH224755   0.094   3.914   0.245
 8264TIP3    H124756   0.084   3.924   0.340
 8264TIP3    H224757   0.052   3.992   0.208
 8265TIP3   OH224758   0.408   6.182   1.353
 8265TIP3    H124759   0.465   6.256   1.374
 8265TIP3    H224760   0.436   6.154   1.266
 8266TIP3   OH224761   0.722   0.878   5.419
 8266TIP3    H124762   0.817   0.885   5.414
 8266TIP3    H224763   0.702   0.791   5.385
 8267TIP3   OH224764   0.673   6.059   0.287
 8267TIP3    H124765   0.641   6.060   0.197
 8267TIP3    H224766   0.724   6.139   0.295
 8268TIP3   OH224767   3.903   2.138   0.911
 8268TIP3    H124768   3.812   2.109   0.902
 8268TIP3    H224769   3.908   2.219   0.861
 8269TIP3   OH224770   2.066   1.128   3.786
 8269TIP3    H124771   2.104   1.214   3.808
 8269TIP3    H224772   2.045   1.135   3.693
 8270TIP3   OH224773  -0.023   0.150   1.842
 8270TIP3    H124774   0.017   0.182   1.923
 8270TIP3    H224775  -0.096   0.095   1.871
 8271TIP3   OH224776   0.485   2.579   2.200
 8271TIP3    H124777   0.552   2.515   2.174
 8271TIP3    H224778   0.529   2.663   2.192
 8272TIP3   OH224779   3.189   0.593   2.341
 8272TIP3    H124780   3.134   0.668   2.319
 8272TIP3    H224781   3.156   0.522   2.286
 8273TIP3   OH224782   5.207   5.102   0.640
 8273TIP3    H124783   5.185   5.034   0.577
 8273TIP3    H224784   5.141   5.094   0.709
 8274TIP3   OH224785   5.329   1.049   2.383
 8274TIP3    H124786   5.263   1.104   2.426
 8274TIP3    H224787   5.380   1.111   2.330
 8275TIP3   OH224788   5.110   5.609   1.292
 8275TIP3    H124789   5.167   5.535   1.314
 8275TIP3    H224790   5.021   5.574   1.302
 8276TIP3   OH224791   6.650   4.206   4.419
 8276TIP3    H124792   6.584   4.137   4.435
 8276TIP3    H224793   6.634   4.234   4.329
 8277TIP3   OH224794   0.693   5.383   3.493
 8277TIP3    H124795   0.642   5.310   3.458
 8277TIP3    H224796   0.739   5.419   3.417
 8278TIP3   OH224797   5.524   4.069   2.837
 8278TIP3    H124798   5.550   4.151   2.879
 8278TIP3    H224799   5.557   4.001   2.895
 8279TIP3   OH224800   4.177   5.420   4.824
 8279TIP3    H124801   4.183   5.412   4.919
 8279TIP3    H224802   4.120   5.496   4.810
 8280TIP3   OH224803   0.499   5.798   3.468
 8280TIP3    H124804   0.562   5.757   3.528
 8280TIP3    H224805   0.503   5.891   3.489
 8281TIP3   OH224806   1.824   4.168   0.616
 8281TIP3    H124807   1.810   4.196   0.706
 8281TIP3    H224808   1.881   4.091   0.623
 8282TIP3   OH224809   4.776   3.084   3.464
 8282TIP3    H124810   4.709   3.113   3.527
 8282TIP3    H224811   4.807   3.165   3.424
 8283TIP3   OH224812   1.067   4.501   2.078
 8283TIP3    H124813   1.039   4.496   2.170
 8283TIP3    H224814   1.056   4.412   2.045
 8284TIP3   OH224815   0.708   0.922   3.419
 8284TIP3    H124816   0.801   0.906   3.428
 8284TIP3    H224817   0.701   0.998   3.362
 8285TIP3   OH224818   5.837   5.240   4.452
 8285TIP3    H124819   5.789   5.269   4.530
 8285TIP3    H224820   5.769   5.223   4.387
 8286TIP3   OH224821   5.853   0.684   1.058
 8286TIP3    H124822   5.844   0.703   1.152
 8286TIP3    H224823   5.826   0.765   1.015
 8287TIP3   OH224824   4.048   2.163   0.562
 8287TIP3    H124825   4.096   2.213   0.627
 8287TIP3    H224826   4.016   2.229   0.500
 8288TIP3   OH224827   2.126   0.569   4.598
 8288TIP3    H124828   2.195   0.549   4.535
 8288TIP3    H224829   2.094   0.484   4.627
 8289TIP3   OH224830   4.926   0.069   2.160
 8289TIP3    H124831   5.003   0.073   2.103
 8289TIP3    H224832   4.860   0.024   2.108
 8290TIP3   OH224833   3.421   1.020   2.011
 8290TIP3    H124834   3.429   0.925   2.025
 8290TIP3    H224835   3.456   1.059   2.090
 8291TIP3   OH224836   3.378   0.332   5.232
 8291TIP3    H124837   3.447   0.389   5.266
 8291TIP3    H224838   3.406   0.244   5.256
 8292TIP3   OH224839   0.684   6.689   4.468
 8292TIP3    H124840   0.609   6.636   4.443
 8292TIP3    H224841   0.724   6.715   4.386
 8293TIP3   OH224842   0.637   3.848   3.598
 8293TIP3    H124843   0.663   3.905   3.671
 8293TIP3    H224844   0.550   3.817   3.623
 8294TIP3   OH224845   1.991   6.733   4.785
 8294TIP3    H124846   1.982   6.666   4.718
 8294TIP3    H224847   1.942   6.699   4.860
 8295TIP3   OH224848   4.899   0.489   4.690
 8295TIP3    H124849   4.862   0.401   4.691
 8295TIP3    H224850   4.965   0.486   4.622
 8296TIP3   OH224851   5.328   2.113   4.594
 8296TIP3    H124852   5.394   2.047   4.572
 8296TIP3    H224853   5.371   2.196   4.575
 8297TIP3   OH224854   3.544   3.825   4.533
 8297TIP3    H124855   3.520   3.819   4.625
 8297TIP3    H224856   3.477   3.773   4.487
 8298TIP3   OH224857   7.001   6.784   5.806
 8298TIP3    H124858   6.920   6.758   5.850
 8298TIP3    H224859   7.070   6.767   5.870
 8299TIP3   OH224860   5.318   5.612   1.757
 8299TIP3    H124861   5.324   5.692   1.809
 8299TIP3    H224862   5.332   5.641   1.667
 8300TIP3   OH224863   5.215   2.354   0.376
 8300TIP3    H124864   5.272   2.418   0.417
 8300TIP3    H224865   5.211   2.281   0.439
 8301TIP3   OH224866   2.549   6.316   1.113
 8301TIP3    H124867   2.476   6.355   1.065
 8301TIP3    H224868   2.550   6.225   1.083
 8302TIP3   OH224869   2.477   2.898   1.751
 8302TIP3    H124870   2.545   2.960   1.779
 8302TIP3    H224871   2.395   2.939   1.780
 8303TIP3   OH224872   2.557   2.608   3.772
 8303TIP3    H124873   2.609   2.530   3.756
 8303TIP3    H224874   2.591   2.643   3.855
 8304TIP3   OH224875   4.785   1.525   1.906
 8304TIP3    H124876   4.752   1.553   1.991
 8304TIP3    H224877   4.715   1.472   1.869
 8305TIP3   OH224878   5.369   5.033   4.699
 8305TIP3    H124879   5.315   4.957   4.680
 8305TIP3    H224880   5.442   4.998   4.750
 8306TIP3   OH224881   2.876   3.905   2.965
 8306TIP3    H124882   2.918   3.971   2.910
 8306TIP3    H224883   2.785   3.903   2.935
 8307TIP3   OH224884   1.591   0.267   5.136
 8307TIP3    H124885   1.525   0.210   5.096
 8307TIP3    H224886   1.549   0.299   5.217
 8308TIP3   OH224887   2.109   1.730   0.896
 8308TIP3    H124888   2.107   1.643   0.855
 8308TIP3    H224889   2.158   1.784   0.834
 8309TIP3   OH224890   6.975   1.478   5.451
 8309TIP3    H124891   6.959   1.496   5.358
 8309TIP3    H224892   6.943   1.556   5.496
 8310TIP3   OH224893   4.548   4.643   4.325
 8310TIP3    H124894   4.559   4.736   4.303
 8310TIP3    H224895   4.511   4.604   4.246
 8311TIP3   OH224896   4.501   2.123   0.334
 8311TIP3    H124897   4.529   2.069   0.408
 8311TIP3    H224898   4.475   2.206   0.374
 8312TIP3   OH224899   3.853   6.194   2.080
 8312TIP3    H124900   3.774   6.174   2.130
 8312TIP3    H224901   3.882   6.109   2.046
 8313TIP3   OH224902   1.153   4.117   5.903
 8313TIP3    H124903   1.124   4.178   5.970
 8313TIP3    H224904   1.102   4.140   5.826
 8314TIP3   OH224905   6.857   4.145   2.618
 8314TIP3    H124906   6.879   4.070   2.673
 8314TIP3    H224907   6.871   4.221   2.674
 8315TIP3   OH224908   5.670   3.069   4.325
 8315TIP3    H124909   5.664   3.164   4.320
 8315TIP3    H224910   5.743   3.046   4.267
 8316TIP3   OH224911   6.106   4.879   5.161
 8316TIP3    H124912   6.110   4.876   5.065
 8316TIP3    H224913   6.140   4.794   5.189
 8317TIP3   OH224914   4.483   0.869   5.621
 8317TIP3    H124915   4.576   0.854   5.639
 8317TIP3    H224916   4.439   0.800   5.670
 8318TIP3   OH224917   0.229   0.881   1.031
 8318TIP3    H124918   0.149   0.829   1.032
 8318TIP3    H224919   0.225   0.933   1.112
 8319TIP3   OH224920   6.070   4.857   4.039
 8319TIP3    H124921   6.012   4.795   3.994
 8319TIP3    H224922   6.144   4.868   3.980
 8320TIP3   OH224923   4.490   5.244   4.952
 8320TIP3    H124924   4.531   5.158   4.950
 8320TIP3    H224925   4.463   5.256   5.044
 8321TIP3   OH224926   0.032   3.461   2.406
 8321TIP3    H124927  -0.060   3.464   2.432
 8321TIP3    H224928   0.079   3.491   2.483
 8322TIP3   OH224929   2.842   0.455   5.415
 8322TIP3    H124930   2.914   0.391   5.418
 8322TIP3    H224931   2.885   0.540   5.415
 8323TIP3   OH224932   4.492   5.134   1.817
 8323TIP3    H124933   4.566   5.190   1.795
 8323TIP3    H224934   4.529   5.070   1.879
 8324TIP3   OH224935   0.746   1.425   2.087
 8324TIP3    H124936   0.666   1.477   2.094
 8324TIP3    H224937   0.737   1.357   2.153
 8325TIP3   OH224938   4.049   5.711   1.548
 8325TIP3    H124939   4.069   5.648   1.617
 8325TIP3    H224940   4.040   5.795   1.594
 8326TIP3   OH224941   3.793   0.150   4.791
 8326TIP3    H124942   3.889   0.152   4.792
 8326TIP3    H224943   3.769   0.182   4.704
 8327TIP3   OH224944   4.020   0.103   0.381
 8327TIP3    H124945   3.999   0.087   0.473
 8327TIP3    H224946   4.066   0.186   0.381
 8328TIP3   OH224947   2.985   1.235   0.884
 8328TIP3    H124948   3.005   1.159   0.829
 8328TIP3    H224949   2.927   1.288   0.830
 8329TIP3   OH224950   3.905   0.739   3.688
 8329TIP3    H124951   3.890   0.647   3.709
 8329TIP3    H224952   3.887   0.746   3.594
 8330TIP3   OH224953   6.744   3.853   5.272
 8330TIP3    H124954   6.747   3.778   5.331
 8330TIP3    H224955   6.652   3.877   5.267
 8331TIP3   OH224956   1.602   0.883   1.229
 8331TIP3    H124957   1.544   0.944   1.273
 8331TIP3    H224958   1.555   0.857   1.150
 8332TIP3   OH224959   4.252   0.706   1.988
 8332TIP3    H124960   4.290   0.628   1.949
 8332TIP3    H224961   4.158   0.700   1.969
 8333TIP3   OH224962   0.563   3.950   2.196
 8333TIP3    H124963   0.497   4.010   2.230
 8333TIP3    H224964   0.645   4.000   2.199
 8334TIP3   OH224965   3.621   2.738   3.908
 8334TIP3    H124966   3.637   2.672   3.974
 8334TIP3    H224967   3.705   2.783   3.896
 8335TIP3   OH224968   6.545   5.329   3.968
 8335TIP3    H124969   6.497   5.373   3.897
 8335TIP3    H224970   6.637   5.340   3.945
 8336TIP3   OH224971   3.214   6.658   3.549
 8336TIP3    H124972   3.263   6.616   3.478
 8336TIP3    H224973   3.281   6.683   3.613
 8337TIP3   OH224974   1.580   5.324   1.374
 8337TIP3    H124975   1.489   5.303   1.393
 8337TIP3    H224976   1.630   5.260   1.424
 8338TIP3   OH224977   5.710   2.120   0.818
 8338TIP3    H124978   5.718   2.198   0.874
 8338TIP3    H224979   5.772   2.136   0.746
 8339TIP3   OH224980   3.171   3.338   1.047
 8339TIP3    H124981   3.114   3.264   1.070
 8339TIP3    H224982   3.233   3.302   0.984
 8340TIP3   OH224983   1.190   3.657   3.848
 8340TIP3    H124984   1.235   3.706   3.779
 8340TIP3    H224985   1.145   3.587   3.801
 8341TIP3   OH224986   2.442   2.871   3.649
 8341TIP3    H124987   2.497   2.877   3.571
 8341TIP3    H224988   2.393   2.953   3.650
 8342TIP3   OH224989   5.252   3.254   5.385
 8342TIP3    H124990   5.291   3.341   5.385
 8342TIP3    H224991   5.302   3.205   5.320
 8343TIP3   OH224992   0.283   6.341   1.593
 8343TIP3    H124993   0.195   6.322   1.626
 8343TIP3    H224994   0.283   6.307   1.504
 8344TIP3   OH224995   6.469   0.752   0.123
 8344TIP3    H124996   6.394   0.713   0.077
 8344TIP3    H224997   6.542   0.694   0.102
 8345TIP3   OH224998   3.401   6.487   4.865
 8345TIP3    H124999   3.482   6.446   4.836
 8345TIP3    H225000   3.415   6.581   4.850
 8346TIP3   OH225001   1.905   2.920   1.709
 8346TIP3    H125002   1.913   2.896   1.616
 8346TIP3    H225003   1.846   2.854   1.745
 8347TIP3   OH225004   5.857   4.465   0.613
 8347TIP3    H125005   5.920   4.394   0.599
 8347TIP3    H225006   5.782   4.422   0.654
 8348TIP3   OH225007   6.377   0.750   3.349
 8348TIP3    H125008   6.333   0.675   3.388
 8348TIP3    H225009   6.306   0.804   3.315
 8349TIP3   OH225010   4.492   1.730   0.591
 8349TIP3    H125011   4.526   1.641   0.602
 8349TIP3    H225012   4.398   1.721   0.602
 8350TIP3   OH225013   3.833   1.337   3.210
 8350TIP3    H125014   3.793   1.359   3.126
 8350TIP3    H225015   3.785   1.390   3.273
 8351TIP3   OH225016   6.394   2.036   2.258
 8351TIP3    H125017   6.372   2.114   2.207
 8351TIP3    H225018   6.480   2.010   2.227
 8352TIP3   OH225019   1.008   0.640   3.898
 8352TIP3    H125020   0.939   0.631   3.964
 8352TIP3    H225021   1.089   0.641   3.949
 8353TIP3   OH225022   4.669   0.067   5.091
 8353TIP3    H125023   4.630   0.155   5.093
 8353TIP3    H225024   4.645   0.028   5.175
 8354TIP3   OH225025   6.201   5.009   0.007
 8354TIP3    H125026   6.118   5.016   0.053
 8354TIP3    H225027   6.189   4.935  -0.052
 8355TIP3   OH225028   6.131   2.901   3.163
 8355TIP3    H125029   6.201   2.955   3.126
 8355TIP3    H225030   6.140   2.817   3.119
 8356TIP3   OH225031   3.071   4.761   1.178
 8356TIP3    H125032   3.048   4.832   1.237
 8356TIP3    H225033   3.035   4.682   1.219
 8357TIP3   OH225034   6.263   2.956   2.158
 8357TIP3    H125035   6.170   2.972   2.171
 8357TIP3    H225036   6.293   3.031   2.107
 8358TIP3   OH225037   4.351   0.186   5.617
 8358TIP3    H125038   4.380   0.252   5.680
 8358TIP3    H225039   4.319   0.237   5.543
 8359TIP3   OH225040   0.528   0.139   5.892
 8359TIP3    H125041   0.494   0.226   5.915
 8359TIP3    H225042   0.623   0.147   5.903
 8360TIP3   OH225043   3.332   3.625   0.342
 8360TIP3    H125044   3.275   3.596   0.414
 8360TIP3    H225045   3.377   3.701   0.378
 8361TIP3   OH225046   3.975   4.116   1.141
 8361TIP3    H125047   3.926   4.036   1.158
 8361TIP3    H225048   4.059   4.102   1.185
 8362TIP3   OH225049   1.393   0.102   3.852
 8362TIP3    H125050   1.390   0.007   3.848
 8362TIP3    H225051   1.330   0.126   3.919
 8363TIP3   OH225052   7.113   6.511   2.233
 8363TIP3    H125053   7.092   6.534   2.323
 8363TIP3    H225054   7.102   6.592   2.183
 8364TIP3   OH225055   5.997   4.178   5.528
 8364TIP3    H125056   5.940   4.142   5.595
 8364TIP3    H225057   5.991   4.273   5.540
 8365TIP3   OH225058   1.158   2.122   0.094
 8365TIP3    H125059   1.190   2.212   0.093
 8365TIP3    H225060   1.115   2.111   0.010
 8366TIP3   OH225061   5.862   4.451   2.251
 8366TIP3    H125062   5.774   4.447   2.216
 8366TIP3    H225063   5.889   4.359   2.259
 8367TIP3   OH225064   6.619   5.277   5.020
 8367TIP3    H125065   6.670   5.225   4.958
 8367TIP3    H225066   6.643   5.367   5.001
 8368TIP3   OH225067   4.433   5.928   2.099
 8368TIP3    H125068   4.523   5.958   2.089
 8368TIP3    H225069   4.391   5.994   2.154
 8369TIP3   OH225070   3.696   4.478   5.454
 8369TIP3    H125071   3.708   4.474   5.548
 8369TIP3    H225072   3.780   4.507   5.420
 8370TIP3   OH225073   2.618   6.598   0.178
 8370TIP3    H125074   2.576   6.639   0.102
 8370TIP3    H225075   2.707   6.631   0.176
 8371TIP3   OH225076   4.759   4.721   4.943
 8371TIP3    H125077   4.688   4.662   4.967
 8371TIP3    H225078   4.770   4.708   4.848
 8372TIP3   OH225079   1.259   0.863   3.722
 8372TIP3    H125080   1.186   0.895   3.774
 8372TIP3    H225081   1.334   0.867   3.782
 8373TIP3   OH225082   7.101   2.815  -0.020
 8373TIP3    H125083   7.129   2.862  -0.099
 8373TIP3    H225084   7.175   2.822   0.040
 8374TIP3   OH225085   4.893   1.828   4.707
 8374TIP3    H125086   4.850   1.752   4.668
 8374TIP3    H225087   4.969   1.792   4.753
 8375TIP3   OH225088   0.979   6.458   1.055
 8375TIP3    H125089   1.064   6.496   1.030
 8375TIP3    H225090   0.934   6.530   1.100
 8376TIP3   OH225091   0.238   1.610   1.415
 8376TIP3    H125092   0.314   1.610   1.358
 8376TIP3    H225093   0.177   1.672   1.374
 8377TIP3   OH225094   0.822   4.364   2.275
 8377TIP3    H125095   0.753   4.418   2.312
 8377TIP3    H225096   0.896   4.375   2.335
 8378TIP3   OH225097   2.172   3.805   3.030
 8378TIP3    H125098   2.113   3.777   3.100
 8378TIP3    H225099   2.222   3.726   3.009
 8379TIP3   OH225100   3.207   0.540   3.346
 8379TIP3    H125101   3.148   0.527   3.420
 8379TIP3    H225102   3.151   0.576   3.277
 8380TIP3   OH225103   2.904   3.709   0.237
 8380TIP3    H125104   2.958   3.776   0.280
 8380TIP3    H225105   2.916   3.631   0.291
 8381TIP3   OH225106   5.834   5.863   2.402
 8381TIP3    H125107   5.921   5.824   2.415
 8381TIP3    H225108   5.852   5.947   2.358
 8382TIP3   OH225109   4.435   1.873   2.678
 8382TIP3    H125110   4.431   1.884   2.583
 8382TIP3    H225111   4.344   1.881   2.707
 8383TIP3   OH225112   3.085   5.827   3.877
 8383TIP3    H125113   3.097   5.910   3.831
 8383TIP3    H225114   3.159   5.773   3.849
 8384TIP3   OH225115   2.806   6.309   2.656
 8384TIP3    H125116   2.868   6.312   2.729
 8384TIP3    H225117   2.801   6.399   2.625
 8385TIP3   OH225118   1.729   0.412   1.423
 8385TIP3    H125119   1.788   0.367   1.362
 8385TIP3    H225120   1.723   0.501   1.388
 8386TIP3   OH225121   5.681   1.388   3.696
 8386TIP3    H125122   5.757   1.345   3.736
 8386TIP3    H225123   5.631   1.423   3.770
 8387TIP3   OH225124   2.985   1.059   1.713
 8387TIP3    H125125   2.942   1.133   1.755
 8387TIP3    H225126   3.079   1.080   1.716
 8388TIP3   OH225127   2.441   3.544   1.182
 8388TIP3    H125128   2.490   3.530   1.263
 8388TIP3    H225129   2.438   3.458   1.140
 8389TIP3   OH225130   2.671   6.107   5.675
 8389TIP3    H125131   2.634   6.155   5.749
 8389TIP3    H225132   2.629   6.020   5.681
 8390TIP3   OH225133   1.931   2.995   4.969
 8390TIP3    H125134   1.957   3.086   4.985
 8390TIP3    H225135   1.979   2.971   4.890
 8391TIP3   OH225136   0.742   0.400   4.965
 8391TIP3    H125137   0.738   0.309   4.936
 8391TIP3    H225138   0.755   0.450   4.884
 8392TIP3   OH225139   6.271   4.364   5.733
 8392TIP3    H125140   6.293   4.327   5.818
 8392TIP3    H225141   6.348   4.349   5.678
 8393TIP3   OH225142   0.286   6.207   0.875
 8393TIP3    H125143   0.239   6.290   0.872
 8393TIP3    H225144   0.293   6.181   0.783
 8394TIP3   OH225145   3.569   6.421   4.510
 8394TIP3    H125146   3.610   6.421   4.597
 8394TIP3    H225147   3.642   6.407   4.449
 8395TIP3   OH225148   4.251   4.364   4.286
 8395TIP3    H125149   4.222   4.317   4.208
 8395TIP3    H225150   4.337   4.328   4.305
 8396TIP3   OH225151   2.245   2.841   5.735
 8396TIP3    H125152   2.186   2.767   5.752
 8396TIP3    H225153   2.211   2.880   5.654
 8397TIP3   OH225154   1.625   2.963   3.187
 8397TIP3    H125155   1.563   2.982   3.118
 8397TIP3    H225156   1.710   2.988   3.151
 8398TIP3   OH225157   6.852   2.118   4.788
 8398TIP3    H125158   6.768   2.148   4.754
 8398TIP3    H225159   6.836   2.100   4.880
 8399TIP3   OH225160   5.705   5.175   5.738
 8399TIP3    H125161   5.764   5.138   5.672
 8399TIP3    H225162   5.705   5.110   5.808
 8400TIP3   OH225163   2.168   0.980   0.139
 8400TIP3    H125164   2.087   0.980   0.190
 8400TIP3    H225165   2.155   0.912   0.073
 8401TIP3   OH225166   0.440   0.841   5.275
 8401TIP3    H125167   0.475   0.893   5.347
 8401TIP3    H225168   0.506   0.849   5.206
 8402TIP3   OH225169   7.141   4.289   4.177
 8402TIP3    H125170   7.212   4.278   4.241
 8402TIP3    H225171   7.061   4.284   4.228
 8403TIP3   OH225172   3.419   5.119   1.649
 8403TIP3    H125173   3.379   5.133   1.563
 8403TIP3    H225174   3.370   5.047   1.687
 8404TIP3   OH225175   5.806   2.191   1.465
 8404TIP3    H125176   5.771   2.211   1.552
 8404TIP3    H225177   5.788   2.269   1.413
 8405TIP3   OH225178   2.426   0.876   2.495
 8405TIP3    H125179   2.334   0.850   2.500
 8405TIP3    H225180   2.432   0.929   2.416
 8406TIP3   OH225181   2.184   5.902   2.621
 8406TIP3    H125182   2.134   5.840   2.675
 8406TIP3    H225183   2.243   5.847   2.570
 8407TIP3   OH225184   5.724   3.153   5.098
 8407TIP3    H125185   5.711   3.236   5.052
 8407TIP3    H225186   5.707   3.086   5.031
 8408TIP3   OH225187   4.740   6.763   4.856
 8408TIP3    H125188   4.798   6.837   4.842
 8408TIP3    H225189   4.736   6.752   4.951
 8409TIP3   OH225190   2.511   1.229   4.860
 8409TIP3    H125191   2.564   1.189   4.929
 8409TIP3    H225192   2.467   1.302   4.904
 8410TIP3   OH225193   2.707   3.733   1.123
 8410TIP3    H125194   2.615   3.715   1.100
 8410TIP3    H225195   2.707   3.823   1.153
 8411TIP3   OH225196   1.423   0.798   2.295
 8411TIP3    H125197   1.451   0.710   2.321
 8411TIP3    H225198   1.330   0.800   2.316
 8412TIP3   OH225199   6.672   6.732   2.302
 8412TIP3    H125200   6.701   6.659   2.356
 8412TIP3    H225201   6.578   6.738   2.318
 8413TIP3   OH225202   4.520   5.510   5.159
 8413TIP3    H125203   4.493   5.600   5.174
 8413TIP3    H225204   4.448   5.457   5.194
 8414TIP3   OH225205   3.094   3.099   1.701
 8414TIP3    H125206   3.067   3.060   1.784
 8414TIP3    H225207   3.103   3.025   1.642
 8415TIP3   OH225208   4.659   1.717   1.432
 8415TIP3    H125209   4.590   1.663   1.392
 8415TIP3    H225210   4.671   1.789   1.371
 8416TIP3   OH225211   2.184   2.405   4.753
 8416TIP3    H125212   2.105   2.441   4.713
 8416TIP3    H225213   2.195   2.320   4.711
 8417TIP3   OH225214   4.092   4.324   5.753
 8417TIP3    H125215   4.023   4.285   5.700
 8417TIP3    H225216   4.053   4.335   5.840
 8418TIP3   OH225217   3.287   4.990   5.233
 8418TIP3    H125218   3.213   4.998   5.293
 8418TIP3    H225219   3.251   5.011   5.147
 8419TIP3   OH225220   5.215   0.814   3.653
 8419TIP3    H125221   5.165   0.748   3.606
 8419TIP3    H225222   5.306   0.793   3.634
 8420TIP3   OH225223   0.827   6.497   3.331
 8420TIP3    H125224   0.852   6.590   3.334
 8420TIP3    H225225   0.732   6.498   3.321
 8421TIP3   OH225226   6.666   1.238   4.342
 8421TIP3    H125227   6.749   1.191   4.336
 8421TIP3    H225228   6.605   1.172   4.376
 8422TIP3   OH225229   1.053   2.942   1.233
 8422TIP3    H125230   1.032   2.953   1.140
 8422TIP3    H225231   0.971   2.910   1.272
 8423TIP3   OH225232   4.967   6.464   0.425
 8423TIP3    H125233   4.978   6.371   0.402
 8423TIP3    H225234   4.882   6.468   0.468
 8424TIP3   OH225235   6.356   3.070   1.679
 8424TIP3    H125236   6.270   3.110   1.689
 8424TIP3    H225237   6.417   3.137   1.709
 8425TIP3   OH225238   1.129   1.110   0.908
 8425TIP3    H125239   1.106   1.027   0.950
 8425TIP3    H225240   1.187   1.085   0.837
 8426TIP3   OH225241   2.504   3.487   1.759
 8426TIP3    H125242   2.580   3.524   1.804
 8426TIP3    H225243   2.463   3.561   1.715
 8427TIP3   OH225244   2.146   5.324   3.770
 8427TIP3    H125245   2.081   5.359   3.830
 8427TIP3    H225246   2.192   5.257   3.821
 8428TIP3   OH225247   4.664   1.919   0.471
 8428TIP3    H125248   4.606   1.863   0.523
 8428TIP3    H225249   4.750   1.879   0.480
 8429TIP3   OH225250   0.107   6.489   2.054
 8429TIP3    H125251   0.050   6.464   2.127
 8429TIP3    H225252   0.069   6.569   2.019
 8430TIP3   OH225253   2.536   4.130   1.727
 8430TIP3    H125254   2.524   4.195   1.796
 8430TIP3    H225255   2.447   4.107   1.700
 8431TIP3   OH225256   3.476   0.967   5.824
 8431TIP3    H125257   3.428   1.042   5.859
 8431TIP3    H225258   3.464   0.899   5.889
 8432TIP3   OH225259   4.921   6.035   4.442
 8432TIP3    H125260   4.938   6.002   4.353
 8432TIP3    H225261   4.843   5.988   4.470
 8433TIP3   OH225262   0.079   0.199   2.080
 8433TIP3    H125263   0.171   0.218   2.099
 8433TIP3    H225264   0.037   0.200   2.166
 8434TIP3   OH225265   5.328   1.298   3.059
 8434TIP3    H125266   5.273   1.291   3.137
 8434TIP3    H225267   5.383   1.220   3.061
 8435TIP3   OH225268   4.023   6.691   2.323
 8435TIP3    H125269   4.110   6.692   2.284
 8435TIP3    H225270   3.979   6.767   2.285
 8436TIP3   OH225271   4.843   0.750   3.328
 8436TIP3    H125272   4.749   0.740   3.312
 8436TIP3    H225273   4.873   0.811   3.260
 8437TIP3   OH225274   6.640   3.205   0.869
 8437TIP3    H125275   6.668   3.115   0.858
 8437TIP3    H225276   6.640   3.242   0.781
 8438TIP3   OH225277   2.408   5.813   1.883
 8438TIP3    H125278   2.378   5.894   1.924
 8438TIP3    H225279   2.345   5.796   1.813
 8439TIP3   OH225280   6.738   5.178   4.272
 8439TIP3    H125281   6.768   5.261   4.308
 8439TIP3    H225282   6.790   5.166   4.192
 8440TIP3   OH225283   4.394   0.965   4.221
 8440TIP3    H125284   4.392   1.007   4.135
 8440TIP3    H225285   4.326   0.897   4.216
 8441TIP3   OH225286   1.077   1.962   5.600
 8441TIP3    H125287   1.021   1.885   5.589
 8441TIP3    H225288   1.074   1.980   5.694
 8442TIP3   OH225289   1.844   3.007   5.687
 8442TIP3    H125290   1.936   3.030   5.692
 8442TIP3    H225291   1.799   3.091   5.677
 8443TIP3   OH225292   4.911   4.178   4.150
 8443TIP3    H125293   4.820   4.204   4.135
 8443TIP3    H225294   4.961   4.259   4.139
 8444TIP3   OH225295   1.181   3.503   4.304
 8444TIP3    H125296   1.244   3.563   4.264
 8444TIP3    H225297   1.158   3.442   4.234
 8445TIP3   OH225298   5.959   3.996   2.930
 8445TIP3    H125299   5.868   4.019   2.912
 8445TIP3    H225300   5.968   4.006   3.025
 8446TIP3   OH225301   5.808   3.081   0.167
 8446TIP3    H125302   5.810   3.025   0.245
 8446TIP3    H225303   5.838   3.167   0.199
 8447TIP3   OH225304   2.731   2.452   4.784
 8447TIP3    H125305   2.758   2.449   4.876
 8447TIP3    H225306   2.636   2.458   4.787
 8448TIP3   OH225307   1.339   3.024   3.579
 8448TIP3    H125308   1.282   2.955   3.612
 8448TIP3    H225309   1.428   2.994   3.600
 8449TIP3   OH225310   3.285   1.690   2.920
 8449TIP3    H125311   3.228   1.765   2.934
 8449TIP3    H225312   3.305   1.658   3.008
 8450TIP3   OH225313   2.677   4.307   0.479
 8450TIP3    H125314   2.735   4.382   0.463
 8450TIP3    H225315   2.692   4.285   0.571
 8451TIP3   OH225316   5.504   2.073   5.401
 8451TIP3    H125317   5.507   2.068   5.306
 8451TIP3    H225318   5.502   2.167   5.420
 8452TIP3   OH225319   3.894   0.152   0.648
 8452TIP3    H125320   3.887   0.057   0.657
 8452TIP3    H225321   3.806   0.180   0.623
 8453TIP3   OH225322   0.788   1.361   0.096
 8453TIP3    H125323   0.881   1.368   0.076
 8453TIP3    H225324   0.769   1.435   0.153
 8454TIP3   OH225325   1.968   2.324   0.980
 8454TIP3    H125326   1.895   2.322   0.919
 8454TIP3    H225327   2.046   2.316   0.925
 8455TIP3   OH225328   2.604   3.643   4.950
 8455TIP3    H125329   2.686   3.685   4.975
 8455TIP3    H225330   2.547   3.715   4.924
 8456TIP3   OH225331   5.397   0.443   0.922
 8456TIP3    H125332   5.489   0.423   0.906
 8456TIP3    H225333   5.399   0.508   0.993
 8457TIP3   OH225334   5.380   2.978   5.894
 8457TIP3    H125335   5.360   2.886   5.878
 8457TIP3    H225336   5.341   3.024   5.820
 8458TIP3   OH225337   4.460   2.906   2.463
 8458TIP3    H125338   4.397   2.915   2.391
 8458TIP3    H225339   4.447   2.817   2.495
 8459TIP3   OH225340   3.287   1.691   5.684
 8459TIP3    H125341   3.246   1.652   5.606
 8459TIP3    H225342   3.331   1.769   5.652
 8460TIP3   OH225343   5.933   2.577   2.652
 8460TIP3    H125344   5.916   2.574   2.558
 8460TIP3    H225345   5.925   2.669   2.676
 8461TIP3   OH225346   1.442   5.686   2.652
 8461TIP3    H125347   1.412   5.595   2.651
 8461TIP3    H225348   1.531   5.682   2.685
 8462TIP3   OH225349   4.056   4.479   4.950
 8462TIP3    H125350   4.076   4.550   5.011
 8462TIP3    H225351   4.010   4.414   5.003
 8463TIP3   OH225352   1.393   4.643   4.445
 8463TIP3    H125353   1.461   4.605   4.501
 8463TIP3    H225354   1.416   4.736   4.439
 8464TIP3   OH225355   6.688   4.367   0.512
 8464TIP3    H125356   6.725   4.279   0.509
 8464TIP3    H225357   6.639   4.369   0.595
 8465TIP3   OH225358   2.464   3.401   4.157
 8465TIP3    H125359   2.415   3.383   4.077
 8465TIP3    H225360   2.483   3.494   4.153
 8466TIP3   OH225361   3.064   5.050   5.429
 8466TIP3    H125362   2.997   5.056   5.360
 8466TIP3    H225363   3.023   5.090   5.506
 8467TIP3   OH225364   0.699   1.876   1.469
 8467TIP3    H125365   0.640   1.803   1.489
 8467TIP3    H225366   0.771   1.836   1.420
 8468TIP3   OH225367   5.684   6.621   3.705
 8468TIP3    H125368   5.724   6.581   3.782
 8468TIP3    H225369   5.723   6.708   3.700
 8469TIP3   OH225370   0.774   4.262   3.449
 8469TIP3    H125371   0.743   4.251   3.539
 8469TIP3    H225372   0.848   4.322   3.456
 8470TIP3   OH225373   2.811   5.086   3.128
 8470TIP3    H125374   2.807   4.990   3.132
 8470TIP3    H225375   2.763   5.108   3.048
 8471TIP3   OH225376   0.577   0.237   4.420
 8471TIP3    H125377   0.511   0.259   4.486
 8471TIP3    H225378   0.599   0.145   4.438
 8472TIP3   OH225379   5.921   3.951   3.477
 8472TIP3    H125380   5.890   4.017   3.540
 8472TIP3    H225381   5.917   3.868   3.525
 8473TIP3   OH225382   6.974   3.595   4.491
 8473TIP3    H125383   6.880   3.580   4.501
 8473TIP3    H225384   6.993   3.564   4.402
 8474TIP3   OH225385   3.430   1.063   5.566
 8474TIP3    H125386   3.473   1.027   5.643
 8474TIP3    H225387   3.493   1.051   5.495
 8475TIP3   OH225388   3.802   0.664   2.774
 8475TIP3    H125389   3.807   0.573   2.745
 8475TIP3    H225390   3.774   0.713   2.696
 8476TIP3   OH225391   2.012   6.521   5.349
 8476TIP3    H125392   1.997   6.593   5.410
 8476TIP3    H225393   2.025   6.562   5.264
 8477TIP3   OH225394   7.233   0.253   4.387
 8477TIP3    H125395   7.273   0.178   4.342
 8477TIP3    H225396   7.174   0.213   4.452
 8478TIP3   OH225397   1.277   2.583   4.599
 8478TIP3    H125398   1.339   2.586   4.671
 8478TIP3    H225399   1.193   2.561   4.641
 8479TIP3   OH225400   5.061   3.785   1.000
 8479TIP3    H125401   5.046   3.799   1.094
 8479TIP3    H225402   4.974   3.766   0.965
 8480TIP3   OH225403   2.015   6.085   3.439
 8480TIP3    H125404   2.082   6.044   3.385
 8480TIP3    H225405   1.988   6.017   3.501
 8481TIP3   OH225406   4.116   2.414   3.236
 8481TIP3    H125407   4.145   2.505   3.245
 8481TIP3    H225408   4.053   2.403   3.308
 8482TIP3   OH225409   5.448   3.033   1.718
 8482TIP3    H125410   5.543   3.037   1.735
 8482TIP3    H225411   5.411   2.998   1.799
 8483TIP3   OH225412   7.149   5.960   3.686
 8483TIP3    H125413   7.061   5.935   3.655
 8483TIP3    H225414   7.188   6.005   3.611
 8484TIP3   OH225415   2.194   6.024   1.167
 8484TIP3    H125416   2.181   5.961   1.238
 8484TIP3    H225417   2.251   5.978   1.105
 8485TIP3   OH225418   4.160   4.341   1.323
 8485TIP3    H125419   4.131   4.342   1.414
 8485TIP3    H225420   4.245   4.384   1.324
 8486TIP3   OH225421   0.940   0.035   5.304
 8486TIP3    H125422   0.947   0.083   5.387
 8486TIP3    H225423   0.970  -0.053   5.325
 8487TIP3   OH225424   2.998   3.695   4.157
 8487TIP3    H125425   2.971   3.763   4.219
 8487TIP3    H225426   3.090   3.677   4.179
 8488TIP3   OH225427   2.883   6.686   0.123
 8488TIP3    H125428   2.954   6.643   0.171
 8488TIP3    H225429   2.910   6.682   0.031
 8489TIP3   OH225430   3.188   1.056   0.461
 8489TIP3    H125431   3.275   1.047   0.501
 8489TIP3    H225432   3.204   1.103   0.379
 8490TIP3   OH225433   0.645   2.716   4.312
 8490TIP3    H125434   0.716   2.659   4.281
 8490TIP3    H225435   0.685   2.802   4.317
 8491TIP3   OH225436   5.684   6.464   0.222
 8491TIP3    H125437   5.589   6.475   0.226
 8491TIP3    H225438   5.714   6.484   0.311
 8492TIP3   OH225439   1.003   0.275   4.671
 8492TIP3    H125440   1.039   0.304   4.754
 8492TIP3    H225441   0.943   0.204   4.694
 8493TIP3   OH225442   4.313   0.197   3.978
 8493TIP3    H125443   4.380   0.262   4.000
 8493TIP3    H225444   4.258   0.239   3.913
 8494TIP3   OH225445   0.542   4.500   0.955
 8494TIP3    H125446   0.629   4.459   0.952
 8494TIP3    H225447   0.529   4.535   0.867
 8495TIP3   OH225448   1.640   5.344   4.767
 8495TIP3    H125449   1.709   5.405   4.738
 8495TIP3    H225450   1.656   5.264   4.717
 8496TIP3   OH225451   3.729   3.513   3.490
 8496TIP3    H125452   3.772   3.576   3.431
 8496TIP3    H225453   3.646   3.493   3.448
 8497TIP3   OH225454   1.752   2.274   3.212
 8497TIP3    H125455   1.751   2.184   3.179
 8497TIP3    H225456   1.832   2.312   3.176
 8498TIP3   OH225457   5.387   5.777   1.200
 8498TIP3    H125458   5.415   5.687   1.185
 8498TIP3    H225459   5.377   5.815   1.113
 8499TIP3   OH225460   1.434   6.474   1.980
 8499TIP3    H125461   1.468   6.550   1.932
 8499TIP3    H225462   1.439   6.402   1.917
 8500TIP3   OH225463   6.746   1.754   0.818
 8500TIP3    H125464   6.695   1.819   0.770
 8500TIP3    H225465   6.810   1.722   0.754
 8501TIP3   OH225466   4.160   3.375   4.707
 8501TIP3    H125467   4.098   3.425   4.655
 8501TIP3    H225468   4.113   3.296   4.733
 8502TIP3   OH225469   2.326   2.218   0.020
 8502TIP3    H125470   2.291   2.251   0.103
 8502TIP3    H225471   2.391   2.153   0.046
 8503TIP3   OH225472   6.650   4.978   1.136
 8503TIP3    H125473   6.741   4.965   1.109
 8503TIP3    H225474   6.601   4.913   1.084
 8504TIP3   OH225475   6.193   6.290   1.468
 8504TIP3    H125476   6.187   6.281   1.373
 8504TIP3    H225477   6.161   6.378   1.486
 8505TIP3   OH225478   6.144   6.187   5.177
 8505TIP3    H125479   6.049   6.188   5.174
 8505TIP3    H225480   6.168   6.095   5.187
 8506TIP3   OH225481   3.273   3.298   4.650
 8506TIP3    H125482   3.251   3.342   4.568
 8506TIP3    H225483   3.252   3.206   4.635
 8507TIP3   OH225484   4.388   3.641   5.720
 8507TIP3    H125485   4.381   3.556   5.676
 8507TIP3    H225486   4.303   3.682   5.705
 8508TIP3   OH225487   3.065   2.946   2.265
 8508TIP3    H125488   3.077   3.037   2.290
 8508TIP3    H225489   3.068   2.898   2.348
 8509TIP3   OH225490   6.385   3.368   5.393
 8509TIP3    H125491   6.369   3.440   5.332
 8509TIP3    H225492   6.450   3.402   5.454
 8510TIP3   OH225493   3.415   2.229   1.039
 8510TIP3    H125494   3.403   2.296   1.106
 8510TIP3    H225495   3.434   2.277   0.959
 8511TIP3   OH225496   1.490   0.136   2.349
 8511TIP3    H125497   1.520   0.197   2.417
 8511TIP3    H225498   1.503   0.183   2.267
 8512TIP3   OH225499   0.684   2.412   4.254
 8512TIP3    H125500   0.616   2.432   4.190
 8512TIP3    H225501   0.766   2.416   4.203
 8513TIP3   OH225502   6.704   4.819   4.366
 8513TIP3    H125503   6.718   4.876   4.290
 8513TIP3    H225504   6.699   4.731   4.328
 8514TIP3   OH225505   1.367   0.181   1.887
 8514TIP3    H125506   1.429   0.175   1.960
 8514TIP3    H225507   1.286   0.210   1.927
 8515TIP3   OH225508   3.833   0.781   0.841
 8515TIP3    H125509   3.878   0.727   0.907
 8515TIP3    H225510   3.752   0.733   0.822
 8516TIP3   OH225511   3.854   2.497   1.590
 8516TIP3    H125512   3.778   2.472   1.643
 8516TIP3    H225513   3.924   2.439   1.619
 8517TIP3   OH225514   1.049   0.038   5.809
 8517TIP3    H125515   1.099   0.082   5.878
 8517TIP3    H225516   1.067   0.089   5.730
 8518TIP3   OH225517   5.428   2.874   3.435
 8518TIP3    H125518   5.402   2.966   3.437
 8518TIP3    H225519   5.472   2.859   3.519
 8519TIP3   OH225520   1.232   0.063   2.153
 8519TIP3    H125521   1.173   0.135   2.173
 8519TIP3    H225522   1.178   0.000   2.105
 8520TIP3   OH225523   3.166   4.211   5.239
 8520TIP3    H125524   3.160   4.132   5.294
 8520TIP3    H225525   3.103   4.272   5.278
 8521TIP3   OH225526   4.793   5.448   1.573
 8521TIP3    H125527   4.701   5.469   1.557
 8521TIP3    H225528   4.836   5.463   1.488
 8522TIP3   OH225529   1.715   1.577   5.416
 8522TIP3    H125530   1.624   1.571   5.386
 8522TIP3    H225531   1.761   1.511   5.365
 8523TIP3   OH225532   2.776   5.990   5.129
 8523TIP3    H125533   2.784   6.017   5.221
 8523TIP3    H225534   2.813   5.902   5.127
 8524TIP3   OH225535   4.080   1.279   0.980
 8524TIP3    H125536   4.005   1.276   1.040
 8524TIP3    H225537   4.133   1.352   1.013
 8525TIP3   OH225538   2.353   2.043   5.435
 8525TIP3    H125539   2.414   2.116   5.431
 8525TIP3    H225540   2.407   1.968   5.463
 8526TIP3   OH225541   0.061   2.231   2.162
 8526TIP3    H125542   0.057   2.149   2.114
 8526TIP3    H225543   0.152   2.237   2.192
 8527TIP3   OH225544   6.549   3.732   3.853
 8527TIP3    H125545   6.633   3.779   3.859
 8527TIP3    H225546   6.540   3.712   3.760
 8528TIP3   OH225547   1.568   4.523   4.188
 8528TIP3    H125548   1.496   4.545   4.129
 8528TIP3    H225549   1.564   4.590   4.257
 8529TIP3   OH225550   0.315   6.570   2.828
 8529TIP3    H125551   0.396   6.573   2.778
 8529TIP3    H225552   0.262   6.643   2.793
 8530TIP3   OH225553   2.842   6.768   4.390
 8530TIP3    H125554   2.746   6.771   4.380
 8530TIP3    H225555   2.862   6.843   4.446
 8531TIP3   OH225556   0.311   1.623   3.600
 8531TIP3    H125557   0.333   1.538   3.562
 8531TIP3    H225558   0.245   1.604   3.666
 8532TIP3   OH225559   5.852   4.595   5.329
 8532TIP3    H125560   5.798   4.625   5.256
 8532TIP3    H225561   5.893   4.674   5.362
 8533TIP3   OH225562   1.828   0.719   5.343
 8533TIP3    H125563   1.879   0.638   5.351
 8533TIP3    H225564   1.744   0.690   5.307
 8534TIP3   OH225565   3.386   3.709   1.780
 8534TIP3    H125566   3.459   3.676   1.832
 8534TIP3    H225567   3.427   3.769   1.717
 8535TIP3   OH225568   0.986   3.137   4.502
 8535TIP3    H125569   0.985   3.097   4.589
 8535TIP3    H225570   1.079   3.152   4.483
 8536TIP3   OH225571   6.057   4.262   0.587
 8536TIP3    H125572   6.112   4.307   0.652
 8536TIP3    H225573   6.019   4.188   0.634
 8537TIP3   OH225574   6.412   3.760   2.900
 8537TIP3    H125575   6.375   3.729   2.983
 8537TIP3    H225576   6.341   3.749   2.837
 8538TIP3   OH225577   2.711   0.055   5.144
 8538TIP3    H125578   2.724  -0.039   5.153
 8538TIP3    H225579   2.795   0.088   5.112
 8539TIP3   OH225580   7.189   6.426   4.621
 8539TIP3    H125581   7.247   6.408   4.547
 8539TIP3    H225582   7.245   6.467   4.687
 8540TIP3   OH225583   3.067   6.805   0.807
 8540TIP3    H125584   3.160   6.784   0.803
 8540TIP3    H225585   3.039   6.812   0.716
 8541TIP3   OH225586   7.006   3.510   1.811
 8541TIP3    H125587   7.074   3.518   1.878
 8541TIP3    H225588   7.055   3.497   1.729
 8542TIP3   OH225589   3.130   5.967   1.430
 8542TIP3    H125590   3.066   6.038   1.442
 8542TIP3    H225591   3.211   6.000   1.469
 8543TIP3   OH225592   5.164   2.569   0.135
 8543TIP3    H125593   5.129   2.501   0.193
 8543TIP3    H225594   5.259   2.556   0.139
 8544TIP3   OH225595   6.039   0.936   5.658
 8544TIP3    H125596   6.116   0.963   5.607
 8544TIP3    H225597   6.064   0.949   5.749
 8545TIP3   OH225598   5.396   4.562   0.483
 8545TIP3    H125599   5.301   4.555   0.497
 8545TIP3    H225600   5.414   4.500   0.413
 8546TIP3   OH225601  -0.005   3.817   3.690
 8546TIP3    H125602  -0.026   3.726   3.710
 8546TIP3    H225603   0.057   3.843   3.758
 8547TIP3   OH225604   1.892   6.688   3.123
 8547TIP3    H125605   1.875   6.709   3.031
 8547TIP3    H225606   1.980   6.648   3.122
 8548TIP3   OH225607   6.889   4.467   4.729
 8548TIP3    H125608   6.967   4.503   4.770
 8548TIP3    H225609   6.894   4.495   4.637
 8549TIP3   OH225610   6.505   3.938   1.983
 8549TIP3    H125611   6.468   3.885   2.054
 8549TIP3    H225612   6.598   3.945   2.005
 8550TIP3   OH225613   1.837   0.732   1.697
 8550TIP3    H125614   1.827   0.638   1.689
 8550TIP3    H225615   1.931   0.745   1.711
 8551TIP3   OH225616   6.211   3.861   5.300
 8551TIP3    H125617   6.126   3.857   5.257
 8551TIP3    H225618   6.190   3.885   5.391
 8552TIP3   OH225619   0.070   5.636   1.395
 8552TIP3    H125620   0.126   5.617   1.319
 8552TIP3    H225621  -0.019   5.620   1.363
 8553TIP3   OH225622   5.884   4.609   1.820
 8553TIP3    H125623   5.972   4.581   1.844
 8553TIP3    H225624   5.845   4.531   1.780
 8554TIP3   OH225625   0.761   0.443   0.761
 8554TIP3    H125626   0.832   0.380   0.753
 8554TIP3    H225627   0.713   0.438   0.678
 8555TIP3   OH225628   0.613   4.012   3.809
 8555TIP3    H125629   0.626   4.105   3.831
 8555TIP3    H225630   0.561   3.978   3.882
 8556TIP3   OH225631   2.174   5.922   3.291
 8556TIP3    H125632   2.134   5.884   3.213
 8556TIP3    H225633   2.248   5.866   3.310
 8557TIP3   OH225634   6.797   0.102   1.571
 8557TIP3    H125635   6.844   0.080   1.490
 8557TIP3    H225636   6.832   0.188   1.596
 8558TIP3   OH225637   0.588   0.386   0.108
 8558TIP3    H125638   0.510   0.331   0.105
 8558TIP3    H225639   0.656   0.330   0.146
 8559TIP3   OH225640   6.615   0.711   3.229
 8559TIP3    H125641   6.678   0.701   3.299
 8559TIP3    H225642   6.532   0.730   3.273
 8560TIP3   OH225643   6.955   3.403   5.571
 8560TIP3    H125644   7.043   3.366   5.579
 8560TIP3    H225645   6.969   3.493   5.541
 8561TIP3   OH225646   3.834   2.246   4.772
 8561TIP3    H125647   3.907   2.262   4.712
 8561TIP3    H225648   3.757   2.250   4.716
 8562TIP3   OH225649   3.572   6.600   0.170
 8562TIP3    H125650   3.627   6.677   0.157
 8562TIP3    H225651   3.609   6.556   0.246
 8563TIP3   OH225652   1.221   6.137   3.991
 8563TIP3    H125653   1.284   6.068   4.014
 8563TIP3    H225654   1.252   6.172   3.907
 8564TIP3   OH225655   0.882   2.494   4.077
 8564TIP3    H125656   0.832   2.523   4.001
 8564TIP3    H225657   0.969   2.532   4.064
 8565TIP3   OH225658   2.417   0.408   0.905
 8565TIP3    H125659   2.385   0.387   0.817
 8565TIP3    H225660   2.373   0.491   0.926
 8566TIP3   OH225661   5.615   4.704   5.579
 8566TIP3    H125662   5.647   4.641   5.644
 8566TIP3    H225663   5.560   4.652   5.520
 8567TIP3   OH225664   6.423   1.933   1.368
 8567TIP3    H125665   6.454   2.012   1.411
 8567TIP3    H225666   6.390   1.878   1.440
 8568TIP3   OH225667   5.628   0.783   4.985
 8568TIP3    H125668   5.654   0.730   5.060
 8568TIP3    H225669   5.604   0.868   5.022
 8569TIP3   OH225670   2.334   1.957   4.228
 8569TIP3    H125671   2.308   1.866   4.212
 8569TIP3    H225672   2.382   1.953   4.311
 8570TIP3   OH225673   2.630   0.841   1.989
 8570TIP3    H125674   2.673   0.881   2.065
 8570TIP3    H225675   2.697   0.842   1.921
 8571TIP3   OH225676   1.432   4.078   1.884
 8571TIP3    H125677   1.368   4.020   1.926
 8571TIP3    H225678   1.385   4.160   1.870
 8572TIP3   OH225679   6.095   1.229   3.599
 8572TIP3    H125680   6.155   1.174   3.651
 8572TIP3    H225681   6.129   1.223   3.510
 8573TIP3   OH225682   6.399   6.190   0.156
 8573TIP3    H125683   6.369   6.129   0.088
 8573TIP3    H225684   6.394   6.276   0.115
 8574TIP3   OH225685   4.656   0.871   1.183
 8574TIP3    H125686   4.626   0.796   1.234
 8574TIP3    H225687   4.592   0.879   1.112
 8575TIP3   OH225688   1.286   2.414   3.402
 8575TIP3    H125689   1.199   2.372   3.402
 8575TIP3    H225690   1.347   2.341   3.392
 8576TIP3   OH225691   3.742   5.684   0.401
 8576TIP3    H125692   3.652   5.681   0.369
 8576TIP3    H225693   3.795   5.663   0.324
 8577TIP3   OH225694   6.182   1.813   4.147
 8577TIP3    H125695   6.130   1.885   4.109
 8577TIP3    H225696   6.118   1.759   4.193
 8578TIP3   OH225697   1.599   3.856   1.409
 8578TIP3    H125698   1.689   3.888   1.416
 8578TIP3    H225699   1.556   3.888   1.488
 8579TIP3   OH225700   0.638   3.978   5.185
 8579TIP3    H125701   0.719   4.012   5.146
 8579TIP3    H225702   0.650   3.990   5.279
 8580TIP3   OH225703   6.055   1.635   2.077
 8580TIP3    H125704   6.085   1.689   2.151
 8580TIP3    H225705   5.999   1.568   2.118
 8581TIP3   OH225706   1.544   0.162   3.625
 8581TIP3    H125707   1.626   0.212   3.633
 8581TIP3    H225708   1.485   0.204   3.687
 8582TIP3   OH225709   2.783   0.837   2.532
 8582TIP3    H125710   2.860   0.779   2.531
 8582TIP3    H225711   2.814   0.916   2.576
 8583TIP3   OH225712   0.246   2.231   4.161
 8583TIP3    H125713   0.238   2.295   4.232
 8583TIP3    H225714   0.262   2.148   4.205
 8584TIP3   OH225715   1.380   2.451   2.463
 8584TIP3    H125716   1.465   2.439   2.504
 8584TIP3    H225717   1.349   2.362   2.445
 8585TIP3   OH225718   7.180   5.892   5.500
 8585TIP3    H125719   7.130   5.921   5.576
 8585TIP3    H225720   7.267   5.930   5.512
 8586TIP3   OH225721   6.433   2.663   5.707
 8586TIP3    H125722   6.393   2.644   5.792
 8586TIP3    H225723   6.365   2.709   5.658
 8587TIP3   OH225724   3.804   4.713   4.799
 8587TIP3    H125725   3.891   4.687   4.767
 8587TIP3    H225726   3.772   4.776   4.735
 8588TIP3   OH225727   2.677   3.908   1.715
 8588TIP3    H125728   2.636   3.988   1.746
 8588TIP3    H225729   2.771   3.928   1.714
 8589TIP3   OH225730   3.518   2.734   0.382
 8589TIP3    H125731   3.519   2.734   0.478
 8589TIP3    H225732   3.428   2.712   0.359
 8590TIP3   OH225733   3.981   1.474   2.928
 8590TIP3    H125734   3.953   1.565   2.916
 8590TIP3    H225735   4.014   1.472   3.018
 8591TIP3   OH225736   1.177   2.804   0.860
 8591TIP3    H125737   1.179   2.866   0.786
 8591TIP3    H225738   1.095   2.824   0.905
 8592TIP3   OH225739   2.666   6.386   4.833
 8592TIP3    H125740   2.632   6.297   4.837
 8592TIP3    H225741   2.614   6.434   4.898
 8593TIP3   OH225742   3.970   1.700   3.352
 8593TIP3    H125743   3.983   1.672   3.261
 8593TIP3    H225744   3.877   1.684   3.368
 8594TIP3   OH225745   2.910   0.777   4.607
 8594TIP3    H125746   2.876   0.858   4.567
 8594TIP3    H225747   2.996   0.801   4.640
 8595TIP3   OH225748   6.478   4.679   5.231
 8595TIP3    H125749   6.464   4.737   5.155
 8595TIP3    H225750   6.398   4.686   5.282
 8596TIP3   OH225751   3.579   4.253   1.414
 8596TIP3    H125752   3.531   4.258   1.331
 8596TIP3    H225753   3.611   4.163   1.417
 8597TIP3   OH225754   1.901   3.777   5.163
 8597TIP3    H125755   1.978   3.815   5.122
 8597TIP3    H225756   1.910   3.798   5.256
 8598TIP3   OH225757   5.787   6.741   1.417
 8598TIP3    H125758   5.880   6.762   1.422
 8598TIP3    H225759   5.784   6.658   1.370
 8599TIP3   OH225760   5.140   1.246   3.254
 8599TIP3    H125761   5.054   1.223   3.218
 8599TIP3    H225762   5.168   1.166   3.300
 8600TIP3   OH225763   0.043   4.807   2.021
 8600TIP3    H125764   0.127   4.807   1.977
 8600TIP3    H225765   0.037   4.893   2.063
 8601TIP3   OH225766   3.728   4.043   4.290
 8601TIP3    H125767   3.637   4.037   4.319
 8601TIP3    H225768   3.773   4.088   4.361
 8602TIP3   OH225769   6.085   3.111   1.668
 8602TIP3    H125770   6.104   3.027   1.627
 8602TIP3    H225771   6.071   3.171   1.595
 8603TIP3   OH225772   2.891   5.893   5.720
 8603TIP3    H125773   2.915   5.855   5.635
 8603TIP3    H225774   2.975   5.914   5.761
 8604TIP3   OH225775   3.366   3.364   4.900
 8604TIP3    H125776   3.338   3.354   4.809
 8604TIP3    H225777   3.460   3.384   4.894
 8605TIP3   OH225778   4.297   0.417   1.256
 8605TIP3    H125779   4.357   0.345   1.236
 8605TIP3    H225780   4.340   0.495   1.221
 8606TIP3   OH225781   4.205   5.918   3.158
 8606TIP3    H125782   4.173   6.004   3.132
 8606TIP3    H225783   4.226   5.875   3.075
 8607TIP3   OH225784   0.096   6.221   2.577
 8607TIP3    H125785   0.102   6.282   2.652
 8607TIP3    H225786   0.187   6.209   2.550
 8608TIP3   OH225787   7.086   5.868   4.409
 8608TIP3    H125788   6.995   5.859   4.439
 8608TIP3    H225789   7.135   5.804   4.461
 8609TIP3   OH225790   6.542   0.796   1.666
 8609TIP3    H125791   6.492   0.726   1.708
 8609TIP3    H225792   6.625   0.755   1.643
 8610TIP3   OH225793   1.281   6.699   0.772
 8610TIP3    H125794   1.337   6.643   0.826
 8610TIP3    H225795   1.249   6.642   0.703
 8611TIP3   OH225796   5.037   2.004   5.481
 8611TIP3    H125797   4.954   2.051   5.473
 8611TIP3    H225798   5.090   2.038   5.408
 8612TIP3   OH225799   5.068   3.054   1.073
 8612TIP3    H125800   5.123   3.087   1.144
 8612TIP3    H225801   5.129   3.007   1.015
 8613TIP3   OH225802   5.292   6.349   0.541
 8613TIP3    H125803   5.353   6.420   0.520
 8613TIP3    H225804   5.300   6.287   0.469
 8614TIP3   OH225805   6.715   3.244   2.436
 8614TIP3    H125806   6.728   3.149   2.427
 8614TIP3    H225807   6.767   3.267   2.513
 8615TIP3   OH225808   0.177   2.411   5.688
 8615TIP3    H125809   0.137   2.350   5.750
 8615TIP3    H225810   0.271   2.408   5.709
 8616TIP3   OH225811   5.468   5.219   5.496
 8616TIP3    H125812   5.411   5.240   5.571
 8616TIP3    H225813   5.535   5.287   5.496
 8617TIP3   OH225814   3.943   0.630   0.437
 8617TIP3    H125815   4.010   0.638   0.368
 8617TIP3    H225816   3.985   0.577   0.504
 8618TIP3   OH225817   4.821   5.849   2.356
 8618TIP3    H125818   4.805   5.782   2.289
 8618TIP3    H225819   4.847   5.926   2.306
 8619TIP3   OH225820   2.192   4.931   3.082
 8619TIP3    H125821   2.101   4.935   3.113
 8619TIP3    H225822   2.244   4.929   3.162
 8620TIP3   OH225823   6.034   3.274   4.493
 8620TIP3    H125824   6.030   3.310   4.404
 8620TIP3    H225825   6.109   3.215   4.492
 8621TIP3   OH225826   2.778   5.337   4.119
 8621TIP3    H125827   2.863   5.295   4.111
 8621TIP3    H225828   2.752   5.356   4.028
 8622TIP3   OH225829   5.729   2.465   3.098
 8622TIP3    H125830   5.744   2.495   3.008
 8622TIP3    H225831   5.808   2.490   3.145
 8623TIP3   OH225832   6.512   5.987   1.726
 8623TIP3    H125833   6.477   6.039   1.654
 8623TIP3    H225834   6.490   5.896   1.703
 8624TIP3   OH225835   3.292   2.746   0.199
 8624TIP3    H125836   3.363   2.761   0.136
 8624TIP3    H225837   3.226   2.697   0.150
 8625TIP3   OH225838   0.328   5.658   1.664
 8625TIP3    H125839   0.303   5.723   1.598
 8625TIP3    H225840   0.418   5.680   1.688
 8626TIP3   OH225841   4.081   2.790   0.828
 8626TIP3    H125842   4.101   2.729   0.757
 8626TIP3    H225843   4.018   2.851   0.790
 8627TIP3   OH225844   6.010   2.915   4.990
 8627TIP3    H125845   6.002   2.946   4.900
 8627TIP3    H225846   6.085   2.856   4.988
 8628TIP3   OH225847   7.142   1.847   5.103
 8628TIP3    H125848   7.066   1.796   5.077
 8628TIP3    H225849   7.160   1.820   5.193
 8629TIP3   OH225850   6.480   2.984   3.341
 8629TIP3    H125851   6.421   2.965   3.414
 8629TIP3    H225852   6.528   3.062   3.370
 8630TIP3   OH225853   5.412   4.006   5.000
 8630TIP3    H125854   5.329   3.965   5.025
 8630TIP3    H225855   5.411   4.005   4.904
 8631TIP3   OH225856   6.434   6.734   3.056
 8631TIP3    H125857   6.391   6.676   3.118
 8631TIP3    H225858   6.525   6.737   3.086
 8632TIP3   OH225859   6.511   6.372   5.537
 8632TIP3    H125860   6.463   6.403   5.461
 8632TIP3    H225861   6.469   6.415   5.611
 8633TIP3   OH225862   1.046   4.272   0.137
 8633TIP3    H125863   1.070   4.218   0.062
 8633TIP3    H225864   1.125   4.273   0.191
 8634TIP3   OH225865   6.873   3.369   2.660
 8634TIP3    H125866   6.932   3.418   2.717
 8634TIP3    H225867   6.860   3.286   2.705
 8635TIP3   OH225868   5.205   2.766   4.598
 8635TIP3    H125869   5.229   2.716   4.520
 8635TIP3    H225870   5.178   2.700   4.662
 8636TIP3   OH225871   1.024   1.652   0.208
 8636TIP3    H125872   1.118   1.672   0.209
 8636TIP3    H225873   0.994   1.685   0.123
 8637TIP3   OH225874   1.926   0.984   0.293
 8637TIP3    H125875   1.936   1.007   0.385
 8637TIP3    H225876   1.912   0.890   0.293
 8638TIP3   OH225877   0.535   2.628   3.189
 8638TIP3    H125878   0.615   2.651   3.142
 8638TIP3    H225879   0.555   2.544   3.231
 8639TIP3   OH225880   0.811   4.503   1.249
 8639TIP3    H125881   0.751   4.571   1.216
 8639TIP3    H225882   0.766   4.421   1.230
 8640TIP3   OH225883   1.509   2.126   1.743
 8640TIP3    H125884   1.472   2.098   1.659
 8640TIP3    H225885   1.432   2.139   1.799
 8641TIP3   OH225886   2.752   2.141   2.457
 8641TIP3    H125887   2.820   2.182   2.404
 8641TIP3    H225888   2.795   2.117   2.539
 8642TIP3   OH225889   0.413   4.314   3.884
 8642TIP3    H125890   0.496   4.336   3.925
 8642TIP3    H225891   0.367   4.261   3.949
 8643TIP3   OH225892   1.252   5.209   0.235
 8643TIP3    H125893   1.206   5.184   0.316
 8643TIP3    H225894   1.186   5.200   0.167
 8644TIP3   OH225895   4.538   6.369   0.124
 8644TIP3    H125896   4.504   6.281   0.114
 8644TIP3    H225897   4.461   6.425   0.122
 8645TIP3   OH225898   4.722   1.278   3.404
 8645TIP3    H125899   4.774   1.213   3.453
 8645TIP3    H225900   4.663   1.315   3.470
 8646TIP3   OH225901   4.263   1.044   4.803
 8646TIP3    H125902   4.182   1.086   4.832
 8646TIP3    H225903   4.241   1.005   4.718
 8647TIP3   OH225904   3.279   1.475   0.975
 8647TIP3    H125905   3.356   1.429   0.940
 8647TIP3    H225906   3.316   1.540   1.035
 8648TIP3   OH225907   0.825   4.341   0.347
 8648TIP3    H125908   0.740   4.334   0.302
 8648TIP3    H225909   0.889   4.321   0.279
 8649TIP3   OH225910   2.503   5.271   5.208
 8649TIP3    H125911   2.535   5.210   5.141
 8649TIP3    H225912   2.413   5.289   5.182
 8650TIP3   OH225913   6.783   5.622   0.785
 8650TIP3    H125914   6.818   5.542   0.825
 8650TIP3    H225915   6.812   5.618   0.694
 8651TIP3   OH225916   5.963   6.560   5.798
 8651TIP3    H125917   5.890   6.505   5.771
 8651TIP3    H225918   5.923   6.644   5.821
 8652TIP3   OH225919   0.998   5.988   4.584
 8652TIP3    H125920   1.088   6.009   4.610
 8652TIP3    H225921   0.976   6.055   4.519
 8653TIP3   OH225922   3.269   0.251   2.657
 8653TIP3    H125923   3.339   0.299   2.701
 8653TIP3    H225924   3.219   0.211   2.728
 8654TIP3   OH225925   3.595   3.363   2.441
 8654TIP3    H125926   3.575   3.292   2.502
 8654TIP3    H225927   3.684   3.390   2.465
 8655TIP3   OH225928   6.930   1.997   4.165
 8655TIP3    H125929   6.913   1.917   4.213
 8655TIP3    H225930   6.963   2.058   4.231
 8656TIP3   OH225931   1.236   0.093   3.534
 8656TIP3    H125932   1.198   0.169   3.490
 8656TIP3    H225933   1.319   0.124   3.570
 8657TIP3   OH225934   1.901   2.238   5.078
 8657TIP3    H125935   1.989   2.274   5.071
 8657TIP3    H225936   1.875   2.220   4.988
 8658TIP3   OH225937   0.191   4.818   5.070
 8658TIP3    H125938   0.129   4.887   5.093
 8658TIP3    H225939   0.165   4.790   4.982
 8659TIP3   OH225940   5.743   3.816   5.731
 8659TIP3    H125941   5.785   3.732   5.748
 8659TIP3    H225942   5.668   3.818   5.790
 8660TIP3   OH225943   0.660   2.841   3.559
 8660TIP3    H125944   0.740   2.789   3.550
 8660TIP3    H225945   0.668   2.910   3.493
 8661TIP3   OH225946   3.614   0.000   1.016
 8661TIP3    H125947   3.611   0.094   1.036
 8661TIP3    H225948   3.640  -0.003   0.924
 8662TIP3   OH225949   2.555   1.552   2.950
 8662TIP3    H125950   2.618   1.624   2.956
 8662TIP3    H225951   2.547   1.520   3.040
 8663TIP3   OH225952   2.408   2.336   3.458
 8663TIP3    H125953   2.405   2.307   3.549
 8663TIP3    H225954   2.500   2.326   3.433
 8664TIP3   OH225955   5.930   2.808   0.195
 8664TIP3    H125956   5.955   2.827   0.286
 8664TIP3    H225957   5.839   2.779   0.202
 8665TIP3   OH225958   5.482   6.603   4.718
 8665TIP3    H125959   5.497   6.538   4.650
 8665TIP3    H225960   5.390   6.592   4.743
 8666TIP3   OH225961   1.889   0.294   0.335
 8666TIP3    H125962   1.928   0.330   0.255
 8666TIP3    H225963   1.820   0.357   0.358
 8667TIP3   OH225964   5.574   5.386   5.859
 8667TIP3    H125965   5.615   5.313   5.813
 8667TIP3    H225966   5.597   5.372   5.951
 8668TIP3   OH225967   0.247   2.334   2.686
 8668TIP3    H125968   0.264   2.247   2.649
 8668TIP3    H225969   0.334   2.374   2.695
 8669TIP3   OH225970   3.271   4.189   0.149
 8669TIP3    H125971   3.357   4.149   0.137
 8669TIP3    H225972   3.216   4.118   0.183
 8670TIP3   OH225973   2.350   1.522   3.370
 8670TIP3    H125974   2.313   1.577   3.439
 8670TIP3    H225975   2.318   1.560   3.289
 8671TIP3   OH225976   4.307   4.269   1.011
 8671TIP3    H125977   4.388   4.231   1.044
 8671TIP3    H225978   4.256   4.194   0.981
 8672TIP3   OH225979   3.500   5.499   0.583
 8672TIP3    H125980   3.476   5.529   0.671
 8672TIP3    H225981   3.425   5.523   0.529
 8673TIP3   OH225982   0.767   1.539   2.511
 8673TIP3    H125983   0.832   1.607   2.496
 8673TIP3    H225984   0.788   1.505   2.598
 8674TIP3   OH225985   0.652   2.103   3.275
 8674TIP3    H125986   0.620   2.190   3.296
 8674TIP3    H225987   0.671   2.063   3.360
 8675TIP3   OH225988   3.645   2.005   4.891
 8675TIP3    H125989   3.686   1.942   4.832
 8675TIP3    H225990   3.717   2.054   4.929
 8676TIP3   OH225991   4.376   4.010   1.719
 8676TIP3    H125992   4.419   3.952   1.655
 8676TIP3    H225993   4.283   4.004   1.697
 8677TIP3   OH225994   0.304   3.260   3.680
 8677TIP3    H125995   0.333   3.289   3.767
 8677TIP3    H225996   0.287   3.341   3.632
 8678TIP3   OH225997   6.118   0.823   3.372
 8678TIP3    H125998   6.115   0.918   3.360
 8678TIP3    H225999   6.107   0.810   3.466
 8679TIP3   OH226000   3.461   2.704   1.960
 8679TIP3    H126001   3.514   2.761   1.904
 8679TIP3    H226002   3.391   2.761   1.993
 8680TIP3   OH226003   5.834   0.456   5.400
 8680TIP3    H126004   5.855   0.545   5.428
 8680TIP3    H226005   5.917   0.409   5.403
 8681TIP3   OH226006   1.511   5.522   0.355
 8681TIP3    H126007   1.554   5.543   0.438
 8681TIP3    H226008   1.572   5.462   0.312
 8682TIP3   OH226009   4.946   5.215   4.459
 8682TIP3    H126010   4.990   5.213   4.373
 8682TIP3    H226011   4.965   5.302   4.493
 8683TIP3   OH226012   6.955   0.232   5.162
 8683TIP3    H126013   7.006   0.286   5.222
 8683TIP3    H226014   6.977   0.142   5.187
 8684TIP3   OH226015   6.432   0.082   0.862
 8684TIP3    H126016   6.358   0.024   0.849
 8684TIP3    H226017   6.399   0.151   0.920
 8685TIP3   OH226018   0.533   1.280   1.676
 8685TIP3    H126019   0.579   1.220   1.734
 8685TIP3    H226020   0.561   1.256   1.588
 8686TIP3   OH226021   6.483   1.028   0.044
 8686TIP3    H126022   6.480   0.941   0.082
 8686TIP3    H226023   6.404   1.034  -0.009
 8687TIP3   OH226024   4.619   5.027   4.925
 8687TIP3    H126025   4.698   4.984   4.892
 8687TIP3    H226026   4.591   4.971   4.998
 8688TIP3   OH226027   2.904   2.497   1.608
 8688TIP3    H126028   2.935   2.408   1.587
 8688TIP3    H226029   2.978   2.537   1.655
 8689TIP3   OH226030   5.354   4.659   3.986
 8689TIP3    H126031   5.437   4.653   3.938
 8689TIP3    H226032   5.358   4.745   4.028
 8690TIP3   OH226033   3.898   4.727   0.613
 8690TIP3    H126034   3.900   4.752   0.705
 8690TIP3    H226035   3.854   4.800   0.569
 8691TIP3   OH226036   3.108   2.421   1.291
 8691TIP3    H126037   3.166   2.369   1.347
 8691TIP3    H226038   3.103   2.371   1.209
 8692TIP3   OH226039   3.850   0.413   1.834
 8692TIP3    H126040   3.840   0.445   1.745
 8692TIP3    H226041   3.830   0.319   1.829
 8693TIP3   OH226042   3.198   5.589   0.709
 8693TIP3    H126043   3.160   5.503   0.725
 8693TIP3    H226044   3.282   5.587   0.755
 8694TIP3   OH226045   4.257   6.730   0.549
 8694TIP3    H126046   4.250   6.677   0.628
 8694TIP3    H226047   4.260   6.820   0.580
 8695TIP3   OH226048   1.735   6.108   0.477
 8695TIP3    H126049   1.805   6.081   0.537
 8695TIP3    H226050   1.657   6.110   0.532
 8696TIP3   OH226051   6.064   1.592   0.334
 8696TIP3    H126052   6.041   1.514   0.385
 8696TIP3    H226053   6.089   1.657   0.399
 8697TIP3   OH226054   5.269   0.531   0.151
 8697TIP3    H126055   5.222   0.456   0.115
 8697TIP3    H226056   5.246   0.604   0.092
 8698TIP3   OH226057   3.094   1.595   1.905
 8698TIP3    H126058   3.073   1.652   1.979
 8698TIP3    H226059   3.168   1.638   1.862
 8699TIP3   OH226060   2.786   0.014   0.052
 8699TIP3    H126061   2.852  -0.006  -0.014
 8699TIP3    H226062   2.810  -0.040   0.127
 8700TIP3   OH226063   6.038   2.665   4.571
 8700TIP3    H126064   6.066   2.634   4.657
 8700TIP3    H226065   6.107   2.636   4.511
 8701TIP3   OH226066   6.203   1.300   0.963
 8701TIP3    H126067   6.112   1.313   0.991
 8701TIP3    H226068   6.196   1.268   0.873
 8702TIP3   OH226069   6.924   4.347   3.735
 8702TIP3    H126070   6.935   4.393   3.651
 8702TIP3    H226071   6.995   4.379   3.790
 8703TIP3   OH226072   5.640   6.225   4.258
 8703TIP3    H126073   5.731   6.253   4.265
 8703TIP3    H226074   5.614   6.203   4.347
 8704TIP3   OH226075   1.245   0.473   3.235
 8704TIP3    H126076   1.281   0.452   3.149
 8704TIP3    H226077   1.219   0.564   3.229
 8705TIP3   OH226078   3.479   5.780   4.158
 8705TIP3    H126079   3.521   5.721   4.096
 8705TIP3    H226080   3.547   5.845   4.178
 8706TIP3   OH226081   4.597   1.365   4.501
 8706TIP3    H126082   4.528   1.401   4.445
 8706TIP3    H226083   4.554   1.295   4.550
 8707TIP3   OH226084   3.943   3.380   5.804
 8707TIP3    H126085   3.933   3.434   5.882
 8707TIP3    H226086   4.033   3.347   5.808
 8708TIP3   OH226087   0.932   2.853   0.691
 8708TIP3    H126088   0.977   2.836   0.608
 8708TIP3    H226089   0.861   2.788   0.694
 8709TIP3   OH226090   0.478   4.919   1.100
 8709TIP3    H126091   0.491   4.827   1.124
 8709TIP3    H226092   0.388   4.937   1.127
 8710TIP3   OH226093   2.150   3.205   5.141
 8710TIP3    H126094   2.199   3.287   5.140
 8710TIP3    H226095   2.208   3.141   5.099
 8711TIP3   OH226096   3.195   3.539   3.509
 8711TIP3    H126097   3.262   3.581   3.563
 8711TIP3    H226098   3.234   3.455   3.484
 8712TIP3   OH226099   4.523   1.278   0.427
 8712TIP3    H126100   4.587   1.218   0.466
 8712TIP3    H226101   4.490   1.232   0.350
 8713TIP3   OH226102   5.903   5.025   5.343
 8713TIP3    H126103   5.993   5.041   5.371
 8713TIP3    H226104   5.912   4.975   5.262
 8714TIP3   OH226105   5.387   5.013   2.485
 8714TIP3    H126106   5.393   5.099   2.444
 8714TIP3    H226107   5.466   5.005   2.538
 8715TIP3   OH226108   3.113   2.611   0.040
 8715TIP3    H126109   3.078   2.606  -0.049
 8715TIP3    H226110   3.060   2.549   0.090
 8716TIP3   OH226111   4.480   3.662   3.799
 8716TIP3    H126112   4.443   3.574   3.802
 8716TIP3    H226113   4.540   3.666   3.873
 8717TIP3   OH226114   3.129   2.608   5.883
 8717TIP3    H126115   3.055   2.636   5.828
 8717TIP3    H226116   3.206   2.648   5.842
 8718TIP3   OH226117   0.594   5.995   1.606
 8718TIP3    H126118   0.503   5.986   1.576
 8718TIP3    H226119   0.643   6.018   1.527
 8719TIP3   OH226120   4.765   2.452   3.963
 8719TIP3    H126121   4.729   2.429   4.049
 8719TIP3    H226122   4.746   2.376   3.909
 8720TIP3   OH226123   3.214   4.736   2.252
 8720TIP3    H126124   3.129   4.774   2.231
 8720TIP3    H226125   3.198   4.682   2.329
 8721TIP3   OH226126   2.757   0.664   5.586
 8721TIP3    H126127   2.737   0.686   5.495
 8721TIP3    H226128   2.821   0.729   5.613
 8722TIP3   OH226129   4.522   1.095   3.063
 8722TIP3    H126130   4.524   1.011   3.017
 8722TIP3    H226131   4.436   1.131   3.044
 8723TIP3   OH226132   2.148   0.022   0.875
 8723TIP3    H126133   2.184  -0.063   0.849
 8723TIP3    H226134   2.205   0.052   0.945
 8724TIP3   OH226135   3.241   3.868   5.065
 8724TIP3    H126136   3.223   3.840   5.155
 8724TIP3    H226137   3.336   3.865   5.058
 8725TIP3   OH226138   2.136   0.654   4.884
 8725TIP3    H126139   2.146   0.684   4.794
 8725TIP3    H226140   2.048   0.615   4.886
 8726TIP3   OH226141   6.258   1.484   3.439
 8726TIP3    H126142   6.273   1.393   3.412
 8726TIP3    H226143   6.345   1.520   3.451
 8727TIP3   OH226144   0.731   4.698   2.613
 8727TIP3    H126145   0.823   4.726   2.611
 8727TIP3    H226146   0.689   4.759   2.673
 8728TIP3   OH226147   5.229   1.760   1.204
 8728TIP3    H126148   5.235   1.697   1.276
 8728TIP3    H226149   5.319   1.790   1.191
 8729TIP3   OH226150   6.390   1.312   0.698
 8729TIP3    H126151   6.357   1.324   0.609
 8729TIP3    H226152   6.345   1.234   0.730
 8730TIP3   OH226153   7.154   5.176   2.514
 8730TIP3    H126154   7.209   5.171   2.436
 8730TIP3    H226155   7.117   5.265   2.511
 8731TIP3   OH226156   5.196   5.202   5.159
 8731TIP3    H126157   5.129   5.263   5.190
 8731TIP3    H226158   5.182   5.123   5.211
 8732TIP3   OH226159   2.212   3.371   5.434
 8732TIP3    H126160   2.142   3.306   5.434
 8732TIP3    H226161   2.168   3.454   5.414
 8733TIP3   OH226162   3.115   5.441   4.754
 8733TIP3    H126163   3.029   5.471   4.783
 8733TIP3    H226164   3.176   5.476   4.818
 8734TIP3   OH226165   3.649   6.071   0.900
 8734TIP3    H126166   3.712   6.006   0.930
 8734TIP3    H226167   3.564   6.034   0.924
 8735TIP3   OH226168   0.813   4.886   0.290
 8735TIP3    H126169   0.765   4.809   0.261
 8735TIP3    H226170   0.783   4.957   0.233
 8736TIP3   OH226171   6.060   4.080   2.687
 8736TIP3    H126172   6.152   4.101   2.674
 8736TIP3    H226173   6.052   4.064   2.781
 8737TIP3   OH226174   6.660   0.193   5.194
 8737TIP3    H126175   6.618   0.197   5.108
 8737TIP3    H226176   6.753   0.203   5.175
 8738TIP3   OH226177   4.936   0.647   1.817
 8738TIP3    H126178   4.994   0.722   1.834
 8738TIP3    H226179   4.903   0.622   1.903
 8739TIP3   OH226180   6.466   3.782   1.341
 8739TIP3    H126181   6.551   3.798   1.383
 8739TIP3    H226182   6.410   3.751   1.412
 8740TIP3   OH226183   7.202   5.662  -0.013
 8740TIP3    H126184   7.203   5.641   0.080
 8740TIP3    H226185   7.112   5.692  -0.030
 8741TIP3   OH226186   3.161   5.779   5.017
 8741TIP3    H126187   3.132   5.703   4.966
 8741TIP3    H226188   3.138   5.854   4.962
 8742TIP3   OH226189   6.413   0.414   3.816
 8742TIP3    H126190   6.446   0.329   3.844
 8742TIP3    H226191   6.384   0.456   3.897
 8743TIP3   OH226192   2.820   3.042   5.586
 8743TIP3    H126193   2.778   2.991   5.656
 8743TIP3    H226194   2.904   3.069   5.624
 8744TIP3   OH226195   0.032   1.185   1.756
 8744TIP3    H126196  -0.035   1.223   1.701
 8744TIP3    H226197   0.109   1.241   1.743
 8745TIP3   OH226198   4.264   5.172   4.018
 8745TIP3    H126199   4.243   5.262   4.045
 8745TIP3    H226200   4.281   5.179   3.924
 8746TIP3   OH226201   6.416   1.789   4.014
 8746TIP3    H126202   6.390   1.750   3.930
 8746TIP3    H226203   6.333   1.810   4.057
 8747TIP3   OH226204   2.659   0.053   2.814
 8747TIP3    H126205   2.746   0.093   2.814
 8747TIP3    H226206   2.611   0.099   2.883
 8748TIP3   OH226207   3.726   3.330   3.686
 8748TIP3    H126208   3.677   3.367   3.759
 8748TIP3    H226209   3.738   3.402   3.625
 8749TIP3   OH226210   4.904   2.280   0.965
 8749TIP3    H126211   4.874   2.233   1.043
 8749TIP3    H226212   4.999   2.280   0.973
 8750TIP3   OH226213   5.097   4.683   4.299
 8750TIP3    H126214   5.003   4.699   4.291
 8750TIP3    H226215   5.135   4.727   4.223
 8751TIP3   OH226216   1.888   4.495   3.817
 8751TIP3    H126217   1.849   4.577   3.788
 8751TIP3    H226218   1.954   4.475   3.751
 8752TIP3   OH226219   5.636   6.104   1.142
 8752TIP3    H126220   5.658   6.092   1.050
 8752TIP3    H226221   5.577   6.032   1.163
 8753TIP3   OH226222   5.015   3.734   0.700
 8753TIP3    H126223   5.011   3.697   0.788
 8753TIP3    H226224   4.925   3.732   0.669
 8754TIP3   OH226225   1.640   4.890   5.713
 8754TIP3    H126226   1.686   4.808   5.731
 8754TIP3    H226227   1.692   4.957   5.757
 8755TIP3   OH226228   1.178   4.046   5.168
 8755TIP3    H126229   1.265   4.084   5.159
 8755TIP3    H226230   1.163   3.999   5.086
 8756TIP3   OH226231   1.968   3.167   5.401
 8756TIP3    H126232   1.942   3.173   5.309
 8756TIP3    H226233   1.910   3.228   5.447
 8757TIP3   OH226234   1.687   1.396   1.602
 8757TIP3    H126235   1.618   1.330   1.592
 8757TIP3    H226236   1.769   1.346   1.595
 8758TIP3   OH226237   4.093   3.949   0.072
 8758TIP3    H126238   4.161   3.938   0.005
 8758TIP3    H226239   4.117   4.030   0.118
 8759TIP3   OH226240   4.719   5.997   0.100
 8759TIP3    H126241   4.759   5.949   0.173
 8759TIP3    H226242   4.764   5.964   0.022
 8760TIP3   OH226243   7.098   6.567   0.851
 8760TIP3    H126244   7.176   6.620   0.866
 8760TIP3    H226245   7.085   6.521   0.934
 8761TIP3   OH226246   5.236   5.917   0.291
 8761TIP3    H126247   5.309   5.855   0.287
 8761TIP3    H226248   5.278   6.002   0.307
 8762TIP3   OH226249   1.902   6.780   1.123
 8762TIP3    H126250   1.852   6.727   1.185
 8762TIP3    H226251   1.879   6.870   1.145
 8763TIP3   OH226252   6.174   6.578   2.823
 8763TIP3    H126253   6.145   6.669   2.828
 8763TIP3    H226254   6.111   6.530   2.877
 8764TIP3   OH226255   0.575   4.430   0.516
 8764TIP3    H126256   0.575   4.474   0.431
 8764TIP3    H226257   0.587   4.337   0.496
 8765TIP3   OH226258   6.091   5.157   3.175
 8765TIP3    H126259   6.122   5.107   3.099
 8765TIP3    H226260   6.000   5.130   3.186
 8766TIP3   OH226261   6.980   1.917   5.331
 8766TIP3    H126262   6.989   1.955   5.244
 8766TIP3    H226263   6.908   1.967   5.371
 8767TIP3   OH226264   1.001   1.161   5.245
 8767TIP3    H126265   1.009   1.075   5.203
 8767TIP3    H226266   0.945   1.211   5.186
 8768TIP3   OH226267   7.190   4.073   4.012
 8768TIP3    H126268   7.172   4.155   4.059
 8768TIP3    H226269   7.258   4.030   4.064
 8769TIP3   OH226270   3.819   6.343   3.410
 8769TIP3    H126271   3.875   6.399   3.463
 8769TIP3    H226272   3.876   6.309   3.341
 8770TIP3   OH226273   3.763   1.146   0.663
 8770TIP3    H126274   3.758   1.203   0.586
 8770TIP3    H226275   3.771   1.058   0.626
 8771TIP3   OH226276   5.297   4.769   2.386
 8771TIP3    H126277   5.368   4.824   2.419
 8771TIP3    H226278   5.259   4.819   2.315
 8772TIP3   OH226279   0.806   5.963   3.363
 8772TIP3    H126280   0.838   5.901   3.428
 8772TIP3    H226281   0.871   6.033   3.361
 8773TIP3   OH226282   7.032   6.119   5.615
 8773TIP3    H126283   7.011   6.201   5.660
 8773TIP3    H226284   6.977   6.053   5.659
 8774TIP3   OH226285   5.975   1.710   5.130
 8774TIP3    H126286   5.908   1.761   5.083
 8774TIP3    H226287   5.936   1.692   5.215
 8775TIP3   OH226288   6.453   2.327   1.831
 8775TIP3    H126289   6.364   2.294   1.824
 8775TIP3    H226290   6.484   2.334   1.740
 8776TIP3   OH226291   6.992   3.605   0.141
 8776TIP3    H126292   6.919   3.544   0.127
 8776TIP3    H226293   7.070   3.552   0.124
 8777TIP3   OH226294   6.112   5.079   2.902
 8777TIP3    H126295   6.125   5.094   2.808
 8777TIP3    H226296   6.119   4.984   2.912
 8778TIP3   OH226297   2.468   1.041   0.207
 8778TIP3    H126298   2.536   0.978   0.180
 8778TIP3    H226299   2.498   1.072   0.293
 8779TIP3   OH226300   6.264   0.214   0.174
 8779TIP3    H126301   6.172   0.189   0.161
 8779TIP3    H226302   6.272   0.230   0.268
 8780TIP3   OH226303   0.711   6.126   3.025
 8780TIP3    H126304   0.790   6.171   2.996
 8780TIP3    H226305   0.641   6.162   2.971
 8781TIP3   OH226306   1.710   6.691   3.597
 8781TIP3    H126307   1.709   6.696   3.692
 8781TIP3    H226308   1.740   6.602   3.577
 8782TIP3   OH226309   3.472   4.193   4.752
 8782TIP3    H126310   3.442   4.261   4.812
 8782TIP3    H226311   3.535   4.142   4.802
 8783TIP3   OH226312   2.926   5.774   1.633
 8783TIP3    H126313   2.981   5.774   1.554
 8783TIP3    H226314   2.884   5.688   1.633
 8784TIP3   OH226315   4.435   2.459   0.988
 8784TIP3    H126316   4.488   2.525   0.943
 8784TIP3    H226317   4.367   2.510   1.033
 8785TIP3   OH226318   0.678   3.322   3.129
 8785TIP3    H126319   0.607   3.267   3.098
 8785TIP3    H226320   0.747   3.261   3.157
 8786TIP3   OH226321   2.827   3.687   3.572
 8786TIP3    H126322   2.842   3.628   3.498
 8786TIP3    H226323   2.754   3.742   3.544
 8787TIP3   OH226324   2.297   3.870   2.180
 8787TIP3    H126325   2.298   3.800   2.115
 8787TIP3    H226326   2.368   3.928   2.154
 8788TIP3   OH226327   1.687   4.774   3.240
 8788TIP3    H126328   1.761   4.726   3.203
 8788TIP3    H226329   1.617   4.708   3.245
 8789TIP3   OH226330   2.108   5.449   2.904
 8789TIP3    H126331   2.094   5.518   2.840
 8789TIP3    H226332   2.155   5.381   2.856
 8790TIP3   OH226333   0.775   4.802   4.122
 8790TIP3    H126334   0.730   4.845   4.049
 8790TIP3    H226335   0.705   4.763   4.173
 8791TIP3   OH226336   0.749   6.221   5.327
 8791TIP3    H126337   0.835   6.189   5.353
 8791TIP3    H226338   0.690   6.190   5.396
 8792TIP3   OH226339   1.435   0.458   3.443
 8792TIP3    H126340   1.386   0.435   3.365
 8792TIP3    H226341   1.387   0.532   3.482
 8793TIP3   OH226342   2.997   6.783   5.163
 8793TIP3    H126343   3.028   6.817   5.247
 8793TIP3    H226344   2.919   6.732   5.185
 8794TIP3   OH226345   4.500   5.775   5.834
 8794TIP3    H126346   4.562   5.729   5.891
 8794TIP3    H226347   4.432   5.711   5.815
 8795TIP3   OH226348   4.656   4.005   0.836
 8795TIP3    H126349   4.644   4.024   0.743
 8795TIP3    H226350   4.568   4.010   0.873
 8796TIP3   OH226351   1.639   5.034   3.292
 8796TIP3    H126352   1.730   5.061   3.304
 8796TIP3    H226353   1.645   4.941   3.267
 8797TIP3   OH226354   3.107   6.361   1.266
 8797TIP3    H126355   3.154   6.287   1.305
 8797TIP3    H226356   3.174   6.413   1.222
 8798TIP3   OH226357   5.686   1.485   2.650
 8798TIP3    H126358   5.614   1.547   2.641
 8798TIP3    H226359   5.694   1.472   2.745
 8799TIP3   OH226360   2.151   5.482   0.641
 8799TIP3    H126361   2.088   5.536   0.593
 8799TIP3    H226362   2.233   5.491   0.592
 8800TIP3   OH226363   1.000   3.344   1.878
 8800TIP3    H126364   0.907   3.340   1.855
 8800TIP3    H226365   1.045   3.360   1.795
 8801TIP3   OH226366   5.974   4.295   4.660
 8801TIP3    H126367   6.010   4.286   4.572
 8801TIP3    H226368   6.034   4.246   4.716
 8802TIP3   OH226369   3.654   5.870   2.948
 8802TIP3    H126370   3.626   5.847   2.859
 8802TIP3    H226371   3.728   5.811   2.966
 8803TIP3   OH226372   0.093   5.212   4.563
 8803TIP3    H126373  -0.002   5.226   4.564
 8803TIP3    H226374   0.115   5.194   4.655
 8804TIP3   OH226375   6.982   6.185   4.034
 8804TIP3    H126376   6.887   6.177   4.026
 8804TIP3    H226377   7.005   6.132   4.109
 8805TIP3   OH226378   0.873   4.295   1.728
 8805TIP3    H126379   0.850   4.202   1.722
 8805TIP3    H226380   0.942   4.307   1.664
 8806TIP3   OH226381   4.876   2.149   4.653
 8806TIP3    H126382   4.921   2.144   4.568
 8806TIP3    H226383   4.871   2.058   4.682
 8807TIP3   OH226384   0.746   3.741   0.566
 8807TIP3    H126385   0.682   3.796   0.612
 8807TIP3    H226386   0.801   3.803   0.519
 8808TIP3   OH226387   7.012   1.800   4.743
 8808TIP3    H126388   7.042   1.722   4.698
 8808TIP3    H226389   6.945   1.837   4.685
 8809TIP3   OH226390   0.120   0.953   2.628
 8809TIP3    H126391   0.052   0.957   2.695
 8809TIP3    H226392   0.190   1.010   2.660
 8810TIP3   OH226393   4.793   1.347   1.211
 8810TIP3    H126394   4.879   1.366   1.247
 8810TIP3    H226395   4.806   1.266   1.161
 8811TIP3   OH226396   4.801   1.536   0.117
 8811TIP3    H126397   4.820   1.629   0.131
 8811TIP3    H226398   4.705   1.531   0.120
 8812TIP3   OH226399   2.566   6.047   4.387
 8812TIP3    H126400   2.533   6.108   4.320
 8812TIP3    H226401   2.655   6.025   4.357
 8813TIP3   OH226402   3.818   0.994   4.695
 8813TIP3    H126403   3.779   0.931   4.635
 8813TIP3    H226404   3.796   1.079   4.659
 8814TIP3   OH226405   6.535   6.072   0.822
 8814TIP3    H126406   6.525   5.981   0.850
 8814TIP3    H226407   6.613   6.102   0.869
 8815TIP3   OH226408   4.920   6.172   3.350
 8815TIP3    H126409   5.013   6.154   3.366
 8815TIP3    H226410   4.880   6.167   3.436
 8816TIP3   OH226411   5.848   3.319   1.483
 8816TIP3    H126412   5.873   3.263   1.410
 8816TIP3    H226413   5.787   3.383   1.445
 8817TIP3   OH226414   6.575   5.343   5.743
 8817TIP3    H126415   6.540   5.402   5.809
 8817TIP3    H226416   6.628   5.281   5.792
 8818TIP3   OH226417   3.187   2.582   5.282
 8818TIP3    H126418   3.176   2.569   5.376
 8818TIP3    H226419   3.247   2.513   5.254
 8819TIP3   OH226420   5.665   5.241   4.221
 8819TIP3    H126421   5.640   5.328   4.251
 8819TIP3    H226422   5.582   5.197   4.204
 8820TIP3   OH226423   6.307   0.857   0.581
 8820TIP3    H126424   6.215   0.873   0.564
 8820TIP3    H226425   6.331   0.787   0.521
 8821TIP3   OH226426   0.159   4.894   0.410
 8821TIP3    H126427   0.182   4.803   0.393
 8821TIP3    H226428   0.088   4.914   0.349
 8822TIP3   OH226429   6.463   3.878   4.170
 8822TIP3    H126430   6.408   3.812   4.128
 8822TIP3    H226431   6.469   3.850   4.261
 8823TIP3   OH226432   5.957   1.698   3.928
 8823TIP3    H126433   5.868   1.666   3.919
 8823TIP3    H226434   6.012   1.620   3.916
 8824TIP3   OH226435   3.522   4.515   3.743
 8824TIP3    H126436   3.546   4.606   3.764
 8824TIP3    H226437   3.440   4.523   3.694
 8825TIP3   OH226438   0.752   1.171   1.530
 8825TIP3    H126439   0.733   1.098   1.472
 8825TIP3    H226440   0.813   1.135   1.595
 8826TIP3   OH226441   1.140   6.722   1.262
 8826TIP3    H126442   1.136   6.806   1.308
 8826TIP3    H226443   1.181   6.743   1.178
 8827TIP3   OH226444   5.007   2.686   1.512
 8827TIP3    H126445   4.914   2.706   1.524
 8827TIP3    H226446   5.038   2.662   1.599
 8828TIP3   OH226447   3.556   1.829   3.147
 8828TIP3    H126448   3.522   1.918   3.157
 8828TIP3    H226449   3.569   1.819   3.053
 8829TIP3   OH226450   0.558   1.804   2.183
 8829TIP3    H126451   0.467   1.815   2.212
 8829TIP3    H226452   0.610   1.848   2.250
 8830TIP3   OH226453   1.561   2.886   4.305
 8830TIP3    H126454   1.619   2.948   4.351
 8830TIP3    H226455   1.483   2.880   4.361
 8831TIP3   OH226456   5.036   4.375   4.303
 8831TIP3    H126457   5.059   4.456   4.349
 8831TIP3    H226458   5.051   4.395   4.210
 8832TIP3   OH226459   6.418   0.525   1.255
 8832TIP3    H126460   6.444   0.576   1.178
 8832TIP3    H226461   6.365   0.586   1.307
 8833TIP3   OH226462   1.448   4.620   3.172
 8833TIP3    H126463   1.472   4.595   3.083
 8833TIP3    H226464   1.436   4.536   3.218
 8834TIP3   OH226465   2.039   4.054   5.819
 8834TIP3    H126466   2.003   3.978   5.774
 8834TIP3    H226467   2.109   4.085   5.762
 8835TIP3   OH226468   5.843   1.231   0.764
 8835TIP3    H126469   5.874   1.143   0.785
 8835TIP3    H226470   5.872   1.246   0.674
 8836TIP3   OH226471   2.426   1.527   0.935
 8836TIP3    H126472   2.434   1.606   0.880
 8836TIP3    H226473   2.510   1.482   0.924
 8837TIP3   OH226474   6.523   1.238   4.046
 8837TIP3    H126475   6.555   1.256   4.134
 8837TIP3    H226476   6.505   1.144   4.046
 8838TIP3   OH226477   4.816   3.105   4.143
 8838TIP3    H126478   4.785   3.014   4.143
 8838TIP3    H226479   4.816   3.130   4.236
 8839TIP3   OH226480   1.890   1.997   0.570
 8839TIP3    H126481   1.872   2.081   0.614
 8839TIP3    H226482   1.810   1.946   0.582
 8840TIP3   OH226483   4.577   2.310   1.913
 8840TIP3    H126484   4.593   2.404   1.900
 8840TIP3    H226485   4.658   2.268   1.884
 8841TIP3   OH226486   0.425   5.239   1.755
 8841TIP3    H126487   0.474   5.171   1.711
 8841TIP3    H226488   0.488   5.310   1.767
 8842TIP3   OH226489   6.014   0.360   3.623
 8842TIP3    H126490   5.920   0.368   3.638
 8842TIP3    H226491   6.023   0.283   3.567
 8843TIP3   OH226492   5.244   2.756   1.951
 8843TIP3    H126493   5.234   2.751   2.047
 8843TIP3    H226494   5.338   2.772   1.938
 8844TIP3   OH226495   1.313   1.387   0.949
 8844TIP3    H126496   1.248   1.318   0.960
 8844TIP3    H226497   1.327   1.422   1.037
 8845TIP3   OH226498   1.797   1.600   4.377
 8845TIP3    H126499   1.848   1.673   4.342
 8845TIP3    H226500   1.728   1.641   4.429
 8846TIP3   OH226501   0.031   4.103   0.702
 8846TIP3    H126502   0.116   4.147   0.707
 8846TIP3    H226503  -0.033   4.174   0.712
 8847TIP3   OH226504   3.925   5.269   2.081
 8847TIP3    H126505   3.950   5.188   2.126
 8847TIP3    H226506   4.007   5.316   2.069
 8848TIP3   OH226507   2.166   2.037   3.440
 8848TIP3    H126508   2.201   2.100   3.377
 8848TIP3    H226509   2.094   1.994   3.394
 8849TIP3   OH226510   4.106   5.108   5.136
 8849TIP3    H126511   4.110   5.123   5.042
 8849TIP3    H226512   4.014   5.119   5.159
 8850TIP3   OH226513   0.158   3.756   4.377
 8850TIP3    H126514   0.202   3.674   4.351
 8850TIP3    H226515   0.220   3.797   4.439
 8851TIP3   OH226516   4.568   3.007   0.135
 8851TIP3    H126517   4.578   2.958   0.216
 8851TIP3    H226518   4.552   3.097   0.163
 8852TIP3   OH226519   3.223   0.643   4.053
 8852TIP3    H126520   3.148   0.646   4.113
 8852TIP3    H226521   3.203   0.708   3.986
 8853TIP3   OH226522   3.858   3.536   5.274
 8853TIP3    H126523   3.889   3.531   5.364
 8853TIP3    H226524   3.936   3.557   5.223
 8854TIP3   OH226525   4.999   5.407   5.177
 8854TIP3    H126526   4.924   5.466   5.169
 8854TIP3    H226527   5.042   5.433   5.258
 8855TIP3   OH226528   6.301   5.083   4.927
 8855TIP3    H126529   6.319   5.079   4.833
 8855TIP3    H226530   6.317   4.994   4.959
 8856TIP3   OH226531   0.077   0.098   5.805
 8856TIP3    H126532   0.161   0.061   5.830
 8856TIP3    H226533   0.044   0.040   5.737
 8857TIP3   OH226534   1.046   4.229   2.516
 8857TIP3    H126535   1.061   4.145   2.559
 8857TIP3    H226536   0.951   4.241   2.519
 8858TIP3   OH226537   3.474   3.704   1.410
 8858TIP3    H126538   3.532   3.635   1.441
 8858TIP3    H226539   3.529   3.782   1.407
 8859TIP3   OH226540   5.191   4.498   5.328
 8859TIP3    H126541   5.191   4.426   5.391
 8859TIP3    H226542   5.099   4.510   5.305
 8860TIP3   OH226543   0.242   1.788   3.082
 8860TIP3    H126544   0.244   1.706   3.131
 8860TIP3    H226545   0.176   1.841   3.126
 8861TIP3   OH226546   2.130   4.341   4.561
 8861TIP3    H126547   2.086   4.397   4.625
 8861TIP3    H226548   2.059   4.296   4.516
 8862TIP3   OH226549   2.779   4.992   1.634
 8862TIP3    H126550   2.852   5.025   1.686
 8862TIP3    H226551   2.762   4.904   1.668
 8863TIP3   OH226552   3.661   3.198   1.476
 8863TIP3    H126553   3.678   3.287   1.505
 8863TIP3    H226554   3.698   3.143   1.545
 8864TIP3   OH226555   0.380   1.665   1.796
 8864TIP3    H126556   0.437   1.742   1.804
 8864TIP3    H226557   0.295   1.694   1.829
 8865TIP3   OH226558   4.082   5.590   0.777
 8865TIP3    H126559   4.046   5.600   0.689
 8865TIP3    H226560   4.030   5.521   0.817
 8866TIP3   OH226561   3.345   0.565   0.125
 8866TIP3    H126562   3.264   0.516   0.128
 8866TIP3    H226563   3.359   0.595   0.215
 8867TIP3   OH226564   1.825   6.820   1.523
 8867TIP3    H126565   1.802   6.751   1.460
 8867TIP3    H226566   1.918   6.836   1.507
 8868TIP3   OH226567   6.280   5.090   0.979
 8868TIP3    H126568   6.201   5.050   1.016
 8868TIP3    H226569   6.325   5.127   1.055
 8869TIP3   OH226570   5.590   1.324   1.433
 8869TIP3    H126571   5.673   1.343   1.477
 8869TIP3    H226572   5.543   1.268   1.496
 8870TIP3   OH226573   6.340   4.888   0.237
 8870TIP3    H126574   6.289   4.936   0.173
 8870TIP3    H226575   6.275   4.859   0.302
 8871TIP3   OH226576   1.314   1.643   0.558
 8871TIP3    H126577   1.370   1.568   0.537
 8871TIP3    H226578   1.247   1.607   0.617
 8872TIP3   OH226579   3.323   2.906   4.848
 8872TIP3    H126580   3.392   2.917   4.914
 8872TIP3    H226581   3.308   2.812   4.844
 8873TIP3   OH226582   0.403   5.614   0.939
 8873TIP3    H126583   0.428   5.534   0.985
 8873TIP3    H226584   0.484   5.664   0.932
 8874TIP3   OH226585   0.375   2.926   1.107
 8874TIP3    H126586   0.358   2.894   1.018
 8874TIP3    H226587   0.443   2.867   1.141
 8875TIP3   OH226588   1.046   2.522   4.760
 8875TIP3    H126589   0.953   2.523   4.783
 8875TIP3    H226590   1.091   2.520   4.845
 8876TIP3   OH226591   5.166   2.158   1.441
 8876TIP3    H126592   5.241   2.098   1.432
 8876TIP3    H226593   5.118   2.125   1.517
 8877TIP3   OH226594   2.871   3.491   0.407
 8877TIP3    H126595   2.845   3.516   0.496
 8877TIP3    H226596   2.954   3.444   0.420
 8878TIP3   OH226597   3.679   1.966   3.637
 8878TIP3    H126598   3.657   2.017   3.715
 8878TIP3    H226599   3.718   2.029   3.577
 8879TIP3   OH226600   7.109   4.826   1.798
 8879TIP3    H126601   7.035   4.876   1.834
 8879TIP3    H226602   7.168   4.814   1.872
 8880TIP3   OH226603   2.332   5.272   5.540
 8880TIP3    H126604   2.260   5.211   5.555
 8880TIP3    H226605   2.292   5.344   5.489
 8881TIP3   OH226606   4.187   5.912   3.972
 8881TIP3    H126607   4.156   6.003   3.969
 8881TIP3    H226608   4.238   5.901   3.892
 8882TIP3   OH226609   4.076   1.632   5.875
 8882TIP3    H126610   3.999   1.586   5.909
 8882TIP3    H226611   4.069   1.720   5.912
 8883TIP3   OH226612   5.299   5.995   1.590
 8883TIP3    H126613   5.383   6.007   1.634
 8883TIP3    H226614   5.249   6.074   1.610
 8884TIP3   OH226615   2.210   5.201   4.452
 8884TIP3    H126616   2.298   5.186   4.487
 8884TIP3    H226617   2.184   5.117   4.415
 8885TIP3   OH226618   5.512   4.614   2.767
 8885TIP3    H126619   5.482   4.552   2.700
 8885TIP3    H226620   5.485   4.574   2.850
 8886TIP3   OH226621   1.718   0.706   3.586
 8886TIP3    H126622   1.659   0.633   3.603
 8886TIP3    H226623   1.766   0.681   3.507
 8887TIP3   OH226624   0.936   2.423   5.066
 8887TIP3    H126625   0.911   2.498   5.013
 8887TIP3    H226626   1.029   2.434   5.082
 8888TIP3   OH226627   4.225   0.421   5.468
 8888TIP3    H126628   4.160   0.491   5.473
 8888TIP3    H226629   4.308   0.467   5.454
 8889TIP3   OH226630   3.157   5.349   1.768
 8889TIP3    H126631   3.130   5.440   1.781
 8889TIP3    H226632   3.234   5.339   1.825
 8890TIP3   OH226633   4.989   1.671   4.104
 8890TIP3    H126634   4.960   1.747   4.154
 8890TIP3    H226635   4.931   1.668   4.028
 8891TIP3   OH226636   0.542   5.892   5.689
 8891TIP3    H126637   0.606   5.829   5.720
 8891TIP3    H226638   0.485   5.841   5.631
 8892TIP3   OH226639   7.031   6.443   5.245
 8892TIP3    H126640   6.954   6.464   5.192
 8892TIP3    H226641   7.104   6.444   5.183
 8893TIP3   OH226642   6.052   2.804   3.411
 8893TIP3    H126643   6.126   2.813   3.351
 8893TIP3    H226644   6.077   2.732   3.468
 8894TIP3   OH226645   2.581   0.472   1.147
 8894TIP3    H126646   2.499   0.476   1.097
 8894TIP3    H226647   2.638   0.416   1.094
 8895TIP3   OH226648   3.889   6.236   4.951
 8895TIP3    H126649   3.806   6.196   4.925
 8895TIP3    H226650   3.878   6.256   5.044
 8896TIP3   OH226651   3.612   1.342   5.345
 8896TIP3    H126652   3.670   1.418   5.344
 8896TIP3    H226653   3.649   1.284   5.411
 8897TIP3   OH226654   3.308   1.918   3.784
 8897TIP3    H126655   3.221   1.934   3.747
 8897TIP3    H226656   3.307   1.965   3.867
 8898TIP3   OH226657   2.933   2.465   1.914
 8898TIP3    H126658   2.861   2.427   1.963
 8898TIP3    H226659   2.920   2.560   1.922
 8899TIP3   OH226660   0.937   4.032   5.328
 8899TIP3    H126661   0.899   4.094   5.266
 8899TIP3    H226662   1.017   4.001   5.285
 8900TIP3   OH226663   0.154   4.307   4.322
 8900TIP3    H126664   0.142   4.251   4.399
 8900TIP3    H226665   0.112   4.389   4.346
 8901TIP3   OH226666   4.017   3.441   2.976
 8901TIP3    H126667   4.085   3.380   3.005
 8901TIP3    H226668   3.935   3.399   3.002
 8902TIP3   OH226669   4.060   6.147   1.531
 8902TIP3    H126670   4.016   6.078   1.581
 8902TIP3    H226671   3.990   6.188   1.480
 8903TIP3   OH226672   7.065   0.479   0.423
 8903TIP3    H126673   7.070   0.506   0.331
 8903TIP3    H226674   7.052   0.384   0.420
 8904TIP3   OH226675   5.978   2.071   3.579
 8904TIP3    H126676   5.950   2.149   3.532
 8904TIP3    H226677   5.942   1.998   3.528
 8905TIP3   OH226678   0.184   1.974   2.857
 8905TIP3    H126679   0.263   2.029   2.853
 8905TIP3    H226680   0.191   1.928   2.940
 8906TIP3   OH226681   3.842   0.438   5.638
 8906TIP3    H126682   3.757   0.482   5.632
 8906TIP3    H226683   3.832   0.358   5.586
 8907TIP3   OH226684   0.530   0.102   0.213
 8907TIP3    H126685   0.438   0.128   0.208
 8907TIP3    H226686   0.563   0.145   0.292
 8908TIP3   OH226687   0.095   2.150   0.862
 8908TIP3    H126688   0.029   2.172   0.927
 8908TIP3    H226689   0.174   2.133   0.913
 8909TIP3   OH226690   6.427   3.585   5.603
 8909TIP3    H126691   6.333   3.569   5.612
 8909TIP3    H226692   6.435   3.680   5.597
 8910TIP3   OH226693   6.651   1.682   1.563
 8910TIP3    H126694   6.652   1.676   1.468
 8910TIP3    H226695   6.558   1.685   1.586
 8911TIP3   OH226696   4.828   0.397   0.905
 8911TIP3    H126697   4.836   0.449   0.824
 8911TIP3    H226698   4.868   0.313   0.883
 8912TIP3   OH226699   4.721   0.258   0.307
 8912TIP3    H126700   4.696   0.189   0.246
 8912TIP3    H226701   4.804   0.292   0.273
 8913TIP3   OH226702   2.070   4.560   2.881
 8913TIP3    H126703   2.058   4.465   2.875
 8913TIP3    H226704   2.145   4.571   2.939
 8914TIP3   OH226705   6.292   0.630   5.155
 8914TIP3    H126706   6.383   0.642   5.181
 8914TIP3    H226707   6.246   0.607   5.236
 8915TIP3   OH226708   0.659   6.110   5.595
 8915TIP3    H126709   0.584   6.169   5.608
 8915TIP3    H226710   0.626   6.023   5.618
 8916TIP3   OH226711   0.611   0.157   0.481
 8916TIP3    H126712   0.637   0.248   0.468
 8916TIP3    H226713   0.680   0.120   0.537
 8917TIP3   OH226714   4.682   0.828   4.767
 8917TIP3    H126715   4.599   0.789   4.795
 8917TIP3    H226716   4.672   0.839   4.673
 8918TIP3   OH226717   0.823   1.519   5.362
 8918TIP3    H126718   0.857   1.492   5.447
 8918TIP3    H226719   0.730   1.531   5.376
 8919TIP3   OH226720   0.872   2.038   5.898
 8919TIP3    H126721   0.910   2.122   5.871
 8919TIP3    H226722   0.945   1.977   5.895
 8920TIP3   OH226723   2.468   2.699   2.871
 8920TIP3    H126724   2.405   2.633   2.900
 8920TIP3    H226725   2.530   2.650   2.817
 8921TIP3   OH226726   5.116   2.361   3.408
 8921TIP3    H126727   5.184   2.307   3.367
 8921TIP3    H226728   5.120   2.444   3.361
 8922TIP3   OH226729   1.738   3.263   5.577
 8922TIP3    H126730   1.643   3.272   5.586
 8922TIP3    H226731   1.773   3.296   5.660
 8923TIP3   OH226732   5.178   4.654   3.074
 8923TIP3    H126733   5.122   4.715   3.025
 8923TIP3    H226734   5.176   4.688   3.163
 8924TIP3   OH226735   3.349   5.129   5.590
 8924TIP3    H126736   3.384   5.086   5.512
 8924TIP3    H226737   3.276   5.183   5.558
 8925TIP3   OH226738   5.403   2.498   2.851
 8925TIP3    H126739   5.322   2.542   2.877
 8925TIP3    H226740   5.471   2.565   2.860
 8926TIP3   OH226741   4.154   1.157   1.531
 8926TIP3    H126742   4.154   1.068   1.566
 8926TIP3    H226743   4.065   1.189   1.548
 8927TIP3   OH226744   4.781   4.357   4.394
 8927TIP3    H126745   4.867   4.329   4.363
 8927TIP3    H226746   4.799   4.434   4.449
 8928TIP3   OH226747   2.029   1.496   4.471
 8928TIP3    H126748   1.943   1.499   4.429
 8928TIP3    H226749   2.018   1.549   4.550
 8929TIP3   OH226750   5.942   1.821   0.244
 8929TIP3    H126751   5.996   1.853   0.316
 8929TIP3    H226752   5.963   1.728   0.237
 8930TIP3   OH226753   4.766   4.400   4.885
 8930TIP3    H126754   4.840   4.355   4.845
 8930TIP3    H226755   4.704   4.414   4.813
 8931TIP3   OH226756   1.920   5.840   5.334
 8931TIP3    H126757   1.877   5.755   5.342
 8931TIP3    H226758   2.003   5.830   5.381
 8932TIP3   OH226759   2.573   4.503   1.772
 8932TIP3    H126760   2.520   4.499   1.851
 8932TIP3    H226761   2.642   4.438   1.786
 8933TIP3   OH226762   5.327   6.223   0.295
 8933TIP3    H126763   5.400   6.175   0.257
 8933TIP3    H226764   5.299   6.283   0.226
 8934TIP3   OH226765   6.822   1.003   5.254
 8934TIP3    H126766   6.790   1.056   5.181
 8934TIP3    H226767   6.889   0.947   5.215
 8935TIP3   OH226768   5.342   2.595   3.487
 8935TIP3    H126769   5.423   2.641   3.463
 8935TIP3    H226770   5.303   2.570   3.403
 8936TIP3   OH226771   0.456   3.052   5.634
 8936TIP3    H126772   0.409   2.997   5.571
 8936TIP3    H226773   0.419   3.029   5.719
 8937TIP3   OH226774   6.710   5.237   1.237
 8937TIP3    H126775   6.734   5.161   1.185
 8937TIP3    H226776   6.740   5.217   1.326
 8938TIP3   OH226777   4.313   3.463   5.084
 8938TIP3    H126778   4.230   3.488   5.126
 8938TIP3    H226779   4.351   3.398   5.144
 8939TIP3   OH226780   1.544   0.935   1.820
 8939TIP3    H126781   1.526   1.012   1.767
 8939TIP3    H226782   1.620   0.960   1.873
 8940TIP3   OH226783   6.586   3.576   1.981
 8940TIP3    H126784   6.547   3.534   2.058
 8940TIP3    H226785   6.641   3.508   1.942
 8941TIP3   OH226786   2.897   1.957   1.521
 8941TIP3    H126787   2.981   1.922   1.494
 8941TIP3    H226788   2.873   1.906   1.598
 8942TIP3   OH226789   5.462   0.722   3.560
 8942TIP3    H126790   5.525   0.784   3.522
 8942TIP3    H226791   5.400   0.706   3.489
 8943TIP3   OH226792   1.500   4.915   3.003
 8943TIP3    H126793   1.410   4.920   3.035
 8943TIP3    H226794   1.547   4.869   3.073
 8944TIP3   OH226795   0.165   1.417   5.174
 8944TIP3    H126796   0.097   1.370   5.127
 8944TIP3    H226797   0.236   1.427   5.110
 8945TIP3   OH226798   1.882   5.765   3.784
 8945TIP3    H126799   1.915   5.827   3.719
 8945TIP3    H226800   1.946   5.770   3.856
 8946TIP3   OH226801   6.752   6.783   4.565
 8946TIP3    H126802   6.794   6.779   4.480
 8946TIP3    H226803   6.727   6.875   4.575
 8947TIP3   OH226804   2.558   3.449   3.413
 8947TIP3    H126805   2.475   3.425   3.370
 8947TIP3    H226806   2.602   3.506   3.350
 8948TIP3   OH226807   6.181   4.085   3.520
 8948TIP3    H126808   6.098   4.058   3.482
 8948TIP3    H226809   6.247   4.034   3.473
 8949TIP3   OH226810   3.560   2.566  -0.013
 8949TIP3    H126811   3.539   2.656   0.011
 8949TIP3    H226812   3.642   2.548   0.033
 8950TIP3   OH226813   6.002   2.762   0.893
 8950TIP3    H126814   6.083   2.714   0.878
 8950TIP3    H226815   6.030   2.850   0.916
 8951TIP3   OH226816   4.258   6.635   1.214
 8951TIP3    H126817   4.230   6.551   1.179
 8951TIP3    H226818   4.231   6.633   1.306
 8952TIP3   OH226819   5.424   2.039   4.866
 8952TIP3    H126820   5.386   1.954   4.848
 8952TIP3    H226821   5.392   2.096   4.796
 8953TIP3   OH226822   6.559   4.663   0.205
 8953TIP3    H126823   6.565   4.671   0.110
 8953TIP3    H226824   6.485   4.720   0.229
 8954TIP3   OH226825   6.955   3.442   1.234
 8954TIP3    H126826   6.897   3.373   1.202
 8954TIP3    H226827   6.991   3.482   1.155
 8955TIP3   OH226828   4.599   3.354   1.542
 8955TIP3    H126829   4.616   3.296   1.468
 8955TIP3    H226830   4.668   3.420   1.536
 8956TIP3   OH226831   3.781   3.264   3.025
 8956TIP3    H126832   3.740   3.182   3.052
 8956TIP3    H226833   3.719   3.332   3.053
 8957TIP3   OH226834   5.199   2.503   4.757
 8957TIP3    H126835   5.222   2.438   4.690
 8957TIP3    H226836   5.254   2.481   4.832
 8958TIP3   OH226837   4.944   0.767   4.761
 8958TIP3    H126838   4.949   0.683   4.714
 8958TIP3    H226839   4.850   0.785   4.766
 8959TIP3   OH226840   2.729   2.626   2.994
 8959TIP3    H126841   2.717   2.584   2.909
 8959TIP3    H226842   2.796   2.575   3.038
 8960TIP3   OH226843   2.728   4.898   5.036
 8960TIP3    H126844   2.641   4.937   5.044
 8960TIP3    H226845   2.761   4.927   4.951
 8961TIP3   OH226846   7.003   3.240   0.431
 8961TIP3    H126847   7.064   3.307   0.402
 8961TIP3    H226848   6.938   3.288   0.483
 8962TIP3   OH226849   6.449   1.028   4.808
 8962TIP3    H126850   6.412   1.110   4.842
 8962TIP3    H226851   6.415   1.023   4.718
 8963TIP3   OH226852   4.025   3.692   0.163
 8963TIP3    H126853   4.054   3.778   0.132
 8963TIP3    H226854   3.953   3.669   0.105
 8964TIP3   OH226855   4.119   2.847   2.635
 8964TIP3    H126856   4.108   2.918   2.699
 8964TIP3    H226857   4.097   2.767   2.684
 8965TIP3   OH226858   2.455   1.778   3.728
 8965TIP3    H126859   2.399   1.789   3.652
 8965TIP3    H226860   2.541   1.753   3.692
 8966TIP3   OH226861   3.636   5.024   2.030
 8966TIP3    H126862   3.543   5.014   2.050
 8966TIP3    H226863   3.655   4.955   1.967
 8967TIP3   OH226864   0.726   5.533   1.173
 8967TIP3    H126865   0.683   5.613   1.203
 8967TIP3    H226866   0.813   5.536   1.212
 8968TIP3   OH226867   5.864   1.924   5.472
 8968TIP3    H126868   5.881   1.883   5.556
 8968TIP3    H226869   5.845   1.852   5.412
 8969TIP3   OH226870   5.507   4.303   0.379
 8969TIP3    H126871   5.449   4.262   0.444
 8969TIP3    H226872   5.497   4.250   0.301
 8970TIP3   OH226873   2.609   4.748   2.376
 8970TIP3    H126874   2.606   4.817   2.310
 8970TIP3    H226875   2.563   4.674   2.336
 8971TIP3   OH226876   5.570   3.161   1.357
 8971TIP3    H126877   5.572   3.123   1.269
 8971TIP3    H226878   5.612   3.246   1.347
 8972TIP3   OH226879   0.051   6.070   3.455
 8972TIP3    H126880   0.123   6.086   3.394
 8972TIP3    H226881  -0.013   6.020   3.405
 8973TIP3   OH226882   6.329   3.212   2.011
 8973TIP3    H126883   6.311   3.271   2.085
 8973TIP3    H226884   6.243   3.183   1.982
 8974TIP3   OH226885   0.001   2.030   1.411
 8974TIP3    H126886  -0.055   2.056   1.338
 8974TIP3    H226887   0.029   2.112   1.451
 8975TIP3   OH226888   7.021   1.225   2.771
 8975TIP3    H126889   7.016   1.311   2.814
 8975TIP3    H226890   7.082   1.239   2.698
 8976TIP3   OH226891   0.891   2.319   5.328
 8976TIP3    H126892   0.861   2.404   5.357
 8976TIP3    H226893   0.928   2.335   5.241
 8977TIP3   OH226894   2.913   0.993   0.431
 8977TIP3    H126895   3.005   0.986   0.457
 8977TIP3    H226896   2.907   1.076   0.385
 8978TIP3   OH226897   6.140   6.136   2.356
 8978TIP3    H126898   6.152   6.197   2.429
 8978TIP3    H226899   6.223   6.089   2.350
 8979TIP3   OH226900   6.053   5.693   3.635
 8979TIP3    H126901   6.122   5.632   3.610
 8979TIP3    H226902   6.088   5.739   3.712
 8980TIP3   OH226903   2.115   0.043   2.011
 8980TIP3    H126904   2.079  -0.042   1.986
 8980TIP3    H226905   2.082   0.058   2.100
 8981TIP3   OH226906   2.516   1.555   1.400
 8981TIP3    H126907   2.572   1.629   1.422
 8981TIP3    H226908   2.557   1.515   1.323
 8982TIP3   OH226909   1.930   1.520   2.596
 8982TIP3    H126910   1.890   1.507   2.510
 8982TIP3    H226911   2.023   1.504   2.582
 8983TIP3   OH226912   6.917   0.061   4.065
 8983TIP3    H126913   7.003   0.098   4.046
 8983TIP3    H226914   6.860   0.095   3.996
 8984TIP3   OH226915   5.491   0.322   2.952
 8984TIP3    H126916   5.484   0.374   2.872
 8984TIP3    H226917   5.451   0.376   3.020
 8985TIP3   OH226918   2.085   6.357   3.399
 8985TIP3    H126919   2.057   6.267   3.417
 8985TIP3    H226920   2.050   6.408   3.472
 8986TIP3   OH226921   1.692   5.061   0.185
 8986TIP3    H126922   1.604   5.038   0.154
 8986TIP3    H226923   1.720   4.984   0.235
 8987TIP3   OH226924   2.415   6.719   3.211
 8987TIP3    H126925   2.426   6.626   3.230
 8987TIP3    H226926   2.503   6.750   3.189
 8988TIP3   OH226927   6.284   4.796   2.057
 8988TIP3    H126928   6.201   4.835   2.086
 8988TIP3    H226929   6.278   4.705   2.085
 8989TIP3   OH226930   6.091   5.764   3.901
 8989TIP3    H126931   6.172   5.770   3.952
 8989TIP3    H226932   6.043   5.844   3.922
 8990TIP3   OH226933   2.638   0.695   3.339
 8990TIP3    H126934   2.607   0.605   3.332
 8990TIP3    H226935   2.573   0.747   3.292
 8991TIP3   OH226936   0.021   1.507   0.286
 8991TIP3    H126937   0.063   1.593   0.286
 8991TIP3    H226938   0.047   1.468   0.369
 8992TIP3   OH226939   3.928   3.101   4.200
 8992TIP3    H126940   3.869   3.173   4.176
 8992TIP3    H226941   3.875   3.045   4.257
 8993TIP3   OH226942   2.321   2.899   2.730
 8993TIP3    H126943   2.390   2.840   2.699
 8993TIP3    H226944   2.279   2.851   2.801
 8994TIP3   OH226945   4.671   3.217   5.527
 8994TIP3    H126946   4.722   3.223   5.446
 8994TIP3    H226947   4.737   3.201   5.595
 8995TIP3   OH226948   5.027   0.670   5.039
 8995TIP3    H126949   5.035   0.728   5.114
 8995TIP3    H226950   5.028   0.728   4.963
 8996TIP3   OH226951   7.011   0.948   5.050
 8996TIP3    H126952   7.028   1.014   4.983
 8996TIP3    H226953   6.973   0.874   5.003
 8997TIP3   OH226954   3.774   6.458   1.652
 8997TIP3    H126955   3.727   6.400   1.712
 8997TIP3    H226956   3.822   6.399   1.595
 8998TIP3   OH226957   1.183   5.047   0.466
 8998TIP3    H126958   1.144   5.003   0.390
 8998TIP3    H226959   1.247   4.985   0.500
 8999TIP3   OH226960   5.500   0.872   1.440
 8999TIP3    H126961   5.427   0.927   1.412
 8999TIP3    H226962   5.493   0.793   1.388
 9000TIP3   OH226963   5.846   6.017   1.301
 9000TIP3    H126964   5.878   6.107   1.296
 9000TIP3    H226965   5.759   6.020   1.261
 9001TIP3   OH226966   2.153   2.743   1.244
 9001TIP3    H126967   2.243   2.711   1.244
 9001TIP3    H226968   2.100   2.666   1.229
 9002TIP3   OH226969   0.890   5.400   1.687
 9002TIP3    H126970   0.981   5.426   1.673
 9002TIP3    H226971   0.840   5.481   1.681
 9003TIP3   OH226972   1.901   5.914   0.584
 9003TIP3    H126973   1.989   5.942   0.610
 9003TIP3    H226974   1.878   5.845   0.646
 9004TIP3   OH226975   4.729   3.568   5.775
 9004TIP3    H126976   4.806   3.589   5.723
 9004TIP3    H226977   4.682   3.502   5.723
 9005TIP3   OH226978   3.961   4.813   3.854
 9005TIP3    H126979   3.872   4.836   3.828
 9005TIP3    H226980   3.956   4.792   3.947
 9006TIP3   OH226981   2.495   3.880   0.945
 9006TIP3    H126982   2.510   3.973   0.930
 9006TIP3    H226983   2.432   3.877   1.017
 9007TIP3   OH226984   6.184   1.716   0.757
 9007TIP3    H126985   6.231   1.674   0.685
 9007TIP3    H226986   6.111   1.656   0.776
 9008TIP3   OH226987   1.631   3.346   1.189
 9008TIP3    H126988   1.701   3.389   1.239
 9008TIP3    H226989   1.570   3.315   1.256
 9009TIP3   OH226990   6.102   5.336   2.542
 9009TIP3    H126991   6.124   5.424   2.571
 9009TIP3    H226992   6.150   5.279   2.603
 9010TIP3   OH226993   5.650   6.705   5.798
 9010TIP3    H126994   5.726   6.759   5.777
 9010TIP3    H226995   5.586   6.724   5.730
 9011TIP3   OH226996   2.366   1.488   5.534
 9011TIP3    H126997   2.300   1.420   5.543
 9011TIP3    H226998   2.323   1.556   5.482
 9012TIP3   OH226999   6.563   3.320   0.637
 9012TIP3    H127000   6.484   3.370   0.655
 9012TIP3    H227001   6.536   3.253   0.575
 9013TIP3   OH227002   7.230   0.463   4.161
 9013TIP3    H127003   7.150   0.515   4.163
 9013TIP3    H227004   7.203   0.375   4.187
 9014TIP3   OH227005   3.383   5.891   0.942
 9014TIP3    H127006   3.355   5.976   0.909
 9014TIP3    H227007   3.320   5.869   1.011
 9015TIP3   OH227008   7.090   5.983   3.265
 9015TIP3    H127009   7.105   6.062   3.212
 9015TIP3    H227010   7.018   5.939   3.222
 9016TIP3   OH227011   4.250   6.471   0.110
 9016TIP3    H127012   4.204   6.388   0.123
 9016TIP3    H227013   4.187   6.526   0.064
 9017TIP3   OH227014   1.207   4.179   1.703
 9017TIP3    H127015   1.275   4.174   1.636
 9017TIP3    H227016   1.132   4.134   1.664
 9018TIP3   OH227017   3.410   0.092   4.079
 9018TIP3    H127018   3.333   0.136   4.044
 9018TIP3    H227019   3.396   0.090   4.174
 9019TIP3   OH227020   4.474   2.796   5.262
 9019TIP3    H127021   4.474   2.701   5.255
 9019TIP3    H227022   4.415   2.815   5.335
 9020TIP3   OH227023   1.800   0.572   4.513
 9020TIP3    H127024   1.762   0.508   4.573
 9020TIP3    H227025   1.725   0.613   4.471
 9021TIP3   OH227026   1.303   0.060   2.841
 9021TIP3    H127027   1.210   0.069   2.859
 9021TIP3    H227028   1.345   0.061   2.927
 9022TIP3   OH227029   6.775   1.540   0.091
 9022TIP3    H127030   6.854   1.487   0.087
 9022TIP3    H227031   6.739   1.524   0.178
 9023TIP3   OH227032   4.341   1.437   0.792
 9023TIP3    H127033   4.330   1.353   0.836
 9023TIP3    H227034   4.255   1.456   0.756
 9024TIP3   OH227035   6.786   3.566   0.387
 9024TIP3    H127036   6.744   3.487   0.352
 9024TIP3    H227037   6.837   3.534   0.462
 9025TIP3   OH227038   0.781   4.001   1.788
 9025TIP3    H127039   0.872   4.004   1.818
 9025TIP3    H227040   0.740   3.933   1.841
 9026TIP3   OH227041   5.188   4.602   3.751
 9026TIP3    H127042   5.253   4.617   3.820
 9026TIP3    H227043   5.163   4.510   3.762
 9027TIP3   OH227044   0.102   2.019   4.403
 9027TIP3    H127045   0.185   2.016   4.354
 9027TIP3    H227046   0.083   1.928   4.424
 9028TIP3   OH227047   0.467   0.425   5.035
 9028TIP3    H127048   0.563   0.421   5.041
 9028TIP3    H227049   0.448   0.512   5.002
 9029TIP3   OH227050   0.844   3.459   5.385
 9029TIP3    H127051   0.881   3.391   5.441
 9029TIP3    H227052   0.907   3.469   5.314
 9030TIP3   OH227053   1.431   0.006   1.667
 9030TIP3    H127054   1.518   0.020   1.630
 9030TIP3    H227055   1.415   0.084   1.720
 9031TIP3   OH227056   5.904   0.457   4.381
 9031TIP3    H127057   5.955   0.525   4.425
 9031TIP3    H227058   5.906   0.383   4.442
 9032TIP3   OH227059   3.954   5.811   5.314
 9032TIP3    H127060   3.955   5.754   5.236
 9032TIP3    H227061   3.863   5.810   5.343
 9033TIP3   OH227062   2.634   1.582   4.176
 9033TIP3    H127063   2.696   1.620   4.239
 9033TIP3    H227064   2.594   1.509   4.223
 9034TIP3   OH227065   1.671   5.502   3.785
 9034TIP3    H127066   1.596   5.536   3.833
 9034TIP3    H227067   1.731   5.471   3.853
 9035TIP3   OH227068   3.179   4.353   1.421
 9035TIP3    H127069   3.223   4.305   1.490
 9035TIP3    H227070   3.188   4.298   1.343
 9036TIP3   OH227071   0.393   4.610   3.984
 9036TIP3    H127072   0.391   4.533   4.041
 9036TIP3    H227073   0.420   4.682   4.040
 9037TIP3   OH227074   2.664   2.475   5.583
 9037TIP3    H127075   2.717   2.429   5.518
 9037TIP3    H227076   2.589   2.508   5.534
 9038TIP3   OH227077   6.797   4.083   0.581
 9038TIP3    H127078   6.841   4.073   0.665
 9038TIP3    H227079   6.855   4.040   0.518
 9039TIP3   OH227080   2.470   2.622   1.802
 9039TIP3    H127081   2.466   2.717   1.790
 9039TIP3    H227082   2.532   2.592   1.736
 9040TIP3   OH227083   4.641   3.227   5.927
 9040TIP3    H127084   4.617   3.302   5.873
 9040TIP3    H227085   4.734   3.240   5.947
 9041TIP3   OH227086   4.131   2.551   3.816
 9041TIP3    H127087   4.131   2.568   3.910
 9041TIP3    H227088   4.164   2.632   3.777
 9042TIP3   OH227089   4.435   4.505   1.877
 9042TIP3    H127090   4.425   4.429   1.819
 9042TIP3    H227091   4.417   4.470   1.964
 9043TIP3   OH227092   0.982   3.501   5.048
 9043TIP3    H127093   0.904   3.458   5.013
 9043TIP3    H227094   1.016   3.553   4.976
 9044TIP3   OH227095   1.755   2.260   1.146
 9044TIP3    H127096   1.819   2.295   1.083
 9044TIP3    H227097   1.686   2.223   1.091
 9045TIP3   OH227098   6.727   5.523   4.874
 9045TIP3    H127099   6.678   5.470   4.811
 9045TIP3    H227100   6.713   5.614   4.846
 9046TIP3   OH227101   1.576   4.154   0.453
 9046TIP3    H127102   1.587   4.238   0.497
 9046TIP3    H227103   1.514   4.106   0.507
 9047TIP3   OH227104   4.636   2.053   4.863
 9047TIP3    H127105   4.546   2.068   4.832
 9047TIP3    H227106   4.663   1.973   4.820
 9048TIP3   OH227107   6.169   4.616   4.395
 9048TIP3    H127108   6.101   4.667   4.351
 9048TIP3    H227109   6.131   4.529   4.407
 9049TIP3   OH227110   5.812   4.537   0.292
 9049TIP3    H127111   5.905   4.535   0.269
 9049TIP3    H227112   5.798   4.457   0.343
 9050TIP3   OH227113   2.857   6.288   1.835
 9050TIP3    H127114   2.805   6.207   1.835
 9050TIP3    H227115   2.866   6.310   1.743
 9051TIP3   OH227116   0.062   6.082   4.322
 9051TIP3    H127117   0.026   6.049   4.404
 9051TIP3    H227118   0.018   6.166   4.308
 9052TIP3   OH227119   5.784   2.699   0.716
 9052TIP3    H127120   5.813   2.759   0.647
 9052TIP3    H227121   5.842   2.717   0.790
 9053TIP3   OH227122   2.941   3.803   1.873
 9053TIP3    H127123   2.923   3.792   1.780
 9053TIP3    H227124   3.034   3.826   1.878
 9054TIP3   OH227125   3.715   1.922   5.301
 9054TIP3    H127126   3.784   1.883   5.354
 9054TIP3    H227127   3.731   1.890   5.212
 9055TIP3   OH227128   4.575   1.521   1.063
 9055TIP3    H127129   4.555   1.438   1.021
 9055TIP3    H227130   4.665   1.511   1.095
 9056TIP3   OH227131   5.115   5.287   2.026
 9056TIP3    H127132   5.204   5.276   2.060
 9056TIP3    H227133   5.123   5.355   1.958
 9057TIP3   OH227134   3.517   1.352   0.856
 9057TIP3    H127135   3.568   1.431   0.838
 9057TIP3    H227136   3.579   1.280   0.843
 9058TIP3   OH227137   4.236   0.807   4.965
 9058TIP3    H127138   4.272   0.735   4.914
 9058TIP3    H227139   4.252   0.885   4.912
 9059TIP3   OH227140   1.973   3.111   0.901
 9059TIP3    H127141   2.037   3.086   0.967
 9059TIP3    H227142   1.914   3.171   0.947
 9060TIP3   OH227143   3.794   3.777   0.511
 9060TIP3    H127144   3.818   3.869   0.508
 9060TIP3    H227145   3.874   3.730   0.486
 9061TIP3   OH227146   6.875   5.955   4.837
 9061TIP3    H127147   6.780   5.961   4.841
 9061TIP3    H227148   6.906   6.037   4.874
 9062TIP3   OH227149   0.427   0.469   1.229
 9062TIP3    H127150   0.520   0.462   1.206
 9062TIP3    H227151   0.398   0.379   1.242
 9063TIP3   OH227152   4.029   1.213   0.737
 9063TIP3    H127153   3.939   1.181   0.749
 9063TIP3    H227154   4.055   1.244   0.823
 9064TIP3   OH227155   5.582   0.723   2.634
 9064TIP3    H127156   5.620   0.810   2.648
 9064TIP3    H227157   5.500   0.740   2.588
 9065TIP3   OH227158   4.132   1.110   4.063
 9065TIP3    H127159   4.081   1.033   4.038
 9065TIP3    H227160   4.157   1.150   3.980
 9066TIP3   OH227161   6.405   5.107   4.676
 9066TIP3    H127162   6.482   5.059   4.648
 9066TIP3    H227163   6.387   5.168   4.605
 9067TIP3   OH227164   4.600   3.967   1.357
 9067TIP3    H127165   4.557   3.901   1.411
 9067TIP3    H227166   4.659   4.012   1.417
 9068TIP3   OH227167   3.420   6.074   4.025
 9068TIP3    H127168   3.388   6.013   3.958
 9068TIP3    H227169   3.388   6.160   3.996
 9069TIP3   OH227170   6.552   2.825   4.571
 9069TIP3    H127171   6.480   2.822   4.508
 9069TIP3    H227172   6.627   2.855   4.520
 9070TIP3   OH227173   6.173   3.211   5.522
 9070TIP3    H127174   6.246   3.265   5.493
 9070TIP3    H227175   6.128   3.186   5.441
 9071TIP3   OH227176   3.995   1.307  -0.018
 9071TIP3    H127177   4.052   1.344   0.049
 9071TIP3    H227178   4.008   1.212  -0.010
 9072TIP3   OH227179   0.730   5.271   5.189
 9072TIP3    H127180   0.637   5.285   5.171
 9072TIP3    H227181   0.744   5.178   5.172
 9073TIP3   OH227182   2.862   4.095   3.742
 9073TIP3    H127183   2.770   4.068   3.743
 9073TIP3    H227184   2.863   4.179   3.788
 9074TIP3   OH227185   2.764   4.658   0.554
 9074TIP3    H127186   2.822   4.586   0.578
 9074TIP3    H227187   2.684   4.643   0.605
 9075TIP3   OH227188   5.141   4.837   4.694
 9075TIP3    H127189   5.120   4.861   4.784
 9075TIP3    H227190   5.065   4.864   4.643
 9076TIP3   OH227191   3.942   5.109   3.775
 9076TIP3    H127192   3.965   5.060   3.854
 9076TIP3    H227193   3.993   5.189   3.780
 9077TIP3   OH227194   5.906   3.606   3.175
 9077TIP3    H127195   5.860   3.524   3.190
 9077TIP3    H227196   5.840   3.674   3.189
 9078TIP3   OH227197   2.688   3.347  -0.020
 9078TIP3    H127198   2.718   3.263   0.015
 9078TIP3    H227199   2.762   3.407  -0.007
 9079TIP3   OH227200   6.227   3.897   0.057
 9079TIP3    H127201   6.307   3.856   0.023
 9079TIP3    H227202   6.231   3.882   0.151
 9080TIP3   OH227203   2.205   2.429   2.395
 9080TIP3    H127204   2.292   2.459   2.368
 9080TIP3    H227205   2.212   2.334   2.394
 9081TIP3   OH227206   7.151   3.814   4.508
 9081TIP3    H127207   7.090   3.740   4.507
 9081TIP3    H227208   7.226   3.784   4.456
 9082TIP3   OH227209   1.440   2.313   3.670
 9082TIP3    H127210   1.380   2.240   3.685
 9082TIP3    H227211   1.386   2.392   3.681
 9083TIP3   OH227212   0.085   1.239   3.679
 9083TIP3    H127213   0.137   1.169   3.718
 9083TIP3    H227214   0.115   1.318   3.724
 9084TIP3   OH227215   3.438   6.669   4.557
 9084TIP3    H127216   3.392   6.703   4.633
 9084TIP3    H227217   3.478   6.587   4.587
 9085TIP3   OH227218   0.618   5.090   1.284
 9085TIP3    H127219   0.569   5.087   1.201
 9085TIP3    H227220   0.633   4.998   1.305
 9086TIP3   OH227221   1.771   3.256   4.103
 9086TIP3    H127222   1.823   3.336   4.116
 9086TIP3    H227223   1.719   3.249   4.183
 9087TIP3   OH227224   4.657   4.257   4.136
 9087TIP3    H127225   4.664   4.304   4.219
 9087TIP3    H227226   4.637   4.325   4.071
 9088TIP3   OH227227   3.874   1.804   1.451
 9088TIP3    H127228   3.883   1.897   1.434
 9088TIP3    H227229   3.942   1.784   1.516
 9089TIP3   OH227230   1.174   5.104   1.713
 9089TIP3    H127231   1.126   5.085   1.794
 9089TIP3    H227232   1.228   5.179   1.734
 9090TIP3   OH227233   4.089   6.505   5.779
 9090TIP3    H127234   4.042   6.422   5.790
 9090TIP3    H227235   4.064   6.535   5.691
 9091TIP3   OH227236   1.092   2.861   5.660
 9091TIP3    H127237   1.100   2.806   5.738
 9091TIP3    H227238   1.149   2.936   5.678
 9092TIP3   OH227239   1.998   1.150   2.983
 9092TIP3    H127240   1.971   1.198   2.905
 9092TIP3    H227241   1.924   1.093   3.003
 9093TIP3   OH227242   5.879   2.797   1.265
 9093TIP3    H127243   5.830   2.802   1.347
 9093TIP3    H227244   5.937   2.722   1.276
 9094TIP3   OH227245   2.648   0.132   1.371
 9094TIP3    H127246   2.734   0.153   1.335
 9094TIP3    H227247   2.624   0.050   1.328
 9095TIP3   OH227248   5.441   6.762   3.217
 9095TIP3    H127249   5.425   6.672   3.243
 9095TIP3    H227250   5.442   6.760   3.121
 9096TIP3   OH227251   6.280   5.048   1.909
 9096TIP3    H127252   6.248   5.013   1.992
 9096TIP3    H227253   6.221   5.121   1.889
 9097TIP3   OH227254   0.553   0.629   2.589
 9097TIP3    H127255   0.468   0.673   2.583
 9097TIP3    H227256   0.617   0.699   2.575
 9098TIP3   OH227257   6.710   1.050   3.863
 9098TIP3    H127258   6.627   1.051   3.912
 9098TIP3    H227259   6.755   0.973   3.897
 9099TIP3   OH227260   4.535   5.947   5.378
 9099TIP3    H127261   4.535   5.949   5.282
 9099TIP3    H227262   4.591   6.020   5.404
 9100TIP3   OH227263   4.349   6.396   0.896
 9100TIP3    H127264   4.268   6.382   0.946
 9100TIP3    H227265   4.382   6.308   0.880
 9101TIP3   OH227266   3.567   0.560   5.567
 9101TIP3    H127267   3.577   0.623   5.638
 9101TIP3    H227268   3.541   0.613   5.492
 9102TIP3   OH227269   1.398   6.543   5.619
 9102TIP3    H127270   1.319   6.593   5.598
 9102TIP3    H227271   1.436   6.589   5.694
 9103TIP3   OH227272   0.954   1.597   3.625
 9103TIP3    H127273   0.900   1.529   3.583
 9103TIP3    H227274   0.900   1.676   3.620
 9104TIP3   OH227275   5.859   6.765   3.210
 9104TIP3    H127276   5.932   6.825   3.226
 9104TIP3    H227277   5.781   6.818   3.229
 9105TIP3   OH227278   3.140   1.256   2.454
 9105TIP3    H127279   3.096   1.307   2.523
 9105TIP3    H227280   3.229   1.290   2.453
 9106TIP3   OH227281   5.964   6.555   2.311
 9106TIP3    H127282   6.045   6.580   2.266
 9106TIP3    H227283   5.898   6.616   2.277
 9107TIP3   OH227284   4.468   0.394   0.251
 9107TIP3    H127285   4.476   0.416   0.158
 9107TIP3    H227286   4.543   0.336   0.269
 9108TIP3   OH227287   3.552   1.214   2.788
 9108TIP3    H127288   3.635   1.237   2.829
 9108TIP3    H227289   3.492   1.200   2.861
 9109TIP3   OH227290   3.413   4.059   5.576
 9109TIP3    H127291   3.469   4.081   5.502
 9109TIP3    H227292   3.465   3.997   5.627
 9110TIP3   OH227293   4.099   6.295   0.683
 9110TIP3    H127294   4.181   6.256   0.654
 9110TIP3    H227295   4.064   6.233   0.746
 9111TIP3   OH227296   5.073   5.604   0.113
 9111TIP3    H127297   5.072   5.614   0.018
 9111TIP3    H227298   5.165   5.597   0.136
 9112TIP3   OH227299   3.529   3.557   0.153
 9112TIP3    H127300   3.579   3.479   0.179
 9112TIP3    H227301   3.453   3.556   0.211
 9113TIP3   OH227302   1.295   3.668   3.261
 9113TIP3    H127303   1.206   3.655   3.227
 9113TIP3    H227304   1.311   3.762   3.250
 9114TIP3   OH227305   4.667   5.382   3.616
 9114TIP3    H127306   4.628   5.295   3.625
 9114TIP3    H227307   4.702   5.384   3.527
 9115TIP3   OH227308   4.237   6.746   3.668
 9115TIP3    H127309   4.164   6.747   3.730
 9115TIP3    H227310   4.199   6.775   3.585
 9116TIP3   OH227311   2.823   6.077   5.393
 9116TIP3    H127312   2.749   6.134   5.412
 9116TIP3    H227313   2.896   6.115   5.441
 9117TIP3   OH227314   6.069   5.500   4.746
 9117TIP3    H127315   6.064   5.526   4.654
 9117TIP3    H227316   6.160   5.518   4.771
 9118TIP3   OH227317   6.430   1.894   5.245
 9118TIP3    H127318   6.430   1.870   5.152
 9118TIP3    H227319   6.467   1.982   5.247
 9119TIP3   OH227320   6.784   2.273   1.226
 9119TIP3    H127321   6.789   2.182   1.196
 9119TIP3    H227322   6.690   2.291   1.232
 9120TIP3   OH227323   6.490   1.613   3.487
 9120TIP3    H127324   6.526   1.549   3.425
 9120TIP3    H227325   6.562   1.631   3.547
 9121TIP3   OH227326   2.998   6.286   4.591
 9121TIP3    H127327   3.035   6.201   4.568
 9121TIP3    H227328   3.053   6.317   4.663
 9122TIP3   OH227329   4.535   5.715   2.229
 9122TIP3    H127330   4.612   5.699   2.175
 9122TIP3    H227331   4.494   5.793   2.192
 9123TIP3   OH227332   6.028   5.146   1.253
 9123TIP3    H127333   5.992   5.075   1.307
 9123TIP3    H227334   6.111   5.169   1.295
 9124TIP3   OH227335   4.568   6.178   3.331
 9124TIP3    H127336   4.560   6.268   3.297
 9124TIP3    H227337   4.647   6.179   3.385
 9125TIP3   OH227338   3.517   3.565   5.787
 9125TIP3    H127339   3.431   3.529   5.767
 9125TIP3    H227340   3.572   3.538   5.714
 9126TIP3   OH227341   4.629   3.601   1.174
 9126TIP3    H127342   4.601   3.691   1.158
 9126TIP3    H227343   4.585   3.550   1.106
 9127TIP3   OH227344   6.227   4.342   0.995
 9127TIP3    H127345   6.203   4.414   1.053
 9127TIP3    H227346   6.144   4.311   0.959
 9128TIP3   OH227347   3.370   0.773   0.355
 9128TIP3    H127348   3.276   0.782   0.342
 9128TIP3    H227349   3.379   0.718   0.433
 9129TIP3   OH227350   0.984   5.814   1.139
 9129TIP3    H127351   0.999   5.890   1.195
 9129TIP3    H227352   0.947   5.748   1.198
 9130TIP3   OH227353   6.281   2.865   1.083
 9130TIP3    H127354   6.309   2.811   1.157
 9130TIP3    H227355   6.333   2.945   1.091
 9131TIP3   OH227356   1.307   5.717   5.719
 9131TIP3    H127357   1.244   5.712   5.791
 9131TIP3    H227358   1.268   5.665   5.649
 9132TIP3   OH227359   6.688   4.537   1.220
 9132TIP3    H127360   6.728   4.618   1.253
 9132TIP3    H227361   6.622   4.515   1.286
 9133TIP3   OH227362   2.371   4.786   5.454
 9133TIP3    H127363   2.436   4.746   5.512
 9133TIP3    H227364   2.409   4.870   5.430
 9134TIP3   OH227365   6.941   4.683   3.772
 9134TIP3    H127366   6.847   4.687   3.752
 9134TIP3    H227367   6.946   4.628   3.850
 9135TIP3   OH227368   3.558   0.747   5.120
 9135TIP3    H127369   3.505   0.822   5.095
 9135TIP3    H227370   3.629   0.784   5.174
 9136TIP3   OH227371   0.235   5.405   1.683
 9136TIP3    H127372   0.281   5.482   1.652
 9136TIP3    H227373   0.304   5.340   1.698
 9137TIP3   OH227374   2.290   6.399   1.448
 9137TIP3    H127375   2.245   6.427   1.528
 9137TIP3    H227376   2.279   6.473   1.388
 9138TIP3   OH227377   2.238   3.634   0.487
 9138TIP3    H127378   2.291   3.635   0.566
 9138TIP3    H227379   2.186   3.554   0.492
 9139TIP3   OH227380   2.165   4.207   4.965
 9139TIP3    H127381   2.083   4.175   4.928
 9139TIP3    H227382   2.157   4.303   4.964
 9140TIP3   OH227383   5.373   3.721   4.500
 9140TIP3    H127384   5.446   3.715   4.561
 9140TIP3    H227385   5.338   3.632   4.495
 9141TIP3   OH227386   4.763   3.790   3.136
 9141TIP3    H127387   4.709   3.758   3.064
 9141TIP3    H227388   4.742   3.883   3.142
 9142TIP3   OH227389   6.642   0.361   5.417
 9142TIP3    H127390   6.651   0.281   5.364
 9142TIP3    H227391   6.698   0.344   5.493
 9143TIP3   OH227392   0.985   0.889   3.478
 9143TIP3    H127393   1.018   0.977   3.493
 9143TIP3    H227394   1.055   0.844   3.430
 9144TIP3   OH227395   0.660   0.271   2.435
 9144TIP3    H127396   0.718   0.217   2.380
 9144TIP3    H227397   0.719   0.336   2.474
 9145TIP3   OH227398   2.585   6.076   3.790
 9145TIP3    H127399   2.680   6.079   3.801
 9145TIP3    H227400   2.564   5.983   3.783
 9146TIP3   OH227401   4.224   2.532   4.079
 9146TIP3    H127402   4.251   2.536   4.171
 9146TIP3    H227403   4.306   2.523   4.030
 9147TIP3   OH227404   1.920   2.806   0.638
 9147TIP3    H127405   1.886   2.834   0.723
 9147TIP3    H227406   1.887   2.871   0.576
 9148TIP3   OH227407   0.592   5.739   2.474
 9148TIP3    H127408   0.573   5.806   2.409
 9148TIP3    H227409   0.676   5.764   2.511
 9149TIP3   OH227410   6.404   6.473   5.309
 9149TIP3    H127411   6.443   6.555   5.340
 9149TIP3    H227412   6.347   6.500   5.236
 9150TIP3   OH227413   6.131   5.724   0.860
 9150TIP3    H127414   6.074   5.672   0.804
 9150TIP3    H227415   6.071   5.767   0.922
 9151TIP3   OH227416   4.976   5.647   2.540
 9151TIP3    H127417   4.941   5.730   2.509
 9151TIP3    H227418   5.060   5.669   2.579
 9152TIP3   OH227419   1.865   5.945   1.830
 9152TIP3    H127420   1.866   6.005   1.904
 9152TIP3    H227421   1.934   5.976   1.772
 9153TIP3   OH227422   7.156   2.673   1.015
 9153TIP3    H127423   7.250   2.656   1.024
 9153TIP3    H227424   7.116   2.627   1.088
 9154TIP3   OH227425   3.342   5.067   4.515
 9154TIP3    H127426   3.269   5.125   4.533
 9154TIP3    H227427   3.418   5.125   4.510
 9155TIP3   OH227428   0.684   3.359   3.632
 9155TIP3    H127429   0.706   3.405   3.550
 9155TIP3    H227430   0.762   3.307   3.652
 9156TIP3   OH227431   2.855   3.938   4.815
 9156TIP3    H127432   2.947   3.914   4.807
 9156TIP3    H227433   2.851   3.993   4.893
 9157TIP3   OH227434   0.333   6.319   2.064
 9157TIP3    H127435   0.254   6.371   2.049
 9157TIP3    H227436   0.318   6.276   2.148
 9158TIP3   OH227437   6.041   3.050   0.576
 9158TIP3    H127438   6.010   3.122   0.632
 9158TIP3    H227439   5.964   2.995   0.564
 9159TIP3   OH227440   0.026   6.589   1.488
 9159TIP3    H127441   0.090   6.640   1.537
 9159TIP3    H227442  -0.043   6.569   1.551
 9160TIP3   OH227443   2.896   2.091   0.500
 9160TIP3    H127444   2.918   2.173   0.545
 9160TIP3    H227445   2.955   2.026   0.538
 9161TIP3   OH227446   1.431   4.076   0.693
 9161TIP3    H127447   1.404   4.144   0.754
 9161TIP3    H227448   1.514   4.044   0.728
 9162TIP3   OH227449   1.580   1.423   3.464
 9162TIP3    H127450   1.531   1.454   3.540
 9162TIP3    H227451   1.624   1.500   3.430
 9163TIP3   OH227452   2.767   3.642   5.830
 9163TIP3    H127453   2.772   3.546   5.832
 9163TIP3    H227454   2.680   3.661   5.795
 9164TIP3   OH227455   3.239   3.484   5.246
 9164TIP3    H127456   3.299   3.488   5.321
 9164TIP3    H227457   3.204   3.395   5.249
 9165TIP3   OH227458   7.106   2.850   1.586
 9165TIP3    H127459   7.164   2.808   1.649
 9165TIP3    H227460   7.045   2.901   1.639
 9166TIP3   OH227461   3.980   0.104   2.403
 9166TIP3    H127462   4.023   0.190   2.397
 9166TIP3    H227463   3.924   0.111   2.481
 9167TIP3   OH227464   5.026   3.923   3.239
 9167TIP3    H127465   5.086   3.888   3.304
 9167TIP3    H227466   4.995   3.846   3.191
 9168TIP3   OH227467   0.860   5.187   1.213
 9168TIP3    H127468   0.917   5.191   1.289
 9168TIP3    H227469   0.772   5.173   1.249
 9169TIP3   OH227470   2.783   2.375   0.027
 9169TIP3    H127471   2.736   2.421   0.096
 9169TIP3    H227472   2.856   2.332   0.072
 9170TIP3   OH227473   1.592   2.430   2.642
 9170TIP3    H127474   1.645   2.355   2.616
 9170TIP3    H227475   1.599   2.434   2.737
 9171TIP3   OH227476   4.652   3.179   0.981
 9171TIP3    H127477   4.728   3.198   1.036
 9171TIP3    H227478   4.609   3.105   1.023
 9172TIP3   OH227479   1.678   5.337   0.229
 9172TIP3    H127480   1.680   5.241   0.235
 9172TIP3    H227481   1.677   5.355   0.135
 9173TIP3   OH227482   3.584   4.985   3.637
 9173TIP3    H127483   3.498   4.962   3.601
 9173TIP3    H227484   3.642   4.985   3.561
 9174TIP3   OH227485   2.549   2.334   4.515
 9174TIP3    H127486   2.592   2.413   4.482
 9174TIP3    H227487   2.512   2.360   4.599
 9175TIP3   OH227488   0.638   2.381   3.343
 9175TIP3    H127489   0.703   2.443   3.311
 9175TIP3    H227490   0.674   2.349   3.426
 9176TIP3   OH227491   4.564   6.280   4.915
 9176TIP3    H127492   4.628   6.288   4.844
 9176TIP3    H227493   4.614   6.300   4.994
 9177TIP3   OH227494   7.215   5.183   3.335
 9177TIP3    H127495   7.209   5.277   3.317
 9177TIP3    H227496   7.212   5.176   3.430
 9178TIP3   OH227497   0.658   3.653   2.860
 9178TIP3    H127498   0.661   3.746   2.883
 9178TIP3    H227499   0.724   3.613   2.916
 9179TIP3   OH227500   4.381   6.411   5.800
 9179TIP3    H127501   4.389   6.466   5.722
 9179TIP3    H227502   4.306   6.448   5.848
 9180TIP3   OH227503   5.851   2.333   2.006
 9180TIP3    H127504   5.821   2.245   2.032
 9180TIP3    H227505   5.782   2.391   2.037
 9181TIP3   OH227506   5.252   1.536   2.207
 9181TIP3    H127507   5.335   1.568   2.172
 9181TIP3    H227508   5.231   1.595   2.279
 9182TIP3   OH227509   0.046   5.593   4.009
 9182TIP3    H127510   0.066   5.612   4.101
 9182TIP3    H227511   0.040   5.498   4.005
 9183TIP3   OH227512   4.566   6.168   3.020
 9183TIP3    H127513   4.654   6.201   3.003
 9183TIP3    H227514   4.566   6.147   3.114
 9184TIP3   OH227515   5.068   1.308   5.346
 9184TIP3    H127516   5.117   1.255   5.409
 9184TIP3    H227517   4.977   1.281   5.357
 9185TIP3   OH227518   3.538   2.263   0.584
 9185TIP3    H127519   3.563   2.171   0.594
 9185TIP3    H227520   3.621   2.310   0.589
 9186TIP3   OH227521   3.715   2.987   3.149
 9186TIP3    H127522   3.678   3.011   3.234
 9186TIP3    H227523   3.803   2.955   3.170
 9187TIP3   OH227524   3.017   3.725   3.745
 9187TIP3    H127525   3.096   3.718   3.693
 9187TIP3    H227526   2.946   3.707   3.684
 9188TIP3   OH227527   1.336   4.308   0.281
 9188TIP3    H127528   1.308   4.321   0.372
 9188TIP3    H227529   1.393   4.382   0.263
 9189TIP3   OH227530   6.204   5.585   2.712
 9189TIP3    H127531   6.251   5.666   2.691
 9189TIP3    H227532   6.198   5.585   2.808
 9190TIP3   OH227533   0.894   6.295   2.843
 9190TIP3    H127534   0.829   6.363   2.825
 9190TIP3    H227535   0.978   6.335   2.820
 9191TIP3   OH227536   4.621   6.453   2.227
 9191TIP3    H127537   4.610   6.401   2.306
 9191TIP3    H227538   4.715   6.446   2.207
 9192TIP3   OH227539   5.648   5.738   2.594
 9192TIP3    H127540   5.695   5.808   2.641
 9192TIP3    H227541   5.680   5.743   2.504
 9193TIP3   OH227542   2.567   5.052   3.376
 9193TIP3    H127543   2.605   5.074   3.291
 9193TIP3    H227544   2.643   5.037   3.433
 9194TIP3   OH227545   0.618   4.114   5.678
 9194TIP3    H127546   0.633   4.034   5.627
 9194TIP3    H227547   0.693   4.119   5.737
 9195TIP3   OH227548   4.306   0.080   2.616
 9195TIP3    H127549   4.286   0.014   2.550
 9195TIP3    H227550   4.329   0.158   2.567
 9196TIP3   OH227551   5.577   6.418   2.752
 9196TIP3    H127552   5.517   6.380   2.816
 9196TIP3    H227553   5.527   6.490   2.712
 9197TIP3   OH227554   3.042   2.794   3.418
 9197TIP3    H127555   2.978   2.834   3.477
 9197TIP3    H227556   3.055   2.858   3.349
 9198TIP3   OH227557   3.289   3.413   2.460
 9198TIP3    H127558   3.376   3.445   2.437
 9198TIP3    H227559   3.231   3.454   2.396
 9199TIP3   OH227560   6.882   4.006   2.878
 9199TIP3    H127561   6.801   3.962   2.904
 9199TIP3    H227562   6.949   3.970   2.937
 9200TIP3   OH227563   0.061   2.580   5.137
 9200TIP3    H127564   0.128   2.518   5.163
 9200TIP3    H227565  -0.017   2.555   5.187
 9201TIP3   OH227566   1.203   6.218   5.735
 9201TIP3    H127567   1.183   6.128   5.760
 9201TIP3    H227568   1.242   6.211   5.648
 9202TIP3   OH227569   4.868   4.634   3.990
 9202TIP3    H127570   4.774   4.627   3.972
 9202TIP3    H227571   4.897   4.707   3.935
 9203TIP3   OH227572   5.546   3.332   3.323
 9203TIP3    H127573   5.566   3.242   3.297
 9203TIP3    H227574   5.528   3.378   3.241
 9204TIP3   OH227575   6.069   2.617   5.060
 9204TIP3    H127576   6.115   2.671   5.125
 9204TIP3    H227577   5.978   2.648   5.064
 9205TIP3   OH227578   3.655   6.790   2.660
 9205TIP3    H127579   3.578   6.749   2.621
 9205TIP3    H227580   3.723   6.723   2.654
 9206TIP3   OH227581   7.072   4.780   4.758
 9206TIP3    H127582   7.029   4.788   4.673
 9206TIP3    H227583   7.010   4.821   4.819
 9207TIP3   OH227584   4.301   4.046   4.231
 9207TIP3    H127585   4.292   4.122   4.289
 9207TIP3    H227586   4.363   4.074   4.164
 9208TIP3   OH227587   0.170   1.914   3.729
 9208TIP3    H127588   0.123   1.971   3.670
 9208TIP3    H227589   0.134   1.827   3.714
 9209TIP3   OH227590   1.594   2.031   5.353
 9209TIP3    H127591   1.571   1.975   5.279
 9209TIP3    H227592   1.628   1.971   5.419
 9210TIP3   OH227593   7.175   2.595   2.905
 9210TIP3    H127594   7.233   2.671   2.899
 9210TIP3    H227595   7.234   2.520   2.897
 9211TIP3   OH227596   2.996   1.074   3.156
 9211TIP3    H127597   3.067   1.046   3.214
 9211TIP3    H227598   2.920   1.023   3.184
 9212TIP3   OH227599   5.863   6.166   5.152
 9212TIP3    H127600   5.837   6.254   5.124
 9212TIP3    H227601   5.831   6.109   5.082
 9213TIP3   OH227602   0.642   0.514   4.262
 9213TIP3    H127603   0.619   0.574   4.191
 9213TIP3    H227604   0.559   0.473   4.286
 9214TIP3   OH227605   2.685   2.695   0.420
 9214TIP3    H127606   2.707   2.771   0.475
 9214TIP3    H227607   2.592   2.707   0.401
 9215TIP3   OH227608   3.393  -0.022   2.479
 9215TIP3    H127609   3.348  -0.002   2.397
 9215TIP3    H227610   3.479  -0.053   2.453
 9216TIP3   OH227611   4.582   6.510   1.437
 9216TIP3    H127612   4.649   6.442   1.431
 9216TIP3    H227613   4.504   6.465   1.469
 9217TIP3   OH227614   7.018   1.262   3.618
 9217TIP3    H127615   7.112   1.280   3.621
 9217TIP3    H227616   6.983   1.329   3.559
 9218TIP3   OH227617   4.981   5.126   3.331
 9218TIP3    H127618   4.922   5.090   3.264
 9218TIP3    H227619   4.985   5.058   3.398
 9219TIP3   OH227620   3.658   5.191   3.836
 9219TIP3    H127621   3.617   5.139   3.766
 9219TIP3    H227622   3.745   5.151   3.847
 9220TIP3   OH227623   3.983   6.694   2.616
 9220TIP3    H127624   3.995   6.714   2.523
 9220TIP3    H227625   4.063   6.726   2.657
 9221TIP3   OH227626   3.439   1.439   1.912
 9221TIP3    H127627   3.469   1.446   1.821
 9221TIP3    H227628   3.517   1.418   1.962
 9222TIP3   OH227629   3.937   2.571   5.839
 9222TIP3    H127630   3.895   2.566   5.753
 9222TIP3    H227631   3.883   2.514   5.894
 9223TIP3   OH227632   4.657   5.271   2.966
 9223TIP3    H127633   4.709   5.340   2.925
 9223TIP3    H227634   4.605   5.316   3.033
 9224TIP3   OH227635   4.579   0.388   2.246
 9224TIP3    H127636   4.560   0.341   2.165
 9224TIP3    H227637   4.670   0.365   2.266
 9225TIP3   OH227638   0.351   0.326   4.817
 9225TIP3    H127639   0.283   0.393   4.817
 9225TIP3    H227640   0.403   0.344   4.894
 9226TIP3   OH227641   5.095   2.037   0.805
 9226TIP3    H127642   5.162   2.007   0.866
 9226TIP3    H227643   5.069   1.959   0.756
 9227TIP3   OH227644   4.872   6.775   2.895
 9227TIP3    H127645   4.820   6.855   2.894
 9227TIP3    H227646   4.812   6.707   2.927
 9228TIP3   OH227647   0.253   2.420   4.795
 9228TIP3    H127648   0.217   2.482   4.731
 9228TIP3    H227649   0.279   2.344   4.743
 9229TIP3   OH227650   1.477   2.974   0.181
 9229TIP3    H127651   1.500   2.895   0.229
 9229TIP3    H227652   1.445   3.034   0.248
 9230TIP3   OH227653   5.325   0.792   5.291
 9230TIP3    H127654   5.407   0.785   5.340
 9230TIP3    H227655   5.258   0.762   5.353
 9231TIP3   OH227656   4.840   0.112   0.495
 9231TIP3    H127657   4.935   0.103   0.507
 9231TIP3    H227658   4.829   0.194   0.448
 9232TIP3   OH227659   6.654   4.202   5.914
 9232TIP3    H127660   6.615   4.182   5.829
 9232TIP3    H227661   6.737   4.244   5.894
 9233TIP3   OH227662   1.191   3.030   3.958
 9233TIP3    H127663   1.256   3.081   3.910
 9233TIP3    H227664   1.243   2.976   4.018
 9234TIP3   OH227665   1.258   0.641   4.014
 9234TIP3    H127666   1.303   0.645   3.930
 9234TIP3    H227667   1.279   0.724   4.056
 9235TIP3   OH227668   2.251   6.415   0.395
 9235TIP3    H127669   2.307   6.444   0.467
 9235TIP3    H227670   2.174   6.379   0.438
 9236TIP3   OH227671   2.766   1.394   0.417
 9236TIP3    H127672   2.761   1.394   0.321
 9236TIP3    H227673   2.723   1.312   0.443
 9237TIP3   OH227674   1.108   3.132  -0.051
 9237TIP3    H127675   1.058   3.065  -0.003
 9237TIP3    H227676   1.199   3.103  -0.043
 9238TIP3   OH227677   0.422   2.818   0.859
 9238TIP3    H127678   0.514   2.846   0.860
 9238TIP3    H227679   0.424   2.728   0.890
 9239TIP3   OH227680   3.274   0.069   0.674
 9239TIP3    H127681   3.339   0.049   0.608
 9239TIP3    H227682   3.226  -0.013   0.688
 9240TIP3   OH227683   4.248   1.675   3.190
 9240TIP3    H127684   4.282   1.663   3.278
 9240TIP3    H227685   4.231   1.586   3.158
 9241TIP3   OH227686   4.648   1.842   1.735
 9241TIP3    H127687   4.607   1.796   1.662
 9241TIP3    H227688   4.738   1.809   1.738
 9242TIP3   OH227689   6.870   4.067   5.407
 9242TIP3    H127690   6.853   3.980   5.370
 9242TIP3    H227691   6.846   4.128   5.337
 9243TIP3   OH227692   3.567   3.002   2.119
 9243TIP3    H127693   3.589   2.931   2.179
 9243TIP3    H227694   3.496   3.049   2.163
 9244TIP3   OH227695   3.296   4.076   0.517
 9244TIP3    H127696   3.250   4.047   0.596
 9244TIP3    H227697   3.230   4.072   0.448
 9245TIP3   OH227698   0.556   1.787   0.443
 9245TIP3    H127699   0.526   1.709   0.397
 9245TIP3    H227700   0.646   1.800   0.413
 9246TIP3   OH227701   6.169   4.001   0.324
 9246TIP3    H127702   6.215   3.925   0.359
 9246TIP3    H227703   6.076   3.977   0.332
 9247TIP3   OH227704   7.081   2.226   3.891
 9247TIP3    H127705   7.112   2.313   3.916
 9247TIP3    H227706   7.123   2.167   3.954
 9248TIP3   OH227707   6.003   3.220   3.009
 9248TIP3    H127708   6.043   3.271   3.079
 9248TIP3    H227709   5.918   3.260   2.995
 9249TIP3   OH227710   2.393   4.483   5.688
 9249TIP3    H127711   2.363   4.443   5.606
 9249TIP3    H227712   2.439   4.563   5.660
 9250TIP3   OH227713   6.257   4.594   4.079
 9250TIP3    H127714   6.315   4.635   4.143
 9250TIP3    H227715   6.261   4.652   4.003
 9251TIP3   OH227716   3.047   0.670   4.314
 9251TIP3    H127717   2.979   0.736   4.301
 9251TIP3    H227718   3.005   0.588   4.289
 9252TIP3   OH227719   2.501   3.673   4.101
 9252TIP3    H127720   2.552   3.645   4.025
 9252TIP3    H227721   2.411   3.681   4.067
 9253TIP3   OH227722   2.315   3.352   3.929
 9253TIP3    H127723   2.222   3.373   3.931
 9253TIP3    H227724   2.344   3.376   3.841
 9254TIP3   OH227725   6.340   4.309   4.019
 9254TIP3    H127726   6.312   4.339   3.932
 9254TIP3    H227727   6.263   4.320   4.074
 9255TIP3   OH227728   2.245   6.528   3.826
 9255TIP3    H127729   2.170   6.580   3.799
 9255TIP3    H227730   2.253   6.461   3.757
 9256TIP3   OH227731   0.709   5.759   4.985
 9256TIP3    H127732   0.784   5.741   4.929
 9256TIP3    H227733   0.747   5.793   5.066
 9257TIP3   OH227734   0.028   2.295   2.526
 9257TIP3    H127735   0.099   2.319   2.586
 9257TIP3    H227736  -0.051   2.294   2.580
 9258TIP3   OH227737   4.247   3.899   1.206
 9258TIP3    H127738   4.191   3.861   1.138
 9258TIP3    H227739   4.333   3.908   1.163
 9259TIP3   OH227740   5.145   0.442   5.114
 9259TIP3    H127741   5.107   0.441   5.202
 9259TIP3    H227742   5.115   0.524   5.075
 9260TIP3   OH227743   3.622   3.073   0.987
 9260TIP3    H127744   3.684   3.115   0.928
 9260TIP3    H227745   3.580   3.145   1.033
 9261TIP3   OH227746   5.857   5.752   2.944
 9261TIP3    H127747   5.882   5.706   2.863
 9261TIP3    H227748   5.793   5.817   2.915
 9262TIP3   OH227749   3.357   0.454   1.234
 9262TIP3    H127750   3.337   0.363   1.256
 9262TIP3    H227751   3.316   0.468   1.149
 9263TIP3   OH227752   0.214   1.620   5.759
 9263TIP3    H127753   0.263   1.681   5.705
 9263TIP3    H227754   0.123   1.633   5.733
 9264TIP3   OH227755   1.776   1.879   0.966
 9264TIP3    H127756   1.845   1.849   0.907
 9264TIP3    H227757   1.751   1.801   1.015
 9265TIP3   OH227758   3.489   6.121   3.502
 9265TIP3    H127759   3.542   6.175   3.561
 9265TIP3    H227760   3.551   6.057   3.467
 9266TIP3   OH227761   0.073   0.716   0.263
 9266TIP3    H127762   0.121   0.641   0.226
 9266TIP3    H227763  -0.004   0.725   0.208
 9267TIP3   OH227764   6.940   2.805   0.408
 9267TIP3    H127765   7.019   2.780   0.456
 9267TIP3    H227766   6.867   2.776   0.464
 9268TIP3   OH227767   2.958   0.371   2.510
 9268TIP3    H127768   2.989   0.330   2.591
 9268TIP3    H227769   2.991   0.461   2.514
 9269TIP3   OH227770   6.323   2.477   3.110
 9269TIP3    H127771   6.394   2.422   3.143
 9269TIP3    H227772   6.254   2.416   3.085
 9270TIP3   OH227773   3.123   1.563   5.507
 9270TIP3    H127774   3.134   1.614   5.427
 9270TIP3    H227775   3.165   1.479   5.487
 9271TIP3   OH227776   7.126   4.158   2.773
 9271TIP3    H127777   7.058   4.109   2.821
 9271TIP3    H227778   7.090   4.246   2.765
 9272TIP3   OH227779   6.799   2.784   1.107
 9272TIP3    H127780   6.768   2.744   1.026
 9272TIP3    H227781   6.807   2.710   1.168
 9273TIP3   OH227782   1.626   2.716   3.706
 9273TIP3    H127783   1.554   2.687   3.763
 9273TIP3    H227784   1.698   2.734   3.766
 9274TIP3   OH227785   3.222   6.275   5.766
 9274TIP3    H127786   3.262   6.307   5.685
 9274TIP3    H227787   3.134   6.248   5.740
 9275TIP3   OH227788   5.212   5.190   0.233
 9275TIP3    H127789   5.199   5.250   0.307
 9275TIP3    H227790   5.303   5.204   0.208
 9276TIP3   OH227791   5.588   0.090   1.646
 9276TIP3    H127792   5.637   0.027   1.594
 9276TIP3    H227793   5.616   0.175   1.612
 9277TIP3   OH227794   6.085   0.981   4.862
 9277TIP3    H127795   6.008   0.925   4.853
 9277TIP3    H227796   6.151   0.941   4.806
 9278TIP3   OH227797   6.192   2.952   3.781
 9278TIP3    H127798   6.242   2.993   3.852
 9278TIP3    H227799   6.116   2.913   3.825
 9279TIP3   OH227800   6.731   4.524   2.929
 9279TIP3    H127801   6.659   4.473   2.966
 9279TIP3    H227802   6.688   4.591   2.876
 9280TIP3   OH227803   0.656   3.550   4.944
 9280TIP3    H127804   0.602   3.617   4.984
 9280TIP3    H227805   0.672   3.486   5.013
 9281TIP3   OH227806   2.894   4.612   3.715
 9281TIP3    H127807   2.963   4.599   3.649
 9281TIP3    H227808   2.887   4.528   3.760
 9282TIP3   OH227809   3.847   3.296   0.912
 9282TIP3    H127810   3.798   3.308   0.993
 9282TIP3    H227811   3.934   3.267   0.941
 9283TIP3   OH227812   2.035   5.173   1.325
 9283TIP3    H127813   1.949   5.168   1.367
 9283TIP3    H227814   2.096   5.143   1.393
 9284TIP3   OH227815   5.990   5.334   2.918
 9284TIP3    H127816   5.954   5.305   3.001
 9284TIP3    H227817   6.076   5.291   2.913
 9285TIP3   OH227818   1.179   5.540   3.672
 9285TIP3    H127819   1.154   5.481   3.743
 9285TIP3    H227820   1.234   5.606   3.715
 9286TIP3   OH227821   4.499   0.834   3.293
 9286TIP3    H127822   4.481   0.785   3.213
 9286TIP3    H227823   4.498   0.768   3.363
 9287TIP3   OH227824   6.139   4.552   4.752
 9287TIP3    H127825   6.129   4.457   4.750
 9287TIP3    H227826   6.105   4.581   4.667
 9288TIP3   OH227827   6.975   2.917   2.131
 9288TIP3    H127828   6.998   3.007   2.106
 9288TIP3    H227829   6.909   2.891   2.067
 9289TIP3   OH227830   3.447   1.693   3.928
 9289TIP3    H127831   3.381   1.759   3.905
 9289TIP3    H227832   3.500   1.734   3.995
 9290TIP3   OH227833   1.416   5.656   3.080
 9290TIP3    H127834   1.479   5.594   3.117
 9290TIP3    H227835   1.359   5.603   3.026
 9291TIP3   OH227836   2.860   1.558   4.770
 9291TIP3    H127837   2.910   1.639   4.762
 9291TIP3    H227838   2.871   1.515   4.685
 9292TIP3   OH227839   4.658   2.385   1.273
 9292TIP3    H127840   4.720   2.361   1.342
 9292TIP3    H227841   4.574   2.391   1.317
 9293TIP3   OH227842   5.655   3.400   0.243
 9293TIP3    H127843   5.750   3.412   0.242
 9293TIP3    H227844   5.620   3.487   0.263
 9294TIP3   OH227845   2.051   4.638   0.585
 9294TIP3    H127846   2.016   4.548   0.581
 9294TIP3    H227847   2.081   4.648   0.675
 9295TIP3   OH227848   0.084   5.469   4.704
 9295TIP3    H127849   0.159   5.520   4.734
 9295TIP3    H227850   0.101   5.380   4.736
 9296TIP3   OH227851   6.048   4.611  -0.020
 9296TIP3    H127852   6.066   4.625   0.073
 9296TIP3    H227853   5.998   4.687  -0.047
 9297TIP3   OH227854   2.756   2.846   3.238
 9297TIP3    H127855   2.706   2.844   3.156
 9297TIP3    H227856   2.835   2.897   3.216
 9298TIP3   OH227857   0.610   3.618   5.358
 9298TIP3    H127858   0.701   3.617   5.328
 9298TIP3    H227859   0.616   3.639   5.451
 9299TIP3   OH227860   3.980   5.597   2.806
 9299TIP3    H127861   3.910   5.583   2.742
 9299TIP3    H227862   4.053   5.545   2.772
 9300TIP3   OH227863   6.471   0.827   5.389
 9300TIP3    H127864   6.521   0.883   5.448
 9300TIP3    H227865   6.491   0.738   5.418
 9301TIP3   OH227866   0.735   0.708   3.254
 9301TIP3    H127867   0.720   0.773   3.323
 9301TIP3    H227868   0.724   0.757   3.172
 9302TIP3   OH227869   4.407   6.015   2.570
 9302TIP3    H127870   4.455   5.958   2.510
 9302TIP3    H227871   4.460   6.016   2.650
 9303TIP3   OH227872   3.093   5.011   4.131
 9303TIP3    H127873   3.021   4.954   4.104
 9303TIP3    H227874   3.081   5.020   4.226
 9304TIP3   OH227875   6.570   3.466   1.078
 9304TIP3    H127876   6.607   3.519   1.149
 9304TIP3    H227877   6.475   3.475   1.088
 9305TIP3   OH227878   0.714   6.292   3.849
 9305TIP3    H127879   0.718   6.242   3.930
 9305TIP3    H227880   0.737   6.230   3.780
 9306TIP3   OH227881   4.160   3.907   4.693
 9306TIP3    H127882   4.148   3.885   4.600
 9306TIP3    H227883   4.249   3.879   4.713
 9307TIP3   OH227884   3.442   4.641   5.497
 9307TIP3    H127885   3.435   4.622   5.590
 9307TIP3    H227886   3.519   4.592   5.468
 9308TIP3   OH227887   5.010   2.032   3.974
 9308TIP3    H127888   4.963   1.990   4.046
 9308TIP3    H227889   4.951   2.100   3.942
 9309TIP3   OH227890   5.642   0.670   3.243
 9309TIP3    H127891   5.729   0.658   3.205
 9309TIP3    H227892   5.653   0.740   3.307
 9310TIP3   OH227893   0.440   3.856   0.343
 9310TIP3    H127894   0.375   3.917   0.309
 9310TIP3    H227895   0.505   3.911   0.386
 9311TIP3   OH227896   3.700   5.870   1.362
 9311TIP3    H127897   3.621   5.899   1.316
 9311TIP3    H227898   3.693   5.774   1.364
 9312TIP3   OH227899   1.223   4.778   1.148
 9312TIP3    H127900   1.316   4.800   1.138
 9312TIP3    H227901   1.188   4.785   1.059
 9313TIP3   OH227902   6.262   0.029   3.638
 9313TIP3    H127903   6.289   0.111   3.596
 9313TIP3    H227904   6.194  -0.006   3.581
 9314TIP3   OH227905   2.663   6.228   3.380
 9314TIP3    H127906   2.703   6.234   3.294
 9314TIP3    H227907   2.736   6.229   3.441
 9315TIP3   OH227908   6.280   4.645   5.414
 9315TIP3    H127909   6.296   4.695   5.494
 9315TIP3    H227910   6.315   4.558   5.433
 9316TIP3   OH227911   2.452   5.994   2.320
 9316TIP3    H127912   2.538   6.032   2.303
 9316TIP3    H227913   2.469   5.919   2.375
 9317TIP3   OH227914   0.430   4.387   1.850
 9317TIP3    H127915   0.434   4.443   1.772
 9317TIP3    H227916   0.460   4.301   1.819
 9318TIP3   OH227917   3.037   5.465   1.284
 9318TIP3    H127918   2.979   5.448   1.210
 9318TIP3    H227919   3.033   5.560   1.297
 9319TIP3   OH227920   7.111   4.043   4.324
 9319TIP3    H127921   7.064   3.980   4.380
 9319TIP3    H227922   7.058   4.122   4.327
 9320TIP3   OH227923   2.297   0.375   3.548
 9320TIP3    H127924   2.360   0.416   3.489
 9320TIP3    H227925   2.271   0.295   3.502
 9321TIP3   OH227926   0.664   5.678   0.903
 9321TIP3    H127927   0.707   5.748   0.951
 9321TIP3    H227928   0.733   5.613   0.888
 9322TIP3   OH227929   3.139   5.150   2.752
 9322TIP3    H127930   3.149   5.109   2.838
 9322TIP3    H227931   3.223   5.192   2.735
 9323TIP3   OH227932   3.493   6.199   0.045
 9323TIP3    H127933   3.491   6.238   0.132
 9323TIP3    H227934   3.541   6.117   0.057
 9324TIP3   OH227935   4.801   4.452   5.150
 9324TIP3    H127936   4.724   4.408   5.188
 9324TIP3    H227937   4.793   4.435   5.056
 9325TIP3   OH227938   6.054   0.703   0.573
 9325TIP3    H127939   5.969   0.669   0.546
 9325TIP3    H227940   6.108   0.697   0.494
 9326TIP3   OH227941   3.435   3.525   5.440
 9326TIP3    H127942   3.425   3.454   5.504
 9326TIP3    H227943   3.530   3.536   5.432
 9327TIP3   OH227944   1.295   1.688   2.800
 9327TIP3    H127945   1.337   1.663   2.717
 9327TIP3    H227946   1.214   1.730   2.775
 9328TIP3   OH227947   2.424   5.579   3.674
 9328TIP3    H127948   2.346   5.543   3.632
 9328TIP3    H227949   2.452   5.509   3.734
 9329TIP3   OH227950   1.326   6.325   3.272
 9329TIP3    H127951   1.280   6.256   3.225
 9329TIP3    H227952   1.255   6.380   3.308
 9330TIP3   OH227953   3.102   4.835   1.713
 9330TIP3    H127954   3.170   4.807   1.653
 9330TIP3    H227955   3.063   4.754   1.745
 9331TIP3   OH227956   5.717   6.519   1.254
 9331TIP3    H127957   5.652   6.536   1.186
 9331TIP3    H227958   5.727   6.424   1.254
 9332TIP3   OH227959   6.866   3.600   3.741
 9332TIP3    H127960   6.818   3.545   3.680
 9332TIP3    H227961   6.859   3.688   3.705
 9333TIP3   OH227962   3.936   0.824   4.133
 9333TIP3    H127963   3.918   0.858   4.046
 9333TIP3    H227964   3.859   0.772   4.155
 9334TIP3   OH227965   0.060   2.896   0.792
 9334TIP3    H127966   0.134   2.949   0.762
 9334TIP3    H227967   0.033   2.847   0.714
 9335TIP3   OH227968   2.050   4.811   3.921
 9335TIP3    H127969   2.136   4.845   3.946
 9335TIP3    H227970   2.027   4.859   3.842
 9336TIP3   OH227971   6.827   0.500   5.127
 9336TIP3    H127972   6.876   0.455   5.196
 9336TIP3    H227973   6.804   0.430   5.065
 9337TIP3   OH227974   2.314   3.530   5.680
 9337TIP3    H127975   2.355   3.457   5.725
 9337TIP3    H227976   2.294   3.497   5.593
 9338TIP3   OH227977   0.796   0.136   1.664
 9338TIP3    H127978   0.889   0.146   1.646
 9338TIP3    H227979   0.760   0.100   1.583
 9339TIP3   OH227980   4.043   4.597   4.681
 9339TIP3    H127981   4.047   4.543   4.760
 9339TIP3    H227982   4.033   4.534   4.609
 9340TIP3   OH227983   2.059   4.065   0.062
 9340TIP3    H127984   2.111   3.985   0.055
 9340TIP3    H227985   2.007   4.068  -0.018
 9341TIP3   OH227986   0.922   6.395   3.572
 9341TIP3    H127987   1.014   6.419   3.562
 9341TIP3    H227988   0.877   6.445   3.503
 9342TIP3   OH227989   3.747   6.057   4.321
 9342TIP3    H127990   3.813   6.111   4.277
 9342TIP3    H227991   3.738   6.095   4.408
 9343TIP3   OH227992   5.464   2.247   3.537
 9343TIP3    H127993   5.414   2.173   3.570
 9343TIP3    H227994   5.418   2.324   3.570
 9344TIP3   OH227995   1.589   1.467   2.714
 9344TIP3    H127996   1.521   1.473   2.647
 9344TIP3    H227997   1.541   1.454   2.796
 9345TIP3   OH227998   6.415   4.266   3.280
 9345TIP3    H127999   6.460   4.324   3.342
 9345TIP3    H228000   6.484   4.237   3.220
 9346TIP3   OH228001   3.076   3.339   0.194
 9346TIP3    H128002   3.161   3.302   0.218
 9346TIP3    H228003   3.096   3.413   0.138
 9347TIP3   OH228004   4.008   1.681   1.199
 9347TIP3    H128005   3.961   1.762   1.219
 9347TIP3    H228006   4.027   1.642   1.284
 9348TIP3   OH228007   2.186   5.522   5.726
 9348TIP3    H128008   2.233   5.459   5.781
 9348TIP3    H228009   2.186   5.482   5.639
 9349TIP3   OH228010   1.538   4.359   2.634
 9349TIP3    H128011   1.550   4.269   2.602
 9349TIP3    H228012   1.445   4.363   2.658
 9350TIP3   OH228013   6.035   6.671   3.637
 9350TIP3    H128014   6.090   6.619   3.577
 9350TIP3    H228015   6.033   6.758   3.598
 9351TIP3   OH228016   1.117   2.178   5.441
 9351TIP3    H128017   1.071   2.119   5.500
 9351TIP3    H228018   1.048   2.229   5.399
 9352TIP3   OH228019   0.124   5.885   2.402
 9352TIP3    H128020   0.133   5.911   2.311
 9352TIP3    H228021   0.179   5.807   2.410
 9353TIP3   OH228022   6.800   5.886   0.282
 9353TIP3    H128023   6.707   5.888   0.258
 9353TIP3    H228024   6.811   5.961   0.340
 9354TIP3   OH228025   6.317   6.251   0.804
 9354TIP3    H128026   6.261   6.180   0.837
 9354TIP3    H228027   6.405   6.213   0.803
 9355TIP3   OH228028   2.326   6.167   3.220
 9355TIP3    H128029   2.313   6.163   3.125
 9355TIP3    H228030   2.288   6.086   3.253
 9356TIP3   OH228031   5.342   5.944   4.246
 9356TIP3    H128032   5.309   5.904   4.165
 9356TIP3    H228033   5.437   5.942   4.236
 9357TIP3   OH228034   1.798   0.101   5.223
 9357TIP3    H128035   1.818   0.126   5.313
 9357TIP3    H228036   1.746   0.173   5.189
 9358TIP3   OH228037   7.110   6.743   5.547
 9358TIP3    H128038   7.092   6.830   5.511
 9358TIP3    H228039   7.138   6.760   5.637
 9359TIP3   OH228040   6.945   5.024   3.244
 9359TIP3    H128041   7.030   5.069   3.247
 9359TIP3    H228042   6.967   4.932   3.230
 9360TIP3   OH228043   1.725   1.239   4.031
 9360TIP3    H128044   1.657   1.293   3.990
 9360TIP3    H228045   1.733   1.275   4.120
 9361TIP3   OH228046   3.030   0.814   1.406
 9361TIP3    H128047   3.044   0.732   1.454
 9361TIP3    H228048   2.936   0.831   1.414
 9362TIP3   OH228049   6.195   4.346   1.642
 9362TIP3    H128050   6.113   4.389   1.666
 9362TIP3    H228051   6.185   4.325   1.549
 9363TIP3   OH228052   6.707   1.551   1.265
 9363TIP3    H128053   6.710   1.573   1.172
 9363TIP3    H228054   6.619   1.517   1.279
 9364TIP3   OH228055   0.217   6.511   0.186
 9364TIP3    H128056   0.161   6.457   0.241
 9364TIP3    H228057   0.256   6.450   0.123
 9365TIP3   OH228058   0.384   4.603   3.451
 9365TIP3    H128059   0.411   4.694   3.438
 9365TIP3    H228060   0.449   4.552   3.402
 9366TIP3   OH228061   0.662   5.790   1.377
 9366TIP3    H128062   0.688   5.877   1.407
 9366TIP3    H228063   0.567   5.797   1.364
 9367TIP3   OH228064   5.473   2.108   5.129
 9367TIP3    H128065   5.462   2.202   5.140
 9367TIP3    H228066   5.480   2.095   5.035
 9368TIP3   OH228067   3.303   0.097   3.643
 9368TIP3    H128068   3.278   0.187   3.661
 9368TIP3    H228069   3.255   0.045   3.709
 9369TIP3   OH228070   0.414   0.195   1.251
 9369TIP3    H128071   0.377   0.153   1.173
 9369TIP3    H228072   0.452   0.123   1.301
 9370TIP3   OH228073   1.376   0.636   2.851
 9370TIP3    H128074   1.360   0.661   2.760
 9370TIP3    H228075   1.360   0.542   2.854
 9371TIP3   OH228076   1.220   1.581   3.319
 9371TIP3    H128077   1.183   1.508   3.370
 9371TIP3    H228078   1.239   1.648   3.384
 9372TIP3   OH228079   5.080   6.219   0.679
 9372TIP3    H128080   5.069   6.242   0.587
 9372TIP3    H228081   5.152   6.156   0.679
 9373TIP3   OH228082   7.154   4.809   0.551
 9373TIP3    H128083   7.135   4.720   0.525
 9373TIP3    H228084   7.222   4.838   0.489
 9374TIP3   OH228085   6.961   0.335   3.691
 9374TIP3    H128086   6.940   0.242   3.697
 9374TIP3    H228087   6.876   0.378   3.680
 9375TIP3   OH228088   4.794   1.314   0.800
 9375TIP3    H128089   4.714   1.346   0.758
 9375TIP3    H228090   4.773   1.225   0.827
 9376TIP3   OH228091  -0.032   3.035   5.564
 9376TIP3    H128092  -0.111   3.025   5.617
 9376TIP3    H228093   0.019   2.956   5.581
 9377TIP3   OH228094   5.912   6.592   4.711
 9377TIP3    H128095   5.892   6.662   4.648
 9377TIP3    H228096   6.004   6.572   4.696
 9378TIP3   OH228097   6.698   6.518   0.392
 9378TIP3    H128098   6.640   6.445   0.416
 9378TIP3    H228099   6.646   6.573   0.335
 9379TIP3   OH228100   4.050   0.187   4.249
 9379TIP3    H128101   3.997   0.118   4.209
 9379TIP3    H228102   4.127   0.142   4.283
 9380TIP3   OH228103   2.350   6.357   5.647
 9380TIP3    H128104   2.308   6.349   5.561
 9380TIP3    H228105   2.438   6.322   5.634
 9381TIP3   OH228106   1.184   3.168   4.940
 9381TIP3    H128107   1.263   3.221   4.928
 9381TIP3    H228108   1.182   3.148   5.033
 9382TIP3   OH228109   2.392   2.390   2.080
 9382TIP3    H128110   2.356   2.359   1.997
 9382TIP3    H228111   2.379   2.317   2.140
 9383TIP3   OH228112   4.345   2.456   3.575
 9383TIP3    H128113   4.428   2.502   3.564
 9383TIP3    H228114   4.292   2.514   3.629
 9384TIP3   OH228115   3.480   5.499   4.282
 9384TIP3    H128116   3.476   5.578   4.228
 9384TIP3    H228117   3.408   5.444   4.251
 9385TIP3   OH228118   4.206   4.813   3.699
 9385TIP3    H128119   4.280   4.830   3.758
 9385TIP3    H228120   4.130   4.814   3.757
 9386TIP3   OH228121   1.672   1.851   5.098
 9386TIP3    H128122   1.654   1.915   5.029
 9386TIP3    H228123   1.588   1.806   5.111
 9387TIP3   OH228124   6.382   1.139   2.020
 9387TIP3    H128125   6.368   1.210   1.958
 9387TIP3    H228126   6.411   1.065   1.966
 9388TIP3   OH228127   2.853   1.613   5.435
 9388TIP3    H128128   2.796   1.544   5.401
 9388TIP3    H228129   2.941   1.577   5.429
 9389TIP3   OH228130   2.643   3.174   4.641
 9389TIP3    H128131   2.628   3.218   4.557
 9389TIP3    H228132   2.654   3.245   4.704
 9390TIP3   OH228133   5.630   1.554   3.140
 9390TIP3    H128134   5.637   1.460   3.162
 9390TIP3    H228135   5.718   1.578   3.110
 9391TIP3   OH228136   3.555   2.639   2.976
 9391TIP3    H128137   3.528   2.717   2.928
 9391TIP3    H228138   3.640   2.615   2.939
 9392TIP3   OH228139   5.918   4.683   4.572
 9392TIP3    H128140   5.922   4.700   4.477
 9392TIP3    H228141   5.861   4.752   4.606
 9393TIP3   OH228142   0.138   4.362   1.399
 9393TIP3    H128143   0.196   4.369   1.475
 9393TIP3    H228144   0.055   4.330   1.434
 9394TIP3   OH228145   1.862   1.552   3.840
 9394TIP3    H128146   1.890   1.612   3.909
 9394TIP3    H228147   1.930   1.484   3.838
 9395TIP3   OH228148   4.123   1.005   4.310
 9395TIP3    H128149   4.049   0.964   4.267
 9395TIP3    H228150   4.174   1.044   4.239
 9396TIP3   OH228151   6.948   4.801   3.006
 9396TIP3    H128152   6.940   4.721   2.954
 9396TIP3    H228153   7.009   4.778   3.076
 9397TIP3   OH228154   5.306   6.080   3.682
 9397TIP3    H128155   5.302   6.139   3.606
 9397TIP3    H228156   5.398   6.053   3.685
 9398TIP3   OH228157   4.842   0.307   5.329
 9398TIP3    H128158   4.894   0.227   5.323
 9398TIP3    H228159   4.906   0.377   5.343
 9399TIP3   OH228160   6.246   5.649   3.374
 9399TIP3    H128161   6.169   5.619   3.326
 9399TIP3    H228162   6.227   5.740   3.395
 9400TIP3   OH228163   4.048   3.869   3.300
 9400TIP3    H128164   4.053   3.827   3.214
 9400TIP3    H228165   4.105   3.817   3.356
 9401TIP3   OH228166   6.145   0.497   0.772
 9401TIP3    H128167   6.224   0.484   0.824
 9401TIP3    H228168   6.169   0.565   0.709
 9402TIP3   OH228169   3.274   1.978   5.509
 9402TIP3    H128170   3.344   2.017   5.457
 9402TIP3    H228171   3.220   1.929   5.446
 9403TIP3   OH228172   5.126   0.701   1.035
 9403TIP3    H128173   5.221   0.692   1.028
 9403TIP3    H228174   5.096   0.614   1.063
 9404TIP3   OH228175   0.026   4.283   3.428
 9404TIP3    H128176   0.099   4.309   3.484
 9404TIP3    H228177   0.007   4.192   3.453
 9405TIP3   OH228178   4.602   1.266   2.195
 9405TIP3    H128179   4.564   1.236   2.112
 9405TIP3    H228180   4.589   1.361   2.194
 9406TIP3   OH228181   3.539   0.871   2.899
 9406TIP3    H128182   3.516   0.926   2.974
 9406TIP3    H228183   3.519   0.925   2.822
 9407TIP3   OH228184   5.547   3.191   0.128
 9407TIP3    H128185   5.626   3.143   0.155
 9407TIP3    H228186   5.569   3.283   0.140
 9408TIP3   OH228187   4.933   2.733   1.039
 9408TIP3    H128188   4.872   2.677   0.990
 9408TIP3    H228189   5.006   2.747   0.978
 9409TIP3   OH228190   2.068   0.354   1.987
 9409TIP3    H128191   2.138   0.419   1.978
 9409TIP3    H228192   2.112   0.270   1.973
 9410TIP3   OH228193   2.649   5.777   3.390
 9410TIP3    H128194   2.724   5.836   3.384
 9410TIP3    H228195   2.586   5.824   3.444
 9411TIP3   OH228196   5.004   0.701   1.410
 9411TIP3    H128197   4.995   0.606   1.404
 9411TIP3    H228198   4.931   0.729   1.465
 9412TIP3   OH228199   0.924   1.744   5.570
 9412TIP3    H128200   0.949   1.652   5.565
 9412TIP3    H228201   0.829   1.744   5.566
 9413TIP3   OH228202   1.694   2.368   3.494
 9413TIP3    H128203   1.728   2.356   3.405
 9413TIP3    H228204   1.766   2.411   3.541
 9414TIP3   OH228205   4.478   3.565   2.009
 9414TIP3    H128206   4.522   3.591   2.090
 9414TIP3    H228207   4.390   3.542   2.035
 9415TIP3   OH228208   5.288   1.380   1.532
 9415TIP3    H128209   5.369   1.427   1.512
 9415TIP3    H228210   5.233   1.445   1.575
 9416TIP3   OH228211   2.117   0.608   2.237
 9416TIP3    H128212   2.040   0.635   2.187
 9416TIP3    H228213   2.159   0.541   2.183
 9417TIP3   OH228214   1.478   5.228   2.277
 9417TIP3    H128215   1.413   5.183   2.224
 9417TIP3    H228216   1.499   5.166   2.347
 9418TIP3   OH228217   1.800   2.919   5.404
 9418TIP3    H128218   1.768   2.829   5.401
 9418TIP3    H228219   1.866   2.918   5.473
 9419TIP3   OH228220   1.739   4.581   2.852
 9419TIP3    H128221   1.643   4.584   2.857
 9419TIP3    H228222   1.760   4.488   2.851
 9420TIP3   OH228223   3.074   2.387   3.765
 9420TIP3    H128224   3.124   2.443   3.824
 9420TIP3    H228225   3.139   2.336   3.718
 9421TIP3   OH228226   1.187   0.556   2.221
 9421TIP3    H128227   1.243   0.499   2.168
 9421TIP3    H228228   1.204   0.528   2.311
 9422TIP3   OH228229   3.134   1.575   4.906
 9422TIP3    H128230   3.106   1.509   4.844
 9422TIP3    H228231   3.078   1.651   4.887
 9423TIP3   OH228232   3.240   3.528   1.989
 9423TIP3    H128233   3.293   3.452   1.963
 9423TIP3    H228234   3.244   3.587   1.914
 9424TIP3   OH228235   4.353   4.737   1.503
 9424TIP3    H128236   4.346   4.832   1.513
 9424TIP3    H228237   4.416   4.724   1.432
 9425TIP3   OH228238   2.804   5.671   0.263
 9425TIP3    H128239   2.840   5.595   0.217
 9425TIP3    H228240   2.719   5.686   0.220
 9426TIP3   OH228241   3.673   6.644   5.234
 9426TIP3    H128242   3.754   6.602   5.264
 9426TIP3    H228243   3.603   6.586   5.264
 9427TIP3   OH228244   1.946   0.018   2.654
 9427TIP3    H128245   1.992   0.081   2.598
 9427TIP3    H228246   1.875  -0.014   2.598
 9428TIP3   OH228247   1.487   3.394   5.652
 9428TIP3    H128248   1.458   3.358   5.735
 9428TIP3    H228249   1.411   3.443   5.620
 9429TIP3   OH228250   6.179   3.593   2.147
 9429TIP3    H128251   6.106   3.649   2.174
 9429TIP3    H228252   6.161   3.509   2.189
 9430TIP3   OH228253   6.184   0.603   2.648
 9430TIP3    H128254   6.122   0.660   2.694
 9430TIP3    H228255   6.169   0.516   2.686
 9431TIP3   OH228256   6.870   5.776   3.928
 9431TIP3    H128257   6.916   5.823   3.998
 9431TIP3    H228258   6.938   5.726   3.884
 9432TIP3   OH228259   4.754   3.388   3.056
 9432TIP3    H128260   4.824   3.323   3.055
 9432TIP3    H228261   4.790   3.462   3.007
 9433TIP3   OH228262   1.801   6.083   5.398
 9433TIP3    H128263   1.822   6.016   5.333
 9433TIP3    H228264   1.811   6.166   5.351
 9434TIP3   OH228265   5.800   3.529   2.831
 9434TIP3    H128266   5.840   3.611   2.860
 9434TIP3    H228267   5.819   3.466   2.900
 9435TIP3   OH228268   1.418   0.881   5.172
 9435TIP3    H128269   1.472   0.908   5.098
 9435TIP3    H228270   1.452   0.930   5.246
 9436TIP3   OH228271   4.382   2.179   1.027
 9436TIP3    H128272   4.430   2.258   1.002
 9436TIP3    H228273   4.310   2.173   0.964
 9437TIP3   OH228274   3.262   4.342   3.701
 9437TIP3    H128275   3.332   4.279   3.718
 9437TIP3    H228276   3.225   4.314   3.617
 9438TIP3   OH228277   4.118   2.047   2.364
 9438TIP3    H128278   4.193   2.106   2.377
 9438TIP3    H228279   4.107   2.045   2.269
 9439TIP3   OH228280   0.007   2.315   1.837
 9439TIP3    H128281   0.075   2.342   1.899
 9439TIP3    H228282   0.001   2.388   1.775
 9440TIP3   OH228283   4.134   1.867   4.805
 9440TIP3    H128284   4.098   1.919   4.733
 9440TIP3    H228285   4.212   1.826   4.768
 9441TIP3   OH228286   5.189   4.467   2.231
 9441TIP3    H128287   5.162   4.557   2.253
 9441TIP3    H228288   5.272   4.455   2.275
 9442TIP3   OH228289   3.029   4.807   5.319
 9442TIP3    H128290   3.118   4.772   5.316
 9442TIP3    H228291   3.031   4.871   5.390
 9443TIP3   OH228292   4.187   5.077   1.263
 9443TIP3    H128293   4.145   5.077   1.176
 9443TIP3    H228294   4.276   5.047   1.246
 9444TIP3   OH228295   3.834   4.244   4.677
 9444TIP3    H128296   3.908   4.229   4.736
 9444TIP3    H228297   3.802   4.331   4.701
 9445TIP3   OH228298   6.917   3.234   4.257
 9445TIP3    H128299   6.993   3.183   4.285
 9445TIP3    H228300   6.941   3.325   4.272
 9446TIP3   OH228301   6.287   1.107   1.362
 9446TIP3    H128302   6.192   1.102   1.351
 9446TIP3    H228303   6.301   1.093   1.455
 9447TIP3   OH228304   6.787   5.622   3.573
 9447TIP3    H128305   6.784   5.526   3.579
 9447TIP3    H228306   6.731   5.643   3.498
 9448TIP3   OH228307   7.033   2.681   3.814
 9448TIP3    H128308   6.988   2.744   3.870
 9448TIP3    H228309   6.982   2.600   3.821
 9449TIP3   OH228310   5.306   2.011   3.981
 9449TIP3    H128311   5.321   1.942   4.046
 9449TIP3    H228312   5.211   2.022   3.979
 9450TIP3   OH228313   4.865   3.348   1.078
 9450TIP3    H128314   4.835   3.439   1.082
 9450TIP3    H228315   4.940   3.351   1.019
 9451TIP3   OH228316   7.038   5.528   1.849
 9451TIP3    H128317   7.091   5.488   1.780
 9451TIP3    H228318   7.099   5.582   1.899
 9452TIP3   OH228319   4.451   3.192   3.954
 9452TIP3    H128320   4.536   3.161   3.924
 9452TIP3    H228321   4.470   3.270   4.006
 9453TIP3   OH228322   5.213   4.065   3.539
 9453TIP3    H128323   5.279   4.133   3.554
 9453TIP3    H228324   5.264   3.990   3.508
 9454TIP3   OH228325   0.626   3.521   3.301
 9454TIP3    H128326   0.642   3.455   3.234
 9454TIP3    H228327   0.562   3.580   3.262
 9455TIP3   OH228328   4.821   1.081   5.113
 9455TIP3    H128329   4.898   1.043   5.071
 9455TIP3    H228330   4.834   1.066   5.206
 9456TIP3   OH228331   0.177   0.719   4.460
 9456TIP3    H128332   0.179   0.624   4.455
 9456TIP3    H228333   0.163   0.747   4.369
 9457TIP3   OH228334   0.800   3.628   3.779
 9457TIP3    H128335   0.848   3.546   3.765
 9457TIP3    H228336   0.833   3.688   3.712
 9458TIP3   OH228337   2.246   4.190   5.234
 9458TIP3    H128338   2.248   4.207   5.140
 9458TIP3    H228339   2.170   4.134   5.247
 9459TIP3   OH228340   4.749   4.616   2.150
 9459TIP3    H128341   4.781   4.534   2.187
 9459TIP3    H228342   4.787   4.684   2.205
 9460TIP3   OH228343   3.399   3.215   3.347
 9460TIP3    H128344   3.446   3.146   3.395
 9460TIP3    H228345   3.468   3.269   3.309
 9461TIP3   OH228346   0.826   1.846   0.353
 9461TIP3    H128347   0.899   1.837   0.414
 9461TIP3    H228348   0.867   1.841   0.266
 9462TIP3   OH228349   2.388   3.732   0.261
 9462TIP3    H128350   2.338   3.712   0.340
 9462TIP3    H228351   2.479   3.726   0.288
 9463TIP3   OH228352   6.326   3.710   4.007
 9463TIP3    H128353   6.396   3.724   3.944
 9463TIP3    H228354   6.245   3.723   3.957
 9464TIP3   OH228355   2.922   1.658   4.504
 9464TIP3    H128356   2.900   1.751   4.506
 9464TIP3    H228357   3.017   1.656   4.494
 9465TIP3   OH228358   6.658   2.431   1.611
 9465TIP3    H128359   6.686   2.461   1.698
 9465TIP3    H228360   6.674   2.506   1.553
 9466TIP3   OH228361   1.417   4.072   4.243
 9466TIP3    H128362   1.491   4.037   4.194
 9466TIP3    H228363   1.441   4.163   4.262
 9467TIP3   OH228364   4.655   3.470   4.445
 9467TIP3    H128365   4.674   3.499   4.534
 9467TIP3    H228366   4.563   3.442   4.448
 9468TIP3   OH228367   2.836   1.076   5.381
 9468TIP3    H128368   2.796   1.002   5.427
 9468TIP3    H228369   2.875   1.036   5.303
 9469TIP3   OH228370   1.646   2.672   3.275
 9469TIP3    H128371   1.593   2.751   3.264
 9469TIP3    H228372   1.604   2.624   3.346
 9470TIP3   OH228373   6.066   3.558   0.450
 9470TIP3    H128374   6.020   3.619   0.508
 9470TIP3    H228375   6.131   3.611   0.405
 9471TIP3   OH228376   2.165   6.837   0.165
 9471TIP3    H128377   2.210   6.752   0.167
 9471TIP3    H228378   2.168   6.863   0.073
 9472TIP3   OH228379   5.094   5.781   1.902
 9472TIP3    H128380   5.073   5.768   1.994
 9472TIP3    H228381   5.188   5.799   1.901
 9473TIP3   OH228382   1.023   3.293   2.131
 9473TIP3    H128383   1.043   3.300   2.038
 9473TIP3    H228384   0.929   3.308   2.137
 9474TIP3   OH228385   0.521   4.648   1.201
 9474TIP3    H128386   0.448   4.621   1.256
 9474TIP3    H228387   0.542   4.570   1.150
 9475TIP3   OH228388   0.272   2.072   3.448
 9475TIP3    H128389   0.285   2.098   3.357
 9475TIP3    H228390   0.314   2.141   3.499
 9476TIP3   OH228391   6.575   0.096   1.127
 9476TIP3    H128392   6.637   0.029   1.156
 9476TIP3    H228393   6.624   0.150   1.066
 9477TIP3   OH228394   3.691   2.954   2.680
 9477TIP3    H128395   3.757   2.971   2.747
 9477TIP3    H228396   3.627   2.897   2.723
 9478TIP3   OH228397   4.082   6.284   4.000
 9478TIP3    H128398   4.133   6.360   3.971
 9478TIP3    H228399   4.008   6.282   3.940
 9479TIP3   OH228400   2.147   6.200   0.883
 9479TIP3    H128401   2.233   6.200   0.926
 9479TIP3    H228402   2.165   6.227   0.793
 9480TIP3   OH228403   0.726   5.809   0.585
 9480TIP3    H128404   0.721   5.770   0.673
 9480TIP3    H228405   0.720   5.734   0.526
 9481TIP3   OH228406   7.143   3.634   0.643
 9481TIP3    H128407   7.088   3.708   0.615
 9481TIP3    H228408   7.107   3.559   0.596
 9482TIP3   OH228409   5.749   2.425   4.820
 9482TIP3    H128410   5.694   2.499   4.797
 9482TIP3    H228411   5.742   2.365   4.746
 9483TIP3   OH228412   3.541   0.136   2.681
 9483TIP3    H128413   3.462   0.115   2.630
 9483TIP3    H228414   3.511   0.197   2.748
 9484TIP3   OH228415   5.886   2.573   1.064
 9484TIP3    H128416   5.924   2.655   1.032
 9484TIP3    H228417   5.798   2.571   1.026
 9485TIP3   OH228418   0.825   1.704   2.238
 9485TIP3    H128419   0.752   1.678   2.294
 9485TIP3    H228420   0.797   1.680   2.149
 9486TIP3   OH228421   7.226   4.390   5.818
 9486TIP3    H128422   7.179   4.398   5.901
 9486TIP3    H228423   7.181   4.450   5.759
 9487TIP3   OH228424   1.451   6.351   4.266
 9487TIP3    H128425   1.476   6.259   4.276
 9487TIP3    H228426   1.356   6.352   4.283
 9488TIP3   OH228427   3.670   1.397   2.102
 9488TIP3    H128428   3.682   1.465   2.169
 9488TIP3    H228429   3.749   1.402   2.049
 9489TIP3   OH228430   1.348   3.481   0.454
 9489TIP3    H128431   1.375   3.457   0.365
 9489TIP3    H228432   1.273   3.540   0.442
 9490TIP3   OH228433   4.939   2.736   2.914
 9490TIP3    H128434   4.867   2.674   2.906
 9490TIP3    H228435   4.910   2.799   2.980
 9491TIP3   OH228436   3.018   1.705   4.171
 9491TIP3    H128437   3.006   1.717   4.077
 9491TIP3    H228438   3.085   1.637   4.178
 9492TIP3   OH228439   5.490   6.452   3.532
 9492TIP3    H128440   5.539   6.531   3.553
 9492TIP3    H228441   5.450   6.426   3.615
 9493TIP3   OH228442   1.243   1.908   1.725
 9493TIP3    H128443   1.251   1.962   1.803
 9493TIP3    H228444   1.326   1.920   1.679
 9494TIP3   OH228445   1.805   1.177   3.302
 9494TIP3    H128446   1.715   1.176   3.335
 9494TIP3    H228447   1.802   1.233   3.224
 9495TIP3   OH228448   3.051   0.478   2.867
 9495TIP3    H128449   3.095   0.420   2.930
 9495TIP3    H228450   3.017   0.550   2.921
 9496TIP3   OH228451   6.078   2.623   0.563
 9496TIP3    H128452   6.127   2.581   0.634
 9496TIP3    H228453   6.061   2.553   0.500
 9497TIP3   OH228454   5.094   6.209   4.514
 9497TIP3    H128455   5.041   6.132   4.496
 9497TIP3    H228456   5.173   6.197   4.461
 9498TIP3   OH228457   1.832   1.372   5.231
 9498TIP3    H128458   1.908   1.330   5.189
 9498TIP3    H228459   1.759   1.314   5.209
 9499TIP3   OH228460   2.551   0.657   2.671
 9499TIP3    H128461   2.457   0.646   2.686
 9499TIP3    H228462   2.592   0.632   2.754
 9500TIP3   OH228463   1.350   4.835   5.341
 9500TIP3    H128464   1.271   4.821   5.393
 9500TIP3    H228465   1.328   4.906   5.282
 9501TIP3   OH228466   5.380   4.078   0.243
 9501TIP3    H128467   5.425   4.006   0.197
 9501TIP3    H228468   5.323   4.034   0.306
 9502TIP3   OH228469   6.040   2.379   1.502
 9502TIP3    H128470   6.107   2.369   1.570
 9502TIP3    H228471   6.026   2.290   1.469
 9503TIP3   OH228472   1.622   2.057   4.860
 9503TIP3    H128473   1.585   2.088   4.777
 9503TIP3    H228474   1.547   2.051   4.919
 9504TIP3   OH228475   6.956   0.314   4.294
 9504TIP3    H128476   7.036   0.271   4.265
 9504TIP3    H228477   6.931   0.268   4.373
 9505TIP3   OH228478   2.133   3.440   0.683
 9505TIP3    H128479   2.171   3.430   0.770
 9505TIP3    H228480   2.075   3.364   0.674
 9506TIP3   OH228481   3.767   6.301   0.803
 9506TIP3    H128482   3.739   6.219   0.844
 9506TIP3    H228483   3.687   6.338   0.766
 9507TIP3   OH228484   1.447   3.496   4.799
 9507TIP3    H128485   1.467   3.579   4.842
 9507TIP3    H228486   1.352   3.499   4.784
 9508TIP3   OH228487   6.872   4.082   1.490
 9508TIP3    H128488   6.782   4.115   1.494
 9508TIP3    H228489   6.892   4.055   1.580
 9509TIP3   OH228490   5.562   5.708   4.495
 9509TIP3    H128491   5.468   5.691   4.508
 9509TIP3    H228492   5.571   5.802   4.509
 9510TIP3   OH228493   6.760   5.250   5.300
 9510TIP3    H128494   6.764   5.314   5.229
 9510TIP3    H228495   6.669   5.252   5.330
 9511TIP3   OH228496   2.441   4.902   1.908
 9511TIP3    H128497   2.483   4.982   1.876
 9511TIP3    H228498   2.400   4.928   1.990
 9512TIP3   OH228499   3.184   5.213   0.638
 9512TIP3    H128500   3.185   5.128   0.593
 9512TIP3    H228501   3.122   5.266   0.587
 9513TIP3   OH228502   3.637   2.452   1.110
 9513TIP3    H128503   3.642   2.365   1.149
 9513TIP3    H228504   3.544   2.473   1.110
 9514TIP3   OH228505   0.757   2.937   3.160
 9514TIP3    H128506   0.698   2.980   3.222
 9514TIP3    H228507   0.823   3.003   3.139
 9515TIP3   OH228508   3.716   2.819   1.396
 9515TIP3    H128509   3.689   2.727   1.392
 9515TIP3    H228510   3.684   2.857   1.315
 9516TIP3   OH228511   2.520   1.723   2.597
 9516TIP3    H128512   2.447   1.723   2.535
 9516TIP3    H228513   2.489   1.776   2.670
 9517TIP3   OH228514   2.175   2.314   5.057
 9517TIP3    H128515   2.238   2.252   5.021
 9517TIP3    H228516   2.160   2.377   4.986
 9518TIP3   OH228517   2.171   1.213   3.216
 9518TIP3    H128518   2.142   1.208   3.125
 9518TIP3    H228519   2.130   1.138   3.259
 9519TIP3   OH228520   5.623   4.126   5.813
 9519TIP3    H128521   5.668   4.076   5.881
 9519TIP3    H228522   5.693   4.170   5.765
 9520TIP3   OH228523   0.278   0.669   3.796
 9520TIP3    H128524   0.372   0.663   3.810
 9520TIP3    H228525   0.240   0.657   3.883
 9521TIP3   OH228526  -0.050   5.045   4.828
 9521TIP3    H128527  -0.061   4.950   4.828
 9521TIP3    H228528  -0.022   5.066   4.917
 9522TIP3   OH228529   1.203   2.480   4.990
 9522TIP3    H128530   1.264   2.442   5.053
 9522TIP3    H228531   1.248   2.557   4.955
 9523TIP3   OH228532   6.803   6.313   1.575
 9523TIP3    H128533   6.826   6.283   1.487
 9523TIP3    H228534   6.721   6.360   1.564
 9524TIP3   OH228535   1.578   4.672   0.719
 9524TIP3    H128536   1.501   4.717   0.753
 9524TIP3    H228537   1.611   4.730   0.650
 9525TIP3   OH228538   1.173   0.523   1.621
 9525TIP3    H128539   1.118   0.507   1.697
 9525TIP3    H228540   1.116   0.506   1.546
 9526TIP3   OH228541   3.078   4.392   3.009
 9526TIP3    H128542   3.109   4.373   2.920
 9526TIP3    H228543   3.145   4.448   3.047
 9527TIP3   OH228544   6.666   5.571   2.041
 9527TIP3    H128545   6.719   5.493   2.048
 9527TIP3    H228546   6.576   5.539   2.032
 9528TIP3   OH228547   4.348   3.086   5.435
 9528TIP3    H128548   4.275   3.053   5.488
 9528TIP3    H228549   4.424   3.038   5.466
 9529TIP3   OH228550   0.097   0.983   3.018
 9529TIP3    H128551   0.033   0.964   2.949
 9529TIP3    H228552   0.061   0.941   3.096
 9530TIP3   OH228553   4.341   4.249   4.015
 9530TIP3    H128554   4.314   4.223   3.927
 9530TIP3    H228555   4.427   4.288   4.002
 9531TIP3   OH228556   3.553   4.634   3.285
 9531TIP3    H128557   3.473   4.618   3.235
 9531TIP3    H228558   3.525   4.691   3.357
 9532TIP3   OH228559   3.667   5.319   1.985
 9532TIP3    H128560   3.659   5.229   1.953
 9532TIP3    H228561   3.758   5.327   2.013
 9533TIP3   OH228562   6.126   5.362   5.782
 9533TIP3    H128563   6.066   5.430   5.814
 9533TIP3    H228564   6.213   5.402   5.788
 9534TIP3   OH228565   6.791   4.843   0.089
 9534TIP3    H128566   6.766   4.930   0.060
 9534TIP3    H228567   6.807   4.853   0.183
 9535TIP3   OH228568   2.317   4.950   3.359
 9535TIP3    H128569   2.408   4.980   3.359
 9535TIP3    H228570   2.298   4.930   3.450
 9536TIP3   OH228571   1.929   1.657   4.654
 9536TIP3    H128572   1.970   1.719   4.593
 9536TIP3    H228573   1.862   1.709   4.699
 9537TIP3   OH228574   4.725   1.151   1.538
 9537TIP3    H128575   4.747   1.226   1.594
 9537TIP3    H228576   4.807   1.131   1.493
 9538TIP3   OH228577   4.496   5.521   1.857
 9538TIP3    H128578   4.463   5.610   1.853
 9538TIP3    H228579   4.488   5.496   1.949
 9539TIP3   OH228580   2.911   6.229   0.073
 9539TIP3    H128581   3.003   6.249   0.087
 9539TIP3    H228582   2.886   6.179   0.151
 9540TIP3   OH228583   2.016   2.552   2.536
 9540TIP3    H128584   2.088   2.505   2.495
 9540TIP3    H228585   1.937   2.510   2.501
 9541TIP3   OH228586   6.134   6.419   4.734
 9541TIP3    H128587   6.220   6.442   4.698
 9541TIP3    H228588   6.152   6.349   4.796
 9542TIP3   OH228589   3.924   4.328   3.297
 9542TIP3    H128590   3.909   4.363   3.385
 9542TIP3    H228591   3.839   4.338   3.253
 9543TIP3   OH228592   0.843   4.637   5.009
 9543TIP3    H128593   0.785   4.636   5.085
 9543TIP3    H228594   0.791   4.598   4.938
 9544TIP3   OH228595   6.401   6.511   1.083
 9544TIP3    H128596   6.314   6.471   1.073
 9544TIP3    H228597   6.456   6.441   1.117
 9545TIP3   OH228598   1.694   3.148   4.855
 9545TIP3    H128599   1.679   3.066   4.807
 9545TIP3    H228600   1.769   3.130   4.911
 9546TIP3   OH228601   3.923   6.237   1.114
 9546TIP3    H128602   3.953   6.188   1.037
 9546TIP3    H228603   3.937   6.178   1.187
 9547TIP3   OH228604   6.712   2.666   0.861
 9547TIP3    H128605   6.631   2.693   0.818
 9547TIP3    H228606   6.781   2.714   0.814
 9548TIP3   OH228607   6.108   4.484   5.254
 9548TIP3    H128608   6.012   4.480   5.258
 9548TIP3    H228609   6.131   4.557   5.312
 9549TIP3   OH228610   0.150   5.899   1.136
 9549TIP3    H128611   0.113   5.977   1.177
 9549TIP3    H228612   0.184   5.929   1.052
 9550TIP3   OH228613   0.675   5.247   2.799
 9550TIP3    H128614   0.653   5.212   2.885
 9550TIP3    H228615   0.603   5.220   2.742
 9551TIP3   OH228616   3.404   6.660   1.237
 9551TIP3    H128617   3.321   6.650   1.191
 9551TIP3    H228618   3.467   6.615   1.181
 9552TIP3   OH228619   2.774   0.653   5.031
 9552TIP3    H128620   2.867   0.633   5.040
 9552TIP3    H228621   2.769   0.713   4.957
 9553TIP3   OH228622   6.469   1.076   2.370
 9553TIP3    H128623   6.498   1.103   2.457
 9553TIP3    H228624   6.550   1.055   2.323
 9554TIP3   OH228625   0.125   4.651   5.287
 9554TIP3    H128626   0.171   4.727   5.251
 9554TIP3    H228627   0.181   4.577   5.265
 9555TIP3   OH228628   6.341   6.462   0.049
 9555TIP3    H128629   6.292   6.544   0.062
 9555TIP3    H228630   6.315   6.433  -0.039
 9556TIP3   OH228631   4.741   2.898   5.270
 9556TIP3    H128632   4.650   2.879   5.290
 9556TIP3    H228633   4.768   2.826   5.212
 9557TIP3   OH228634   6.246   6.628   3.821
 9557TIP3    H128635   6.301   6.611   3.745
 9557TIP3    H228636   6.157   6.631   3.786
 9558TIP3   OH228637   7.127   3.285   2.160
 9558TIP3    H128638   7.181   3.210   2.138
 9558TIP3    H228639   7.092   3.265   2.247
 9559TIP3   OH228640   4.719   6.664   3.264
 9559TIP3    H128641   4.814   6.672   3.271
 9559TIP3    H228642   4.687   6.753   3.277
 9560TIP3   OH228643   3.387   5.979   1.497
 9560TIP3    H128644   3.358   5.900   1.543
 9560TIP3    H228645   3.469   6.003   1.542
 9561TIP3   OH228646   2.210   6.627   2.811
 9561TIP3    H128647   2.168   6.598   2.730
 9561TIP3    H228648   2.213   6.550   2.866
 9562TIP3   OH228649   4.348   1.891   4.019
 9562TIP3    H128650   4.432   1.846   4.008
 9562TIP3    H228651   4.367   1.983   4.001
 9563TIP3   OH228652   0.248   5.672   2.482
 9563TIP3    H128653   0.194   5.616   2.427
 9563TIP3    H228654   0.307   5.611   2.527
 9564TIP3   OH228655   5.561   5.884   5.218
 9564TIP3    H128656   5.615   5.838   5.283
 9564TIP3    H228657   5.554   5.823   5.145
 9565TIP3   OH228658   4.184   2.684   4.997
 9565TIP3    H128659   4.183   2.779   4.989
 9565TIP3    H228660   4.137   2.665   5.078
 9566TIP3   OH228661   1.706   3.382   5.185
 9566TIP3    H128662   1.718   3.287   5.187
 9566TIP3    H228663   1.641   3.399   5.254
 9567TIP3   OH228664   4.811   6.278   4.765
 9567TIP3    H128665   4.852   6.309   4.846
 9567TIP3    H228666   4.762   6.353   4.733
 9568TIP3   OH228667   3.146   5.157   0.128
 9568TIP3    H128668   3.193   5.230   0.168
 9568TIP3    H228669   3.152   5.087   0.192
 9569TIP3   OH228670   6.073   0.562   3.826
 9569TIP3    H128671   5.992   0.571   3.876
 9569TIP3    H228672   6.078   0.468   3.805
 9570TIP3   OH228673   5.905   1.873   2.907
 9570TIP3    H128674   5.923   1.944   2.968
 9570TIP3    H228675   5.907   1.794   2.961
 9571TIP3   OH228676   5.583   4.597   3.237
 9571TIP3    H128677   5.649   4.634   3.178
 9571TIP3    H228678   5.531   4.672   3.264
 9572TIP3   OH228679   1.382   4.115   1.486
 9572TIP3    H128680   1.407   4.129   1.394
 9572TIP3    H228681   1.326   4.037   1.484
 9573TIP3   OH228682   1.576   1.344   1.140
 9573TIP3    H128683   1.582   1.287   1.063
 9573TIP3    H228684   1.663   1.383   1.149
 9574TIP3   OH228685   4.536   4.782   3.619
 9574TIP3    H128686   4.631   4.789   3.620
 9574TIP3    H228687   4.511   4.803   3.529
 9575TIP3   OH228688   6.150   1.461   2.696
 9575TIP3    H128689   6.088   1.480   2.625
 9575TIP3    H228690   6.203   1.540   2.703
 9576TIP3   OH228691   0.493   2.070   4.448
 9576TIP3    H128692   0.506   2.033   4.361
 9576TIP3    H228693   0.580   2.099   4.475
 9577TIP3   OH228694   3.196   5.745   3.192
 9577TIP3    H128695   3.261   5.760   3.261
 9577TIP3    H228696   3.119   5.712   3.239
 9578TIP3   OH228697   4.107   0.208   1.314
 9578TIP3    H128698   4.163   0.286   1.317
 9578TIP3    H228699   4.101   0.178   1.404
 9579TIP3   OH228700   0.715   5.381   4.072
 9579TIP3    H128701   0.633   5.363   4.027
 9579TIP3    H228702   0.700   5.352   4.162
 9580TIP3   OH228703   1.987   4.007   2.920
 9580TIP3    H128704   1.964   3.950   2.847
 9580TIP3    H228705   2.056   3.960   2.967
 9581TIP3   OH228706   0.710   2.375   3.635
 9581TIP3    H128707   0.726   2.376   3.729
 9581TIP3    H228708   0.646   2.445   3.621
 9582TIP3   OH228709   1.283   5.937   4.774
 9582TIP3    H128710   1.266   6.030   4.789
 9582TIP3    H228711   1.234   5.893   4.843
 9583TIP3   OH228712   3.299   6.252   1.436
 9583TIP3    H128713   3.320   6.162   1.459
 9583TIP3    H228714   3.381   6.299   1.444
 9584TIP3   OH228715   3.138   2.765   0.437
 9584TIP3    H128716   3.075   2.832   0.411
 9584TIP3    H228717   3.189   2.749   0.358
 9585TIP3   OH228718   3.100   0.802   1.834
 9585TIP3    H128719   3.070   0.854   1.908
 9585TIP3    H228720   3.029   0.739   1.818
 9586TIP3   OH228721   7.206   3.223   4.119
 9586TIP3    H128722   7.216   3.313   4.088
 9586TIP3    H228723   7.208   3.170   4.039
 9587TIP3   OH228724   4.559   2.643   0.126
 9587TIP3    H128725   4.627   2.677   0.069
 9587TIP3    H228726   4.577   2.549   0.131
 9588TIP3   OH228727   6.341   5.118   3.455
 9588TIP3    H128728   6.248   5.101   3.468
 9588TIP3    H228729   6.372   5.146   3.541
 9589TIP3   OH228730   2.271   2.279   4.257
 9589TIP3    H128731   2.276   2.185   4.273
 9589TIP3    H228732   2.237   2.286   4.168
 9590TIP3   OH228733   5.249   6.584   3.326
 9590TIP3    H128734   5.234   6.540   3.242
 9590TIP3    H228735   5.187   6.543   3.386
 9591TIP3   OH228736   0.698   5.215   1.631
 9591TIP3    H128737   0.642   5.256   1.565
 9591TIP3    H228738   0.775   5.272   1.636
 9592TIP3   OH228739   3.986   2.711   3.429
 9592TIP3    H128740   3.912   2.650   3.426
 9592TIP3    H228741   3.984   2.756   3.345
 9593TIP3   OH228742   5.431   0.507   2.738
 9593TIP3    H128743   5.482   0.588   2.731
 9593TIP3    H228744   5.446   0.462   2.655
 9594TIP3   OH228745   3.944   5.613   0.190
 9594TIP3    H128746   3.981   5.573   0.111
 9594TIP3    H228747   3.994   5.576   0.262
 9595TIP3   OH228748   3.291   4.085   2.122
 9595TIP3    H128749   3.368   4.070   2.067
 9595TIP3    H228750   3.324   4.136   2.196
 9596TIP3   OH228751   4.623   5.038   2.499
 9596TIP3    H128752   4.641   5.086   2.580
 9596TIP3    H228753   4.636   4.946   2.522
 9597TIP3   OH228754   4.188   6.337   4.361
 9597TIP3    H128755   4.183   6.349   4.456
 9597TIP3    H228756   4.202   6.425   4.326
 9598TIP3   OH228757   6.975   0.046   3.609
 9598TIP3    H128758   6.889   0.016   3.580
 9598TIP3    H228759   6.998  -0.012   3.681
 9599TIP3   OH228760   0.118   4.527   5.041
 9599TIP3    H128761   0.146   4.559   4.955
 9599TIP3    H228762   0.136   4.599   5.101
 9600TIP3   OH228763   1.407   6.439   0.681
 9600TIP3    H128764   1.394   6.390   0.762
 9600TIP3    H228765   1.481   6.397   0.638
 9601TIP3   OH228766   5.304   4.233   3.219
 9601TIP3    H128767   5.344   4.298   3.160
 9601TIP3    H228768   5.242   4.284   3.271
 9602TIP3   OH228769   3.171   5.555   2.533
 9602TIP3    H128770   3.081   5.582   2.553
 9602TIP3    H228771   3.162   5.464   2.506
 9603TIP3   OH228772   7.026   5.250   4.287
 9603TIP3    H128773   7.119   5.254   4.265
 9603TIP3    H228774   6.998   5.164   4.255
 9604TIP3   OH228775   6.574   1.829   2.738
 9604TIP3    H128776   6.654   1.785   2.708
 9604TIP3    H228777   6.536   1.867   2.659
 9605TIP3   OH228778   3.328  -0.059   3.416
 9605TIP3    H128779   3.352   0.001   3.346
 9605TIP3    H228780   3.302  -0.001   3.488
 9606TIP3   OH228781   6.474   4.186   5.668
 9606TIP3    H128782   6.391   4.139   5.677
 9606TIP3    H228783   6.502   4.169   5.578
 9607TIP3   OH228784   3.779   5.590   1.562
 9607TIP3    H128785   3.787   5.613   1.655
 9607TIP3    H228786   3.849   5.638   1.519
 9608TIP3   OH228787   2.303   4.860   4.030
 9608TIP3    H128788   2.391   4.887   4.003
 9608TIP3    H228789   2.317   4.793   4.097
 9609TIP3   OH228790   1.453   3.916   5.634
 9609TIP3    H128791   1.403   3.836   5.649
 9609TIP3    H228792   1.401   3.965   5.570
 9610TIP3   OH228793   0.713   5.241   0.804
 9610TIP3    H128794   0.760   5.324   0.812
 9610TIP3    H228795   0.621   5.265   0.819
 9611TIP3   OH228796   7.120   5.713   5.023
 9611TIP3    H128797   7.093   5.759   5.103
 9611TIP3    H228798   7.180   5.645   5.054
 9612TIP3   OH228799   1.541   2.173   4.639
 9612TIP3    H128800   1.466   2.154   4.583
 9612TIP3    H228801   1.598   2.227   4.585
 9613TIP3   OH228802   4.264   1.487   0.415
 9613TIP3    H128803   4.355   1.459   0.403
 9613TIP3    H228804   4.214   1.406   0.418
 9614TIP3   OH228805   4.931   5.445   0.603
 9614TIP3    H128806   5.008   5.389   0.614
 9614TIP3    H228807   4.935   5.471   0.511
 9615TIP3   OH228808   6.783   4.654   3.213
 9615TIP3    H128809   6.869   4.691   3.230
 9615TIP3    H228810   6.792   4.610   3.129
 9616TIP3   OH228811   2.149   0.972   0.775
 9616TIP3    H128812   2.204   1.037   0.819
 9616TIP3    H228813   2.206   0.932   0.709
 9617TIP3   OH228814   1.871   5.694   2.673
 9617TIP3    H128815   1.792   5.670   2.722
 9617TIP3    H228816   1.934   5.721   2.741
 9618TIP3   OH228817   5.965   0.990   0.698
 9618TIP3    H128818   5.952   0.911   0.751
 9618TIP3    H228819   5.939   0.965   0.610
 9619TIP3   OH228820   1.542   3.828   3.419
 9619TIP3    H128821   1.550   3.734   3.398
 9619TIP3    H228822   1.550   3.832   3.514
 9620TIP3   OH228823   1.585   0.849   4.655
 9620TIP3    H128824   1.508   0.890   4.615
 9620TIP3    H228825   1.569   0.755   4.645
 9621TIP3   OH228826   5.919   4.753   3.717
 9621TIP3    H128827   5.883   4.840   3.733
 9621TIP3    H228828   5.883   4.699   3.787
 9622TIP3   OH228829   0.048   1.220   3.396
 9622TIP3    H128830  -0.033   1.171   3.407
 9622TIP3    H228831   0.083   1.229   3.485
 9623TIP3   OH228832   6.177   4.310   2.297
 9623TIP3    H128833   6.225   4.227   2.296
 9623TIP3    H228834   6.090   4.288   2.266
 9624TIP3   OH228835   6.115   5.658   1.219
 9624TIP3    H128836   6.199   5.642   1.175
 9624TIP3    H228837   6.081   5.570   1.235
 9625TIP3   OH228838   5.089   4.773   0.092
 9625TIP3    H128839   5.029   4.805   0.024
 9625TIP3    H228840   5.062   4.683   0.108
 9626TIP3   OH228841   6.045   3.284   4.128
 9626TIP3    H128842   6.046   3.367   4.177
 9626TIP3    H228843   6.122   3.289   4.072
 9627TIP3   OH228844   0.177   6.329   3.574
 9627TIP3    H128845   0.257   6.340   3.524
 9627TIP3    H228846   0.168   6.234   3.584
 9628TIP3   OH228847   0.354   3.891   4.818
 9628TIP3    H128848   0.425   3.860   4.874
 9628TIP3    H228849   0.288   3.822   4.823
 9629TIP3   OH228850   1.172   1.123   2.091
 9629TIP3    H128851   1.257   1.105   2.051
 9629TIP3    H228852   1.188   1.123   2.185
 9630TIP3   OH228853   3.962   6.340   3.156
 9630TIP3    H128854   3.930   6.427   3.131
 9630TIP3    H228855   3.963   6.291   3.074
 9631TIP3   OH228856   5.754   1.697   5.331
 9631TIP3    H128857   5.769   1.610   5.369
 9631TIP3    H228858   5.663   1.717   5.352
 9632TIP3   OH228859   4.624   0.597   0.945
 9632TIP3    H128860   4.654   0.592   1.036
 9632TIP3    H228861   4.687   0.543   0.896
 9633TIP3   OH228862   3.894   3.008   1.073
 9633TIP3    H128863   3.894   3.068   1.148
 9633TIP3    H228864   3.843   2.932   1.103
 9634TIP3   OH228865   3.751   1.510   2.427
 9634TIP3    H128866   3.809   1.468   2.363
 9634TIP3    H228867   3.806   1.578   2.467
 9635TIP3   OH228868   3.859   1.747   4.724
 9635TIP3    H128869   3.895   1.755   4.636
 9635TIP3    H228870   3.935   1.730   4.780
 9636TIP3   OH228871   4.163   5.435   2.319
 9636TIP3    H128872   4.116   5.377   2.380
 9636TIP3    H228873   4.252   5.400   2.319
 9637TIP3   OH228874   2.278   3.088   4.011
 9637TIP3    H128875   2.305   3.180   4.004
 9637TIP3    H228876   2.199   3.090   4.065
 9638TIP3   OH228877   2.366   2.016   1.576
 9638TIP3    H128878   2.443   2.065   1.546
 9638TIP3    H228879   2.316   2.000   1.496
 9639TIP3   OH228880   2.519   0.044   2.339
 9639TIP3    H128881   2.506   0.078   2.251
 9639TIP3    H228882   2.490   0.114   2.397
 9640TIP3   OH228883   1.462   1.602   5.356
 9640TIP3    H128884   1.417   1.603   5.271
 9640TIP3    H228885   1.418   1.670   5.407
 9641TIP3   OH228886   6.775   0.137   3.835
 9641TIP3    H128887   6.704   0.200   3.846
 9641TIP3    H228888   6.740   0.073   3.773
 9642TIP3   OH228889   2.646   3.668   0.374
 9642TIP3    H128890   2.672   3.753   0.410
 9642TIP3    H228891   2.727   3.618   0.371
 9643TIP3   OH228892   5.692   2.726   0.291
 9643TIP3    H128893   5.676   2.632   0.293
 9643TIP3    H228894   5.611   2.763   0.254
 9644TIP3   OH228895   3.819   0.874   0.582
 9644TIP3    H128896   3.798   0.869   0.675
 9644TIP3    H228897   3.862   0.791   0.563
 9645TIP3   OH228898   1.753   3.000   0.126
 9645TIP3    H128899   1.708   3.068   0.077
 9645TIP3    H228900   1.683   2.952   0.170
 9646TIP3   OH228901   4.024   4.265   3.642
 9646TIP3    H128902   3.963   4.193   3.625
 9646TIP3    H228903   3.988   4.309   3.718
 9647TIP3   OH228904   2.767   2.847   5.805
 9647TIP3    H128905   2.820   2.905   5.860
 9647TIP3    H228906   2.681   2.846   5.847
 9648TIP3   OH228907   6.823   3.410   2.959
 9648TIP3    H128908   6.866   3.489   2.994
 9648TIP3    H228909   6.886   3.340   2.973
 9649TIP3   OH228910   5.395   2.963   4.691
 9649TIP3    H128911   5.467   2.945   4.630
 9649TIP3    H228912   5.337   2.886   4.683
 9650TIP3   OH228913   1.407   5.482   2.435
 9650TIP3    H128914   1.386   5.406   2.379
 9650TIP3    H228915   1.502   5.481   2.442
 9651TIP3   OH228916   0.975   2.455   5.797
 9651TIP3    H128917   1.046   2.507   5.834
 9651TIP3    H228918   0.981   2.470   5.703
 9652TIP3   OH228919   4.532   3.261   0.305
 9652TIP3    H128920   4.517   3.326   0.374
 9652TIP3    H228921   4.619   3.226   0.324
 9653TIP3   OH228922   1.826   3.672   2.083
 9653TIP3    H128923   1.884   3.655   2.157
 9653TIP3    H228924   1.863   3.621   2.011
 9654TIP3   OH228925   6.469   6.813   1.985
 9654TIP3    H128926   6.533   6.750   2.019
 9654TIP3    H228927   6.397   6.759   1.953
 9655TIP3   OH228928   3.106   1.399   3.778
 9655TIP3    H128929   3.081   1.368   3.691
 9655TIP3    H228930   3.179   1.459   3.762
 9656TIP3   OH228931   1.220   1.118   3.023
 9656TIP3    H128932   1.273   1.041   3.043
 9656TIP3    H228933   1.131   1.084   3.013
 9657TIP3   OH228934   3.140   6.409   2.178
 9657TIP3    H128935   3.127   6.366   2.093
 9657TIP3    H228936   3.052   6.420   2.214
 9658TIP3   OH228937   0.336   5.495   4.792
 9658TIP3    H128938   0.322   5.422   4.852
 9658TIP3    H228939   0.352   5.571   4.848
 9659TIP3   OH228940   1.082   6.741   3.888
 9659TIP3    H128941   1.042   6.659   3.916
 9659TIP3    H228942   1.070   6.800   3.962
 9660TIP3   OH228943   5.671   3.660   1.649
 9660TIP3    H128944   5.587   3.686   1.611
 9660TIP3    H228945   5.652   3.577   1.693
 9661TIP3   OH228946   6.544   1.595   4.552
 9661TIP3    H128947   6.515   1.683   4.575
 9661TIP3    H228948   6.522   1.587   4.459
 9662TIP3   OH228949   2.950   1.178   0.243
 9662TIP3    H128950   3.015   1.224   0.296
 9662TIP3    H228951   2.958   1.216   0.156
 9663TIP3   OH228952   1.610   3.545   5.871
 9663TIP3    H128953   1.531   3.559   5.818
 9663TIP3    H228954   1.577   3.516   5.956
 9664TIP3   OH228955   0.368   5.757   5.516
 9664TIP3    H128956   0.375   5.760   5.420
 9664TIP3    H228957   0.341   5.667   5.535
 9665TIP3   OH228958   3.797   2.818   1.680
 9665TIP3    H128959   3.743   2.769   1.619
 9665TIP3    H228960   3.738   2.839   1.753
 9666TIP3   OH228961   4.191   5.152   3.226
 9666TIP3    H128962   4.136   5.229   3.243
 9666TIP3    H228963   4.147   5.081   3.273
 9667TIP3   OH228964   6.167   6.247   3.334
 9667TIP3    H128965   6.211   6.170   3.300
 9667TIP3    H228966   6.074   6.231   3.318
 9668TIP3   OH228967   2.656   6.313   2.177
 9668TIP3    H128968   2.607   6.325   2.096
 9668TIP3    H228969   2.744   6.345   2.158
 9669TIP3   OH228970   1.779   5.537   4.278
 9669TIP3    H128971   1.856   5.496   4.237
 9669TIP3    H228972   1.814   5.579   4.356
 9670TIP3   OH228973   3.021   0.876   4.923
 9670TIP3    H128974   3.084   0.805   4.931
 9670TIP3    H228975   2.975   0.876   5.008
 9671TIP3   OH228976   5.746   6.480   4.373
 9671TIP3    H128977   5.812   6.412   4.361
 9671TIP3    H228978   5.718   6.471   4.464
 9672TIP3   OH228979   5.121   3.605   5.406
 9672TIP3    H128980   5.161   3.568   5.327
 9672TIP3    H228981   5.140   3.699   5.401
 9673TIP3   OH228982   2.257   2.368   1.832
 9673TIP3    H128983   2.287   2.459   1.832
 9673TIP3    H228984   2.205   2.360   1.752
 9674TIP3   OH228985   4.811   4.033   1.139
 9674TIP3    H128986   4.763   4.040   1.056
 9674TIP3    H228987   4.768   4.097   1.196
 9675TIP3   OH228988   4.958   1.294   1.844
 9675TIP3    H128989   5.039   1.266   1.801
 9675TIP3    H228990   4.970   1.388   1.860
 9676TIP3   OH228991   2.647   4.029   0.449
 9676TIP3    H128992   2.567   3.997   0.407
 9676TIP3    H228993   2.640   4.124   0.445
 9677TIP3   OH228994   1.517   2.822   4.976
 9677TIP3    H128995   1.548   2.782   5.057
 9677TIP3    H228996   1.596   2.851   4.932
 9678TIP3   OH228997   5.683   2.548   2.049
 9678TIP3    H128998   5.650   2.554   2.138
 9678TIP3    H228999   5.604   2.542   1.995
 9679TIP3   OH229000   2.152   0.995   1.125
 9679TIP3    H129001   2.103   0.913   1.124
 9679TIP3    H229002   2.243   0.969   1.115
 9680TIP3   OH229003   7.049   3.501   4.199
 9680TIP3    H129004   7.138   3.485   4.166
 9680TIP3    H229005   7.007   3.552   4.129
 9681TIP3   OH229006   3.551   2.645   2.575
 9681TIP3    H129007   3.514   2.720   2.623
 9681TIP3    H229008   3.514   2.568   2.619
 9682TIP3   OH229009   4.039   3.886   5.235
 9682TIP3    H129010   4.059   3.942   5.310
 9682TIP3    H229011   3.947   3.864   5.245
 9683TIP3   OH229012   5.056   2.237   4.879
 9683TIP3    H129013   5.023   2.219   4.791
 9683TIP3    H229014   4.997   2.303   4.914
 9684TIP3   OH229015   0.887   3.547   1.459
 9684TIP3    H129016   0.888   3.642   1.471
 9684TIP3    H229017   0.797   3.521   1.475
 9685TIP3   OH229018   4.213   5.086   0.289
 9685TIP3    H129019   4.295   5.046   0.260
 9685TIP3    H229020   4.189   5.038   0.368
 9686TIP3   OH229021   4.376   0.851   1.786
 9686TIP3    H129022   4.464   0.833   1.753
 9686TIP3    H229023   4.371   0.805   1.870
 9687TIP3   OH229024   6.443   1.841   3.018
 9687TIP3    H129025   6.512   1.793   3.063
 9687TIP3    H229026   6.478   1.859   2.931
 9688TIP3   OH229027   5.823   0.274   1.848
 9688TIP3    H129028   5.863   0.190   1.869
 9688TIP3    H229029   5.729   0.260   1.857
 9689TIP3   OH229030   2.050   4.662   1.357
 9689TIP3    H129031   2.020   4.635   1.444
 9689TIP3    H229032   2.111   4.733   1.374
 9690TIP3   OH229033   1.418   1.059   1.075
 9690TIP3    H129034   1.423   0.966   1.055
 9690TIP3    H229035   1.467   1.101   1.004
 9691TIP3   OH229036   6.847   1.604   5.891
 9691TIP3    H129037   6.929   1.557   5.906
 9691TIP3    H229038   6.819   1.576   5.803
 9692TIP3   OH229039   3.589   1.249   4.781
 9692TIP3    H129040   3.631   1.319   4.732
 9692TIP3    H229041   3.591   1.277   4.872
 9693TIP3   OH229042   5.929   1.246   4.077
 9693TIP3    H129043   5.863   1.308   4.107
 9693TIP3    H229044   5.897   1.218   3.991
 9694TIP3   OH229045   3.849   4.296   3.846
 9694TIP3    H129046   3.781   4.271   3.783
 9694TIP3    H229047   3.800   4.322   3.925
 9695TIP3   OH229048   3.792   1.549   5.340
 9695TIP3    H129049   3.833   1.620   5.389
 9695TIP3    H229050   3.749   1.593   5.267
 9696TIP3   OH229051   5.448   6.386   5.231
 9696TIP3    H129052   5.422   6.298   5.204
 9696TIP3    H229053   5.476   6.428   5.149
 9697TIP3   OH229054   1.854   5.664   0.701
 9697TIP3    H129055   1.837   5.602   0.772
 9697TIP3    H229056   1.788   5.643   0.635
 9698TIP3   OH229057   1.667   6.062   3.921
 9698TIP3    H129058   1.726   6.065   3.846
 9698TIP3    H229059   1.658   5.969   3.941
 9699TIP3   OH229060   0.936   2.437   1.963
 9699TIP3    H129061   0.948   2.447   2.057
 9699TIP3    H229062   0.886   2.514   1.937
 9700TIP3   OH229063   2.910   3.821   4.380
 9700TIP3    H129064   2.839   3.875   4.417
 9700TIP3    H229065   2.889   3.732   4.409
 9701TIP3   OH229066   6.435   1.807   4.982
 9701TIP3    H129067   6.436   1.892   4.938
 9701TIP3    H229068   6.508   1.759   4.943
 9702TIP3   OH229069   2.786   0.512   4.671
 9702TIP3    H129070   2.692   0.533   4.671
 9702TIP3    H229071   2.823   0.569   4.604
 9703TIP3   OH229072   1.341   0.792   5.762
 9703TIP3    H129073   1.380   0.839   5.836
 9703TIP3    H229074   1.416   0.751   5.718
 9704TIP3   OH229075   5.943   3.612   5.397
 9704TIP3    H129076   5.914   3.656   5.317
 9704TIP3    H229077   5.868   3.616   5.455
 9705TIP3   OH229078   2.208   2.264   1.497
 9705TIP3    H129079   2.192   2.235   1.407
 9705TIP3    H229080   2.253   2.190   1.539
 9706TIP3   OH229081   5.590   1.233   4.620
 9706TIP3    H129082   5.672   1.233   4.571
 9706TIP3    H229083   5.592   1.152   4.671
 9707TIP3   OH229084   3.431   3.193   4.129
 9707TIP3    H129085   3.504   3.136   4.107
 9707TIP3    H229086   3.432   3.198   4.225
 9708TIP3   OH229087   1.697   6.274   2.789
 9708TIP3    H129088   1.758   6.346   2.774
 9708TIP3    H229089   1.748   6.208   2.836
 9709TIP3   OH229090   0.658   5.455   4.392
 9709TIP3    H129091   0.728   5.395   4.369
 9709TIP3    H229092   0.652   5.451   4.488
 9710TIP3   OH229093   0.826   5.852   2.541
 9710TIP3    H129094   0.781   5.895   2.614
 9710TIP3    H229095   0.905   5.905   2.528
 9711TIP3   OH229096   2.964   5.237   5.114
 9711TIP3    H129097   2.916   5.178   5.171
 9711TIP3    H229098   2.903   5.309   5.097
 9712TIP3   OH229099   7.172   2.031   5.552
 9712TIP3    H129100   7.206   1.976   5.481
 9712TIP3    H229101   7.086   2.058   5.522
 9713TIP3   OH229102   0.192   0.318   0.884
 9713TIP3    H129103   0.245   0.239   0.876
 9713TIP3    H229104   0.254   0.387   0.908
 9714TIP3   OH229105   5.377   5.776   4.013
 9714TIP3    H129106   5.455   5.802   3.964
 9714TIP3    H229107   5.374   5.681   4.005
 9715TIP3   OH229108   0.289   2.204   0.372
 9715TIP3    H129109   0.245   2.227   0.454
 9715TIP3    H229110   0.252   2.264   0.307
 9716TIP3   OH229111   4.226   6.713   0.279
 9716TIP3    H129112   4.240   6.618   0.269
 9716TIP3    H229113   4.224   6.727   0.373
 9717TIP3   OH229114   5.191   5.974   2.725
 9717TIP3    H129115   5.161   6.018   2.646
 9717TIP3    H229116   5.182   5.881   2.706
 9718TIP3   OH229117   2.646   4.254   5.182
 9718TIP3    H129118   2.572   4.229   5.238
 9718TIP3    H229119   2.699   4.174   5.175
 9719TIP3   OH229120   3.483   5.144   0.228
 9719TIP3    H129121   3.535   5.101   0.159
 9719TIP3    H229122   3.505   5.237   0.220
 9720TIP3   OH229123   6.127   5.234   4.600
 9720TIP3    H129124   6.191   5.291   4.558
 9720TIP3    H229125   6.047   5.286   4.604
 9721TIP3   OH229126   2.293   1.113   5.798
 9721TIP3    H129127   2.368   1.171   5.786
 9721TIP3    H229128   2.228   1.146   5.736
 9722TIP3   OH229129   4.630   2.024   0.133
 9722TIP3    H129130   4.695   1.968   0.175
 9722TIP3    H229131   4.572   2.051   0.204
 9723TIP3   OH229132   0.516   3.765   5.033
 9723TIP3    H129133   0.546   3.819   5.106
 9723TIP3    H229134   0.436   3.723   5.066
 9724TIP3   OH229135   6.747   2.181   3.220
 9724TIP3    H129136   6.802   2.140   3.153
 9724TIP3    H229137   6.803   2.249   3.258
 9725TIP3   OH229138   3.555   2.493   5.883
 9725TIP3    H129139   3.580   2.581   5.854
 9725TIP3    H229140   3.637   2.444   5.888
 9726TIP3   OH229141   4.682   0.827   1.818
 9726TIP3    H129142   4.675   0.788   1.905
 9726TIP3    H229143   4.762   0.880   1.822
 9727TIP3   OH229144   2.155   3.967   3.974
 9727TIP3    H129145   2.063   3.961   3.949
 9727TIP3    H229146   2.187   4.045   3.928
 9728TIP3   OH229147   6.779   5.349   0.108
 9728TIP3    H129148   6.777   5.443   0.124
 9728TIP3    H229149   6.746   5.310   0.189
 9729TIP3   OH229150   4.604   4.323   5.726
 9729TIP3    H129151   4.573   4.247   5.676
 9729TIP3    H229152   4.524   4.358   5.767
 9730TIP3   OH229153   2.784   3.482   1.204
 9730TIP3    H129154   2.709   3.487   1.264
 9730TIP3    H229155   2.779   3.563   1.154
 9731TIP3   OH229156   1.803   2.073   4.416
 9731TIP3    H129157   1.845   2.158   4.399
 9731TIP3    H229158   1.710   2.093   4.422
 9732TIP3   OH229159   2.826   0.379   3.407
 9732TIP3    H129160   2.763   0.412   3.471
 9732TIP3    H229161   2.910   0.415   3.437
 9733TIP3   OH229162   7.060   0.377   2.656
 9733TIP3    H129163   7.063   0.373   2.751
 9733TIP3    H229164   6.968   0.398   2.636
 9734TIP3   OH229165   0.161   2.750   2.806
 9734TIP3    H129166   0.215   2.810   2.856
 9734TIP3    H229167   0.215   2.726   2.730
 9735TIP3   OH229168   2.510   0.843   3.163
 9735TIP3    H129169   2.418   0.822   3.147
 9735TIP3    H229170   2.519   0.933   3.134
 9736TIP3   OH229171   5.085   3.342   5.587
 9736TIP3    H129172   5.116   3.314   5.501
 9736TIP3    H229173   5.023   3.412   5.568
 9737TIP3   OH229174   0.821   4.583   0.540
 9737TIP3    H129175   0.741   4.587   0.592
 9737TIP3    H229176   0.816   4.499   0.494
 9738TIP3   OH229177   1.781   5.814   1.416
 9738TIP3    H129178   1.782   5.741   1.477
 9738TIP3    H229179   1.829   5.884   1.461
 9739TIP3   OH229180   2.283   6.630   5.727
 9739TIP3    H129181   2.194   6.661   5.741
 9739TIP3    H229182   2.274   6.536   5.712
 9740TIP3   OH229183   4.969   4.067   5.382
 9740TIP3    H129184   4.945   3.994   5.323
 9740TIP3    H229185   4.912   4.055   5.458
 9741TIP3   OH229186   0.814   3.086   3.686
 9741TIP3    H129187   0.808   3.086   3.591
 9741TIP3    H229188   0.855   3.002   3.708
 9742TIP3   OH229189   2.681   2.675   3.464
 9742TIP3    H129190   2.731   2.734   3.408
 9742TIP3    H229191   2.735   2.663   3.542
 9743TIP3   OH229192   2.227   1.045   3.476
 9743TIP3    H129193   2.250   1.042   3.569
 9743TIP3    H229194   2.180   0.964   3.460
 9744TIP3   OH229195   3.787   1.622   3.561
 9744TIP3    H129196   3.829   1.699   3.598
 9744TIP3    H229197   3.831   1.548   3.604
 9745TIP3   OH229198   4.954   0.095   5.085
 9745TIP3    H129199   4.981   0.087   5.177
 9745TIP3    H229200   4.859   0.089   5.087
 9746TIP3   OH229201   5.651   5.579   1.502
 9746TIP3    H129202   5.575   5.627   1.470
 9746TIP3    H229203   5.628   5.554   1.591
 9747TIP3   OH229204   0.588   5.110   3.052
 9747TIP3    H129205   0.659   5.127   3.114
 9747TIP3    H229206   0.515   5.081   3.106
 9748TIP3   OH229207   2.896   2.017   1.041
 9748TIP3    H129208   2.944   2.059   0.970
 9748TIP3    H229209   2.913   1.924   1.029
 9749TIP3   OH229210   4.818   0.279   2.326
 9749TIP3    H129211   4.860   0.364   2.333
 9749TIP3    H229212   4.876   0.229   2.268
   7.22656   6.81327   5.90045   0.00000   0.00000  -2.40886   0.00000  -2.40886  -3.40663
