Title
19942
    1ASP      N    1   4.795   4.807   0.184  0.8774  0.1805 -0.7220
    1ASP    HT1    2   4.824   4.907   0.180 -0.2999  0.7831  2.3236
    1ASP    HT2    3   4.767   4.797   0.284  0.3309 -0.0317 -0.8941
    1ASP    HT3    4   4.706   4.802   0.131 -0.6777  1.7955  1.5129
    1ASP     CA    5   4.885   4.711   0.129 -0.2310 -1.0015 -0.0901
    1ASP     HA    6   4.836   4.616   0.142 -1.6928 -0.5297 -1.6585
    1ASP     CB    7   4.913   4.735  -0.024  0.1446  0.1307 -0.3429
    1ASP    HB1    8   4.956   4.648  -0.077 -2.1541 -0.8016 -0.7813
    1ASP    HB2    9   4.987   4.819  -0.029  1.1721 -0.7646 -0.5297
    1ASP     CG   10   4.796   4.783  -0.103 -0.0537  0.6665  0.0353
    1ASP    OD1   11   4.678   4.792  -0.052 -0.3240 -0.8106  0.6668
    1ASP    OD2   12   4.813   4.813  -0.227 -0.3885  0.1310 -0.7350
    1ASP      C   13   5.015   4.719   0.202 -0.2428  0.2324 -0.3372
    1ASP      O   14   5.031   4.802   0.288  0.3577 -0.6221 -0.0458
    2ALA      N   15   5.125   4.641   0.178 -0.3879 -0.2200  0.2286
    2ALA     HN   16   5.117   4.576   0.103 -0.0637  1.2324 -1.1134
    2ALA     CA   17   5.266   4.649   0.232  0.3959 -0.0981 -0.1450
    2ALA     HA   18   5.265   4.726   0.308 -0.1559  0.6573 -0.8987
    2ALA     CB   19   5.315   4.513   0.284  0.1669  0.2573  0.1179
    2ALA    HB1   20   5.423   4.512   0.309  0.3740  0.4960 -0.7093
    2ALA    HB2   21   5.293   4.445   0.199 -0.9947 -0.2401  0.7984
    2ALA    HB3   22   5.243   4.480   0.361 -2.2284  1.4973 -1.4785
    2ALA      C   23   5.356   4.691   0.125 -0.8286  0.5892 -0.6007
    2ALA      O   24   5.340   4.641   0.012 -0.2920  0.2187 -0.4356
    3ASP      N   25   5.443   4.784   0.152 -0.0282  0.5448 -0.7553
    3ASP     HN   26   5.449   4.825   0.243 -1.3080 -0.9075  0.0272
    3ASP     CA   27   5.519   4.847   0.045 -0.1898 -0.5489 -0.0673
    3ASP     HA   28   5.461   4.835  -0.045  0.0231 -0.0142 -0.2793
    3ASP     CB   29   5.567   4.989   0.081 -0.6247  0.0453  0.4332
    3ASP    HB1   30   5.630   5.027  -0.002  2.9261  2.0452  3.6906
    3ASP    HB2   31   5.618   4.983   0.180  1.6443 -1.4751 -0.7488
    3ASP     CG   32   5.460   5.096   0.108  0.8590 -0.5343  0.0065
    3ASP    OD1   33   5.341   5.075   0.075  0.8127  0.3520 -0.1917
    3ASP    OD2   34   5.499   5.208   0.151  0.4295 -0.1806  0.3688
    3ASP      C   35   5.639   4.769   0.008 -0.1408 -0.7027  0.2859
    3ASP      O   36   5.708   4.708   0.092  0.4963  0.0767 -0.2518
    4GLY      N   37   5.682   4.762  -0.118 -0.1562  0.5809 -0.4841
    4GLY     HN   38   5.620   4.806  -0.182  0.3379  3.0016  0.6060
    4GLY     CA   39   5.793   4.691  -0.178  0.5060  0.9611  0.5186
    4GLY    HA1   40   5.785   4.719  -0.282 -1.0953  0.7473  0.5586
    4GLY    HA2   41   5.772   4.586  -0.163 -0.1820  0.9516 -0.4539
    4GLY      C   42   5.933   4.711  -0.138 -0.4428 -0.4615  0.1532
    4GLY      O   43   5.955   4.804  -0.063 -0.3114 -0.5834  0.2781
    5PRO      N   44   6.032   4.636  -0.184 -0.1188 -0.4532 -0.5354
    5PRO     CD   45   6.011   4.516  -0.263  0.1614  0.3970  0.3655
    5PRO    HD1   46   5.914   4.515  -0.317 -0.1969  2.9924  0.8366
    5PRO    HD2   47   6.002   4.438  -0.185 -2.9155  2.0449  1.7919
    5PRO     CA   48   6.172   4.676  -0.191  0.0456 -0.2657  0.2895
    5PRO     HA   49   6.199   4.694  -0.088  1.6614  0.9281 -0.2996
    5PRO     CB   50   6.243   4.561  -0.258 -0.2811 -0.1578 -0.3903
    5PRO    HB1   51   6.276   4.477  -0.193  1.9002  1.0727  0.1948
    5PRO    HB2   52   6.328   4.603  -0.317  0.3895  0.3780  0.9052
    5PRO     CG   53   6.139   4.499  -0.353  0.3679  0.0128 -1.0947
    5PRO    HG1   54   6.122   4.565  -0.440  0.0135 -0.8868 -1.7245
    5PRO    HG2   55   6.154   4.395  -0.391 -0.6504  0.3288 -2.4062
    5PRO      C   56   6.191   4.817  -0.256 -0.5698  0.8571 -0.5735
    5PRO      O   57   6.151   4.845  -0.371 -0.4113  0.3815 -0.3826
    6GLY      N   58   6.265   4.904  -0.178  0.4071 -0.1260 -0.3475
    6GLY     HN   59   6.283   4.878  -0.083  1.8142  0.9575 -0.2843
    6GLY     CA   60   6.295   5.040  -0.212 -0.6972 -0.1483 -0.1256
    6GLY    HA1   61   6.387   5.036  -0.267 -0.8037  0.9392 -0.4088
    6GLY    HA2   62   6.305   5.084  -0.114  1.3997  0.9465 -0.7932
    6GLY      C   63   6.202   5.134  -0.278  0.4620  0.6106  0.4646
    6GLY      O   64   6.082   5.125  -0.266  0.5395  0.7678  0.0268
    7ASP      N   65   6.256   5.231  -0.356  0.2827  0.3118  0.2105
    7ASP     HN   66   6.353   5.243  -0.374  0.1119  0.0332 -0.9509
    7ASP     CA   67   6.186   5.337  -0.416  0.0155 -0.4644  0.2231
    7ASP     HA   68   6.113   5.368  -0.342  2.4021  0.9708  2.1378
    7ASP     CB   69   6.277   5.465  -0.445  0.5802  0.1759  0.4591
    7ASP    HB1   70   6.219   5.548  -0.491 -0.0565 -0.9501 -0.8226
    7ASP    HB2   71   6.355   5.430  -0.515  0.2431 -0.0286  0.1831
    7ASP     CG   72   6.354   5.529  -0.335 -0.2361  0.0246 -0.0612
    7ASP    OD1   73   6.336   5.495  -0.217 -0.8645  0.0723 -0.0026
    7ASP    OD2   74   6.439   5.613  -0.368  0.0515 -0.2247  0.2560
    7ASP      C   75   6.123   5.270  -0.539 -0.3872 -0.4391 -0.1669
    7ASP      O   76   6.195   5.194  -0.602  0.2446  0.0174  0.5468
    8PRO      N   77   5.994   5.302  -0.584 -0.0454 -0.1388  0.5677
    8PRO     CD   78   5.910   5.383  -0.498  0.3267 -0.3936 -0.2757
    8PRO    HD1   79   5.946   5.488  -0.496  0.5604 -0.4703 -0.4646
    8PRO    HD2   80   5.896   5.336  -0.398  0.5360  0.1536  0.0144
    8PRO     CA   81   5.941   5.291  -0.721  0.2025  0.1020  0.5611
    8PRO     HA   82   5.923   5.188  -0.745 -3.3230  0.7708 -0.1119
    8PRO     CB   83   5.809   5.381  -0.717 -0.5878  0.1958  0.4925
    8PRO    HB1   84   5.736   5.340  -0.790 -0.0969 -1.5886  0.9574
    8PRO    HB2   85   5.839   5.485  -0.744  0.3270  0.2877  1.7707
    8PRO     CG   86   5.774   5.385  -0.570 -0.0883  0.1172 -0.5309
    8PRO    HG1   87   5.711   5.471  -0.536 -1.1407 -0.9308  0.2633
    8PRO    HG2   88   5.721   5.294  -0.535  2.6789 -1.5926 -0.5053
    8PRO      C   89   6.027   5.334  -0.837 -0.3241 -0.4186  0.3065
    8PRO      O   90   6.087   5.443  -0.834 -0.3997 -0.7160 -0.0689
    9ASP      N   91   6.034   5.255  -0.948  0.0749 -0.0044 -0.3115
    9ASP     HN   92   5.966   5.184  -0.967  1.6075 -1.4670 -0.5381
    9ASP     CA   93   6.126   5.284  -1.053 -0.4846  0.0058  0.0656
    9ASP     HA   94   6.208   5.336  -1.007 -0.8854  1.0686 -0.3922
    9ASP     CB   95   6.167   5.144  -1.114 -0.1033  0.5420 -0.2655
    9ASP    HB1   96   6.228   5.162  -1.206 -1.3075  2.2736 -0.7839
    9ASP    HB2   97   6.079   5.080  -1.137  2.7657 -3.4464 -1.3019
    9ASP     CG   98   6.260   5.074  -1.022 -0.4921  0.1193  0.4413
    9ASP    OD1   99   6.334   5.142  -0.946  0.4907 -0.2026 -0.1280
    9ASP    OD2  100   6.260   4.950  -1.019  0.7044  0.7719 -0.5269
    9ASP      C  101   6.079   5.376  -1.166 -0.2122 -0.4397 -0.7115
    9ASP      O  102   5.966   5.379  -1.212  0.4719 -0.1478 -0.5611
   10ALA      N  103   6.173   5.452  -1.217 -0.1418 -0.2285 -0.1581
   10ALA     HN  104   6.258   5.466  -1.166  0.0316  0.8161 -0.6936
   10ALA     CA  105   6.163   5.513  -1.348  0.4947  0.6515 -0.2227
   10ALA     HA  106   6.062   5.501  -1.384  0.2591 -1.8355  1.0369
   10ALA     CB  107   6.203   5.665  -1.343  0.3560 -0.1298 -0.7491
   10ALA    HB1  108   6.121   5.714  -1.285  0.8754 -1.1017  0.8697
   10ALA    HB2  109   6.231   5.708  -1.441 -1.0668  1.4478 -0.5187
   10ALA    HB3  110   6.291   5.675  -1.275 -0.3375 -0.5534  0.2374
   10ALA      C  111   6.256   5.441  -1.443 -0.0188 -0.2631  0.0432
   10ALA      O  112   6.365   5.400  -1.402  0.1564 -0.9741  0.0213
   11GLY      N  113   6.219   5.399  -1.568  0.0220 -0.5083  0.1352
   11GLY     HN  114   6.135   5.428  -1.614  1.4025  0.0711 -2.1723
   11GLY     CA  115   6.324   5.348  -1.660  0.3726 -0.5788  0.6824
   11GLY    HA1  116   6.281   5.313  -1.753  2.9993  0.0181 -0.8601
   11GLY    HA2  117   6.374   5.264  -1.613  1.3169  0.7331  2.1162
   11GLY      C  118   6.432   5.449  -1.692 -0.4094  0.8522  0.3209
   11GLY    OT1  119   6.417   5.574  -1.700 -0.5788  0.4517 -0.1197
   11GLY    OT2  120   6.545   5.393  -1.717  0.4584 -0.1383  0.8372
   12LIT    LIT  121   2.486   1.921   1.732  0.1394  0.3910  0.1501
   13LIT    LIT  122   1.979   0.095   0.716  1.1157 -0.0511 -0.0730
   14LIT    LIT  123   6.083   2.552   2.973 -0.0088  0.0003  0.8517
   15LIT    LIT  124   4.815   5.212   0.480 -0.3171  0.1847 -1.1469
   16LIT    LIT  125   4.969   1.571   0.465  0.0930 -0.2294  0.8517
   17LIT    LIT  126   5.958   3.390   0.344 -0.1546  0.4111 -0.0294
   18LIT    LIT  127   0.611   0.638   0.728 -0.4266  0.3280 -0.4903
   19LIT    LIT  128   4.502   2.192   3.870  0.7921 -1.8685 -0.5174
   20LIT    LIT  129   6.008   4.925   0.113 -1.0662 -0.8983  0.6465
   21LIT    LIT  130   0.280   1.914   2.133  0.5729 -0.5992  1.1368
   22LIT    LIT  131   0.448   5.924   2.572 -0.3564  0.6644  0.0136
   23LIT    LIT  132   4.963   0.803   3.879  0.0235  0.4573  0.5432
   24LIT    LIT  133   4.816   2.705   3.932 -0.5538  0.1104  0.4853
   25LIT    LIT  134   2.439   4.706   1.454 -0.1987  0.6505  0.0638
   26LIT    LIT  135   3.829   5.013   5.077  0.0777 -0.5543  0.2140
   27LIT    LIT  136   5.490   5.846   2.944 -0.4106 -0.8477 -0.5959
   28LIT    LIT  137   3.614   5.597   2.226 -0.0797  0.0312 -0.2896
   29LIT    LIT  138   5.384   2.673   4.490 -0.3291  0.4233  0.6934
   30LIT    LIT  139   1.559   1.207   2.026 -0.8825 -0.2318  0.2369
   31LIT    LIT  140   4.413   4.107   0.481  0.0720 -1.1578  1.0311
   32LIT    LIT  141   4.482   2.605   3.405  0.4508  0.1475 -0.0636
   33LIT    LIT  142   0.791   0.928   1.997  0.2241 -0.0469 -0.6838
   34CLA    CLA  143   3.860   3.553   0.490  0.2446  0.7054  0.0428
   35CLA    CLA  144   3.643   2.379   1.503  0.2618 -0.2163 -0.0070
   36CLA    CLA  145   0.946   0.052   4.589 -0.0996 -0.1614 -0.4359
   37CLA    CLA  146   1.708   2.015   4.168  0.0242 -0.0573 -0.0020
   38CLA    CLA  147   2.706   4.087   1.283  0.1944  0.0480 -0.2824
   39CLA    CLA  148   5.210   0.255   1.682 -0.1029 -0.2882  0.2238
   40CLA    CLA  149   2.270   3.885   2.153 -0.0619  0.0161  0.3632
   41CLA    CLA  150   5.243   2.800   4.611 -0.1281  0.3713  0.3686
   42CLA    CLA  151   0.714   1.549   2.103 -0.2413 -0.5493 -0.1462
   43CLA    CLA  152   4.851   0.420   0.953 -0.1272  0.2529  0.2140
   44CLA    CLA  153   0.213   1.560   2.699  0.5073 -0.0311 -0.2567
   45CLA    CLA  154   1.303   0.828   0.567  0.3113 -0.5289  0.0983
   46CLA    CLA  155   0.744   3.192   0.322 -0.1497  0.2145 -0.1396
   47CLA    CLA  156   1.501   0.965   2.059  0.0108 -0.1355  0.1204
   48CLA    CLA  157   4.577   4.255   0.372 -0.0345  0.2682 -0.0762
   49CLA    CLA  158   3.177   3.557   0.177 -0.1133  0.1240 -0.0524
   50CLA    CLA  159   4.901   1.171   0.700  0.4557  0.0258 -0.2591
   51CLA    CLA  160   0.935   4.813   4.843  0.1064 -0.5295  0.0809
   52TIP3   OH2  161   4.333   1.982   2.855 -0.0541  0.8035  0.2832
   52TIP3    H1  162   4.367   2.067   2.885 -0.1032  0.5299  1.1161
   52TIP3    H2  163   4.301   1.940   2.934  0.6192 -0.2991 -0.0134
   53TIP3   OH2  164   5.234   4.988   5.016 -0.4565  0.2151 -0.1519
   53TIP3    H1  165   5.248   4.895   4.997  0.5513  0.2489  0.3429
   53TIP3    H2  166   5.236   4.993   5.112  0.6482  0.9023 -0.2012
   54TIP3   OH2  167   1.893   2.462   3.623 -0.9570  0.2715 -0.4585
   54TIP3    H1  168   1.978   2.492   3.655 -1.0670 -2.3332  2.8245
   54TIP3    H2  169   1.830   2.496   3.687 -2.0235 -0.1661 -1.2474
   55TIP3   OH2  170   6.264   3.147   1.618 -0.5365 -0.0881  0.2144
   55TIP3    H1  171   6.349   3.110   1.594 -1.4506 -1.0078 -1.8000
   55TIP3    H2  172   6.229   3.183   1.537 -2.1053  0.2493  1.0005
   56TIP3   OH2  173   5.384   4.619   1.587  0.5739 -0.5384  0.1933
   56TIP3    H1  174   5.377   4.524   1.575 -2.4078 -0.6702  2.0290
   56TIP3    H2  175   5.338   4.656   1.512  0.4549 -0.5847  0.2439
   57TIP3   OH2  176   5.372   0.550   4.911 -0.1756 -0.2417  0.0055
   57TIP3    H1  177   5.287   0.517   4.941 -0.1674 -1.5109 -1.2582
   57TIP3    H2  178   5.415   0.474   4.873  0.9317  0.7010 -0.6801
   58TIP3   OH2  179   4.494   4.589   4.344 -0.2279 -0.8005  0.1622
   58TIP3    H1  180   4.549   4.662   4.373 -1.1554 -0.4890  1.2160
   58TIP3    H2  181   4.466   4.546   4.425  0.7307 -2.6868 -0.4416
   59TIP3   OH2  182   3.160   3.981   1.473 -0.3402  0.6613  0.7345
   59TIP3    H1  183   3.229   3.916   1.484 -1.2746 -0.0898  2.9455
   59TIP3    H2  184   3.094   3.936   1.420  0.1531  0.7893  0.0023
   60TIP3   OH2  185   3.802   3.819   0.593  0.4535 -0.4319  0.3506
   60TIP3    H1  186   3.826   3.737   0.549 -1.7644 -2.4724  2.6152
   60TIP3    H2  187   3.733   3.857   0.538 -1.4935 -2.3687  1.3006
   61TIP3   OH2  188   2.234   3.502   3.300  0.0496  0.1583  0.2037
   61TIP3    H1  189   2.192   3.467   3.222  0.2553 -0.0240  0.1737
   61TIP3    H2  190   2.322   3.526   3.272  0.4407 -0.7714  0.5907
   62TIP3   OH2  191   4.796   3.479   2.124 -0.0869  0.0256 -0.0015
   62TIP3    H1  192   4.767   3.465   2.215 -0.4363  0.2610 -0.0767
   62TIP3    H2  193   4.741   3.550   2.092  1.8569  1.8704  0.4651
   63TIP3   OH2  194   2.921   2.490   4.375 -0.3082 -0.4031 -0.1135
   63TIP3    H1  195   2.936   2.436   4.297 -2.0390 -2.1150  0.6500
   63TIP3    H2  196   2.894   2.575   4.340  0.1884 -0.7347 -1.3641
   64TIP3   OH2  197   0.868   5.789   0.054 -0.0426  0.6525  0.0726
   64TIP3    H1  198   0.939   5.793   0.117 -1.2417 -1.1885  1.6568
   64TIP3    H2  199   0.817   5.868   0.070  1.0403  1.4783 -0.3934
   65TIP3   OH2  200   2.033   2.978   0.019  0.2711  0.0747 -0.3461
   65TIP3    H1  201   2.036   3.063   0.063  0.7909 -0.4446  0.6576
   65TIP3    H2  202   2.021   2.915   0.090  3.6144 -1.0142 -0.5706
   66TIP3   OH2  203   5.481   0.971   0.950 -0.2841  0.3715  0.0102
   66TIP3    H1  204   5.552   0.910   0.970  0.2488  0.4337 -1.5595
   66TIP3    H2  205   5.401   0.922   0.971  0.1691 -0.4523 -0.1248
   67TIP3   OH2  206   5.693   0.246   4.569 -0.0527 -0.3114 -0.0480
   67TIP3    H1  207   5.779   0.204   4.581  0.4199  1.0326  1.5005
   67TIP3    H2  208   5.650   0.191   4.503  1.8379 -1.2409 -0.5992
   68TIP3   OH2  209   6.086   4.813   4.052  0.3496  0.3771  0.2493
   68TIP3    H1  210   6.126   4.802   3.966  0.0573  2.8383 -0.2625
   68TIP3    H2  211   5.992   4.803   4.036  0.3854 -0.5927  0.5749
   69TIP3   OH2  212   5.353   1.293   0.551 -0.0313 -0.1946  0.0537
   69TIP3    H1  213   5.321   1.207   0.524 -0.3613  0.5945 -2.2211
   69TIP3    H2  214   5.422   1.274   0.615 -2.0770 -2.0459  1.9085
   70TIP3   OH2  215   3.727   2.006   4.150  0.7131  0.0950  0.0913
   70TIP3    H1  216   3.695   1.951   4.079  1.4892 -0.5253  0.2106
   70TIP3    H2  217   3.650   2.026   4.203  0.4813 -1.1643  0.2390
   71TIP3   OH2  218   3.247   3.471   2.404 -0.1086 -0.0847  0.0374
   71TIP3    H1  219   3.211   3.518   2.328  1.3729  0.6621 -0.2464
   71TIP3    H2  220   3.294   3.397   2.366  1.6891  0.9680  0.0574
   72TIP3   OH2  221   5.486   3.478   2.513  0.2280  0.0480 -0.0159
   72TIP3    H1  222   5.411   3.419   2.513 -1.5577  2.1664  0.7226
   72TIP3    H2  223   5.552   3.433   2.564 -0.4473 -1.9473 -0.7864
   73TIP3   OH2  224   2.748   0.699   0.932 -0.4530  0.2496  0.3713
   73TIP3    H1  225   2.842   0.708   0.918 -0.4884  1.1548  0.5959
   73TIP3    H2  226   2.719   0.638   0.865  0.2121  0.3863 -0.0526
   74TIP3   OH2  227   0.561   2.352   2.682  0.3876 -0.6344  0.3678
   74TIP3    H1  228   0.486   2.361   2.741  0.5870  1.2044  0.3912
   74TIP3    H2  229   0.614   2.430   2.699  1.7021 -1.3069 -0.5062
   75TIP3   OH2  230   3.485   3.083   4.842  0.0195 -0.1202  0.2344
   75TIP3    H1  231   3.438   3.052   4.920  0.7611 -0.0313  0.7281
   75TIP3    H2  232   3.450   3.171   4.826  0.1583  0.0301  0.7266
   76TIP3   OH2  233   3.562   0.408   5.108  0.1432  0.6593  0.6592
   76TIP3    H1  234   3.529   0.489   5.067  1.0497  0.4775 -0.4564
   76TIP3    H2  235   3.655   0.408   5.088 -0.0889 -1.4177 -0.7043
   77TIP3   OH2  236   3.937   1.698   3.116 -0.2641  0.3408  0.8048
   77TIP3    H1  237   3.979   1.659   3.193  1.5372  0.1468 -0.1948
   77TIP3    H2  238   3.862   1.642   3.098 -0.0217 -0.3040  1.7363
   78TIP3   OH2  239   4.221   2.827   3.171  0.6864  0.0575 -0.7689
   78TIP3    H1  240   4.141   2.807   3.124 -0.6309  1.2073  0.8624
   78TIP3    H2  241   4.233   2.922   3.160  0.6040  0.2774  0.7273
   79TIP3   OH2  242   6.207   0.815   3.203 -0.7440  0.1365 -0.5189
   79TIP3    H1  243   6.294   0.851   3.187 -0.4414 -0.6906 -0.7320
   79TIP3    H2  244   6.185   0.768   3.123 -1.1101 -0.2272 -0.2108
   80TIP3   OH2  245   5.214   0.246   0.692 -0.3295  0.0088 -0.6860
   80TIP3    H1  246   5.197   0.310   0.622 -1.1408 -1.9422 -2.3824
   80TIP3    H2  247   5.309   0.248   0.704 -0.1836  0.4655 -1.7841
   81TIP3   OH2  248   2.995   5.253   1.284 -0.1614  0.0016 -0.0890
   81TIP3    H1  249   3.024   5.163   1.270 -1.2020 -0.5584  1.1962
   81TIP3    H2  250   2.929   5.268   1.216 -0.8345 -0.6266  0.4080
   82TIP3   OH2  251   6.178   1.864   1.934  0.1972  0.5824 -0.1424
   82TIP3    H1  252   6.115   1.892   1.868 -0.3735 -0.8040 -0.2239
   82TIP3    H2  253   6.150   1.908   2.015  0.1254  1.2662 -0.5353
   83TIP3   OH2  254   3.565   4.280   3.856 -0.2234 -0.5630  0.5565
   83TIP3    H1  255   3.527   4.363   3.884  0.0280 -0.3760  0.3465
   83TIP3    H2  256   3.572   4.228   3.936  1.1700  0.2263  0.9746
   84TIP3   OH2  257   5.933   0.730   4.136 -0.0168 -0.0621 -0.6061
   84TIP3    H1  258   5.951   0.756   4.227 -0.3985 -0.6346 -0.3640
   84TIP3    H2  259   6.000   0.666   4.115  1.5454  1.7861 -1.5404
   85TIP3   OH2  260   4.688   1.055   2.768 -0.1413 -0.6613  0.3559
   85TIP3    H1  261   4.702   1.085   2.858 -1.0628  1.7840 -0.2500
   85TIP3    H2  262   4.770   1.012   2.744  1.0990  0.9467  1.5229
   86TIP3   OH2  263   2.317   2.958   4.485 -0.0322  0.0217  0.0202
   86TIP3    H1  264   2.336   2.879   4.435  1.2848  1.2150 -1.4409
   86TIP3    H2  265   2.233   2.988   4.451  0.4359  0.3439 -0.8807
   87TIP3   OH2  266   3.206   4.902   3.053 -0.3842 -0.6478  0.3023
   87TIP3    H1  267   3.213   4.868   3.142 -1.7558 -1.7749  0.0101
   87TIP3    H2  268   3.185   4.826   3.000 -1.9240  0.3815 -0.6341
   88TIP3   OH2  269   5.342   2.929   4.192  0.0423  0.0902  0.0256
   88TIP3    H1  270   5.278   2.935   4.121 -2.1416 -0.4522  1.8268
   88TIP3    H2  271   5.412   2.989   4.167 -0.9633  0.4071 -2.2357
   89TIP3   OH2  272   5.610   3.136   3.806  0.4878  0.5063 -0.0197
   89TIP3    H1  273   5.529   3.103   3.766 -0.0917  2.8631 -0.9848
   89TIP3    H2  274   5.663   3.057   3.822 -1.5887 -1.0133 -0.2321
   90TIP3   OH2  275   3.902   3.731   0.218  0.3426 -0.2361 -0.8874
   90TIP3    H1  276   3.901   3.688   0.303  2.6164 -0.6920 -1.0204
   90TIP3    H2  277   3.853   3.812   0.231 -3.5543 -2.4155 -0.4642
   91TIP3   OH2  278   5.345   1.085   3.190 -0.3348 -0.1857 -0.1821
   91TIP3    H1  279   5.439   1.067   3.200  0.2318  2.7087  0.7595
   91TIP3    H2  280   5.312   1.090   3.280 -1.4496 -1.1793 -0.5011
   92TIP3   OH2  281   4.105   3.069   1.354 -0.0289 -0.3515  0.5668
   92TIP3    H1  282   4.089   3.106   1.267  2.4621 -2.2804 -0.8507
   92TIP3    H2  283   4.178   3.119   1.389  0.0078 -0.5935  0.8420
   93TIP3   OH2  284   0.876   4.766   0.033 -0.0558  0.0212 -0.3111
   93TIP3    H1  285   0.943   4.731   0.091 -0.2995 -0.3783 -0.2676
   93TIP3    H2  286   0.806   4.795   0.092 -1.0308 -1.9015 -0.4582
   94TIP3   OH2  287   2.031   5.191   3.752  0.0679 -0.1981 -0.2341
   94TIP3    H1  288   2.126   5.199   3.744  0.1564 -1.1046 -0.2463
   94TIP3    H2  289   2.018   5.108   3.799 -0.7400 -0.9572 -1.7120
   95TIP3   OH2  290   5.465   4.945   4.409  0.0122 -0.6801  0.5460
   95TIP3    H1  291   5.499   4.978   4.492  0.1440 -0.0755  0.2618
   95TIP3    H2  292   5.542   4.938   4.352 -0.2038 -0.1951  0.1878
   96TIP3   OH2  293   4.675   0.342   4.129 -0.0001 -0.2193 -0.0735
   96TIP3    H1  294   4.761   0.377   4.104 -0.3183 -0.1940 -1.1429
   96TIP3    H2  295   4.613   0.411   4.108 -0.3105 -0.2966  0.5603
   97TIP3   OH2  296   0.898   5.069   3.858 -1.2813  0.4097 -0.3094
   97TIP3    H1  297   0.948   5.046   3.936 -2.1915 -1.4464 -0.2227
   97TIP3    H2  298   0.930   5.156   3.834  2.2680 -0.7751 -0.4998
   98TIP3   OH2  299   1.590   0.928   2.541  0.0359  0.4221  0.1057
   98TIP3    H1  300   1.530   0.860   2.510  1.4775 -0.2832 -1.3220
   98TIP3    H2  301   1.650   0.942   2.467  1.7880  0.8949  1.5478
   99TIP3   OH2  302   3.030   5.509   4.866  0.2045  0.2059  0.2524
   99TIP3    H1  303   3.070   5.493   4.780  1.3270  2.4566  0.2771
   99TIP3    H2  304   3.103   5.502   4.927 -0.7491 -2.3476  1.2461
  100TIP3   OH2  305   5.917   3.181   1.420 -0.4061 -0.0228 -0.1780
  100TIP3    H1  306   5.988   3.166   1.358  0.3480  1.1383  0.3490
  100TIP3    H2  307   5.837   3.161   1.372  0.1480  1.0196 -1.5826
  101TIP3   OH2  308   5.395   4.125  -0.008 -0.0093 -0.2606 -0.1627
  101TIP3    H1  309   5.358   4.145   0.078 -0.1783 -0.2763 -0.2302
  101TIP3    H2  310   5.366   4.036  -0.026  0.3426 -0.3948 -0.0714
  102TIP3   OH2  311   5.351   3.121   2.825 -0.0978  0.2874  0.0986
  102TIP3    H1  312   5.291   3.112   2.899 -0.2862  0.6569 -0.0068
  102TIP3    H2  313   5.433   3.152   2.865  0.8543 -2.5789  0.5936
  103TIP3   OH2  314   0.143   3.028   1.535 -0.5457 -0.5277 -0.0389
  103TIP3    H1  315   0.156   3.037   1.441 -0.5270 -1.6482 -0.1587
  103TIP3    H2  316   0.196   2.953   1.560  2.2309  1.7292  1.5144
  104TIP3   OH2  317   2.979   3.620   2.912 -0.2209 -0.1974 -0.1374
  104TIP3    H1  318   3.060   3.592   2.869 -0.1496  0.7243 -0.6388
  104TIP3    H2  319   2.983   3.715   2.909 -1.6544 -0.1394 -0.8020
  105TIP3   OH2  320   4.820   5.910   1.408  0.0964  0.0286  0.5246
  105TIP3    H1  321   4.765   5.846   1.363 -1.0110  0.6151  0.9932
  105TIP3    H2  322   4.779   5.995   1.388  1.1424  0.5347  0.4646
  106TIP3   OH2  323   6.130   0.376   1.293  0.4123  1.1821 -0.6382
  106TIP3    H1  324   6.064   0.350   1.357 -0.4191  0.4408 -1.7564
  106TIP3    H2  325   6.214   0.354   1.334 -0.0479  1.7217  0.6213
  107TIP3   OH2  326   4.458   0.610   0.042  0.4340  0.1010  0.2081
  107TIP3    H1  327   4.395   0.541   0.020 -0.8131  1.7157 -1.6304
  107TIP3    H2  328   4.534   0.592  -0.012  1.2306 -1.2949  1.7113
  108TIP3   OH2  329   4.967   1.011   1.799 -0.5621  0.3677 -0.0097
  108TIP3    H1  330   4.881   0.970   1.812 -0.1837 -1.3010 -2.1968
  108TIP3    H2  331   4.959   1.096   1.842 -2.5923 -0.5465  1.6618
  109TIP3   OH2  332   3.408   5.236   4.985  0.3170 -0.0174 -0.2092
  109TIP3    H1  333   3.348   5.252   4.912  1.7297  0.7610 -1.2384
  109TIP3    H2  334   3.410   5.140   4.994 -0.6272 -0.0743 -0.5218
  110TIP3   OH2  335   3.174   3.659   1.583  0.3845  0.4834 -0.1437
  110TIP3    H1  336   3.084   3.683   1.559 -0.5541 -0.3850  2.2187
  110TIP3    H2  337   3.173   3.564   1.589  0.8466  0.5723  1.9847
  111TIP3   OH2  338   4.112   1.706   2.895  0.1274  0.0851 -0.1846
  111TIP3    H1  339   4.152   1.786   2.929  1.0423 -0.7900  0.8798
  111TIP3    H2  340   4.059   1.673   2.968  0.8609 -0.9895 -0.1153
  112TIP3   OH2  341   5.490   2.582   3.167 -0.0181  0.3911 -0.4309
  112TIP3    H1  342   5.472   2.534   3.086 -0.6624  1.0724 -0.7079
  112TIP3    H2  343   5.426   2.549   3.230 -0.4736  0.8849 -0.6269
  113TIP3   OH2  344   5.773   1.351   3.710 -0.2066 -0.1222  0.1711
  113TIP3    H1  345   5.828   1.275   3.694 -0.6524  0.1125 -3.0180
  113TIP3    H2  346   5.829   1.412   3.757  0.8966 -1.4702  0.6651
  114TIP3   OH2  347   0.348   5.615   1.275  0.1512  0.1618 -0.2273
  114TIP3    H1  348   0.330   5.530   1.316  1.3412 -0.1468 -0.2854
  114TIP3    H2  349   0.289   5.618   1.200  0.7599 -1.0857 -0.8009
  115TIP3   OH2  350   1.041   2.167   3.003  0.7068  0.5219 -0.3477
  115TIP3    H1  351   1.083   2.247   3.034 -1.0503  1.8630 -1.3055
  115TIP3    H2  352   1.084   2.148   2.920 -1.3828  2.6738 -2.0228
  116TIP3   OH2  353   2.543   0.194   0.330 -0.4968  0.3409 -0.4034
  116TIP3    H1  354   2.601   0.231   0.263  0.7141  0.4524  0.6794
  116TIP3    H2  355   2.501   0.119   0.286  2.4970 -1.4414 -0.4566
  117TIP3   OH2  356   0.597   0.889   2.644 -0.0738  0.0876  0.0914
  117TIP3    H1  357   0.533   0.959   2.657 -0.3729  0.0623 -1.1170
  117TIP3    H2  358   0.601   0.877   2.549 -0.7093 -2.1462  0.2828
  118TIP3   OH2  359   3.494   0.106   4.717  0.0686  0.2278 -0.3069
  118TIP3    H1  360   3.466   0.122   4.628  0.1367  0.5991 -0.2648
  118TIP3    H2  361   3.431   0.044   4.752 -0.7573  1.1185 -0.1816
  119TIP3   OH2  362   0.826   1.386   3.962 -0.1578 -0.1525 -0.3926
  119TIP3    H1  363   0.811   1.302   4.004 -1.6108 -0.2491 -1.0423
  119TIP3    H2  364   0.805   1.451   4.030 -0.8488 -0.3114 -0.4504
  120TIP3   OH2  365   5.200   2.133   0.432  0.2629  0.5338 -0.3741
  120TIP3    H1  366   5.274   2.132   0.371  1.4469  0.2600  1.0109
  120TIP3    H2  367   5.169   2.042   0.434  0.6151  0.4159 -0.1293
  121TIP3   OH2  368   4.675   0.026   2.621  0.4599 -0.2987 -0.6227
  121TIP3    H1  369   4.747   0.062   2.568  0.3936  0.0610 -0.4710
  121TIP3    H2  370   4.617   0.100   2.636 -0.2282 -0.7171 -1.2025
  122TIP3   OH2  371   0.039   4.364   0.143  0.2983 -0.3285 -0.3678
  122TIP3    H1  372   0.058   4.335   0.232  0.9744 -1.9967 -1.0202
  122TIP3    H2  373   0.111   4.425   0.122 -0.0042  0.2716  0.2886
  123TIP3   OH2  374   0.835   5.457   3.356 -0.0145  0.3330  0.6327
  123TIP3    H1  375   0.880   5.405   3.289  0.0780 -0.0471  0.9830
  123TIP3    H2  376   0.879   5.434   3.437 -0.7560  0.0555  0.9616
  124TIP3   OH2  377   0.117   4.949   0.669 -0.1753  0.0416  0.5974
  124TIP3    H1  378   0.176   4.884   0.631  0.9565  1.5844 -0.3901
  124TIP3    H2  379   0.051   4.897   0.715  2.0483 -1.7621  1.9678
  125TIP3   OH2  380   3.541   3.702   1.787  0.2343 -0.5409 -0.2767
  125TIP3    H1  381   3.549   3.702   1.882 -1.0858 -0.2835 -0.1492
  125TIP3    H2  382   3.474   3.768   1.768  1.6708  0.6420 -1.5151
  126TIP3   OH2  383   4.788   3.977   3.575  0.0751  0.7031  0.0531
  126TIP3    H1  384   4.813   4.059   3.532 -2.0626  1.5024  0.2001
  126TIP3    H2  385   4.734   4.004   3.649 -0.2217 -0.8313  0.4403
  127TIP3   OH2  386   1.784   4.080   2.075  0.6067  0.4118 -0.2815
  127TIP3    H1  387   1.692   4.081   2.047  0.9917 -1.5522 -1.8391
  127TIP3    H2  388   1.788   4.144   2.146 -2.4086 -0.8390  1.2066
  128TIP3   OH2  389   5.279   3.371   5.193 -0.0059 -0.4423 -0.4384
  128TIP3    H1  390   5.186   3.384   5.172 -0.1092  1.5402  0.9894
  128TIP3    H2  391   5.323   3.375   5.109 -1.1357 -0.6386 -1.0640
  129TIP3   OH2  392   5.497   3.614   4.288 -0.3544  0.4002 -0.0470
  129TIP3    H1  393   5.549   3.628   4.209  1.3604 -1.5384  0.6655
  129TIP3    H2  394   5.555   3.567   4.348 -1.9654  0.8149  1.9604
  130TIP3   OH2  395   3.375   0.579   0.978 -0.1098  0.1098  0.4159
  130TIP3    H1  396   3.438   0.542   1.041 -1.2561 -1.1675  0.8626
  130TIP3    H2  397   3.415   0.661   0.950  1.7382 -0.6302  0.7182
  131TIP3   OH2  398   1.679   0.786   3.760 -0.1272 -0.1502 -0.5080
  131TIP3    H1  399   1.671   0.834   3.678  0.3534 -1.4802 -1.3730
  131TIP3    H2  400   1.773   0.770   3.770 -0.0656  0.8719  0.8586
  132TIP3   OH2  401   0.914   3.560   2.767 -0.1688  0.1442  0.2857
  132TIP3    H1  402   0.947   3.572   2.678  1.2818  0.4968  0.8414
  132TIP3    H2  403   0.862   3.639   2.784 -2.9558 -1.2113 -1.2336
  133TIP3   OH2  404   4.784   5.511   2.291 -0.4185  0.5365 -0.0767
  133TIP3    H1  405   4.757   5.560   2.213  0.0403  0.1150 -0.5062
  133TIP3    H2  406   4.874   5.540   2.307 -0.8631  1.3958  0.9174
  134TIP3   OH2  407   2.515   0.033   3.670  0.0980 -0.4243  0.3298
  134TIP3    H1  408   2.496   0.060   3.760  0.8169  0.7364  0.1494
  134TIP3    H2  409   2.460   0.090   3.616 -1.0108 -1.7236  0.0447
  135TIP3   OH2  410   3.009   4.448   2.978  0.1896 -0.1157 -0.0616
  135TIP3    H1  411   2.972   4.383   2.918 -0.4835 -0.5807  0.8400
  135TIP3    H2  412   3.059   4.397   3.041  0.3813  0.3191  0.1452
  136TIP3   OH2  413   4.841   5.380   0.557  0.0061 -0.3410 -0.2545
  136TIP3    H1  414   4.918   5.430   0.534 -0.2737  0.2010 -0.0279
  136TIP3    H2  415   4.787   5.440   0.608 -1.3052 -0.1777 -1.7437
  137TIP3   OH2  416   2.169   5.583   2.724  0.7176 -0.1496 -0.0353
  137TIP3    H1  417   2.264   5.582   2.737  0.7896  0.9563 -0.3921
  137TIP3    H2  418   2.141   5.667   2.758 -0.1522 -0.4984  0.1305
  138TIP3   OH2  419   2.433   1.250   2.731 -0.2333 -0.4837 -0.2820
  138TIP3    H1  420   2.438   1.344   2.714  1.2928 -0.6936 -1.2149
  138TIP3    H2  421   2.523   1.219   2.718 -0.8325 -2.1808 -0.6381
  139TIP3   OH2  422   1.372   2.720   0.055  0.1094 -0.4149 -0.3726
  139TIP3    H1  423   1.375   2.640   0.004 -0.6559 -0.8357  0.2146
  139TIP3    H2  424   1.279   2.744   0.056  0.2365  0.0815  0.0491
  140TIP3   OH2  425   2.453   4.960   4.535  0.2103 -0.5565 -0.1153
  140TIP3    H1  426   2.461   4.999   4.448  1.1793  0.5188  0.4135
  140TIP3    H2  427   2.542   4.960   4.569 -0.1898 -0.7161  0.9706
  141TIP3   OH2  428   2.339   3.110   3.985 -0.1678 -0.6211 -0.3348
  141TIP3    H1  429   2.405   3.178   3.974 -0.3010 -0.5894 -0.9843
  141TIP3    H2  430   2.258   3.151   3.954 -0.5714 -0.5397  0.7853
  142TIP3   OH2  431   4.095   0.844   0.617 -0.1372 -0.2787  0.1076
  142TIP3    H1  432   4.009   0.806   0.600 -0.0359  1.0574 -4.7975
  142TIP3    H2  433   4.077   0.924   0.666 -1.5474 -0.4398 -0.1123
  143TIP3   OH2  434   5.019   3.339   5.108  0.5103  0.1354  0.3800
  143TIP3    H1  435   5.028   3.433   5.124  0.7971  0.0493  0.7443
  143TIP3    H2  436   4.941   3.332   5.053 -0.9095  0.4056  2.2491
  144TIP3   OH2  437   3.829   0.877   0.094 -0.3049  0.5034  0.1491
  144TIP3    H1  438   3.837   0.797   0.043 -2.2516 -1.1114  2.1663
  144TIP3    H2  439   3.890   0.866   0.167 -2.5415 -0.5733  1.9962
  145TIP3   OH2  440   4.387   0.977   1.910  0.2972 -0.3013 -0.3781
  145TIP3    H1  441   4.338   0.914   1.858 -0.8690  1.1926 -1.1728
  145TIP3    H2  442   4.451   1.014   1.849  1.0633 -0.7842  0.1174
  146TIP3   OH2  443   5.172   0.015   0.570 -0.1055  0.4721 -0.3653
  146TIP3    H1  444   5.171   0.092   0.627  1.5240 -0.1303  0.5489
  146TIP3    H2  445   5.111   0.036   0.499 -1.1908  1.7759  0.9070
  147TIP3   OH2  446   5.244   4.409   3.317  0.2318  0.4324  0.2438
  147TIP3    H1  447   5.312   4.475   3.304  0.9172  0.1370  1.9851
  147TIP3    H2  448   5.234   4.404   3.412 -0.8906 -0.8794  0.0861
  148TIP3   OH2  449   1.558   1.826   4.393  0.1453  0.3803  0.2808
  148TIP3    H1  450   1.614   1.802   4.467  0.6125  0.1022 -0.1603
  148TIP3    H2  451   1.593   1.910   4.364 -1.9165  2.0598  2.2621
  149TIP3   OH2  452   4.617   1.723   0.159 -0.1660 -0.3900 -0.2122
  149TIP3    H1  453   4.618   1.684   0.072  1.1720 -0.4976 -0.1792
  149TIP3    H2  454   4.710   1.740   0.178 -0.4383 -0.3589  1.1837
  150TIP3   OH2  455   0.933   0.314   0.334  0.0534  0.3851 -0.3746
  150TIP3    H1  456   0.929   0.267   0.250 -2.4866  1.2094 -0.7964
  150TIP3    H2  457   0.994   0.386   0.318  0.1726  0.0967 -1.2887
  151TIP3   OH2  458   3.988   1.295   2.639  0.8388 -0.9156 -0.5071
  151TIP3    H1  459   4.068   1.244   2.625  1.3132 -0.4990  0.6168
  151TIP3    H2  460   3.920   1.245   2.594  1.4637 -2.0287 -0.2528
  152TIP3   OH2  461   2.644   1.905   3.441 -0.4746 -0.3497  0.0980
  152TIP3    H1  462   2.617   1.814   3.456  2.3849 -0.7543  4.7452
  152TIP3    H2  463   2.587   1.957   3.498  0.0000  0.3436 -0.0501
  153TIP3   OH2  464   3.170   4.456   0.055 -0.4084  0.3882  0.0532
  153TIP3    H1  465   3.199   4.451   0.146  3.4530  0.1227 -0.9991
  153TIP3    H2  466   3.138   4.546   0.046 -0.1972  0.6366  1.4825
  154TIP3   OH2  467   4.587   2.231   3.355  1.0294  0.1708 -0.5295
  154TIP3    H1  468   4.591   2.147   3.401 -1.1528 -0.6429 -1.6609
  154TIP3    H2  469   4.523   2.282   3.405  4.1080  2.2889  1.6474
  155TIP3   OH2  470   0.262   1.228   3.592  0.2396 -0.0110 -0.2913
  155TIP3    H1  471   0.313   1.281   3.532  0.9702  0.6722  0.8901
  155TIP3    H2  472   0.171   1.251   3.574  0.3838 -0.5432 -1.7776
  156TIP3   OH2  473   1.661   3.127   1.901  0.7001  0.3822 -0.2531
  156TIP3    H1  474   1.740   3.150   1.949  0.3828  1.1050 -0.0637
  156TIP3    H2  475   1.619   3.211   1.882  0.3363  0.0477 -0.9650
  157TIP3   OH2  476   1.017   2.653   4.045  0.0660 -0.3054 -0.3438
  157TIP3    H1  477   0.940   2.651   4.103 -0.2189  2.4486 -0.4588
  157TIP3    H2  478   0.994   2.718   3.978  1.3919 -1.5538 -2.0914
  158TIP3   OH2  479   4.132   3.793   3.850  0.2810 -0.2330  0.0410
  158TIP3    H1  480   4.069   3.862   3.868  0.2377 -0.2166 -0.1731
  158TIP3    H2  481   4.082   3.725   3.804  0.1578 -0.7247  0.8748
  159TIP3   OH2  482  -0.011   0.242   1.431 -0.3949  0.6969 -0.0134
  159TIP3    H1  483   0.035   0.238   1.515  1.6857 -1.4547 -1.1286
  159TIP3    H2  484   0.047   0.294   1.375 -1.2332  1.1970 -0.4215
  160TIP3   OH2  485   6.296   3.922   4.209 -0.1800 -0.2440 -1.0107
  160TIP3    H1  486   6.225   3.871   4.170 -0.1319  0.0511 -1.4991
  160TIP3    H2  487   6.363   3.926   4.141  0.2356 -0.3794 -0.6115
  161TIP3   OH2  488   2.737   3.821   2.237 -0.1072 -0.0292  0.2705
  161TIP3    H1  489   2.724   3.905   2.194 -1.4272 -0.5913 -0.4797
  161TIP3    H2  490   2.649   3.787   2.251  0.2851 -3.0919 -3.1162
  162TIP3   OH2  491   3.755   4.435   3.706 -0.5910  0.1143  0.2013
  162TIP3    H1  492   3.697   4.383   3.762 -0.8575  0.5509  0.3315
  162TIP3    H2  493   3.727   4.414   3.617 -0.6220 -0.0502  0.2475
  163TIP3   OH2  494   0.561   2.185   4.158 -0.7265 -0.0618  0.0181
  163TIP3    H1  495   0.543   2.145   4.244 -2.3893 -1.0416 -0.7456
  163TIP3    H2  496   0.635   2.136   4.124 -1.0610 -0.7296  0.2364
  164TIP3   OH2  497   4.048   5.702   4.986 -0.0504  0.0850 -0.0113
  164TIP3    H1  498   4.135   5.688   5.023 -0.0974  0.6453  0.3245
  164TIP3    H2  499   3.993   5.725   5.062 -0.2973  0.5761 -0.3369
  165TIP3   OH2  500   2.806   5.661   4.618  0.0212 -0.3789  0.6262
  165TIP3    H1  501   2.873   5.635   4.554  0.3710  1.0151  0.3887
  165TIP3    H2  502   2.723   5.649   4.572  0.2944  1.2881 -0.4043
  166TIP3   OH2  503   0.425   1.921   4.805  0.1730 -0.9038  0.0628
  166TIP3    H1  504   0.369   1.926   4.728 -0.1634 -2.1619  0.2083
  166TIP3    H2  505   0.364   1.916   4.879  0.4273  2.4676  0.6831
  167TIP3   OH2  506   0.858   5.803   2.250 -0.1088 -0.6922  0.0656
  167TIP3    H1  507   0.882   5.718   2.213 -0.8132 -0.8270 -0.0889
  167TIP3    H2  508   0.826   5.854   2.176  0.7282 -0.1236  0.0762
  168TIP3   OH2  509   5.837   5.182   4.405  0.4446 -0.1080  0.1246
  168TIP3    H1  510   5.910   5.170   4.344  1.1121 -0.2555  0.9516
  168TIP3    H2  511   5.851   5.117   4.474 -0.3548  0.0026  0.4074
  169TIP3   OH2  512   2.106   2.798   2.354  0.3952 -0.1019  0.4294
  169TIP3    H1  513   2.132   2.890   2.357 -0.1982  0.0645  0.7599
  169TIP3    H2  514   2.159   2.756   2.422 -1.7129  0.6552  2.6966
  170TIP3   OH2  515   4.123   1.324   0.300  0.6544  0.2197  0.5325
  170TIP3    H1  516   4.099   1.400   0.247 -0.4605 -0.6037 -0.1816
  170TIP3    H2  517   4.215   1.339   0.323  1.5575  0.0669 -2.5917
  171TIP3   OH2  518   3.370   3.448   4.240 -0.1302 -0.4843  0.5497
  171TIP3    H1  519   3.290   3.398   4.258  1.0014 -2.3659  0.7172
  171TIP3    H2  520   3.351   3.498   4.161 -1.5358 -0.7163  0.7207
  172TIP3   OH2  521   5.493   1.602   1.029 -0.2157 -0.2213 -0.1830
  172TIP3    H1  522   5.541   1.604   0.946 -0.0772  0.7064 -0.0891
  172TIP3    H2  523   5.413   1.653   1.012 -0.3696 -0.3512  0.1387
  173TIP3   OH2  524   5.651   3.165   4.734  0.7220  0.0973 -0.5459
  173TIP3    H1  525   5.606   3.088   4.699 -0.5972  1.0450 -1.0078
  173TIP3    H2  526   5.717   3.187   4.668 -0.0259  0.3505 -1.2173
  174TIP3   OH2  527   3.097   4.102   2.447 -0.2714  0.5306  0.0036
  174TIP3    H1  528   3.030   4.078   2.511 -0.5157  1.7267  0.2129
  174TIP3    H2  529   3.053   4.161   2.386  0.8453  2.2616  0.7899
  175TIP3   OH2  530   2.877   1.638   0.983 -1.0859 -0.3100 -0.0750
  175TIP3    H1  531   2.967   1.651   0.953 -0.3874  1.1193  2.3843
  175TIP3    H2  532   2.846   1.564   0.931  1.2943 -0.5164 -1.3946
  176TIP3   OH2  533   1.053   1.456   2.460  0.2391 -0.0679 -0.4918
  176TIP3    H1  534   1.064   1.389   2.392 -0.1994  0.6610 -1.3010
  176TIP3    H2  535   0.981   1.424   2.514  0.2468 -0.4032 -0.6740
  177TIP3   OH2  536   4.350   4.918   1.816 -0.2929  0.0848  0.1233
  177TIP3    H1  537   4.334   4.825   1.800  0.4754  0.0221 -0.3017
  177TIP3    H2  538   4.422   4.919   1.879 -0.4458  0.3991  0.2988
  178TIP3   OH2  539   4.602   0.928   1.362 -0.5659  0.1052 -0.0222
  178TIP3    H1  540   4.556   0.988   1.421 -0.0507  0.0763  0.4179
  178TIP3    H2  541   4.662   0.984   1.312 -0.3615  0.0163  0.1184
  179TIP3   OH2  542   5.852   3.142   2.582  0.0766 -0.3563  0.1449
  179TIP3    H1  543   5.815   3.101   2.504 -0.8736 -0.8152  0.8217
  179TIP3    H2  544   5.907   3.073   2.620  1.0054  0.0543 -0.4096
  180TIP3   OH2  545   4.644   0.636   4.838  0.4498 -0.0858 -0.0462
  180TIP3    H1  546   4.704   0.708   4.858  1.8568 -1.4073  0.6964
  180TIP3    H2  547   4.619   0.600   4.924 -0.9669  0.0675 -0.3678
  181TIP3   OH2  548   2.592   0.402   3.805 -0.4274  0.2929  0.3267
  181TIP3    H1  549   2.599   0.384   3.711 -0.6260 -1.0563  0.5554
  181TIP3    H2  550   2.501   0.428   3.817  0.2666  3.4762 -0.2947
  182TIP3   OH2  551   0.129   1.855   2.735 -0.0099  0.0358 -0.8550
  182TIP3    H1  552   0.170   1.769   2.738 -0.7887 -0.3332 -0.3725
  182TIP3    H2  553   0.068   1.850   2.662 -1.3996 -0.4742  0.2882
  183TIP3   OH2  554   3.081   1.571   4.765 -0.1827 -0.3307  0.1599
  183TIP3    H1  555   3.119   1.610   4.685 -0.8946 -1.6076 -0.8403
  183TIP3    H2  556   2.990   1.601   4.764 -0.3991 -0.9878  0.0584
  184TIP3   OH2  557   1.664   4.433   2.379 -0.0999 -0.3319 -0.0278
  184TIP3    H1  558   1.694   4.520   2.403  0.4988 -0.0845 -1.5769
  184TIP3    H2  559   1.601   4.410   2.447 -1.7229  2.0955 -0.5730
  185TIP3   OH2  560   2.769   2.131   4.727 -0.1738 -0.1670  0.3700
  185TIP3    H1  561   2.708   2.115   4.799  0.3646 -2.9093  0.2985
  185TIP3    H2  562   2.852   2.092   4.756  0.7457  0.8386 -0.7786
  186TIP3   OH2  563   1.413   0.984   3.258 -0.0296 -0.3830 -0.6767
  186TIP3    H1  564   1.463   1.020   3.331  0.7646 -1.8191 -0.4826
  186TIP3    H2  565   1.336   1.041   3.251  0.7568  0.8163  0.1421
  187TIP3   OH2  566   5.631   5.245   3.052 -0.6127 -0.3281 -0.1029
  187TIP3    H1  567   5.593   5.190   2.983  0.2985  1.2280 -1.9558
  187TIP3    H2  568   5.582   5.327   3.046  0.5070  0.3642  0.0652
  188TIP3   OH2  569   1.508   0.914   1.743  0.8788 -0.2014  0.1685
  188TIP3    H1  570   1.597   0.947   1.754  0.2584  1.5346  0.3045
  188TIP3    H2  571   1.474   0.909   1.832  0.4758  0.2629  0.0453
  189TIP3   OH2  572   3.742   1.961   2.336 -0.2573  0.2944  0.0318
  189TIP3    H1  573   3.819   1.937   2.284 -0.1632  0.8009 -0.0630
  189TIP3    H2  574   3.708   1.877   2.367  0.1706  0.0461 -0.1549
  190TIP3   OH2  575   0.868   2.183   4.798  0.0411 -0.1508  0.0119
  190TIP3    H1  576   0.926   2.176   4.874 -1.2510 -0.0260  1.0491
  190TIP3    H2  577   0.785   2.144   4.828 -0.3919 -0.4049 -1.4502
  191TIP3   OH2  578   2.169   4.502   5.109 -0.2927  0.4582  0.3209
  191TIP3    H1  579   2.151   4.435   5.175  0.2336 -0.3097 -0.3030
  191TIP3    H2  580   2.084   4.519   5.068 -0.3357 -0.2124  0.1281
  192TIP3   OH2  581   1.005   2.619   2.841  0.0272  0.7182 -0.0636
  192TIP3    H1  582   1.040   2.612   2.930  2.4431  1.5936 -0.8501
  192TIP3    H2  583   1.030   2.537   2.799 -1.5260  0.1026  0.1476
  193TIP3   OH2  584   2.518   1.329   0.815 -0.1409  0.9174  0.1724
  193TIP3    H1  585   2.485   1.362   0.731  0.4217  1.2511  0.0778
  193TIP3    H2  586   2.533   1.235   0.799 -1.7916  0.5713  0.4593
  194TIP3   OH2  587   1.035   1.219   2.331 -0.6241 -0.0169 -0.8037
  194TIP3    H1  588   1.116   1.185   2.292  1.1407  1.2388  1.4564
  194TIP3    H2  589   1.011   1.153   2.396 -0.3780  0.4198 -0.2602
  195TIP3   OH2  590   0.760   5.523   2.165 -0.5507  0.4979 -0.0391
  195TIP3    H1  591   0.790   5.446   2.117  2.1574  1.1250  0.4804
  195TIP3    H2  592   0.768   5.498   2.257 -1.3370  0.8154  0.1162
  196TIP3   OH2  593   1.009   0.566   2.130 -0.1924  0.9983  0.3981
  196TIP3    H1  594   1.066   0.500   2.090 -1.2573  0.4150 -0.2159
  196TIP3    H2  595   1.024   0.645   2.079  0.0444  0.8418  0.2236
  197TIP3   OH2  596   3.831   1.497   1.086 -0.2594 -0.3642 -0.4701
  197TIP3    H1  597   3.752   1.443   1.083 -0.0865 -0.5811 -1.7574
  197TIP3    H2  598   3.800   1.586   1.069 -0.2499 -0.4384 -0.8980
  198TIP3   OH2  599   0.664   2.573   1.768  0.3840  0.3218 -0.0383
  198TIP3    H1  600   0.598   2.525   1.817 -0.1432 -0.5239 -1.5350
  198TIP3    H2  601   0.747   2.550   1.811 -0.2233  1.2087  1.7000
  199TIP3   OH2  602   5.416   2.437   2.955 -0.2066 -0.1898  0.6184
  199TIP3    H1  603   5.405   2.344   2.974  0.3604  0.1034  2.5968
  199TIP3    H2  604   5.424   2.441   2.860  0.6199 -2.2611  0.5461
  200TIP3   OH2  605   2.204   5.364   1.447  0.4554  0.6449  0.5147
  200TIP3    H1  606   2.131   5.382   1.388  0.2509  2.2751  1.2121
  200TIP3    H2  607   2.197   5.432   1.515  2.5704  0.8040  0.6312
  201TIP3   OH2  608   3.375   0.466   4.618 -0.2821 -0.1184 -0.4012
  201TIP3    H1  609   3.312   0.523   4.574  0.8154 -0.3205 -2.3863
  201TIP3    H2  610   3.325   0.389   4.644 -1.4941  1.1115  1.0813
  202TIP3   OH2  611   4.088   0.976   4.241  0.3764  0.0062  0.1495
  202TIP3    H1  612   4.065   1.040   4.308 -2.1341 -0.5207 -0.0896
  202TIP3    H2  613   4.076   1.023   4.158  1.4328  0.0680  0.0290
  203TIP3   OH2  614   4.409   3.638   4.494 -0.1471  0.5915  0.2417
  203TIP3    H1  615   4.350   3.644   4.418  1.7296  0.0300 -1.3344
  203TIP3    H2  616   4.493   3.668   4.461  1.4737 -2.4619  1.2548
  204TIP3   OH2  617   0.082   5.377   1.643  0.5080 -0.3589  0.3287
  204TIP3    H1  618   0.162   5.421   1.672  0.1030  2.0801 -1.8189
  204TIP3    H2  619   0.023   5.381   1.719  1.2541  0.9808  0.8671
  205TIP3   OH2  620   2.096   1.795   4.946 -0.3210  0.0330 -0.5646
  205TIP3    H1  621   2.041   1.770   4.872 -0.5399 -0.2786 -0.2963
  205TIP3    H2  622   2.184   1.802   4.909 -0.6969  1.7162 -1.2716
  206TIP3   OH2  623   6.000   4.376   3.239 -0.3825 -1.3721  0.6744
  206TIP3    H1  624   6.022   4.467   3.217  1.3642 -1.8400  0.2689
  206TIP3    H2  625   5.947   4.345   3.166 -0.7865 -0.7482  0.7021
  207TIP3   OH2  626   0.600   2.332   0.041  0.0923 -0.6545 -0.2792
  207TIP3    H1  627   0.553   2.279   0.105 -0.3999 -0.8621 -0.8041
  207TIP3    H2  628   0.681   2.356   0.085 -0.6786  0.0687  0.8061
  208TIP3   OH2  629   0.981   1.983   4.360 -0.1812 -0.2318 -0.2252
  208TIP3    H1  630   0.987   2.040   4.437  0.8366 -0.2568 -0.2785
  208TIP3    H2  631   1.045   1.913   4.376 -2.0333 -1.9220  0.2788
  209TIP3   OH2  632   5.196   5.177   0.631  0.1193  0.5083  0.5109
  209TIP3    H1  633   5.119   5.121   0.641 -0.7025  1.2246 -1.3444
  209TIP3    H2  634   5.270   5.118   0.642 -0.6538 -0.2071  2.3155
  210TIP3   OH2  635   0.495   0.906   1.240  0.2791  0.1212 -1.1613
  210TIP3    H1  636   0.429   0.934   1.177  0.7606 -0.2026 -1.8155
  210TIP3    H2  637   0.579   0.930   1.200  0.5812  3.8109  1.1368
  211TIP3   OH2  638   4.158   4.431   4.250 -0.1847  0.0471  0.4544
  211TIP3    H1  639   4.143   4.445   4.344 -0.5410  1.6641  0.1782
  211TIP3    H2  640   4.075   4.396   4.218  0.2012 -1.3081  0.8678
  212TIP3   OH2  641   2.151   2.837   1.527  0.4225 -0.0891  0.4171
  212TIP3    H1  642   2.104   2.916   1.556 -2.0907 -1.5977  0.7185
  212TIP3    H2  643   2.223   2.829   1.588  1.0191  2.1850  0.1193
  213TIP3   OH2  644   3.105   5.341   1.522 -0.3426  0.1617  0.1400
  213TIP3    H1  645   3.082   5.339   1.429 -1.5260  0.5564  0.4139
  213TIP3    H2  646   3.107   5.250   1.549 -1.0982  0.0968 -0.0155
  214TIP3   OH2  647   5.534   2.227   3.656 -0.0142  0.5393 -0.2921
  214TIP3    H1  648   5.619   2.266   3.637 -0.4023  1.3315 -0.4702
  214TIP3    H2  649   5.486   2.297   3.701 -0.7295  0.2678 -0.6170
  215TIP3   OH2  650   4.228   0.960   2.203 -0.8811 -0.1403  0.3474
  215TIP3    H1  651   4.227   1.006   2.119 -1.7429 -0.6354  0.0673
  215TIP3    H2  652   4.148   0.988   2.247 -1.5673 -1.5301  0.0574
  216TIP3   OH2  653   0.779   2.582   3.643  0.7539 -0.1184  0.0098
  216TIP3    H1  654   0.764   2.496   3.683  0.4229  0.3694  0.9667
  216TIP3    H2  655   0.742   2.574   3.555  0.5883 -0.9050  0.1392
  217TIP3   OH2  656   0.787   4.807   1.025  0.2074 -0.4353  0.2915
  217TIP3    H1  657   0.832   4.837   0.946 -1.0396  0.4541 -0.1206
  217TIP3    H2  658   0.779   4.886   1.080 -2.1360 -0.1530 -0.3234
  218TIP3   OH2  659   4.491   1.455   2.382  0.3980  0.0096 -0.0485
  218TIP3    H1  660   4.552   1.402   2.434  0.8382  1.0607  0.5272
  218TIP3    H2  661   4.416   1.397   2.369  0.5148 -0.4926  1.2903
  219TIP3   OH2  662   1.520   2.835   3.038 -0.1137  0.1894  0.1374
  219TIP3    H1  663   1.602   2.790   3.018 -1.8931 -2.6159 -1.5862
  219TIP3    H2  664   1.471   2.771   3.091 -2.4158  0.3897 -1.6111
  220TIP3   OH2  665   0.975   5.831   4.703 -0.1871 -0.0049 -0.5398
  220TIP3    H1  666   0.999   5.882   4.626  1.2264  0.9521  0.4779
  220TIP3    H2  667   1.057   5.822   4.752 -0.7609 -1.7655  0.1948
  221TIP3   OH2  668   5.041   3.745   4.746  0.2203 -0.6605  0.3820
  221TIP3    H1  669   4.964   3.689   4.739 -0.9094  0.8753  0.0078
  221TIP3    H2  670   5.111   3.695   4.703 -0.9131 -1.4783 -0.5680
  222TIP3   OH2  671   4.785   1.627   0.516  0.4397 -0.5410 -0.1505
  222TIP3    H1  672   4.701   1.659   0.484  0.6005  0.4493  0.3635
  222TIP3    H2  673   4.782   1.644   0.610  0.8712 -1.3095  0.0104
  223TIP3   OH2  674   4.198   4.765   1.230 -0.1603 -0.3522  0.0880
  223TIP3    H1  675   4.238   4.683   1.203 -1.4200 -0.8138 -0.4075
  223TIP3    H2  676   4.217   4.771   1.324 -0.7940 -1.6257  0.3108
  224TIP3   OH2  677   0.628   4.906   4.928 -0.2646  0.2967 -0.2964
  224TIP3    H1  678   0.718   4.886   4.903 -0.9010 -1.2353 -1.5018
  224TIP3    H2  679   0.581   4.824   4.917 -1.1844  0.1120  3.6575
  225TIP3   OH2  680   4.628   0.154   3.942  1.0223  0.3407 -0.2397
  225TIP3    H1  681   4.658   0.175   3.853 -0.2267  2.3425 -0.2432
  225TIP3    H2  682   4.673   0.217   3.998  0.6303  0.0962  0.3566
  226TIP3   OH2  683   3.470   2.345   0.857  0.2675 -0.2049  0.2464
  226TIP3    H1  684   3.385   2.372   0.893  0.0923 -0.3734 -0.0338
  226TIP3    H2  685   3.531   2.412   0.887 -0.6500  2.2918 -2.9235
  227TIP3   OH2  686   6.097   0.576   4.667  0.5371 -0.3885  0.6920
  227TIP3    H1  687   6.005   0.585   4.692  0.4268 -2.4083  1.1476
  227TIP3    H2  688   6.138   0.657   4.697 -1.0973  0.6367  0.3191
  228TIP3   OH2  689   4.513   5.594   0.130  0.2088  0.0859 -0.4005
  228TIP3    H1  690   4.546   5.563   0.046 -0.6091  0.9607 -1.0612
  228TIP3    H2  691   4.476   5.680   0.112  0.7369  0.6571  1.0210
  229TIP3   OH2  692   0.973   0.309   4.231  0.3214 -0.2376 -0.0206
  229TIP3    H1  693   1.004   0.242   4.170  0.1504 -0.1588 -0.1936
  229TIP3    H2  694   1.031   0.300   4.307  0.2137 -0.6703  0.0125
  230TIP3   OH2  695   2.835   3.433   0.553  0.3003  0.2369 -0.1570
  230TIP3    H1  696   2.888   3.384   0.490  1.2544  1.2176 -0.1547
  230TIP3    H2  697   2.841   3.381   0.634  2.8106  1.1805  0.3743
  231TIP3   OH2  698   5.889   1.251   2.778  0.2671  0.3409 -0.1107
  231TIP3    H1  699   5.960   1.313   2.793 -0.9942  1.9709 -0.5415
  231TIP3    H2  700   5.854   1.232   2.865 -0.3770  1.5341 -0.0993
  232TIP3   OH2  701   6.154   2.996   4.583 -0.6769 -0.2038 -0.4342
  232TIP3    H1  702   6.198   2.966   4.663 -1.2978  0.7856  0.3021
  232TIP3    H2  703   6.165   3.091   4.583 -0.3731 -0.2136 -1.7310
  233TIP3   OH2  704   1.370   2.691   2.424 -0.3348  0.0911 -0.0768
  233TIP3    H1  705   1.393   2.612   2.376 -0.0856  0.6881 -0.9625
  233TIP3    H2  706   1.275   2.687   2.432 -0.4486  0.2601 -1.1423
  234TIP3   OH2  707   1.997   2.126   4.582 -0.1107 -0.3136  0.5142
  234TIP3    H1  708   2.080   2.097   4.544 -0.7568 -0.6587 -0.7048
  234TIP3    H2  709   2.013   2.130   4.676  1.1164 -0.9215  0.3460
  235TIP3   OH2  710   0.233   3.658   2.033 -0.0575 -0.3033  0.0108
  235TIP3    H1  711   0.244   3.618   2.119  0.6907  0.8247  0.4727
  235TIP3    H2  712   0.138   3.659   2.019 -0.4511  1.9910  2.1153
  236TIP3   OH2  713   0.507   0.330   4.217  0.1924  0.3540 -0.0974
  236TIP3    H1  714   0.564   0.295   4.285 -0.5857 -1.1778 -0.1957
  236TIP3    H2  715   0.418   0.310   4.248 -0.1677 -0.8176 -1.7461
  237TIP3   OH2  716   4.173   1.498   4.419 -0.0016  0.3261 -0.1411
  237TIP3    H1  717   4.215   1.526   4.338  0.6986 -0.7159 -0.1691
  237TIP3    H2  718   4.136   1.578   4.457 -1.8183  0.6111 -2.2983
  238TIP3   OH2  719   4.308   0.554   3.445  0.1799 -0.5528 -0.6662
  238TIP3    H1  720   4.267   0.621   3.500  0.8438 -1.8615  1.5478
  238TIP3    H2  721   4.373   0.603   3.394 -0.8201  0.8040 -0.7066
  239TIP3   OH2  722   4.093   1.895   0.739  0.5237 -0.2446 -0.2797
  239TIP3    H1  723   4.111   1.979   0.782  2.7182  0.0850 -1.6868
  239TIP3    H2  724   4.115   1.910   0.647  2.6323 -2.7979 -0.2938
  240TIP3   OH2  725   6.009   0.756   4.412  0.8993 -0.7853 -0.5183
  240TIP3    H1  726   5.953   0.688   4.450  2.2094 -1.8272 -0.4004
  240TIP3    H2  727   6.091   0.712   4.393  0.9579  0.1629 -2.8028
  241TIP3   OH2  728   2.202   5.082   1.534 -0.0787  0.4077  0.5953
  241TIP3    H1  729   2.171   5.111   1.620  0.0330  2.2494  0.0660
  241TIP3    H2  730   2.256   5.155   1.503  0.9300 -0.7594 -0.5125
  242TIP3   OH2  731   4.662   3.308   0.044  0.3124 -0.0018  0.2298
  242TIP3    H1  732   4.584   3.316  -0.012  0.3938  2.2788  0.3284
  242TIP3    H2  733   4.653   3.380   0.107  1.8761 -0.4863  1.0494
  243TIP3   OH2  734   4.843   3.326   4.874 -0.3665  0.2584 -0.4213
  243TIP3    H1  735   4.903   3.307   4.802 -0.6336 -0.9096 -0.3558
  243TIP3    H2  736   4.819   3.418   4.862 -1.6403 -0.3131 -2.7510
  244TIP3   OH2  737   2.539   2.208   0.602 -0.0673 -0.4527 -0.5101
  244TIP3    H1  738   2.451   2.228   0.570 -0.3940 -0.0548  0.5737
  244TIP3    H2  739   2.587   2.181   0.524 -0.4392  1.7099 -1.5633
  245TIP3   OH2  740   2.541   4.010   2.498  0.0257  0.3552  0.0980
  245TIP3    H1  741   2.461   4.023   2.447 -0.7463 -0.1210  1.1516
  245TIP3    H2  742   2.551   3.915   2.501  0.7688  0.4178 -0.2196
  246TIP3   OH2  743   4.939   3.234   1.356 -0.1052  0.2156 -0.0795
  246TIP3    H1  744   4.904   3.322   1.348 -2.1007 -0.1679  2.7847
  246TIP3    H2  745   4.996   3.237   1.433  1.2534 -0.6269 -1.0061
  247TIP3   OH2  746   2.569   4.222   1.729  0.7052 -0.4426  0.5475
  247TIP3    H1  747   2.595   4.306   1.693 -0.2567 -0.5409 -0.4244
  247TIP3    H2  748   2.571   4.234   1.824 -1.0104  1.1856  0.4216
  248TIP3   OH2  749   1.156   0.210   2.037 -0.6590 -0.6309 -0.6436
  248TIP3    H1  750   1.127   0.223   2.128  3.0537 -0.8138  0.7381
  248TIP3    H2  751   1.231   0.268   2.028  1.2765 -3.2404 -2.3817
  249TIP3   OH2  752   5.879   3.489   3.161  0.3033  0.4952  0.1329
  249TIP3    H1  753   5.948   3.550   3.187 -1.7338  3.7183 -1.4012
  249TIP3    H2  754   5.822   3.482   3.238  0.6214  0.3798  0.3601
  250TIP3   OH2  755   0.537   1.177   0.231 -0.4641  0.7923 -1.0013
  250TIP3    H1  756   0.592   1.157   0.307 -1.2674  0.3526 -0.5227
  250TIP3    H2  757   0.451   1.142   0.254 -0.1255 -1.8417 -3.1978
  251TIP3   OH2  758   0.757   0.962   0.341  0.9882  0.1716 -0.7882
  251TIP3    H1  759   0.719   0.938   0.426 -1.0049  2.0073 -1.0668
  251TIP3    H2  760   0.775   0.879   0.298 -0.2275 -0.7911  0.4712
  252TIP3   OH2  761   6.210   0.587   1.836  0.2230 -0.2816  0.0555
  252TIP3    H1  762   6.243   0.513   1.887  0.0452 -1.9356 -2.0974
  252TIP3    H2  763   6.153   0.547   1.770 -0.1823  1.8277 -0.9514
  253TIP3   OH2  764   3.761   3.969   0.265 -0.5095 -0.7034 -0.1012
  253TIP3    H1  765   3.752   4.018   0.347  1.2860  0.6896 -0.6578
  253TIP3    H2  766   3.710   4.019   0.201 -1.4251 -1.4625  0.0161
  254TIP3   OH2  767   2.003   4.199   4.566 -0.5728 -0.0945 -0.3045
  254TIP3    H1  768   2.085   4.232   4.528  0.3288 -1.9715 -0.1192
  254TIP3    H2  769   2.027   4.176   4.656 -1.4161 -0.2872 -0.1256
  255TIP3   OH2  770   2.662   4.660   1.824 -0.6093 -0.0836 -0.4857
  255TIP3    H1  771   2.578   4.642   1.868 -0.5008 -0.9178 -0.6038
  255TIP3    H2  772   2.661   4.754   1.809 -1.4342 -0.0495 -0.2825
  256TIP3   OH2  773   0.202   1.398   5.050  0.1977  0.0107 -0.3658
  256TIP3    H1  774   0.187   1.305   5.030  0.5702 -0.1891  0.2496
  256TIP3    H2  775   0.115   1.436   5.055  0.0657  0.0302 -2.1320
  257TIP3   OH2  776   5.314   1.846   2.397 -0.0865 -0.3337  0.7646
  257TIP3    H1  777   5.340   1.816   2.485  1.4400 -1.1319  0.0760
  257TIP3    H2  778   5.396   1.858   2.350 -0.8874 -1.6175 -1.1048
  258TIP3   OH2  779   5.617   4.725   1.421 -0.0782 -0.0128  0.4558
  258TIP3    H1  780   5.555   4.671   1.471 -2.7837 -0.8352 -3.3376
  258TIP3    H2  781   5.703   4.701   1.456 -1.5314 -2.6051  2.6755
  259TIP3   OH2  782   2.279   4.122   1.956  0.1377 -0.0241 -0.4524
  259TIP3    H1  783   2.184   4.130   1.945  0.1663  3.0133  0.6560
  259TIP3    H2  784   2.290   4.054   2.022 -1.5401  1.6399  1.7127
  260TIP3   OH2  785   1.994   4.131   0.834  0.4164 -0.0359 -0.2097
  260TIP3    H1  786   1.936   4.070   0.879 -0.1328 -0.1057 -0.9954
  260TIP3    H2  787   2.067   4.144   0.895  0.0541 -0.6993  0.3809
  261TIP3   OH2  788   2.786   2.199   1.833  0.2592  0.1104  0.2721
  261TIP3    H1  789   2.842   2.251   1.891  1.1366 -1.0723  0.5283
  261TIP3    H2  790   2.821   2.214   1.745 -1.5407  2.5084 -0.1382
  262TIP3   OH2  791   0.811   0.310   3.557 -0.1196  0.2994  0.3042
  262TIP3    H1  792   0.731   0.291   3.508  0.0250  0.3922  0.0291
  262TIP3    H2  793   0.796   0.397   3.593  0.5004  1.0215 -1.0976
  263TIP3   OH2  794   3.696   2.339   2.591 -0.7098 -0.3626 -0.3697
  263TIP3    H1  795   3.747   2.295   2.524  1.9618  0.7436  0.8040
  263TIP3    H2  796   3.711   2.288   2.671  0.5746  1.2684  0.4962
  264TIP3   OH2  797   2.286   4.567   4.602  0.7437 -0.1502  0.1518
  264TIP3    H1  798   2.273   4.508   4.676  0.3404 -1.0962 -0.6492
  264TIP3    H2  799   2.295   4.653   4.642  1.7412 -0.7827  1.3884
  265TIP3   OH2  800   5.534   5.352   2.604  0.2358 -0.5855 -0.2312
  265TIP3    H1  801   5.523   5.391   2.517  0.2462  1.2239  0.5192
  265TIP3    H2  802   5.611   5.398   2.640 -1.6962  1.1783  1.9527
  266TIP3   OH2  803   5.738   0.812   3.967  0.4138 -0.1576  0.5472
  266TIP3    H1  804   5.809   0.779   4.022  0.5456 -0.1613  0.3741
  266TIP3    H2  805   5.724   0.902   3.997  0.9974  0.0975  0.0812
  267TIP3   OH2  806   6.162   0.003   2.066 -0.1051 -0.0371 -0.0940
  267TIP3    H1  807   6.225  -0.031   2.002 -2.0520 -2.4014 -0.9056
  267TIP3    H2  808   6.214   0.061   2.122  1.9543  1.2194 -3.0255
  268TIP3   OH2  809   1.167   2.800   0.828 -0.4712 -0.0364  0.5251
  268TIP3    H1  810   1.141   2.750   0.905 -1.4290 -0.3738 -0.0055
  268TIP3    H2  811   1.087   2.844   0.800  0.4706  2.3924  1.3837
  269TIP3   OH2  812   4.969   0.836   1.222  0.0557 -0.0056 -0.5606
  269TIP3    H1  813   4.896   0.892   1.195  0.7806  0.4019 -1.7647
  269TIP3    H2  814   4.979   0.773   1.151 -0.0545 -1.0036  0.2831
  270TIP3   OH2  815   4.372   5.463   4.285  0.0382 -0.2584 -0.1366
  270TIP3    H1  816   4.279   5.448   4.266 -0.6974  2.1137  1.2487
  270TIP3    H2  817   4.414   5.467   4.199 -1.1276 -1.3242 -0.7830
  271TIP3   OH2  818   4.483   3.266   3.407  0.2701 -0.4969  0.1320
  271TIP3    H1  819   4.473   3.329   3.478 -0.8674  1.4789 -1.6823
  271TIP3    H2  820   4.491   3.319   3.328 -2.7928 -2.5734 -1.7778
  272TIP3   OH2  821   3.287   2.269   3.498 -0.1288 -0.2466  0.1930
  272TIP3    H1  822   3.256   2.278   3.588 -1.1939  0.5110 -0.2424
  272TIP3    H2  823   3.208   2.274   3.444  0.2054 -2.7764 -0.7042
  273TIP3   OH2  824   0.190   2.123   3.680 -0.1867  0.3881  0.3058
  273TIP3    H1  825   0.157   2.195   3.735  1.7097  1.5651  0.0192
  273TIP3    H2  826   0.276   2.154   3.650 -0.3689 -0.9880 -1.8445
  274TIP3   OH2  827   4.162   0.028   2.544  0.1494 -0.2978 -0.1581
  274TIP3    H1  828   4.183   0.082   2.469 -1.1066 -1.1350 -1.1578
  274TIP3    H2  829   4.068   0.040   2.558  0.4854  0.4405  1.7861
  275TIP3   OH2  830   3.846   0.866   4.014  0.0112  0.1933 -0.0015
  275TIP3    H1  831   3.928   0.831   3.979  0.0592 -0.7072  0.9439
  275TIP3    H2  832   3.801   0.789   4.050 -0.0326  1.0318  1.8849
  276TIP3   OH2  833   2.996   5.447   2.018 -0.0179  0.0439  0.6960
  276TIP3    H1  834   3.024   5.503   1.946 -2.6756  0.0972 -0.3793
  276TIP3    H2  835   3.019   5.358   1.990 -0.9896  0.0691 -0.2388
  277TIP3   OH2  836   5.056   0.828   4.040  0.5713  0.2831 -0.5552
  277TIP3    H1  837   5.099   0.898   4.089 -0.5607  1.2102 -0.8526
  277TIP3    H2  838   5.074   0.749   4.091  0.0850  1.1126  0.9662
  278TIP3   OH2  839   5.042   2.013   1.909  0.2089  1.0044  0.1735
  278TIP3    H1  840   5.040   1.975   1.821 -0.4575  1.3619  0.0342
  278TIP3    H2  841   5.045   1.936   1.967 -0.2996  0.7478 -0.1314
  279TIP3   OH2  842   3.503   5.392   4.167  0.0129  0.8780  0.6940
  279TIP3    H1  843   3.424   5.426   4.208 -0.7749  1.6033 -1.2633
  279TIP3    H2  844   3.511   5.443   4.086  1.1838 -0.7574 -0.2902
  280TIP3   OH2  845   4.331   5.740   4.375  0.3241  0.1601  0.0186
  280TIP3    H1  846   4.407   5.795   4.355  0.1934 -0.0532 -1.1031
  280TIP3    H2  847   4.363   5.650   4.360 -0.0146  0.0387  0.0286
  281TIP3   OH2  848   2.841   2.393   4.718 -0.9230  0.3855  0.2778
  281TIP3    H1  849   2.795   2.316   4.686 -1.5450  1.0736 -0.5089
  281TIP3    H2  850   2.772   2.456   4.739 -0.3821  2.0754 -2.5282
  282TIP3   OH2  851   4.344   5.268   1.184  0.7228 -0.3546 -0.6371
  282TIP3    H1  852   4.397   5.226   1.253 -0.1602  1.0019  0.9519
  282TIP3    H2  853   4.256   5.273   1.222 -0.2917 -1.3972 -2.7171
  283TIP3   OH2  854   4.966   1.278   1.952  0.5209  0.1122  0.2497
  283TIP3    H1  855   5.041   1.265   1.893  2.3483  0.4559  2.3674
  283TIP3    H2  856   4.977   1.212   2.020 -1.4395 -0.1739  0.3361
  284TIP3   OH2  857   2.459   4.578   2.635  0.2315  0.0205 -0.4372
  284TIP3    H1  858   2.381   4.523   2.625 -0.1222  0.6098 -0.9934
  284TIP3    H2  859   2.517   4.551   2.564 -0.2403  0.8367 -1.1551
  285TIP3   OH2  860   6.321   0.650   3.605  0.0297 -0.1621  0.8920
  285TIP3    H1  861   6.226   0.647   3.596 -0.0256 -0.0264  1.4383
  285TIP3    H2  862   6.354   0.613   3.522 -0.4798  0.4879  0.3922
  286TIP3   OH2  863   1.159   5.905   2.595  0.2719 -0.0743  0.0288
  286TIP3    H1  864   1.118   5.956   2.526 -0.4415 -0.6279  0.0284
  286TIP3    H2  865   1.200   5.970   2.652  0.4798  0.4115 -0.6673
  287TIP3   OH2  866   4.494   5.228   3.949  0.3395  0.4772  0.3028
  287TIP3    H1  867   4.489   5.270   3.863 -1.6766  0.9369  0.5830
  287TIP3    H2  868   4.587   5.216   3.964  0.8624  2.3052 -1.0419
  288TIP3   OH2  869   5.927   4.756   1.021  1.0021 -0.1477  0.9101
  288TIP3    H1  870   5.958   4.728   1.107  0.3575  0.7507  1.4650
  288TIP3    H2  871   5.965   4.843   1.009  1.3541 -0.4094  0.1385
  289TIP3   OH2  872   4.379   1.197   4.459  0.3121  0.1271 -0.1891
  289TIP3    H1  873   4.439   1.144   4.512 -0.0069  0.5457  0.6108
  289TIP3    H2  874   4.295   1.151   4.464  0.3677 -0.0330 -0.6523
  290TIP3   OH2  875   0.544   2.594   1.510 -0.2776 -0.3208 -0.6703
  290TIP3    H1  876   0.471   2.605   1.572  0.2005  2.3029 -0.4571
  290TIP3    H2  877   0.621   2.586   1.566 -0.1670 -1.2083 -0.9303
  291TIP3   OH2  878   4.694   4.611   2.965  0.1558  0.4359  0.0519
  291TIP3    H1  879   4.735   4.660   2.894 -0.3759  0.4570 -0.2403
  291TIP3    H2  880   4.767   4.567   3.009  0.7477  1.9638  0.7040
  292TIP3   OH2  881   2.380   1.976   5.125 -0.9018  0.1092  0.0554
  292TIP3    H1  882   2.368   1.992   5.031  0.3759  0.0245 -0.1382
  292TIP3    H2  883   2.450   1.910   5.129 -0.0112  1.0759  1.0941
  293TIP3   OH2  884   3.929   2.955   0.061  0.0194 -0.5357 -0.0997
  293TIP3    H1  885   3.843   2.920   0.085  0.2223  0.3597  2.2103
  293TIP3    H2  886   3.973   2.882   0.017 -2.2553 -0.6695 -2.4083
  294TIP3   OH2  887   3.462   3.604   2.514 -0.5057  0.6087 -1.2076
  294TIP3    H1  888   3.370   3.592   2.489  0.0634 -2.9478 -2.1001
  294TIP3    H2  889   3.512   3.561   2.444  1.6825 -0.0358  0.6258
  295TIP3   OH2  890   1.110   3.718   3.515 -0.3818  0.2056 -0.1944
  295TIP3    H1  891   1.135   3.675   3.597 -2.1933  0.0354  0.3226
  295TIP3    H2  892   1.145   3.806   3.522  2.5792 -0.8122 -0.8597
  296TIP3   OH2  893   1.189   3.196   2.390 -0.6306 -0.5708 -0.0237
  296TIP3    H1  894   1.216   3.196   2.482  0.1229  2.0722 -0.1731
  296TIP3    H2  895   1.151   3.282   2.376 -1.8655 -1.3593 -1.9210
  297TIP3   OH2  896   2.171   1.424   0.630 -0.5978  0.3511  0.0541
  297TIP3    H1  897   2.253   1.471   0.619 -0.2263 -0.2823  0.0557
  297TIP3    H2  898   2.108   1.490   0.659 -1.0678  1.6932 -3.5531
  298TIP3   OH2  899   4.774   0.774   3.950 -0.3347 -0.2528 -0.2368
  298TIP3    H1  900   4.687   0.808   3.932  0.1774  0.5047 -1.3604
  298TIP3    H2  901   4.765   0.730   4.035 -1.4901  0.9488  0.3014
  299TIP3   OH2  902   4.188   2.285   2.932  0.9448  0.5756  0.2236
  299TIP3    H1  903   4.171   2.289   3.026  0.8752  0.7987  0.2016
  299TIP3    H2  904   4.180   2.376   2.902 -1.3266  0.2427 -0.3947
  300TIP3   OH2  905   1.383   3.819   3.669 -0.4331  0.1800  0.4053
  300TIP3    H1  906   1.313   3.883   3.660 -0.3850  0.2582  0.6003
  300TIP3    H2  907   1.338   3.734   3.673 -0.4937  0.1937  0.0950
  301TIP3   OH2  908   6.316   4.059   5.172  0.0614  0.0452  0.1738
  301TIP3    H1  909   6.368   4.016   5.103 -3.5508  0.2788 -3.0633
  301TIP3    H2  910   6.310   4.150   5.143 -1.9860  0.0348  0.4487
  302TIP3   OH2  911   1.998   1.640   2.160  0.3537  0.0024 -0.3975
  302TIP3    H1  912   1.924   1.585   2.185 -0.6335  0.9443 -1.1177
  302TIP3    H2  913   2.024   1.685   2.240 -1.2603  1.2423 -0.4961
  303TIP3   OH2  914   4.793   0.035   4.349 -0.1341 -0.5945  0.6327
  303TIP3    H1  915   4.819   0.017   4.439  2.2799  0.1287  0.1375
  303TIP3    H2  916   4.845   0.110   4.323 -0.9619 -0.6261 -1.3128
  304TIP3   OH2  917   4.714   1.719   3.392 -0.0715  0.6891 -0.2812
  304TIP3    H1  918   4.765   1.714   3.473  0.8111 -1.3952 -0.9149
  304TIP3    H2  919   4.639   1.661   3.406 -1.1502  2.0501 -0.1712
  305TIP3   OH2  920   1.475   2.428   5.148 -0.1656 -0.4318  0.2494
  305TIP3    H1  921   1.554   2.403   5.196 -0.9139 -0.9833  1.2278
  305TIP3    H2  922   1.418   2.352   5.155 -1.2644  0.4028  0.6176
  306TIP3   OH2  923   4.580   2.730   1.527  0.5329 -0.4336  0.4112
  306TIP3    H1  924   4.649   2.668   1.503 -0.7705 -1.9384  0.3882
  306TIP3    H2  925   4.522   2.730   1.451  1.0177  1.6493 -0.0273
  307TIP3   OH2  926   1.895   4.523   1.094 -0.1301 -0.0447  0.1056
  307TIP3    H1  927   1.990   4.526   1.109 -0.1400 -0.3838  0.2409
  307TIP3    H2  928   1.886   4.524   0.998  0.0842 -1.6412  0.0313
  308TIP3   OH2  929   2.576   0.120   1.123  0.4876 -0.7283 -0.1745
  308TIP3    H1  930   2.538   0.067   1.193  1.3175 -0.0906  0.8060
  308TIP3    H2  931   2.668   0.091   1.119  0.4591 -0.7308 -0.9896
  309TIP3   OH2  932   5.518   2.944   2.164 -0.3201  0.6628  0.8126
  309TIP3    H1  933   5.570   3.024   2.157  2.1470 -0.9485 -1.0601
  309TIP3    H2  934   5.493   2.924   2.074 -1.7549 -0.1612  1.3669
  310TIP3   OH2  935   6.298   2.880   3.069  0.2424  0.0437 -0.3678
  310TIP3    H1  936   6.341   2.954   3.112  0.2252 -1.1129  1.7774
  310TIP3    H2  937   6.205   2.905   3.067  0.1532 -0.1191  0.8728
  311TIP3   OH2  938   0.859   0.709   4.241  0.5232 -0.5303  0.0331
  311TIP3    H1  939   0.842   0.621   4.275 -1.1903  0.0700  0.8473
  311TIP3    H2  940   0.911   0.752   4.309  1.1158 -0.7975 -0.2390
  312TIP3   OH2  941   5.118   3.599   3.028  0.4159 -0.1089 -0.5083
  312TIP3    H1  942   5.065   3.671   3.062 -1.8030 -1.0146 -1.8401
  312TIP3    H2  943   5.115   3.610   2.933  0.7941 -1.4589 -0.6927
  313TIP3   OH2  944   1.850   5.875   4.510  0.2078  0.1874  0.3522
  313TIP3    H1  945   1.870   5.871   4.416  1.5398  1.2925  0.5542
  313TIP3    H2  946   1.756   5.890   4.514  0.0789 -0.2110 -0.7949
  314TIP3   OH2  947   0.520   3.952   3.870 -0.0225  0.5196  0.1094
  314TIP3    H1  948   0.516   3.953   3.966  0.8522 -1.4341  0.2137
  314TIP3    H2  949   0.495   3.863   3.846  1.3687  0.4826 -1.3664
  315TIP3   OH2  950   5.353   3.429   3.141 -0.0817  0.8510 -0.1409
  315TIP3    H1  951   5.325   3.519   3.125  0.8266  1.7941  2.8010
  315TIP3    H2  952   5.298   3.399   3.213 -0.2326 -0.9246 -0.9393
  316TIP3   OH2  953   1.321   5.325   0.303  0.5435 -0.6029  0.0460
  316TIP3    H1  954   1.364   5.364   0.227  4.0634  0.6457  2.4095
  316TIP3    H2  955   1.232   5.362   0.302  1.0013  0.6270 -2.5215
  317TIP3   OH2  956   3.236   0.993   1.264 -0.1288 -0.2993  0.5157
  317TIP3    H1  957   3.263   1.063   1.204 -1.5323 -0.2337 -0.0885
  317TIP3    H2  958   3.313   0.936   1.271  0.1042 -0.2546 -1.2899
  318TIP3   OH2  959   5.680   1.145   3.952  0.0786 -0.0771  0.0328
  318TIP3    H1  960   5.617   1.200   3.997 -2.0835 -1.5163 -1.0387
  318TIP3    H2  961   5.764   1.166   3.992 -1.3878  0.2010  3.2479
  319TIP3   OH2  962   1.104   5.411   2.277  0.0660 -0.0231  0.2929
  319TIP3    H1  963   1.109   5.506   2.280 -2.3091  0.1454  1.1212
  319TIP3    H2  964   1.127   5.383   2.366 -0.2280 -0.1411  0.3332
  320TIP3   OH2  965   2.474   0.381   1.905  0.6480  0.1670  0.3077
  320TIP3    H1  966   2.473   0.455   1.844 -0.8174  0.3703  0.5337
  320TIP3    H2  967   2.567   0.364   1.921  1.0246  1.3122 -0.5191
  321TIP3   OH2  968   1.714   3.055   3.573  0.6869 -0.8866 -0.1854
  321TIP3    H1  969   1.753   2.996   3.508 -1.2355 -0.9259 -1.3773
  321TIP3    H2  970   1.668   3.121   3.521  0.0400 -0.2554  1.1526
  322TIP3   OH2  971   6.248   5.162   2.856 -0.8540 -0.2941  0.3498
  322TIP3    H1  972   6.294   5.243   2.880 -1.7980  0.1263  0.8114
  322TIP3    H2  973   6.307   5.118   2.795 -0.1207  0.5206  0.4462
  323TIP3   OH2  974   2.013   5.163   1.816  0.0275  0.4743 -0.0307
  323TIP3    H1  975   2.078   5.200   1.876  1.6660  0.7899 -1.8833
  323TIP3    H2  976   2.009   5.070   1.841  0.1920  0.7140  0.9537
  324TIP3   OH2  977   0.074   4.230   0.377  0.4480 -0.0474  0.0027
  324TIP3    H1  978   0.013   4.156   0.376  1.3995 -0.9149 -2.4865
  324TIP3    H2  979   0.051   4.279   0.456 -3.1731 -0.5363 -0.5785
  325TIP3   OH2  980   4.113   5.878   2.870  0.4362  0.4836 -0.4613
  325TIP3    H1  981   4.073   5.822   2.803 -0.0995  1.1480 -0.6933
  325TIP3    H2  982   4.078   5.965   2.854  1.2660  0.9004 -0.0950
  326TIP3   OH2  983   2.581   1.668   1.055  0.3771 -0.4860  0.1577
  326TIP3    H1  984   2.521   1.711   0.995  0.9225  1.5221  0.9859
  326TIP3    H2  985   2.663   1.660   1.005  0.8104  1.1227  0.5545
  327TIP3   OH2  986   2.431   1.542   0.601  0.3473  0.5487  0.0571
  327TIP3    H1  987   2.416   1.590   0.520  0.1396  1.0357  0.3793
  327TIP3    H2  988   2.520   1.566   0.627  0.3615  0.5059  0.0487
  328TIP3   OH2  989   2.639   4.203   3.320 -0.2013 -0.5440 -0.3105
  328TIP3    H1  990   2.605   4.189   3.409  1.2649 -0.8606  0.2343
  328TIP3    H2  991   2.734   4.212   3.332  0.1077 -1.3011 -1.9223
  329TIP3   OH2  992   4.533   1.316   1.317  0.5355  0.7928 -0.4070
  329TIP3    H1  993   4.478   1.314   1.239 -1.4975  0.6911  0.9373
  329TIP3    H2  994   4.530   1.406   1.347  0.4506  0.6198  0.1192
  330TIP3   OH2  995   2.570   4.233   3.599 -0.0622  0.2569 -0.3714
  330TIP3    H1  996   2.574   4.157   3.657  1.6380  0.8703  0.3837
  330TIP3    H2  997   2.542   4.305   3.656  0.1308  0.5704 -0.6701
  331TIP3   OH2  998   4.892   1.076   2.983 -0.7175 -0.3029 -0.8474
  331TIP3    H1  999   4.979   1.038   2.969 -0.3556  0.6894 -1.3377
  331TIP3    H2 1000   4.879   1.071   3.078 -1.2204 -2.7855 -0.9619
  332TIP3   OH2 1001   1.914   0.161   4.994 -0.3171  0.5447 -0.3931
  332TIP3    H1 1002   1.943   0.143   4.904 -0.6878  1.7191 -0.7632
  332TIP3    H2 1003   1.822   0.184   4.985 -1.1191 -1.9301  0.6307
  333TIP3   OH2 1004   0.915   2.467   0.903  0.4812  0.6271  0.2963
  333TIP3    H1 1005   0.841   2.414   0.934  0.9880  1.6826  3.7735
  333TIP3    H2 1006   0.875   2.550   0.876 -0.1821 -0.8939 -4.1038
  334TIP3   OH2 1007   0.375   5.880   1.265  0.0795  0.0177  0.0559
  334TIP3    H1 1008   0.415   5.911   1.347 -0.3043 -1.1979  0.7392
  334TIP3    H2 1009   0.353   5.788   1.283 -2.7279  0.5285 -0.4007
  335TIP3   OH2 1010   3.074   1.441   3.204 -0.1043 -0.0132  0.1080
  335TIP3    H1 1011   3.139   1.460   3.273 -0.5168 -1.1457  0.8310
  335TIP3    H2 1012   3.124   1.395   3.137  0.2673  0.9498 -0.2885
  336TIP3   OH2 1013   1.566   3.517   5.026  0.5266 -0.1840  0.2051
  336TIP3    H1 1014   1.608   3.472   4.952  0.5976 -1.2730  0.8848
  336TIP3    H2 1015   1.580   3.459   5.100 -0.2812  0.4973  0.9114
  337TIP3   OH2 1016   2.172   2.586   3.650  0.9878 -0.0024 -0.0263
  337TIP3    H1 1017   2.217   2.669   3.664  1.0382  0.3950 -2.2040
  337TIP3    H2 1018   2.242   2.521   3.645  1.0581  0.0538  0.2418
  338TIP3   OH2 1019   2.488   2.922   4.946 -0.3544  0.1224 -0.3629
  338TIP3    H1 1020   2.539   3.000   4.967  0.3487 -0.4739  0.1827
  338TIP3    H2 1021   2.439   2.947   4.868  0.6937  0.7464 -0.8491
  339TIP3   OH2 1022   3.773   1.545   0.172 -0.0804  0.0224 -0.1584
  339TIP3    H1 1023   3.742   1.630   0.142  0.5145  0.2648 -0.0951
  339TIP3    H2 1024   3.737   1.483   0.108 -0.8057  0.2718 -0.0078
  340TIP3   OH2 1025   2.344   3.501   3.872  0.0810 -0.0853  0.0526
  340TIP3    H1 1026   2.257   3.487   3.909  0.7697  0.1786  1.8926
  340TIP3    H2 1027   2.328   3.535   3.784 -1.6421 -1.7816 -0.3433
  341TIP3   OH2 1028   1.751   1.501   2.237 -0.4345 -0.0652  0.0049
  341TIP3    H1 1029   1.689   1.451   2.185 -2.5850  1.5187  0.8902
  341TIP3    H2 1030   1.767   1.448   2.314  0.8986 -1.3431 -1.0927
  342TIP3   OH2 1031   6.073   1.808   0.100  0.9926 -0.2397 -0.7097
  342TIP3    H1 1032   6.109   1.750   0.167  1.1938 -0.6895 -1.1964
  342TIP3    H2 1033   6.058   1.751   0.025  3.0607  0.6677 -1.8994
  343TIP3   OH2 1034   1.833   3.743   1.095 -0.2122  0.0151  0.5263
  343TIP3    H1 1035   1.832   3.798   1.017 -0.8217  2.5767  2.2381
  343TIP3    H2 1036   1.911   3.770   1.143  1.8533 -3.5980 -0.4337
  344TIP3   OH2 1037   0.204   1.092   5.108  0.0235 -0.1587 -0.6166
  344TIP3    H1 1038   0.176   1.014   5.156 -0.3429  1.1963  1.5254
  344TIP3    H2 1039   0.276   1.062   5.053  1.7839 -1.5428  2.2020
  345TIP3   OH2 1040   0.616   5.797   0.977 -0.2195  0.3556 -0.1805
  345TIP3    H1 1041   0.535   5.754   0.952 -0.8009  1.8334 -0.9494
  345TIP3    H2 1042   0.620   5.787   1.072  0.0589 -1.9892 -0.3985
  346TIP3   OH2 1043   0.482   5.007   5.157 -0.4299 -0.0685  0.9196
  346TIP3    H1 1044   0.391   4.994   5.131 -0.1978  0.7816 -0.3922
  346TIP3    H2 1045   0.532   5.001   5.076  0.7284 -0.7544  1.6464
  347TIP3   OH2 1046   0.748   1.998   2.524  0.3479 -0.1501 -0.1033
  347TIP3    H1 1047   0.756   1.956   2.438 -0.0191 -2.4413  0.9196
  347TIP3    H2 1048   0.737   2.091   2.504  1.0936 -0.5185 -2.4941
  348TIP3   OH2 1049   1.609   1.982   1.004  0.4679 -0.5684  0.1400
  348TIP3    H1 1050   1.514   1.991   1.006  0.5123 -0.1145  0.3398
  348TIP3    H2 1051   1.642   2.071   0.995  0.9590 -0.2747  3.4915
  349TIP3   OH2 1052   5.973   0.923   4.775 -0.4088  0.7885  0.0126
  349TIP3    H1 1053   6.047   0.885   4.726 -1.3971 -1.0376 -0.1366
  349TIP3    H2 1054   6.014   0.964   4.851  0.6365 -2.5833  1.4459
  350TIP3   OH2 1055   1.002   4.029   3.887  0.3354 -0.4656 -0.0799
  350TIP3    H1 1056   1.084   4.058   3.926  0.0623 -1.2071  1.1359
  350TIP3    H2 1057   0.954   3.990   3.961 -0.5521 -1.2234 -1.0328
  351TIP3   OH2 1058   3.356   1.777   4.312 -0.2307 -0.3101 -0.2755
  351TIP3    H1 1059   3.269   1.815   4.325  0.5439  1.2271  0.6307
  351TIP3    H2 1060   3.339   1.697   4.261 -2.1003  0.2486 -0.6225
  352TIP3   OH2 1061   2.393   1.389   4.114  0.2929  0.8229 -0.4812
  352TIP3    H1 1062   2.456   1.432   4.171  1.3041  1.1252 -1.7605
  352TIP3    H2 1063   2.415   1.296   4.120 -0.3156  0.7290  0.4338
  353TIP3   OH2 1064   2.104   4.292   3.970  0.1947  0.0751  0.3967
  353TIP3    H1 1065   2.108   4.223   3.904  1.7362 -1.0082  1.5284
  353TIP3    H2 1066   2.070   4.248   4.048  0.5418  0.7528  0.9461
  354TIP3   OH2 1067   0.731   0.052   3.200 -0.3759  0.2221  0.3543
  354TIP3    H1 1068   0.774   0.102   3.132 -1.8120  0.2890 -0.5544
  354TIP3    H2 1069   0.772  -0.035   3.196 -0.1343  0.3617 -0.2846
  355TIP3   OH2 1070   5.017   1.729   1.044  0.1547  0.1023 -0.0940
  355TIP3    H1 1071   4.997   1.669   0.972 -0.1784  0.0913  0.0096
  355TIP3    H2 1072   4.945   1.718   1.106  0.8456 -0.5010  0.6395
  356TIP3   OH2 1073   4.906   5.761   5.154 -0.5614 -0.1591 -0.2816
  356TIP3    H1 1074   4.831   5.804   5.113 -0.7892 -0.4070 -0.1272
  356TIP3    H2 1075   4.954   5.722   5.081 -0.0268  0.8533 -0.4857
  357TIP3   OH2 1076   1.829   5.707   2.499 -0.3270  0.0206 -0.4119
  357TIP3    H1 1077   1.920   5.679   2.489 -0.6347 -1.0398 -0.4174
  357TIP3    H2 1078   1.783   5.665   2.426 -0.9712 -0.2106  0.1136
  358TIP3   OH2 1079   4.726   5.215   4.435  0.2185  0.1576  0.1413
  358TIP3    H1 1080   4.758   5.201   4.524  0.0717  1.0204  0.3438
  358TIP3    H2 1081   4.659   5.283   4.444  1.2277  1.3415 -0.7966
  359TIP3   OH2 1082   2.579   4.910   0.911  0.0126 -0.2337  0.1477
  359TIP3    H1 1083   2.510   4.968   0.878  0.4917 -0.8902 -2.1877
  359TIP3    H2 1084   2.556   4.823   0.877  0.3819 -1.0731  1.9084
  360TIP3   OH2 1085   2.561   4.691   0.775 -0.3080  0.0144 -0.9466
  360TIP3    H1 1086   2.514   4.704   0.693  0.5248 -0.1022 -1.4605
  360TIP3    H2 1087   2.612   4.611   0.760  0.7280  0.6154 -0.7438
  361TIP3   OH2 1088   4.308   3.427   0.947 -0.7133  0.7186 -0.3318
  361TIP3    H1 1089   4.275   3.339   0.925 -0.6645  0.4923  0.4675
  361TIP3    H2 1090   4.361   3.413   1.026  0.8568  1.1609 -1.2626
  362TIP3   OH2 1091   4.736   1.980   1.267 -0.0147  0.4922 -0.3771
  362TIP3    H1 1092   4.661   1.986   1.327  1.9341 -2.0089  2.5959
  362TIP3    H2 1093   4.730   1.892   1.230  0.7122  0.7743 -1.2021
  363TIP3   OH2 1094   5.779   5.079   0.939 -0.5388  0.8776  0.7644
  363TIP3    H1 1095   5.785   5.063   0.845 -2.8932 -0.6676  0.7916
  363TIP3    H2 1096   5.867   5.058   0.973  1.0430  3.6124 -1.2629
  364TIP3   OH2 1097   2.473   3.378   0.015  0.8874  0.5995  0.6548
  364TIP3    H1 1098   2.544   3.424  -0.030  0.0696 -0.7164 -2.1691
  364TIP3    H2 1099   2.509   3.292   0.036  0.5810  0.4393  0.5278
  365TIP3   OH2 1100   0.253   3.844   4.258 -0.1736 -0.1607 -0.0384
  365TIP3    H1 1101   0.235   3.753   4.283 -2.3570 -0.0960 -1.1479
  365TIP3    H2 1102   0.262   3.891   4.341 -1.4760 -0.9758  0.5974
  366TIP3   OH2 1103   1.735   3.108   1.203 -0.0572 -0.2122 -0.4592
  366TIP3    H1 1104   1.772   3.134   1.118 -0.5514  0.1151 -0.5752
  366TIP3    H2 1105   1.733   3.189   1.254  1.2013 -0.5901  0.2401
  367TIP3   OH2 1106   0.504   3.682   3.890 -0.1156 -0.8688 -0.9770
  367TIP3    H1 1107   0.589   3.642   3.871 -0.0428 -0.3969 -1.6828
  367TIP3    H2 1108   0.504   3.695   3.985  0.6432 -0.7954 -0.9794
  368TIP3   OH2 1109   5.547   1.454   3.639 -0.2346  0.5133  0.2293
  368TIP3    H1 1110   5.549   1.546   3.614  0.4460  0.8214  1.3992
  368TIP3    H2 1111   5.639   1.430   3.651 -0.4020 -0.3432 -0.1006
  369TIP3   OH2 1112   0.530   1.254   2.118 -0.0812 -0.0672  0.1042
  369TIP3    H1 1113   0.471   1.261   2.044 -2.0049 -0.8706  1.4775
  369TIP3    H2 1114   0.558   1.344   2.137 -2.6199  0.6580  0.7364
  370TIP3   OH2 1115   0.378   4.137   1.221 -0.3420  0.9847  0.4052
  370TIP3    H1 1116   0.457   4.178   1.188 -0.0417  0.9434  1.0479
  370TIP3    H2 1117   0.358   4.184   1.302 -0.4216  0.3764  0.7544
  371TIP3   OH2 1118   0.961   0.173   0.117  0.2146  0.2525  0.5921
  371TIP3    H1 1119   0.961   0.088   0.162 -1.9628  0.3330  0.8470
  371TIP3    H2 1120   0.959   0.151   0.024 -0.7718 -0.0266  0.6604
  372TIP3   OH2 1121   1.297   3.259   4.643 -0.3352 -0.3888  0.1635
  372TIP3    H1 1122   1.285   3.177   4.596  0.4481 -0.7194  0.5227
  372TIP3    H2 1123   1.384   3.252   4.682 -0.9000 -0.0638  1.5439
  373TIP3   OH2 1124   4.361   0.408   4.800 -0.2767 -0.1696  0.3123
  373TIP3    H1 1125   4.326   0.497   4.797 -1.1095 -0.4904  0.4528
  373TIP3    H2 1126   4.308   0.358   4.739  1.8442 -0.0301 -1.7758
  374TIP3   OH2 1127   2.533   2.817   0.195  0.4685  0.0824 -0.8683
  374TIP3    H1 1128   2.551   2.731   0.233  1.6489  0.4999 -0.4448
  374TIP3    H2 1129   2.478   2.798   0.119 -2.2276 -0.7723  1.0978
  375TIP3   OH2 1130   5.187   1.996   1.394  0.0327 -0.5092 -0.2114
  375TIP3    H1 1131   5.241   1.957   1.463 -0.9985 -0.4034  0.6951
  375TIP3    H2 1132   5.139   2.066   1.439  0.8264  0.9118 -1.4957
  376TIP3   OH2 1133   3.518   0.895   3.988 -0.1071  0.2201 -0.4690
  376TIP3    H1 1134   3.530   0.973   4.042 -0.4372  0.8490 -1.2772
  376TIP3    H2 1135   3.601   0.884   3.942  0.5790 -0.9816  0.9713
  377TIP3   OH2 1136   3.589   0.208   0.236 -0.5288  0.0122 -0.2614
  377TIP3    H1 1137   3.683   0.199   0.220 -0.6139 -0.3244 -0.6025
  377TIP3    H2 1138   3.582   0.277   0.301  0.0409 -0.9945  0.9020
  378TIP3   OH2 1139   5.865   3.256   4.097  0.0863 -0.1565  0.0800
  378TIP3    H1 1140   5.925   3.182   4.098  1.3078  0.7897 -0.5509
  378TIP3    H2 1141   5.918   3.330   4.065 -1.3250  0.7799 -0.1899
  379TIP3   OH2 1142   3.543   1.179   1.963  0.5847  0.6094 -0.7917
  379TIP3    H1 1143   3.623   1.206   2.006  0.1454 -1.2043  1.3059
  379TIP3    H2 1144   3.572   1.119   1.894  1.0399 -2.5850  1.9317
  380TIP3   OH2 1145   2.217   5.035   4.267  0.1694  0.0713  0.0519
  380TIP3    H1 1146   2.180   4.986   4.194  0.4685  0.9947 -0.7329
  380TIP3    H2 1147   2.141   5.058   4.321 -0.0911 -0.2938 -0.1523
  381TIP3   OH2 1148   3.436   5.211   1.697  0.4752 -0.2053  0.2982
  381TIP3    H1 1149   3.379   5.174   1.630  0.1857  0.2913  0.2628
  381TIP3    H2 1150   3.481   5.283   1.653 -1.2652  1.5150  1.1358
  382TIP3   OH2 1151   5.159   2.700   1.665 -0.2307  0.6066  0.2609
  382TIP3    H1 1152   5.068   2.710   1.692  0.2921  2.1084  1.6058
  382TIP3    H2 1153   5.178   2.779   1.615  0.2071  0.0871 -0.3970
  383TIP3   OH2 1154   6.005   3.181   1.693 -0.2657  0.0031  0.4707
  383TIP3    H1 1155   6.094   3.152   1.673 -0.7346 -1.1184 -0.0570
  383TIP3    H2 1156   5.966   3.198   1.608 -0.5617  0.5005  0.7021
  384TIP3   OH2 1157   2.948   1.752   0.643 -0.2375 -0.3565 -0.2212
  384TIP3    H1 1158   3.000   1.737   0.722  0.6669  3.5870  0.1767
  384TIP3    H2 1159   3.005   1.806   0.588 -2.3217  0.3923 -1.7724
  385TIP3   OH2 1160   5.496   2.847   1.445  0.1837 -0.0368  0.3146
  385TIP3    H1 1161   5.489   2.767   1.497  0.4405 -1.3893 -1.6226
  385TIP3    H2 1162   5.408   2.884   1.448 -0.0538 -0.6123  0.8972
  386TIP3   OH2 1163   5.047   5.353   1.419  0.4377 -0.0111  0.2795
  386TIP3    H1 1164   5.124   5.409   1.427 -0.2464  0.9115  0.5602
  386TIP3    H2 1165   5.078   5.277   1.370  1.1170  1.1471 -1.1596
  387TIP3   OH2 1166   2.163   2.808   2.082  0.4861 -0.3679 -0.0983
  387TIP3    H1 1167   2.149   2.784   2.174  0.8957 -0.0206  0.0563
  387TIP3    H2 1168   2.253   2.841   2.079  0.3346  0.0194 -0.5424
  388TIP3   OH2 1169   6.185   3.177   2.877  0.2200 -1.1476  0.4489
  388TIP3    H1 1170   6.126   3.104   2.862 -1.4718  0.0552  1.0006
  388TIP3    H2 1171   6.230   3.156   2.959 -0.6074 -1.3688  0.8581
  389TIP3   OH2 1172   0.128   2.501   2.937  0.5677  0.0938 -0.2813
  389TIP3    H1 1173   0.082   2.510   3.021 -1.4437 -1.1983 -1.1557
  389TIP3    H2 1174   0.094   2.573   2.884  0.1249 -0.4071 -0.6861
  390TIP3   OH2 1175   3.213   0.783   3.334 -0.2671  0.0237 -0.2186
  390TIP3    H1 1176   3.212   0.829   3.251  0.4462  0.9124  0.2517
  390TIP3    H2 1177   3.276   0.831   3.388  1.1979 -1.9908  0.0032
  391TIP3   OH2 1178   6.068   3.359   4.737 -0.6427  0.1824  0.4423
  391TIP3    H1 1179   6.161   3.378   4.725 -0.9258  2.5324  1.3416
  391TIP3    H2 1180   6.066   3.297   4.810  0.2128  0.7505  0.9733
  392TIP3   OH2 1181   5.267   5.366   0.238 -0.0797  0.0987  0.4053
  392TIP3    H1 1182   5.326   5.438   0.215  1.0610 -0.5399  1.2457
  392TIP3    H2 1183   5.309   5.288   0.201 -1.1033 -0.2092 -0.1483
  393TIP3   OH2 1184   4.961   5.942   4.377 -0.0649  0.2135 -0.0828
  393TIP3    H1 1185   5.003   5.920   4.294 -0.4112 -0.2169 -0.1502
  393TIP3    H2 1186   5.031   5.939   4.441  0.0018 -0.5864 -0.1802
  394TIP3   OH2 1187   5.123   1.487   3.504 -0.4192 -0.4029 -0.8843
  394TIP3    H1 1188   5.130   1.463   3.597  3.0999  1.3253 -0.5747
  394TIP3    H2 1189   5.074   1.414   3.465 -1.1638 -1.6730  2.1031
  395TIP3   OH2 1190   4.651   5.665   2.778 -0.8004 -0.4607 -0.5987
  395TIP3    H1 1191   4.605   5.744   2.750 -0.1056  0.1960  0.0253
  395TIP3    H2 1192   4.661   5.613   2.699 -1.0924  0.1791 -1.0629
  396TIP3   OH2 1193   3.498   4.533   2.552 -0.1453  0.1775 -0.0896
  396TIP3    H1 1194   3.421   4.477   2.553 -0.4342  0.5276 -1.3498
  396TIP3    H2 1195   3.494   4.580   2.635  0.6458 -2.3306  1.4774
  397TIP3   OH2 1196   4.094   5.441   0.423  0.6541 -0.0995  0.2528
  397TIP3    H1 1197   4.162   5.424   0.358  0.4944 -0.2077  0.1134
  397TIP3    H2 1198   4.051   5.356   0.435 -0.9346  0.4222 -1.3294
  398TIP3   OH2 1199   0.244   3.009   4.475  0.4119 -0.9432  0.2317
  398TIP3    H1 1200   0.262   3.022   4.383 -2.5486 -1.3316 -0.5111
  398TIP3    H2 1201   0.244   2.913   4.486  0.6855 -0.9015  0.6290
  399TIP3   OH2 1202   1.752   2.064   1.539  0.3711 -0.5605 -0.6402
  399TIP3    H1 1203   1.711   2.052   1.453  0.0171 -0.7016 -0.4526
  399TIP3    H2 1204   1.681   2.049   1.602 -0.1434  2.3588 -0.3554
  400TIP3   OH2 1205   1.700   5.137   0.510 -0.2493  0.4938 -0.1946
  400TIP3    H1 1206   1.768   5.186   0.557 -0.5386 -0.0153  0.7873
  400TIP3    H2 1207   1.746   5.093   0.439  0.2677  0.9679 -0.1578
  401TIP3   OH2 1208   1.092   3.736   1.068 -0.1067 -0.4235 -0.1702
  401TIP3    H1 1209   1.115   3.821   1.032 -1.8296  1.1553  2.1654
  401TIP3    H2 1210   1.176   3.693   1.085  0.7820 -0.2085 -3.4049
  402TIP3   OH2 1211   5.432   4.630   2.310 -0.5757 -0.0127  0.3737
  402TIP3    H1 1212   5.487   4.634   2.388  0.1009 -0.8025 -0.0476
  402TIP3    H2 1213   5.354   4.680   2.333 -0.7795 -0.9512  1.8718
  403TIP3   OH2 1214   2.045   3.518   3.774  0.6452  0.3536  0.6544
  403TIP3    H1 1215   2.046   3.612   3.753 -0.3336  0.6299  1.7600
  403TIP3    H2 1216   2.015   3.476   3.693  2.0033  0.8885 -0.1518
  404TIP3   OH2 1217   4.980   0.154   0.093 -0.1485  0.5506  0.1280
  404TIP3    H1 1218   4.985   0.148  -0.002  1.3380 -1.5856  0.2769
  404TIP3    H2 1219   4.959   0.246   0.110 -2.2880  0.6055 -2.2751
  405TIP3   OH2 1220   2.554   4.543   3.643 -0.2395  0.5330  0.3526
  405TIP3    H1 1221   2.496   4.575   3.711 -0.1039  5.3013 -1.4162
  405TIP3    H2 1222   2.496   4.529   3.567  0.1709 -0.5879  0.2294
  406TIP3   OH2 1223   5.064   5.461   1.978 -0.1367  0.1800  0.2875
  406TIP3    H1 1224   5.010   5.533   1.946 -1.5476 -0.9650 -0.0284
  406TIP3    H2 1225   5.087   5.411   1.900 -0.3032 -0.4526  0.6331
  407TIP3   OH2 1226   5.279   1.991   2.106 -0.4958  0.0114 -0.1602
  407TIP3    H1 1227   5.222   2.035   2.043  0.9545  0.3123 -1.3393
  407TIP3    H2 1228   5.222   1.966   2.178 -2.1141  0.2004 -1.3316
  408TIP3   OH2 1229   2.668   4.737   4.154  0.4246 -0.2071 -0.6732
  408TIP3    H1 1230   2.667   4.755   4.060 -1.6524  1.5907 -0.3813
  408TIP3    H2 1231   2.687   4.821   4.194 -1.2065 -0.3728  0.5524
  409TIP3   OH2 1232   5.940   3.486   3.648  0.2203 -0.1289  0.4521
  409TIP3    H1 1233   5.870   3.430   3.613 -1.5098  1.3128  1.4528
  409TIP3    H2 1234   5.924   3.572   3.610  2.9151 -0.2403 -1.1553
  410TIP3   OH2 1235   2.332   3.526   4.766 -0.1657  0.0676  0.1171
  410TIP3    H1 1236   2.244   3.514   4.803 -0.0881  0.0025  0.2839
  410TIP3    H2 1237   2.324   3.497   4.675  0.0287 -1.3346  0.5214
  411TIP3   OH2 1238   0.266   0.154   1.591 -0.5229 -0.4877  0.0165
  411TIP3    H1 1239   0.333   0.211   1.552 -1.4462  0.5563 -0.0990
  411TIP3    H2 1240   0.219   0.119   1.516 -2.2606  1.4712  0.0781
  412TIP3   OH2 1241   0.707   0.561   3.367 -0.7896 -0.9466  0.2506
  412TIP3    H1 1242   0.653   0.625   3.414 -1.1401 -1.2277  0.2359
  412TIP3    H2 1243   0.644   0.502   3.325 -0.5128 -0.2411 -1.2426
  413TIP3   OH2 1244   0.478   2.649   4.473  0.2593  0.0426 -0.2612
  413TIP3    H1 1245   0.414   2.646   4.544 -1.6510 -0.0926 -1.8850
  413TIP3    H2 1246   0.553   2.600   4.506 -1.0362 -1.0704  1.2191
  414TIP3   OH2 1247   3.837   5.039   3.013  0.5535 -0.3567 -0.3773
  414TIP3    H1 1248   3.783   4.964   3.040  0.2175  0.0318  0.0487
  414TIP3    H2 1249   3.914   5.034   3.070  0.1394  0.0975  0.2413
  415TIP3   OH2 1250   5.764   2.407   2.576 -0.4495  0.5142  0.0613
  415TIP3    H1 1251   5.815   2.327   2.588  0.6434  0.8028 -2.0399
  415TIP3    H2 1252   5.677   2.377   2.552 -0.5523 -0.0172  1.0697
  416TIP3   OH2 1253   0.337   3.495   4.642 -0.3164 -0.4017 -0.7504
  416TIP3    H1 1254   0.432   3.506   4.644 -0.2234 -1.2340  0.5916
  416TIP3    H2 1255   0.303   3.566   4.696 -0.4881 -0.0122 -1.3541
  417TIP3   OH2 1256   4.073   4.075   0.310 -0.3153 -0.5307  0.4250
  417TIP3    H1 1257   4.019   3.997   0.320  0.6216 -0.9129  3.8676
  417TIP3    H2 1258   4.015   4.147   0.335 -0.3946 -0.4662  0.0503
  418TIP3   OH2 1259   5.725   2.839   3.469 -0.0297  0.1398  0.0240
  418TIP3    H1 1260   5.744   2.927   3.437  1.8336  0.2073  1.1631
  418TIP3    H2 1261   5.793   2.822   3.534 -1.1991 -1.6025  0.8607
  419TIP3   OH2 1262   1.136   3.258   3.637 -0.3152 -0.1961  0.5983
  419TIP3    H1 1263   1.147   3.318   3.563  3.3156 -2.2221 -0.7831
  419TIP3    H2 1264   1.122   3.315   3.712 -1.5924  2.0821 -1.2246
  420TIP3   OH2 1265   0.286   4.753   4.154  0.3366 -0.8026  0.2512
  420TIP3    H1 1266   0.226   4.769   4.227 -0.1944 -1.7347  0.0417
  420TIP3    H2 1267   0.358   4.815   4.168 -0.5726  0.1975  0.6161
  421TIP3   OH2 1268   5.176   3.124   1.274  0.3464 -0.0851 -0.0683
  421TIP3    H1 1269   5.083   3.144   1.283  0.5625  0.0951  2.3837
  421TIP3    H2 1270   5.218   3.209   1.266  0.3973 -0.0942  0.0936
  422TIP3   OH2 1271   6.153   0.322   3.703 -0.4227 -0.1510  0.1002
  422TIP3    H1 1272   6.060   0.319   3.682 -0.0538 -1.4489 -1.6013
  422TIP3    H2 1273   6.174   0.415   3.703 -1.4929  0.1154 -0.6440
  423TIP3   OH2 1274   5.899   5.680   2.153 -0.0384 -0.0987  0.3825
  423TIP3    H1 1275   5.876   5.598   2.108 -0.0602  0.5886 -0.8893
  423TIP3    H2 1276   5.820   5.733   2.147  0.1386  0.2061  0.7683
  424TIP3   OH2 1277   2.828   5.715   1.629 -0.5961  0.3203  0.1855
  424TIP3    H1 1278   2.825   5.676   1.542  1.1084  1.0969 -0.2823
  424TIP3    H2 1279   2.861   5.804   1.614 -1.6476  0.9735  1.4942
  425TIP3   OH2 1280   4.716   3.636   4.477  0.6610 -0.5702  0.8801
  425TIP3    H1 1281   4.699   3.654   4.570  1.3410 -0.2565  0.9510
  425TIP3    H2 1282   4.761   3.552   4.477  0.0444 -0.9022  0.7766
  426TIP3   OH2 1283   1.072   1.412   0.393  0.4747 -0.6150  0.2133
  426TIP3    H1 1284   1.155   1.385   0.354  0.2146 -0.0563 -0.7686
  426TIP3    H2 1285   1.046   1.490   0.344 -0.4808 -0.6002  0.7028
  427TIP3   OH2 1286   3.169   4.665   2.548 -0.0906  0.0151 -0.1450
  427TIP3    H1 1287   3.150   4.757   2.570 -1.2967 -0.0832 -0.7285
  427TIP3    H2 1288   3.178   4.622   2.633 -1.8210  0.2250  0.1699
  428TIP3   OH2 1289   2.710   0.308   1.340 -0.3684  0.3440 -0.0830
  428TIP3    H1 1290   2.735   0.255   1.265  2.1267  1.4046 -0.1038
  428TIP3    H2 1291   2.614   0.315   1.334 -0.4148 -1.1328 -2.0591
  429TIP3   OH2 1292   4.041   5.646   1.936 -0.1715  0.0190  0.4399
  429TIP3    H1 1293   4.010   5.566   1.979 -1.2863  0.6588  0.8538
  429TIP3    H2 1294   4.136   5.646   1.951 -0.2391 -0.9182  0.9425
  430TIP3   OH2 1295   0.425   4.248   4.989 -0.7297 -0.2765 -0.2756
  430TIP3    H1 1296   0.354   4.270   5.050  0.3410 -0.5900  1.1532
  430TIP3    H2 1297   0.414   4.155   4.972 -0.6233 -0.3475  0.0246
  431TIP3   OH2 1298   5.799   2.782   1.885 -0.3661 -0.1373 -0.2953
  431TIP3    H1 1299   5.818   2.847   1.817 -1.7636 -0.3550 -0.9398
  431TIP3    H2 1300   5.779   2.835   1.963  1.5453  0.1059  0.0722
  432TIP3   OH2 1301   4.167   1.515   2.662  0.2656 -0.7591  0.0058
  432TIP3    H1 1302   4.140   1.590   2.715  0.6386 -0.7363  0.1668
  432TIP3    H2 1303   4.089   1.461   2.655  0.0466 -0.4486  0.0516
  433TIP3   OH2 1304   2.153   1.652   3.316  0.2936  0.5508 -0.0625
  433TIP3    H1 1305   2.142   1.559   3.335  0.3084  0.6465  0.4319
  433TIP3    H2 1306   2.153   1.658   3.221  0.3090  0.0428 -0.0933
  434TIP3   OH2 1307   3.613   4.049   5.018 -0.0114 -0.0105 -0.0591
  434TIP3    H1 1308   3.624   4.003   4.934  2.2604 -0.1816  0.2782
  434TIP3    H2 1309   3.578   3.982   5.077 -0.7247 -0.1386 -0.6089
  435TIP3   OH2 1310   4.543   3.864   0.999  0.3748 -0.1306  0.0133
  435TIP3    H1 1311   4.461   3.896   1.038  0.2079  0.0785 -0.4930
  435TIP3    H2 1312   4.559   3.924   0.926 -0.5531 -1.8310 -1.6781
  436TIP3   OH2 1313   3.531   5.897   3.639 -0.2558 -0.1815 -0.0258
  436TIP3    H1 1314   3.535   5.992   3.651  0.5804 -0.3737  1.4493
  436TIP3    H2 1315   3.589   5.880   3.565  1.0962  0.2934  0.8901
  437TIP3   OH2 1316   5.235   1.852   4.750  0.1196 -0.2611  0.5333
  437TIP3    H1 1317   5.224   1.758   4.735  0.5142 -0.2386  0.0886
  437TIP3    H2 1318   5.260   1.858   4.842  0.1043 -0.5920  0.5621
  438TIP3   OH2 1319   0.711   0.643   4.673 -0.0445  0.7284  0.2052
  438TIP3    H1 1320   0.772   0.628   4.601 -0.9147 -0.1440 -0.3804
  438TIP3    H2 1321   0.683   0.555   4.699  1.1864  0.9243  2.4614
  439TIP3   OH2 1322   4.134   0.660   0.044 -0.6177  0.1855 -0.1823
  439TIP3    H1 1323   4.193   0.683   0.116 -0.0602  0.3655 -0.6898
  439TIP3    H2 1324   4.046   0.674   0.080 -0.3354  1.0537  0.2156
  440TIP3   OH2 1325   2.025   1.201   0.169 -0.2402  0.4690  0.2747
  440TIP3    H1 1326   2.044   1.113   0.202  0.2812  1.1147  1.7656
  440TIP3    H2 1327   2.106   1.249   0.183 -0.0599  0.8683 -1.7925
  441TIP3   OH2 1328   0.338   5.362   2.060 -0.2072 -0.3243  0.8218
  441TIP3    H1 1329   0.243   5.354   2.057 -0.1195 -1.2837  0.2439
  441TIP3    H2 1330   0.370   5.294   2.001  0.8576 -0.3316  1.3827
  442TIP3   OH2 1331   2.381   5.672   0.552  0.1832 -0.4088  0.1362
  442TIP3    H1 1332   2.457   5.669   0.610 -0.1499  2.5165  0.9096
  442TIP3    H2 1333   2.316   5.724   0.600 -2.2514 -2.5294 -0.6244
  443TIP3   OH2 1334   0.448   4.265   2.888 -0.2879 -0.3956  0.0366
  443TIP3    H1 1335   0.527   4.310   2.918  0.7807 -2.3223  0.2869
  443TIP3    H2 1336   0.395   4.333   2.846  0.6101  1.3316  1.5609
  444TIP3   OH2 1337   6.120   2.632   2.592  0.6039  0.3367 -0.1455
  444TIP3    H1 1338   6.152   2.660   2.678  1.5090  0.1037 -0.4064
  444TIP3    H2 1339   6.105   2.538   2.601 -0.0506  0.4460 -0.0186
  445TIP3   OH2 1340   1.905   3.438   0.543  0.2330  0.0070 -0.7562
  445TIP3    H1 1341   1.964   3.496   0.494 -1.2048  1.6920 -0.6061
  445TIP3    H2 1342   1.879   3.371   0.480  1.6165 -0.2740 -1.0601
  446TIP3   OH2 1343   1.694   3.317   4.116  0.7265 -0.2634 -0.1878
  446TIP3    H1 1344   1.732   3.311   4.028  0.3421  0.3667 -0.4105
  446TIP3    H2 1345   1.669   3.227   4.138 -1.7165 -0.0936 -1.8940
  447TIP3   OH2 1346   1.039   5.204   1.229 -0.1916 -0.1367 -0.3805
  447TIP3    H1 1347   1.096   5.132   1.201  0.7132  0.2766  0.3130
  447TIP3    H2 1348   1.028   5.258   1.151 -0.3886 -0.7142 -0.7552
  448TIP3   OH2 1349   0.947   3.167   1.292 -0.2897  0.4660  0.1565
  448TIP3    H1 1350   1.004   3.243   1.281 -0.6089  0.9889  1.8420
  448TIP3    H2 1351   0.985   3.100   1.235  1.5723  1.0446  0.6510
  449TIP3   OH2 1352   4.718   1.296   1.674  0.6511 -0.1541 -0.2024
  449TIP3    H1 1353   4.727   1.392   1.675 -0.7134  0.0344 -1.6389
  449TIP3    H2 1354   4.774   1.267   1.602  0.6038 -0.3711 -0.1519
  450TIP3   OH2 1355   0.550   4.085   3.633  1.1645 -0.3195  0.1515
  450TIP3    H1 1356   0.526   4.068   3.724  0.0980  0.4353  0.0286
  450TIP3    H2 1357   0.579   4.176   3.632  1.3023 -0.3643 -0.2347
  451TIP3   OH2 1358   4.826   3.128   3.054  0.0124  0.1247  0.6291
  451TIP3    H1 1359   4.862   3.217   3.053 -0.8948  0.5038  0.7392
  451TIP3    H2 1360   4.776   3.122   2.972  2.3792 -1.2872 -0.8337
  452TIP3   OH2 1361   5.417   2.072   1.021  0.0700 -1.0577  0.0705
  452TIP3    H1 1362   5.357   2.005   0.987  0.9940 -2.5662  1.2559
  452TIP3    H2 1363   5.504   2.040   0.997  0.5792 -0.7793  1.4740
  453TIP3   OH2 1364   2.203   5.548   3.603 -0.0113  0.2413  0.3925
  453TIP3    H1 1365   2.237   5.601   3.531 -0.8241  2.1047  1.3023
  453TIP3    H2 1366   2.131   5.497   3.565  0.5633  0.0290 -0.4306
  454TIP3   OH2 1367   3.408   4.251   3.187  0.2877 -0.1303  0.2593
  454TIP3    H1 1368   3.313   4.263   3.178  0.2813 -0.8690 -0.8438
  454TIP3    H2 1369   3.420   4.227   3.279 -0.5175  0.5459  0.5661
  455TIP3   OH2 1370   0.034   2.084   1.465 -0.0225  0.1072  0.8250
  455TIP3    H1 1371   0.037   2.012   1.402  1.8965 -0.2979  1.3110
  455TIP3    H2 1372   0.069   2.159   1.416  0.3905  0.0734  1.0658
  456TIP3   OH2 1373   0.734   2.066   3.694 -0.2472  0.1566  0.8371
  456TIP3    H1 1374   0.644   2.059   3.660 -0.3401 -2.3701  1.3789
  456TIP3    H2 1375   0.789   2.039   3.621 -0.0535  0.2107  0.9626
  457TIP3   OH2 1376   3.121   5.459   2.264 -0.1553  0.1534 -0.4603
  457TIP3    H1 1377   3.072   5.527   2.311  0.0962  0.4201 -0.5841
  457TIP3    H2 1378   3.082   5.457   2.177 -0.2908  0.0044 -0.3967
  458TIP3   OH2 1379   4.888   4.472   2.650 -0.2085  0.3485  0.0273
  458TIP3    H1 1380   4.921   4.547   2.697  0.0699  0.2036  0.0623
  458TIP3    H2 1381   4.897   4.398   2.711 -1.5112  0.4747  0.4112
  459TIP3   OH2 1382   5.417   5.242   0.862  0.2379  0.5427 -0.0621
  459TIP3    H1 1383   5.461   5.213   0.782  0.7306  1.2158 -0.0422
  459TIP3    H2 1384   5.480   5.224   0.932 -0.7837 -1.4828  0.4044
  460TIP3   OH2 1385   3.019   4.091   1.671  0.1926  0.0135 -0.0845
  460TIP3    H1 1386   3.066   4.047   1.601 -0.4689  0.0216 -0.5431
  460TIP3    H2 1387   2.963   4.154   1.627  1.5643  1.7918  0.5842
  461TIP3   OH2 1388   3.444   3.792   4.054  0.5243  0.5065 -0.0130
  461TIP3    H1 1389   3.419   3.720   3.995  1.1255 -0.6229  1.0697
  461TIP3    H2 1390   3.461   3.866   3.995  1.7667 -0.7721 -1.3510
  462TIP3   OH2 1391   2.114   2.102   4.297  0.3022  0.0122  0.1678
  462TIP3    H1 1392   2.040   2.163   4.300  0.1962 -0.1227  0.3372
  462TIP3    H2 1393   2.130   2.088   4.204  0.7297  0.7830  0.1174
  463TIP3   OH2 1394   2.163   3.119   5.091 -0.2154  0.5172  0.0765
  463TIP3    H1 1395   2.188   3.206   5.123 -0.5951  0.3905  0.7606
  463TIP3    H2 1396   2.212   3.059   5.146  0.4244  0.2938 -0.7248
  464TIP3   OH2 1397   4.777   2.480   4.636 -0.3362  0.1430  0.1251
  464TIP3    H1 1398   4.857   2.522   4.604  0.9447 -2.3765 -0.2256
  464TIP3    H2 1399   4.792   2.469   4.730  1.3303 -3.2496 -0.3862
  465TIP3   OH2 1400   1.840   5.041   5.084 -0.5587 -0.4797  0.2516
  465TIP3    H1 1401   1.904   4.995   5.139 -1.1163 -1.7813 -0.1326
  465TIP3    H2 1402   1.766   5.058   5.142  0.4013  1.7475  0.9078
  466TIP3   OH2 1403   0.109   0.695   1.370 -0.3706 -0.3626  0.6892
  466TIP3    H1 1404   0.200   0.725   1.374 -0.0619 -1.2709  0.7080
  466TIP3    H2 1405   0.089   0.669   1.460 -1.7326  2.8277  1.4516
  467TIP3   OH2 1406   5.603   1.661   0.798  0.3145  0.0121 -0.3965
  467TIP3    H1 1407   5.695   1.640   0.782  0.4452 -0.5450  0.9221
  467TIP3    H2 1408   5.601   1.757   0.800  0.8484  0.0290 -0.5172
  468TIP3   OH2 1409   3.697   5.128   3.325 -0.5780  0.1435 -0.3333
  468TIP3    H1 1410   3.719   5.165   3.410 -0.3553 -0.6728 -0.0209
  468TIP3    H2 1411   3.692   5.203   3.266  0.8243  0.5680  0.0580
  469TIP3   OH2 1412   1.228   1.397   0.929  0.3010 -0.0640  0.5951
  469TIP3    H1 1413   1.231   1.328   0.863 -1.2627  0.6983 -0.3273
  469TIP3    H2 1414   1.141   1.390   0.968  0.4607  0.7930  1.1443
  470TIP3   OH2 1415   1.681   5.894   0.516 -0.5031  0.2056  0.0403
  470TIP3    H1 1416   1.716   5.888   0.427 -1.5261 -0.0275 -0.3598
  470TIP3    H2 1417   1.666   5.804   0.543 -0.6012  0.2938  0.2878
  471TIP3   OH2 1418   1.144   2.377   4.677  0.2858  0.3269 -0.3630
  471TIP3    H1 1419   1.211   2.436   4.642  0.0953  0.6344 -0.2119
  471TIP3    H2 1420   1.145   2.392   4.771  0.3468 -0.0309 -0.3046
  472TIP3   OH2 1421   3.967   0.131   2.824  0.2381  0.2837  0.4706
  472TIP3    H1 1422   3.924   0.144   2.739  0.0206 -0.7964  0.4020
  472TIP3    H2 1423   3.936   0.046   2.854  1.6340 -0.1311  0.8333
  473TIP3   OH2 1424   0.262   2.422   2.137  0.3697  0.1955 -0.8175
  473TIP3    H1 1425   0.178   2.468   2.147 -0.4570 -1.2814 -0.6503
  473TIP3    H2 1426   0.323   2.470   2.194 -0.7480  0.4085  0.2471
  474TIP3   OH2 1427   4.477   0.462   1.830 -0.5540 -0.1371 -0.3728
  474TIP3    H1 1428   4.482   0.465   1.735 -0.0327  0.5063 -0.3370
  474TIP3    H2 1429   4.565   0.436   1.858 -0.3588  0.8422 -0.0363
  475TIP3   OH2 1430   5.779   2.151   3.901  0.1336 -0.1626  0.2127
  475TIP3    H1 1431   5.792   2.089   3.973  2.9430  0.2356  0.1863
  475TIP3    H2 1432   5.800   2.101   3.822 -0.6991  0.0151 -0.1333
  476TIP3   OH2 1433   5.431   4.347   4.306 -0.5312  0.2199  0.1343
  476TIP3    H1 1434   5.356   4.394   4.270 -0.7519  0.8753  1.3854
  476TIP3    H2 1435   5.464   4.404   4.376 -0.6475 -1.3242  1.5237
  477TIP3   OH2 1436   3.986   5.795   1.261 -0.0406 -0.0322  0.2686
  477TIP3    H1 1437   3.892   5.793   1.280  0.2763 -1.1711  1.9275
  477TIP3    H2 1438   4.024   5.841   1.336  0.5659  2.2840 -1.3801
  478TIP3   OH2 1439   6.230   3.373   1.321 -0.1103 -0.0138  0.4061
  478TIP3    H1 1440   6.212   3.457   1.363  0.6603  0.1082  0.5206
  478TIP3    H2 1441   6.241   3.395   1.228 -1.0081 -0.1592  0.2638
  479TIP3   OH2 1442   5.048   2.513   3.147  0.1308 -0.3561  0.2378
  479TIP3    H1 1443   5.021   2.450   3.081 -1.3990  1.2446 -0.7602
  479TIP3    H2 1444   4.966   2.549   3.181  0.9046 -0.4373  2.3618
  480TIP3   OH2 1445   1.618   1.233   0.690  0.1104  0.4869  0.1803
  480TIP3    H1 1446   1.583   1.145   0.703  0.7999  0.4107  1.7610
  480TIP3    H2 1447   1.542   1.285   0.664 -1.3265  0.3138  3.4807
  481TIP3   OH2 1448   2.958   1.875   1.581  0.0844  0.3045  0.0594
  481TIP3    H1 1449   2.951   1.781   1.562  1.5748  0.2754 -0.4953
  481TIP3    H2 1450   2.984   1.915   1.498 -1.7663  1.4217 -0.0308
  482TIP3   OH2 1451   4.956   4.584   3.053  0.3817  0.2868  0.2741
  482TIP3    H1 1452   4.978   4.674   3.078  0.3838  1.7385 -4.0515
  482TIP3    H2 1453   5.013   4.566   2.978 -0.5670 -2.8558  0.1703
  483TIP3   OH2 1454   4.371   4.075   3.113  0.1613 -0.5390  0.3697
  483TIP3    H1 1455   4.399   4.148   3.058  1.5113  0.4347  2.2703
  483TIP3    H2 1456   4.409   3.997   3.071 -0.4826 -0.0693 -1.1326
  484TIP3   OH2 1457   0.261   1.988   2.941  0.2380  0.1424  0.3639
  484TIP3    H1 1458   0.225   1.988   2.852 -1.2494  3.3335  0.8199
  484TIP3    H2 1459   0.355   1.999   2.930 -0.0385  1.4820 -0.8359
  485TIP3   OH2 1460   3.132   0.339   1.178  0.1526 -0.8084  0.1470
  485TIP3    H1 1461   3.050   0.383   1.157  0.2664 -0.5611  0.2155
  485TIP3    H2 1462   3.162   0.305   1.094 -1.7436 -3.9443  0.6065
  486TIP3   OH2 1463   2.201   0.445   2.307  0.5394 -0.6777 -0.2989
  486TIP3    H1 1464   2.256   0.395   2.247 -0.9986 -1.5509 -1.0544
  486TIP3    H2 1465   2.130   0.478   2.252  1.0389  1.6635  0.3427
  487TIP3   OH2 1466   5.717   2.533   0.773 -0.0580  0.7045 -0.1734
  487TIP3    H1 1467   5.728   2.574   0.687  2.0038 -1.2800 -0.9637
  487TIP3    H2 1468   5.656   2.591   0.820 -1.1881  1.8927 -2.9023
  488TIP3   OH2 1469   4.725   0.420   2.392  1.0101 -0.1852  0.7146
  488TIP3    H1 1470   4.685   0.507   2.396  0.2047 -0.4932 -0.3161
  488TIP3    H2 1471   4.795   0.429   2.328 -0.0099 -0.6324 -0.5082
  489TIP3   OH2 1472   2.842   0.341   4.982  0.2303  0.7504 -0.3036
  489TIP3    H1 1473   2.769   0.401   4.969 -0.7808 -0.5937 -1.1554
  489TIP3    H2 1474   2.920   0.397   4.976 -0.5792  1.7901 -2.7405
  490TIP3   OH2 1475   5.993   5.800   2.661 -0.4328  0.3690  0.0144
  490TIP3    H1 1476   5.995   5.792   2.565  0.5710  0.1791  0.0368
  490TIP3    H2 1477   6.080   5.833   2.683 -0.9696  1.3029  0.7958
  491TIP3   OH2 1478   1.720   2.054   3.546 -0.6404 -0.0592  0.1846
  491TIP3    H1 1479   1.691   2.145   3.544 -0.1466  0.1445  1.2880
  491TIP3    H2 1480   1.811   2.059   3.575 -0.2025 -0.8280 -0.9725
  492TIP3   OH2 1481   3.770   3.406   0.742 -0.0377 -0.1694 -0.9164
  492TIP3    H1 1482   3.770   3.465   0.667 -0.8638 -0.3246 -1.0510
  492TIP3    H2 1483   3.795   3.461   0.816 -0.3584  0.2490 -1.1149
  493TIP3   OH2 1484   5.662   5.870   3.029  0.4754  0.0491 -0.2474
  493TIP3    H1 1485   5.728   5.817   2.984  1.8784  2.5555 -1.4148
  493TIP3    H2 1486   5.707   5.904   3.106 -0.7665 -1.3192  1.1309
  494TIP3   OH2 1487   0.937   0.840   0.813 -0.1695 -0.0793  0.4162
  494TIP3    H1 1488   0.987   0.873   0.888  0.6590  0.5775 -0.3898
  494TIP3    H2 1489   0.867   0.904   0.801 -0.2472 -0.1351  0.5724
  495TIP3   OH2 1490   0.228   1.488   1.822 -0.1905 -0.0986  0.4942
  495TIP3    H1 1491   0.164   1.421   1.800 -0.8831  0.1685  1.6155
  495TIP3    H2 1492   0.177   1.568   1.834  0.5997  0.6047 -0.6249
  496TIP3   OH2 1493   3.033   1.753   2.512  0.0312  0.1261  0.2177
  496TIP3    H1 1494   2.960   1.703   2.476  0.8529 -1.3897  0.6002
  496TIP3    H2 1495   3.059   1.705   2.591  0.9671  1.0524  0.4972
  497TIP3   OH2 1496   0.503   3.941   1.906 -0.8505  0.7613 -0.4763
  497TIP3    H1 1497   0.460   3.855   1.904  0.9543 -0.2028 -2.8892
  497TIP3    H2 1498   0.523   3.960   1.815  2.8755  1.5261  0.3351
  498TIP3   OH2 1499   6.176   0.073   0.197 -0.3586  0.3562 -0.1331
  498TIP3    H1 1500   6.090   0.115   0.201 -0.4858  0.0423  0.4929
  498TIP3    H2 1501   6.214   0.087   0.283  0.7964  1.6686 -0.8180
  499TIP3   OH2 1502   5.291   2.473   2.700 -0.1209 -0.2700 -0.0781
  499TIP3    H1 1503   5.250   2.537   2.642  0.3753  0.2965  0.1953
  499TIP3    H2 1504   5.363   2.437   2.649 -0.7296 -1.0187 -0.4327
  500TIP3   OH2 1505   2.514   5.189   2.144  0.2549 -0.1962  0.3566
  500TIP3    H1 1506   2.583   5.174   2.079  0.3501  2.1397 -0.1705
  500TIP3    H2 1507   2.559   5.222   2.221 -0.0244 -1.4712  1.0978
  501TIP3   OH2 1508   1.902   0.052   3.455 -0.1091  0.5950  0.3576
  501TIP3    H1 1509   1.859   0.116   3.399  0.0432  0.8225  0.5001
  501TIP3    H2 1510   1.902   0.092   3.542 -1.0745 -0.0956  0.7021
  502TIP3   OH2 1511   6.245   5.520   0.946 -0.1913  0.3081  0.5584
  502TIP3    H1 1512   6.153   5.493   0.946 -0.0283 -0.3178 -0.5545
  502TIP3    H2 1513   6.250   5.587   0.878  0.3234 -0.2411  0.0422
  503TIP3   OH2 1514   1.428   1.926   2.726 -0.2557  0.1163  0.2425
  503TIP3    H1 1515   1.439   1.944   2.819  2.4674  0.0916 -0.0012
  503TIP3    H2 1516   1.456   1.835   2.716 -0.7324  0.0483 -0.5875
  504TIP3   OH2 1517   4.525   4.493   1.864 -0.5800 -0.2820 -0.1690
  504TIP3    H1 1518   4.506   4.524   1.953 -0.1758  0.1963 -0.2463
  504TIP3    H2 1519   4.619   4.474   1.865 -0.9088 -2.1430  0.0637
  505TIP3   OH2 1520   5.365   3.361   4.914  0.0113 -0.4824  0.2446
  505TIP3    H1 1521   5.326   3.446   4.895 -1.2699 -1.1756 -0.4211
  505TIP3    H2 1522   5.363   3.314   4.831  1.1051 -1.0210  0.5013
  506TIP3   OH2 1523   6.263   1.758   3.417 -0.1821 -0.5943  0.6333
  506TIP3    H1 1524   6.316   1.830   3.384  0.2522 -1.2339 -0.0948
  506TIP3    H2 1525   6.326   1.692   3.445 -0.5229  0.0303  3.0490
  507TIP3   OH2 1526   4.545   5.612   4.845 -0.0292 -0.1534 -0.3932
  507TIP3    H1 1527   4.581   5.673   4.780 -1.3235  1.2249  0.1110
  507TIP3    H2 1528   4.588   5.635   4.927 -2.2898  1.8936  0.3343
  508TIP3   OH2 1529   2.506   4.020   0.182  0.0931  0.2887  0.2392
  508TIP3    H1 1530   2.601   4.026   0.193  0.1568 -0.8784  0.4210
  508TIP3    H2 1531   2.494   4.005   0.088  0.1560 -0.5876  0.3635
  509TIP3   OH2 1532   4.461   2.845   0.548 -0.2108  0.5301 -0.1360
  509TIP3    H1 1533   4.553   2.824   0.562 -0.2698  0.7883  0.6751
  509TIP3    H2 1534   4.428   2.868   0.635 -1.1538 -0.0123 -0.3345
  510TIP3   OH2 1535   0.517   4.450   1.345  0.0426 -0.0704 -0.2082
  510TIP3    H1 1536   0.538   4.364   1.309 -0.7345 -0.3052 -0.1060
  510TIP3    H2 1537   0.544   4.511   1.276  0.3974 -0.4017 -0.3686
  511TIP3   OH2 1538   0.086   1.341   2.897  0.0901 -0.0134 -0.2077
  511TIP3    H1 1539   0.142   1.413   2.871 -0.2059  0.1379 -0.4315
  511TIP3    H2 1540   0.120   1.313   2.983  0.3793  0.2020 -0.2535
  512TIP3   OH2 1541   5.826   1.064   0.877 -0.2960  0.1143 -0.1063
  512TIP3    H1 1542   5.893   1.058   0.945 -2.5511 -0.2054  2.2982
  512TIP3    H2 1543   5.769   0.988   0.893 -0.8244 -0.0693 -2.5201
  513TIP3   OH2 1544   0.660   5.225   4.741  0.2261  0.0440 -0.1254
  513TIP3    H1 1545   0.711   5.237   4.821 -1.3675  2.3316  0.6283
  513TIP3    H2 1546   0.641   5.131   4.740  1.2424 -0.2325  1.5563
  514TIP3   OH2 1547   1.021   3.722   2.101  0.4236 -0.3156  0.2541
  514TIP3    H1 1548   0.943   3.774   2.124 -0.5881 -1.1374 -1.1207
  514TIP3    H2 1549   1.000   3.634   2.132 -0.3854 -1.1327 -2.3899
  515TIP3   OH2 1550   2.290   4.131   3.483 -0.0429  0.1407 -0.1240
  515TIP3    H1 1551   2.243   4.198   3.433 -1.0096  0.2836  0.9265
  515TIP3    H2 1552   2.369   4.175   3.514  0.7414 -0.0412 -1.7470
  516TIP3   OH2 1553   5.963   4.202   0.648  0.5191  0.1528  0.0632
  516TIP3    H1 1554   5.912   4.224   0.725 -0.4872 -0.3543 -0.4441
  516TIP3    H2 1555   5.938   4.267   0.582  0.4608 -0.1502 -0.2166
  517TIP3   OH2 1556   1.008   0.969   5.176  1.0557 -0.7249 -0.5301
  517TIP3    H1 1557   1.046   1.023   5.108  0.2059  1.5620  0.7026
  517TIP3    H2 1558   0.994   1.029   5.249  2.2275 -3.1023  1.8274
  518TIP3   OH2 1559   2.133   0.620   1.385 -0.6261  0.1703  0.3764
  518TIP3    H1 1560   2.139   0.703   1.337 -1.8369 -0.3934 -0.8114
  518TIP3    H2 1561   2.064   0.634   1.449 -0.2374  0.3497  0.7590
  519TIP3   OH2 1562   5.015   0.018   1.630 -0.1347  0.3056  0.0603
  519TIP3    H1 1563   4.995   0.017   1.536  0.4384  0.6345 -0.0741
  519TIP3    H2 1564   5.064   0.100   1.643  4.5074 -2.0591 -0.4012
  520TIP3   OH2 1565   5.570   2.799   2.468 -0.3195 -0.0675  0.3338
  520TIP3    H1 1566   5.571   2.861   2.541 -1.0337  0.2889  0.0514
  520TIP3    H2 1567   5.492   2.822   2.418  0.8934  0.5932 -1.3303
  521TIP3   OH2 1568   2.523   1.751   4.757 -0.2023  0.1867  0.3310
  521TIP3    H1 1569   2.588   1.776   4.823 -0.1817  1.2067 -0.0441
  521TIP3    H2 1570   2.535   1.657   4.744  0.9522  0.2931  0.5383
  522TIP3   OH2 1571   3.184   3.090   0.401 -0.4023  0.2179 -0.5833
  522TIP3    H1 1572   3.243   3.027   0.442 -1.8125 -0.5926  0.2707
  522TIP3    H2 1573   3.120   3.111   0.468 -1.2448  0.8957 -1.5579
  523TIP3   OH2 1574   5.961   0.027   1.628 -0.0282  0.2702  0.3266
  523TIP3    H1 1575   5.962   0.064   1.716 -0.4226 -1.0288  0.9034
  523TIP3    H2 1576   5.869   0.004   1.612  0.3099 -1.3063  0.4014
  524TIP3   OH2 1577   5.335   2.862   2.327  0.2704  0.6175 -0.4604
  524TIP3    H1 1578   5.266   2.929   2.335 -0.0144  0.4086 -1.0626
  524TIP3    H2 1579   5.390   2.894   2.255  0.0504  0.1367 -0.8473
  525TIP3   OH2 1580   5.414   1.764   3.289  0.1930 -0.0391  0.5667
  525TIP3    H1 1581   5.362   1.686   3.307  0.5680 -0.1294  1.3114
  525TIP3    H2 1582   5.350   1.834   3.280 -0.5193 -0.9703 -3.9177
  526TIP3   OH2 1583   5.756   4.609   1.847  0.2446 -0.6392 -0.5583
  526TIP3    H1 1584   5.719   4.521   1.858  0.5825 -0.7899 -0.6248
  526TIP3    H2 1585   5.694   4.666   1.891  1.5418 -1.2042  2.2123
  527TIP3   OH2 1586   5.793   3.081   0.555 -0.2202  0.4499  0.1967
  527TIP3    H1 1587   5.795   3.146   0.626  0.3599  1.0809 -0.3781
  527TIP3    H2 1588   5.867   3.023   0.574 -0.0576  0.6258  0.0996
  528TIP3   OH2 1589   1.664   3.562   0.227  0.5619  0.1141 -0.3749
  528TIP3    H1 1590   1.699   3.600   0.307  0.4998 -1.7472  0.5957
  528TIP3    H2 1591   1.571   3.546   0.246  0.6878 -0.9305 -0.5538
  529TIP3   OH2 1592   3.832   4.270   0.782  0.0360  0.1812 -0.0824
  529TIP3    H1 1593   3.924   4.259   0.802 -0.2271 -0.5000  0.7842
  529TIP3    H2 1594   3.789   4.280   0.867 -0.8787 -1.0781 -0.3713
  530TIP3   OH2 1595   3.048   4.746   0.505 -0.0966  0.2329 -0.0569
  530TIP3    H1 1596   3.020   4.656   0.523  0.0563 -0.0149 -1.0010
  530TIP3    H2 1597   3.078   4.744   0.414  1.2113  0.9334  0.3360
  531TIP3   OH2 1598   0.774   1.010   0.611  0.3369  0.1596 -0.5448
  531TIP3    H1 1599   0.790   1.052   0.696  1.5575 -0.2214 -0.5654
  531TIP3    H2 1600   0.848   1.038   0.557 -1.0352  1.3645 -1.8841
  532TIP3   OH2 1601   0.730   1.077   1.887  0.4325  0.3102  0.7284
  532TIP3    H1 1602   0.649   1.083   1.835 -0.3685 -1.8273  1.6189
  532TIP3    H2 1603   0.755   1.168   1.901 -0.3801  1.0104 -1.7300
  533TIP3   OH2 1604   2.586   0.754   3.563  0.4047  0.4718 -0.6970
  533TIP3    H1 1605   2.623   0.680   3.514  1.6567 -0.0420  0.9424
  533TIP3    H2 1606   2.637   0.757   3.644 -1.1480  1.7180  0.2879
  534TIP3   OH2 1607   2.081   3.104   3.313  0.2118 -0.2733 -0.6106
  534TIP3    H1 1608   2.033   3.155   3.248  0.3723 -1.8285 -2.0075
  534TIP3    H2 1609   2.171   3.104   3.282  0.3545 -0.7583 -0.2061
  535TIP3   OH2 1610   5.454   0.326   3.394  0.0252 -0.4898  0.0001
  535TIP3    H1 1611   5.485   0.242   3.358  0.5180 -1.0938  1.7363
  535TIP3    H2 1612   5.514   0.391   3.359  0.8688 -1.1402  0.1917
  536TIP3   OH2 1613   3.541   1.150   2.838 -0.3718  0.2462  0.3051
  536TIP3    H1 1614   3.451   1.116   2.832 -1.0352  1.8799  0.4858
  536TIP3    H2 1615   3.586   1.088   2.896 -1.1652 -0.9896 -0.3410
  537TIP3   OH2 1616   1.343   1.248   0.407  0.1018  0.4365  1.0322
  537TIP3    H1 1617   1.408   1.185   0.375 -0.3372  0.2297  0.5443
  537TIP3    H2 1618   1.259   1.209   0.386 -0.1789  1.0460  1.0018
  538TIP3   OH2 1619   1.149   4.109   0.079 -0.5198  0.1054 -0.5286
  538TIP3    H1 1620   1.071   4.054   0.082 -0.5572  0.2142  1.0566
  538TIP3    H2 1621   1.165   4.123  -0.015 -1.8754 -0.6457 -0.8898
  539TIP3   OH2 1622   0.271   0.871   1.837 -0.2763  0.1168 -0.7130
  539TIP3    H1 1623   0.201   0.923   1.798  0.3335  1.8902  0.4511
  539TIP3    H2 1624   0.351   0.917   1.811  0.2757 -0.1564  0.4754
  540TIP3   OH2 1625   3.906   4.438   4.903 -0.2172  0.1359 -0.1795
  540TIP3    H1 1626   3.841   4.408   4.966  0.8326 -0.4073  0.6830
  540TIP3    H2 1627   3.989   4.402   4.935  0.6327  1.4545 -0.7998
  541TIP3   OH2 1628   1.323   2.664   1.929  0.3360  0.0098  0.0087
  541TIP3    H1 1629   1.407   2.631   1.960  0.7674  1.3155  0.2717
  541TIP3    H2 1630   1.298   2.731   1.993 -0.2481  0.5840 -0.8022
  542TIP3   OH2 1631   3.618   2.645   1.101  0.3663  0.4039  0.5532
  542TIP3    H1 1632   3.569   2.685   1.030  2.5584 -0.8738 -1.8502
  542TIP3    H2 1633   3.677   2.714   1.131  0.8345  0.3947 -0.3057
  543TIP3   OH2 1634   4.711   2.120   4.789  0.5531 -0.3535 -0.0258
  543TIP3    H1 1635   4.770   2.045   4.788  1.2143  0.1403 -1.4328
  543TIP3    H2 1636   4.718   2.156   4.700 -0.1699  1.0309  0.4603
  544TIP3   OH2 1637   3.309   1.052   1.685  0.1850 -0.5478 -0.0014
  544TIP3    H1 1638   3.263   1.115   1.628  0.4630 -1.3091 -1.0855
  544TIP3    H2 1639   3.258   1.054   1.766 -1.3882 -0.8443 -0.9225
  545TIP3   OH2 1640   6.264   4.375   1.836  0.2843  0.6659 -0.2385
  545TIP3    H1 1641   6.333   4.378   1.902 -0.0567  1.4193  0.0965
  545TIP3    H2 1642   6.255   4.466   1.807  0.1428  0.4101 -1.0269
  546TIP3   OH2 1643   6.318   5.448   4.920  0.2828  0.2241 -0.7677
  546TIP3    H1 1644   6.257   5.512   4.955  0.4734  0.7410 -1.3632
  546TIP3    H2 1645   6.294   5.366   4.962  0.4915  0.8155  0.5469
  547TIP3   OH2 1646   4.682   2.647   1.953  0.1702  0.4620 -0.1672
  547TIP3    H1 1647   4.774   2.661   1.932 -0.0371 -0.9996 -2.3417
  547TIP3    H2 1648   4.638   2.725   1.918  0.1920 -0.5911 -2.7221
  548TIP3   OH2 1649   6.351   0.394   0.078 -0.3395  0.3547 -0.0127
  548TIP3    H1 1650   6.257   0.416   0.075 -1.0708 -2.4780 -1.6756
  548TIP3    H2 1651   6.371   0.387   0.171 -1.8053  0.8714  0.3743
  549TIP3   OH2 1652   2.820   0.083   1.567  0.0048 -0.2763 -0.4044
  549TIP3    H1 1653   2.887   0.070   1.633 -0.7188  0.5038  0.5055
  549TIP3    H2 1654   2.860   0.142   1.503  0.3994 -0.3389 -0.2161
  550TIP3   OH2 1655   2.418   4.646   3.049 -0.3710  0.4190  0.5320
  550TIP3    H1 1656   2.481   4.661   2.979 -0.5581  2.1514  0.6984
  550TIP3    H2 1657   2.410   4.551   3.054 -0.4997  0.2398 -1.9373
  551TIP3   OH2 1658   2.175   4.053   1.455  0.5311 -0.1572 -0.0148
  551TIP3    H1 1659   2.213   4.035   1.541  1.4961  2.5471  0.2209
  551TIP3    H2 1660   2.247   4.092   1.405 -0.7467  0.8577 -1.1258
  552TIP3   OH2 1661   1.271   5.347   1.846  0.0531  0.1066 -0.4823
  552TIP3    H1 1662   1.285   5.265   1.799  0.3804  0.1058 -0.3873
  552TIP3    H2 1663   1.205   5.325   1.912 -0.2724  0.0631 -0.8189
  553TIP3   OH2 1664   1.609   0.088   0.700  0.2044  0.2129 -0.1856
  553TIP3    H1 1665   1.539   0.034   0.664 -0.3746 -0.2881  1.6124
  553TIP3    H2 1666   1.683   0.029   0.712  0.2287  0.2620 -0.0864
  554TIP3   OH2 1667   5.556   4.201   2.224  0.0567 -0.0375 -0.3441
  554TIP3    H1 1668   5.540   4.276   2.167 -0.8891  0.7574  0.8907
  554TIP3    H2 1669   5.490   4.209   2.293  1.2069 -0.8834  0.9220
  555TIP3   OH2 1670   0.894   4.274   4.582 -0.0821 -0.6831 -0.0469
  555TIP3    H1 1671   0.970   4.240   4.629 -0.8633 -2.1432  0.2367
  555TIP3    H2 1672   0.890   4.367   4.606  0.3735 -1.0714  1.6357
  556TIP3   OH2 1673   5.806   4.844   3.911  0.2921  0.1162 -0.0868
  556TIP3    H1 1674   5.748   4.882   3.845 -0.6845 -0.2852  0.5187
  556TIP3    H2 1675   5.878   4.806   3.860 -0.7632 -0.7630 -0.9992
  557TIP3   OH2 1676   2.839   2.508   0.369 -0.2839 -0.4719 -0.0436
  557TIP3    H1 1677   2.929   2.482   0.388  0.5377  1.7106 -0.6588
  557TIP3    H2 1678   2.838   2.602   0.384 -2.8598 -0.6472  1.3044
  558TIP3   OH2 1679   3.005   0.201   1.933  0.4444 -0.1934 -0.3528
  558TIP3    H1 1680   2.973   0.276   1.883 -0.6578 -0.9589 -0.8516
  558TIP3    H2 1681   3.085   0.232   1.975  0.9173  0.7502 -1.8675
  559TIP3   OH2 1682   6.038   4.506   2.353 -0.1461  0.5491 -0.0041
  559TIP3    H1 1683   5.960   4.513   2.300 -1.0071  0.7185  1.2319
  559TIP3    H2 1684   6.106   4.550   2.302 -0.7397  0.0326 -1.2773
  560TIP3   OH2 1685   0.394   4.074   4.391 -0.1039 -0.4066 -0.0002
  560TIP3    H1 1686   0.462   4.093   4.327  0.1892 -0.6782  0.2260
  560TIP3    H2 1687   0.341   4.153   4.395 -0.4052 -0.5515 -0.9262
  561TIP3   OH2 1688   0.259   4.882   3.689 -0.3753 -0.3625 -0.2002
  561TIP3    H1 1689   0.251   4.861   3.782 -0.6392  1.0348  0.1051
  561TIP3    H2 1690   0.296   4.803   3.650  0.3246 -0.7454  1.1892
  562TIP3   OH2 1691   4.432   2.919   2.413  0.1382  0.7186  0.3204
  562TIP3    H1 1692   4.428   2.881   2.325 -1.6015 -2.5403  1.6324
  562TIP3    H2 1693   4.524   2.914   2.437  0.1753 -1.5809 -0.1029
  563TIP3   OH2 1694   2.898   4.571   3.781  0.1264 -0.0944  0.6359
  563TIP3    H1 1695   2.914   4.496   3.724 -1.8044  1.2962 -1.9534
  563TIP3    H2 1696   2.807   4.561   3.809  0.7272 -0.1841  2.7332
  564TIP3   OH2 1697   3.963   5.126   2.145  0.0258  0.4908  0.3076
  564TIP3    H1 1698   4.010   5.080   2.076  0.6817  1.1149  0.3295
  564TIP3    H2 1699   3.968   5.068   2.221 -1.8664 -0.8287 -0.5035
  565TIP3   OH2 1700   3.382   4.522   3.066  0.1662 -0.0267  0.0726
  565TIP3    H1 1701   3.425   4.593   3.114 -0.1295 -0.3858  0.8818
  565TIP3    H2 1702   3.399   4.444   3.119 -0.7693 -0.3099 -0.0343
  566TIP3   OH2 1703   5.938   5.849   0.987  0.0172 -0.0884  0.2186
  566TIP3    H1 1704   5.871   5.888   1.043 -0.2267 -0.7428  0.3923
  566TIP3    H2 1705   5.889   5.809   0.916  0.2322 -0.4394  0.2645
  567TIP3   OH2 1706   0.876   4.538   4.682 -0.5309 -0.7330 -0.4394
  567TIP3    H1 1707   0.784   4.554   4.702 -0.0288  3.7124 -0.6216
  567TIP3    H2 1708   0.924   4.593   4.745  1.8687 -1.0527 -1.8411
  568TIP3   OH2 1709   5.156   3.215   3.055 -0.2460  0.0194  0.1261
  568TIP3    H1 1710   5.102   3.291   3.079  0.0812  1.6614 -3.6928
  568TIP3    H2 1711   5.246   3.248   3.058 -0.1556  0.2458 -2.5224
  569TIP3   OH2 1712   1.240   1.391   3.839 -0.5101  0.4086 -0.3956
  569TIP3    H1 1713   1.221   1.479   3.806 -1.7023 -0.1210 -1.1880
  569TIP3    H2 1714   1.335   1.389   3.849 -0.6111  2.6354  2.1286
  570TIP3   OH2 1715   0.502   0.108   2.620  0.0824  0.0201 -0.2275
  570TIP3    H1 1716   0.444   0.050   2.570  2.2698 -1.6238 -1.0022
  570TIP3    H2 1717   0.472   0.100   2.711  0.0084 -1.9826 -0.3862
  571TIP3   OH2 1718   0.159   0.010   3.674  0.0001  0.1863 -0.5959
  571TIP3    H1 1719   0.079   0.042   3.633  0.8418  2.1589 -0.8122
  571TIP3    H2 1720   0.194   0.086   3.720  1.4822 -0.7812 -0.0557
  572TIP3   OH2 1721   4.012   1.092   0.879  0.2446  0.3239 -0.2018
  572TIP3    H1 1722   4.036   1.179   0.910  0.8773  0.3994 -0.8779
  572TIP3    H2 1723   3.976   1.107   0.791 -1.0809  0.0631  0.2657
  573TIP3   OH2 1724   1.980   1.226   4.269  0.4770 -0.0806 -0.2104
  573TIP3    H1 1725   2.002   1.195   4.357 -0.2397  0.4958  0.1900
  573TIP3    H2 1726   2.060   1.267   4.238  0.5523  0.3096  0.4603
  574TIP3   OH2 1727   5.032   1.681   0.630 -0.3362 -0.3621 -0.2802
  574TIP3    H1 1728   5.105   1.742   0.615 -1.6184  0.8808 -1.7128
  574TIP3    H2 1729   5.021   1.681   0.725  0.2064  1.0443 -0.1923
  575TIP3   OH2 1730   5.844   4.781   2.688  0.6698  0.3664  0.3227
  575TIP3    H1 1731   5.904   4.827   2.747  1.5839 -0.1608 -0.1779
  575TIP3    H2 1732   5.862   4.688   2.703  0.5736  0.2207 -0.4328
  576TIP3   OH2 1733   5.045   5.877   1.982  0.3590  0.1192 -0.3981
  576TIP3    H1 1734   4.996   5.795   1.972  0.5145  0.0057 -0.2293
  576TIP3    H2 1735   5.003   5.921   2.056  0.4979  0.0314 -0.2665
  577TIP3   OH2 1736   1.333   5.942   0.409 -0.4712  0.3666 -0.2398
  577TIP3    H1 1737   1.407   5.941   0.469 -0.3352  0.1117 -0.4112
  577TIP3    H2 1738   1.290   5.857   0.423  1.5880 -1.3340 -3.0089
  578TIP3   OH2 1739   1.752   4.393   4.174 -0.1421 -0.5663  0.5172
  578TIP3    H1 1740   1.835   4.351   4.151 -0.0464 -0.1006 -0.0182
  578TIP3    H2 1741   1.742   4.378   4.268  0.6797 -0.4047  0.6359
  579TIP3   OH2 1742   0.241   4.060   0.193  0.1748  0.1854  0.1696
  579TIP3    H1 1743   0.319   4.082   0.245 -0.3296 -0.0591  1.0503
  579TIP3    H2 1744   0.175   4.123   0.221 -0.4819 -0.7440  0.7735
  580TIP3   OH2 1745   1.130   2.980   4.107  0.5723  0.1277  0.6490
  580TIP3    H1 1746   1.049   2.961   4.060  1.2657 -0.4986 -0.3447
  580TIP3    H2 1747   1.101   3.012   4.192 -0.7166 -0.0709  0.3165
  581TIP3   OH2 1748   4.383   1.087   5.096  0.0173  0.4038  0.5162
  581TIP3    H1 1749   4.389   0.998   5.061  0.2750  0.2982  0.8233
  581TIP3    H2 1750   4.408   1.078   5.188 -0.2505  0.7462  0.6224
  582TIP3   OH2 1751   1.060   2.087   1.433  0.0827  0.3471  0.1122
  582TIP3    H1 1752   1.045   2.165   1.379 -0.4687  0.8881  1.0115
  582TIP3    H2 1753   1.121   2.116   1.500 -1.1784  0.4343  1.2818
  583TIP3   OH2 1754   6.134   4.694   0.321  0.4553  0.1943  0.2128
  583TIP3    H1 1755   6.049   4.658   0.345  0.2366  0.0084 -0.8062
  583TIP3    H2 1756   6.144   4.770   0.379 -1.2090  1.2672 -0.8059
  584TIP3   OH2 1757   5.579   3.085   4.457 -0.0969  0.2506  0.3723
  584TIP3    H1 1758   5.485   3.096   4.471 -0.2545 -1.3825  0.7492
  584TIP3    H2 1759   5.600   3.149   4.389 -1.7355 -0.2308 -0.6538
  585TIP3   OH2 1760   5.189   2.143   2.382 -0.1310  0.2177  0.1809
  585TIP3    H1 1761   5.130   2.072   2.354 -2.0820  1.3975  1.0622
  585TIP3    H2 1762   5.274   2.100   2.392 -0.9154 -1.6880 -0.6831
  586TIP3   OH2 1763   4.365   1.773   4.631  0.1180  0.0965  0.7461
  586TIP3    H1 1764   4.334   1.744   4.546  1.7697  1.7040 -0.4861
  586TIP3    H2 1765   4.323   1.857   4.645  0.5230  0.2463  1.1078
  587TIP3   OH2 1766   0.838   4.892   1.671  0.1939 -0.4761  0.0666
  587TIP3    H1 1767   0.915   4.842   1.645  0.4532 -0.8399  1.4164
  587TIP3    H2 1768   0.869   4.945   1.745 -0.1645  1.4317 -1.0939
  588TIP3   OH2 1769   1.913   5.240   4.187 -0.5171 -0.1291  0.2362
  588TIP3    H1 1770   1.895   5.256   4.279 -3.1062 -0.1156 -0.2099
  588TIP3    H2 1771   1.885   5.320   4.142 -1.4336 -0.9766 -0.7629
  589TIP3   OH2 1772   2.039   3.497   0.996 -0.2678 -0.2373  0.1922
  589TIP3    H1 1773   1.990   3.572   1.029  1.4257  0.1617  2.0582
  589TIP3    H2 1774   2.021   3.427   1.060 -0.2507 -0.7931 -0.4042
  590TIP3   OH2 1775   2.838   4.723   4.743 -0.6746  0.0100  0.6137
  590TIP3    H1 1776   2.897   4.757   4.810 -0.6237 -1.4014  1.3311
  590TIP3    H2 1777   2.770   4.677   4.792 -1.4844  0.2384 -0.2598
  591TIP3   OH2 1778   4.455   2.005   0.854  0.5604 -0.0663 -0.2202
  591TIP3    H1 1779   4.480   2.095   0.833 -0.5673  0.4379  0.4832
  591TIP3    H2 1780   4.362   2.011   0.878  0.4948 -1.4030 -0.0674
  592TIP3   OH2 1781   3.544   2.408   5.011 -0.3659  0.0904 -0.2591
  592TIP3    H1 1782   3.574   2.318   5.000 -0.1258  0.2948 -1.5490
  592TIP3    H2 1783   3.624   2.458   5.025 -0.5777  0.0039  1.4443
  593TIP3   OH2 1784   3.851   2.512   3.514  0.1828 -0.6168  0.1995
  593TIP3    H1 1785   3.797   2.586   3.488 -0.1553 -1.5290 -1.8919
  593TIP3    H2 1786   3.789   2.448   3.549  0.5906  0.4386  3.1062
  594TIP3   OH2 1787   1.816   4.575   2.652  0.1634  0.1518 -0.2407
  594TIP3    H1 1788   1.771   4.629   2.586 -1.1780 -0.1794  0.3682
  594TIP3    H2 1789   1.871   4.637   2.699 -0.0590  0.6863 -0.6576
  595TIP3   OH2 1790   3.040   4.523   1.294  0.0062  0.2337  0.0968
  595TIP3    H1 1791   3.086   4.440   1.286 -2.1592 -0.9679 -0.7369
  595TIP3    H2 1792   3.091   4.584   1.242  1.2430 -0.7488  0.1239
  596TIP3   OH2 1793   4.322   4.840   3.486 -0.3749 -0.0745 -0.5465
  596TIP3    H1 1794   4.298   4.809   3.399  0.4099  0.8928 -1.1148
  596TIP3    H2 1795   4.394   4.782   3.513  0.0492  0.2598 -0.9580
  597TIP3   OH2 1796   6.014   2.200   3.570 -0.4544 -0.4831  0.8613
  597TIP3    H1 1797   5.967   2.176   3.490 -0.5829  1.2774  0.3596
  597TIP3    H2 1798   6.106   2.181   3.552 -0.5487 -0.6010  0.5046
  598TIP3   OH2 1799   3.375   5.605   4.809 -0.4934  0.1082  0.0313
  598TIP3    H1 1800   3.405   5.559   4.731  0.5539  1.3244 -0.3211
  598TIP3    H2 1801   3.295   5.650   4.782 -0.4562  0.0476 -0.1798
  599TIP3   OH2 1802   4.449   2.217   4.793  0.4561 -0.4826  0.7332
  599TIP3    H1 1803   4.455   2.280   4.721  0.4193 -1.4829 -0.1797
  599TIP3    H2 1804   4.534   2.172   4.793  0.3525 -0.6870  1.1324
  600TIP3   OH2 1805   2.554   2.229   2.758 -0.5155  0.1330 -0.0226
  600TIP3    H1 1806   2.648   2.244   2.756 -0.3597 -0.8523 -0.2393
  600TIP3    H2 1807   2.542   2.154   2.815 -1.0689 -0.4274 -0.8575
  601TIP3   OH2 1808   3.779   5.959   0.127 -0.2675 -0.6022  0.2858
  601TIP3    H1 1809   3.693   5.918   0.115  0.1893 -2.1459  1.8768
  601TIP3    H2 1810   3.759   6.053   0.134 -1.6825 -0.8057 -0.5003
  602TIP3   OH2 1811   1.944   5.106   1.178 -0.4075  0.3512  0.4024
  602TIP3    H1 1812   1.935   5.158   1.258  0.9594  1.5601 -0.2024
  602TIP3    H2 1813   1.864   5.124   1.129 -0.7894  0.4026  1.0311
  603TIP3   OH2 1814   2.834   1.979   3.620 -0.1559 -0.1840  0.1484
  603TIP3    H1 1815   2.896   2.012   3.555  0.8772 -1.5083  0.4076
  603TIP3    H2 1816   2.760   1.947   3.569  0.1044 -0.0903 -0.2938
  604TIP3   OH2 1817   1.104   5.974   1.003  0.0660 -0.1459  0.1585
  604TIP3    H1 1818   1.175   5.927   1.048  0.5023  1.0159  0.7111
  604TIP3    H2 1819   1.031   5.972   1.065  1.0003  2.3868  1.4673
  605TIP3   OH2 1820   4.298   1.211   0.930 -0.2621 -0.1266  0.6610
  605TIP3    H1 1821   4.247   1.288   0.904  1.2176  0.7900  0.3515
  605TIP3    H2 1822   4.325   1.170   0.848  0.7863  0.2959  0.7795
  606TIP3   OH2 1823   1.950   1.672   0.748  0.3767 -0.8573  0.2375
  606TIP3    H1 1824   2.011   1.697   0.679  0.8882 -1.1660  0.5706
  606TIP3    H2 1825   1.922   1.755   0.786 -0.1525 -0.6730 -0.5453
  607TIP3   OH2 1826   1.206   2.738   3.753  0.2406  0.3439 -0.0362
  607TIP3    H1 1827   1.113   2.746   3.774  0.9046  1.5353  2.9256
  607TIP3    H2 1828   1.233   2.827   3.731  1.2107  0.6371  2.0685
  608TIP3   OH2 1829   3.648   1.059   2.591  0.3005  0.1213 -0.0509
  608TIP3    H1 1830   3.574   1.009   2.557  1.3611 -0.2019 -2.0008
  608TIP3    H2 1831   3.619   1.089   2.677 -1.9608 -0.2294 -0.6434
  609TIP3   OH2 1832   1.542   2.607   4.124 -0.1849 -0.0871  0.4258
  609TIP3    H1 1833   1.497   2.641   4.046 -2.3133 -0.6169  1.3733
  609TIP3    H2 1834   1.543   2.512   4.112  0.5711 -0.0979  0.5067
  610TIP3   OH2 1835   2.878   3.691   1.594  0.5236 -0.5312 -1.0072
  610TIP3    H1 1836   2.887   3.755   1.524 -1.2881  0.3712 -0.4803
  610TIP3    H2 1837   2.833   3.738   1.664  0.0760 -2.0943 -0.1976
  611TIP3   OH2 1838   4.000   1.746   3.490  0.3575  0.1236  0.2082
  611TIP3    H1 1839   4.067   1.765   3.555  1.1271 -0.7521 -0.3068
  611TIP3    H2 1840   3.998   1.823   3.433  1.2492 -0.0344 -0.0418
  612TIP3   OH2 1841   0.878   4.030   1.828 -0.0495  0.1897 -0.3918
  612TIP3    H1 1842   0.845   3.940   1.824 -0.0874  0.2125 -0.5712
  612TIP3    H2 1843   0.961   4.023   1.876  1.5836 -0.4106 -3.1242
  613TIP3   OH2 1844   6.063   3.821   2.814 -0.5442 -0.1283  0.3624
  613TIP3    H1 1845   6.093   3.737   2.851  2.6313  0.5693 -0.3092
  613TIP3    H2 1846   6.071   3.809   2.719 -0.7406  0.7211  0.2364
  614TIP3   OH2 1847   1.789   1.476   4.529 -0.3448 -0.1695  0.3011
  614TIP3    H1 1848   1.745   1.451   4.447  0.9269 -0.0956 -0.4240
  614TIP3    H2 1849   1.872   1.513   4.501  0.7007 -1.3743  1.6869
  615TIP3   OH2 1850   0.021   1.976   0.979  0.1442  0.5184  0.0693
  615TIP3    H1 1851  -0.055   2.002   0.928 -1.3785 -1.3404  1.2529
  615TIP3    H2 1852   0.086   1.949   0.914 -0.7453  0.7671 -0.9380
  616TIP3   OH2 1853   2.137   1.541   1.306 -0.5306  0.2568 -0.3510
  616TIP3    H1 1854   2.083   1.605   1.351 -1.6984  1.5010 -3.2810
  616TIP3    H2 1855   2.081   1.464   1.298  1.3236 -2.0466  4.4365
  617TIP3   OH2 1856   5.513   3.950   1.039 -0.0982 -0.2173 -0.1407
  617TIP3    H1 1857   5.538   3.873   0.988  1.0775 -0.9179  1.3790
  617TIP3    H2 1858   5.460   4.002   0.980 -1.0454 -2.2508 -1.1889
  618TIP3   OH2 1859   1.904   5.596   1.076 -0.2065  0.5893  0.7176
  618TIP3    H1 1860   1.864   5.676   1.043  1.7600  3.0255  3.6636
  618TIP3    H2 1861   1.840   5.560   1.137 -0.4494  0.8231  0.6038
  619TIP3   OH2 1862   2.599   1.031   4.457 -0.2381 -0.7319  0.1632
  619TIP3    H1 1863   2.592   0.991   4.543 -0.7520 -1.6140 -0.2700
  619TIP3    H2 1864   2.529   0.990   4.406 -0.0916 -0.0520 -0.6056
  620TIP3   OH2 1865   4.499   2.313   4.023 -0.4962  0.3000 -0.6365
  620TIP3    H1 1866   4.505   2.286   4.114  2.9611  0.2886 -0.7670
  620TIP3    H2 1867   4.437   2.387   4.025  0.6769  1.3437  2.0159
  621TIP3   OH2 1868   5.628   1.587   0.401  0.3571 -0.3841 -0.6461
  621TIP3    H1 1869   5.673   1.624   0.477 -0.0362 -1.5152  0.1629
  621TIP3    H2 1870   5.695   1.585   0.333  0.4941  1.4147 -0.6106
  622TIP3   OH2 1871   3.815   2.848   1.613 -0.3022 -0.3717 -0.4771
  622TIP3    H1 1872   3.907   2.872   1.605 -0.0527 -1.1693 -0.1373
  622TIP3    H2 1873   3.794   2.862   1.706  0.4194 -3.2552  0.2294
  623TIP3   OH2 1874   0.990   0.419   3.835  0.1205  0.2854  0.4789
  623TIP3    H1 1875   0.940   0.495   3.803  1.3621  2.6309  3.5828
  623TIP3    H2 1876   0.936   0.383   3.904  0.6072 -0.1569  0.6320
  624TIP3   OH2 1877   0.996   0.773   1.631 -0.2631  0.2322 -0.4917
  624TIP3    H1 1878   0.929   0.708   1.610 -0.3850  0.1157  0.2414
  624TIP3    H2 1879   1.001   0.828   1.553 -2.6245  1.4587  0.1497
  625TIP3   OH2 1880   2.994   1.925   3.385 -0.3898  0.1945 -0.0764
  625TIP3    H1 1881   3.071   1.921   3.328  0.3887 -1.3246  1.0081
  625TIP3    H2 1882   2.921   1.898   3.330  0.1403 -0.0052 -0.6846
  626TIP3   OH2 1883   5.911   5.813   4.203 -0.7547  0.7015  0.0677
  626TIP3    H1 1884   5.879   5.762   4.278 -2.1531 -0.7326 -1.4216
  626TIP3    H2 1885   5.882   5.902   4.221 -4.0399 -0.1666 -0.2179
  627TIP3   OH2 1886   5.453   5.688   1.251 -0.6602 -1.5878 -0.4741
  627TIP3    H1 1887   5.535   5.690   1.300 -0.2890 -0.5229 -1.1052
  627TIP3    H2 1888   5.405   5.613   1.286  0.7581 -2.4659 -0.3789
  628TIP3   OH2 1889   0.406   1.378   2.486  0.9602  0.1983  0.0994
  628TIP3    H1 1890   0.343   1.413   2.550  0.7212 -0.2261  0.1021
  628TIP3    H2 1891   0.392   1.430   2.407  1.1813  0.6551  0.3551
  629TIP3   OH2 1892   4.077   0.780   3.930  0.1671 -0.2750 -0.0934
  629TIP3    H1 1893   4.152   0.839   3.936  0.0106 -0.2050  2.0869
  629TIP3    H2 1894   4.109   0.696   3.963 -0.4763 -0.4923  0.0035
  630TIP3   OH2 1895   1.165   0.241   4.453  0.0078  0.5410  0.1781
  630TIP3    H1 1896   1.103   0.178   4.490  0.7439  0.3701  1.1631
  630TIP3    H2 1897   1.231   0.187   4.409 -0.0719  0.6837 -0.1184
  631TIP3   OH2 1898   5.892   4.230   0.078 -0.0609 -0.0542  0.8141
  631TIP3    H1 1899   5.825   4.282   0.123 -1.0892  0.8762 -1.6422
  631TIP3    H2 1900   5.975   4.259   0.116 -0.8099  1.4159  1.3925
  632TIP3   OH2 1901   0.168   2.492   1.473  0.4607 -0.0244 -0.2007
  632TIP3    H1 1902   0.082   2.515   1.507  0.0075 -1.1969 -0.5133
  632TIP3    H2 1903   0.229   2.519   1.542 -0.2458 -0.1923  0.5011
  633TIP3   OH2 1904   3.888   0.140   2.533 -0.1906 -1.3373 -0.1482
  633TIP3    H1 1905   3.840   0.222   2.522  0.2458 -1.0772 -0.1221
  633TIP3    H2 1906   3.829   0.073   2.498 -0.5787 -1.0239 -0.1037
  634TIP3   OH2 1907   4.668   4.998   4.659 -0.1334  0.7989 -0.3592
  634TIP3    H1 1908   4.726   5.072   4.641 -1.5790  1.7287 -1.5137
  634TIP3    H2 1909   4.587   5.038   4.691  0.0899 -0.5058  2.0402
  635TIP3   OH2 1910   3.245   5.801   4.617 -0.3575  0.0210  0.5714
  635TIP3    H1 1911   3.248   5.769   4.527 -2.4850  0.3635  0.3262
  635TIP3    H2 1912   3.311   5.870   4.620  0.8153 -1.0057 -0.2644
  636TIP3   OH2 1913   4.259   0.626   0.602  0.2671  0.1274 -0.1262
  636TIP3    H1 1914   4.313   0.668   0.668 -0.7310  1.1591  0.0676
  636TIP3    H2 1915   4.183   0.683   0.593 -0.6441 -1.1120 -0.6146
  637TIP3   OH2 1916   3.133   5.960   2.524 -0.0593 -0.2638  0.4909
  637TIP3    H1 1917   3.097   6.027   2.583 -0.8348 -0.2316 -0.0031
  637TIP3    H2 1918   3.078   5.883   2.539 -1.4414  0.2621 -1.4302
  638TIP3   OH2 1919   5.798   2.655   3.847 -0.4929 -0.5767  0.2762
  638TIP3    H1 1920   5.721   2.645   3.903 -0.5542 -0.5163  0.2029
  638TIP3    H2 1921   5.871   2.624   3.900 -0.1767  1.7201  1.2892
  639TIP3   OH2 1922   4.521   4.104   4.866  0.2990  0.0115 -0.5295
  639TIP3    H1 1923   4.595   4.142   4.915 -0.3359 -1.7560  2.0503
  639TIP3    H2 1924   4.509   4.018   4.906 -2.3807 -0.2515 -1.7179
  640TIP3   OH2 1925   1.882   3.757   5.157  0.0856 -0.0248 -0.2469
  640TIP3    H1 1926   1.940   3.786   5.087 -0.5002 -0.4455 -0.9254
  640TIP3    H2 1927   1.795   3.790   5.133 -0.0667  0.1267  0.4663
  641TIP3   OH2 1928   1.581   4.473   2.118  0.5008  1.0771 -0.2120
  641TIP3    H1 1929   1.598   4.388   2.076  1.9445  1.7687 -1.1230
  641TIP3    H2 1930   1.566   4.451   2.210 -0.6378 -0.2881 -0.6772
  642TIP3   OH2 1931   0.144   0.682   4.977 -0.1746  0.3645  0.2249
  642TIP3    H1 1932   0.135   0.597   5.018  0.6471 -0.3755 -1.0520
  642TIP3    H2 1933   0.103   0.672   4.891 -1.0655  1.6043  0.4639
  643TIP3   OH2 1934   3.808   3.188   0.162  0.6640 -0.1812  0.3798
  643TIP3    H1 1935   3.863   3.114   0.138  0.4625 -0.3182  0.3406
  643TIP3    H2 1936   3.816   3.249   0.089 -1.7325 -1.5618 -1.1657
  644TIP3   OH2 1937   5.698   4.567   4.715  0.0696  0.6949 -0.6815
  644TIP3    H1 1938   5.604   4.558   4.702 -0.1030  2.3294 -0.7646
  644TIP3    H2 1939   5.737   4.500   4.659 -0.9693  1.4362 -2.3656
  645TIP3   OH2 1940   3.060   2.082   1.397  0.4240 -0.0985 -0.4165
  645TIP3    H1 1941   3.072   2.124   1.311 -1.0079  0.1989 -0.4862
  645TIP3    H2 1942   3.069   2.154   1.460  0.4969 -0.1457 -0.3722
  646TIP3   OH2 1943   0.513   3.391   4.032  0.2292 -0.2977 -0.3323
  646TIP3    H1 1944   0.602   3.426   4.043  0.3094 -0.6399  0.1538
  646TIP3    H2 1945   0.515   3.307   4.079 -0.5823  0.0672  0.3876
  647TIP3   OH2 1946   5.711   0.137   2.993  0.0414  0.0433  0.2986
  647TIP3    H1 1947   5.774   0.209   2.996 -1.1747  1.1181  1.3484
  647TIP3    H2 1948   5.748   0.070   3.049  1.3517 -0.3344 -0.9498
  648TIP3   OH2 1949   5.554   5.642   4.889  0.0967 -0.2880  0.0916
  648TIP3    H1 1950   5.557   5.582   4.963  0.5694 -0.8591 -0.3823
  648TIP3    H2 1951   5.579   5.727   4.926 -3.9190  0.4963  1.5254
  649TIP3   OH2 1952   0.137   0.503   3.438  0.3431 -0.3064 -0.0322
  649TIP3    H1 1953   0.132   0.412   3.467  1.3016 -0.3734 -0.0730
  649TIP3    H2 1954   0.118   0.499   3.344  0.4810 -0.4697 -0.0524
  650TIP3   OH2 1955   3.696   5.533   4.322  0.5323  0.2127  0.1398
  650TIP3    H1 1956   3.792   5.528   4.320  0.5129 -0.2157  0.2849
  650TIP3    H2 1957   3.668   5.479   4.248  0.3924  0.0223  0.3305
  651TIP3   OH2 1958   2.841   4.672   2.968 -0.1456 -0.5943  0.0131
  651TIP3    H1 1959   2.750   4.670   2.939 -0.3784  0.0904  0.6628
  651TIP3    H2 1960   2.864   4.580   2.981 -0.7917 -0.7641 -0.0202
  652TIP3   OH2 1961   3.150   1.830   3.596 -0.3078  0.3841  0.8421
  652TIP3    H1 1962   3.167   1.891   3.667  0.4457  0.6890  0.4071
  652TIP3    H2 1963   3.097   1.879   3.533 -0.6628  0.2267  1.0101
  653TIP3   OH2 1964   2.712   3.301   1.541  0.3989  0.1801  0.4987
  653TIP3    H1 1965   2.669   3.322   1.624 -0.4070 -1.6382  0.6096
  653TIP3    H2 1966   2.640   3.282   1.481  0.9324  2.4435 -0.9635
  654TIP3   OH2 1967   3.356   5.141   0.539 -0.1434  0.1060  0.5001
  654TIP3    H1 1968   3.409   5.070   0.501 -0.3274 -0.1054  0.6383
  654TIP3    H2 1969   3.395   5.221   0.503 -1.2423 -0.1365 -1.3321
  655TIP3   OH2 1970   0.012   0.185   0.953  0.8461 -0.3576 -0.4090
  655TIP3    H1 1971   0.069   0.215   0.882 -1.4456  0.6114 -1.9210
  655TIP3    H2 1972  -0.058   0.250   0.957  1.4047  0.2388  3.5195
  656TIP3   OH2 1973   1.387   5.388   4.284  0.3000  0.4240 -0.5934
  656TIP3    H1 1974   1.429   5.362   4.366  0.8490  1.3871 -0.5475
  656TIP3    H2 1975   1.323   5.454   4.309  0.6718  0.9350 -0.9612
  657TIP3   OH2 1976   2.367   4.350   1.560  0.6413  0.0398  0.5007
  657TIP3    H1 1977   2.425   4.291   1.608  1.4227 -0.6001 -1.1587
  657TIP3    H2 1978   2.421   4.384   1.488 -0.8930 -0.1880 -0.8157
  658TIP3   OH2 1979   1.309   1.986   2.459  0.0300  0.0898  0.5073
  658TIP3    H1 1980   1.283   2.034   2.538 -1.2474 -0.9819  0.7715
  658TIP3    H2 1981   1.340   1.901   2.491 -0.3306 -0.2887 -0.1180
  659TIP3   OH2 1982   2.095   4.125   0.119 -0.6078 -0.1150  0.1832
  659TIP3    H1 1983   2.172   4.129   0.063 -0.4284 -0.9510  0.3459
  659TIP3    H2 1984   2.124   4.161   0.203 -0.0817 -1.3396  0.5543
  660TIP3   OH2 1985   3.839   1.768   0.519  0.0100 -0.1243 -0.7186
  660TIP3    H1 1986   3.828   1.781   0.613  0.9846 -1.2616 -0.4202
  660TIP3    H2 1987   3.799   1.845   0.479  0.3764  0.8175  0.6609
  661TIP3   OH2 1988   3.172   0.904   0.723  0.8280  0.0504 -0.2848
  661TIP3    H1 1989   3.202   0.821   0.686  1.3504 -0.0570  0.3525
  661TIP3    H2 1990   3.190   0.969   0.656 -1.4374 -0.6066 -1.6388
  662TIP3   OH2 1991   3.018   5.372   2.795  0.3405  0.1618  0.0613
  662TIP3    H1 1992   3.094   5.429   2.806  0.1002  1.1013 -2.4630
  662TIP3    H2 1993   2.961   5.393   2.868  1.2032  1.5927  0.3581
  663TIP3   OH2 1994   5.277   5.934   0.869  0.4625 -0.0045 -0.0680
  663TIP3    H1 1995   5.363   5.964   0.841  1.0470 -1.6227 -0.0726
  663TIP3    H2 1996   5.241   6.008   0.919  1.2991  1.1662 -1.1562
  664TIP3   OH2 1997   4.840   0.630   4.431  0.1006  0.2218 -0.4271
  664TIP3    H1 1998   4.768   0.609   4.491 -0.3073  1.7149 -0.3373
  664TIP3    H2 1999   4.800   0.628   4.344  0.0451  0.6430 -0.4130
  665TIP3   OH2 2000   0.053   5.402   2.875  0.6434 -0.1566 -0.6691
  665TIP3    H1 2001   0.030   5.479   2.822  0.4003  0.6435  0.5662
  665TIP3    H2 2002   0.130   5.431   2.925  0.7891 -0.8650 -0.4808
  666TIP3   OH2 2003   2.509   0.278   2.798  0.2347  0.1346 -0.3186
  666TIP3    H1 2004   2.442   0.317   2.855  0.2566 -0.6627  0.2806
  666TIP3    H2 2005   2.491   0.184   2.802  0.1072  0.0751 -1.8139
  667TIP3   OH2 2006   4.443   0.422   4.409 -0.2679 -0.1140  0.2685
  667TIP3    H1 2007   4.474   0.500   4.455 -0.1026 -0.8658  1.4767
  667TIP3    H2 2008   4.512   0.402   4.346 -0.3820  0.7958 -0.1616
  668TIP3   OH2 2009   4.716   5.490   2.579 -0.2598  0.3206 -0.2683
  668TIP3    H1 2010   4.675   5.460   2.497  1.0041 -0.2991 -0.6986
  668TIP3    H2 2011   4.795   5.535   2.551 -0.1962  0.7580  0.5942
  669TIP3   OH2 2012   4.498   0.096   0.432  0.2743 -0.3318 -0.4972
  669TIP3    H1 2013   4.474   0.118   0.522  0.5152 -0.1050 -0.4881
  669TIP3    H2 2014   4.515   0.181   0.391 -0.8350 -0.3471 -1.0464
  670TIP3   OH2 2015   1.085   5.423   0.373 -0.3761 -0.0170 -0.1754
  670TIP3    H1 2016   1.039   5.379   0.445  0.0180 -1.8218 -0.9530
  670TIP3    H2 2017   1.031   5.404   0.296  0.8322 -0.8644 -0.8454
  671TIP3   OH2 2018   0.137   2.277   1.305  0.2036 -0.3474  0.0064
  671TIP3    H1 2019   0.227   2.245   1.296  0.3605  0.2435 -0.5675
  671TIP3    H2 2020   0.147   2.361   1.350  0.2626  1.3101 -2.8534
  672TIP3   OH2 2021   6.107   5.209   4.757 -0.6731  0.5158 -0.6182
  672TIP3    H1 2022   6.202   5.206   4.746 -0.3996  1.1368  1.1849
  672TIP3    H2 2023   6.075   5.135   4.707  0.9248 -0.7669  0.1600
  673TIP3   OH2 2024   0.953   5.213   2.648  0.4387  0.6799 -0.2904
  673TIP3    H1 2025   0.943   5.127   2.689  0.5022  1.0106  0.4460
  673TIP3    H2 2026   0.895   5.211   2.572  1.2227 -0.3842 -0.8951
  674TIP3   OH2 2027   2.443   0.477   0.349  0.5775  0.2412  0.2958
  674TIP3    H1 2028   2.484   0.391   0.348  0.8475  0.3297  1.8695
  674TIP3    H2 2029   2.484   0.524   0.276  1.8714 -0.3191  0.6309
  675TIP3   OH2 2030   4.425   1.369   3.292 -0.2984 -0.4729 -0.2435
  675TIP3    H1 2031   4.511   1.333   3.271  0.3280  0.7432  0.0727
  675TIP3    H2 2032   4.383   1.384   3.208  1.4817  2.7293 -0.7436
  676TIP3   OH2 2033   5.562   1.911   1.827  0.5927  0.3813  0.1881
  676TIP3    H1 2034   5.613   1.979   1.869  1.7590 -0.3290 -0.0124
  676TIP3    H2 2035   5.593   1.911   1.736  0.3070 -0.1298  0.0860
  677TIP3   OH2 2036   4.149   3.771   0.101  0.2299  0.4915 -0.1089
  677TIP3    H1 2037   4.063   3.757   0.141  0.9752 -0.4270  1.2810
  677TIP3    H2 2038   4.192   3.685   0.106  1.9372  1.3469  1.0517
  678TIP3   OH2 2039   6.059   5.431   0.285 -0.2527  0.3712  0.0589
  678TIP3    H1 2040   6.136   5.487   0.274  0.6813 -1.0531 -0.8267
  678TIP3    H2 2041   5.987   5.483   0.247  0.4239  1.3102  0.0165
  679TIP3   OH2 2042   2.334   3.088   3.201  0.0284  0.0027 -0.1603
  679TIP3    H1 2043   2.397   3.150   3.166  0.4184 -0.3117 -0.0294
  679TIP3    H2 2044   2.340   3.012   3.143 -0.0339 -0.1350  0.0103
  680TIP3   OH2 2045   1.517   1.464   5.070  0.0327 -0.2288  1.0254
  680TIP3    H1 2046   1.609   1.453   5.048  0.0806 -2.5373  2.0977
  680TIP3    H2 2047   1.513   1.544   5.122  1.3407  0.0985  0.6511
  681TIP3   OH2 2048   0.821   2.322   3.719 -1.0189 -0.1980 -0.3617
  681TIP3    H1 2049   0.914   2.330   3.697 -1.4747 -0.3495 -2.6156
  681TIP3    H2 2050   0.808   2.228   3.733 -1.0832 -0.3703 -1.4796
  682TIP3   OH2 2051   4.851   0.018   2.378  0.3712  0.4021 -0.3219
  682TIP3    H1 2052   4.895  -0.067   2.375 -0.1184 -0.0914  3.1161
  682TIP3    H2 2053   4.919   0.081   2.351  1.4276 -0.8355 -0.6388
  683TIP3   OH2 2054   4.509   2.901   0.269  0.1848 -0.3288 -0.4397
  683TIP3    H1 2055   4.558   2.983   0.262 -2.6304  1.4395 -1.1124
  683TIP3    H2 2056   4.493   2.890   0.363 -1.2080  1.1348 -0.4555
  684TIP3   OH2 2057   3.221   3.075   4.331 -0.1475  0.2658  0.8314
  684TIP3    H1 2058   3.171   3.058   4.411  0.4789  1.7463  1.5653
  684TIP3    H2 2059   3.181   3.154   4.294  0.3005  0.2420  0.2777
  685TIP3   OH2 2060   3.798   4.036   2.016  0.0073 -0.1289  0.1153
  685TIP3    H1 2061   3.819   4.090   1.940 -0.5402  1.5185  1.0851
  685TIP3    H2 2062   3.741   4.091   2.069  2.3478 -0.2195  2.9624
  686TIP3   OH2 2063   4.103   3.896   0.653  0.1427 -0.6895  0.1919
  686TIP3    H1 2064   4.019   3.859   0.628  0.6361 -0.9647 -1.2031
  686TIP3    H2 2065   4.167   3.833   0.621  0.8921 -0.3693  1.0134
  687TIP3   OH2 2066   0.216   4.254   2.656 -1.0884 -0.3053 -0.0503
  687TIP3    H1 2067   0.182   4.293   2.736 -0.4142  1.9932 -0.8086
  687TIP3    H2 2068   0.286   4.312   2.629 -1.6976 -0.6593 -2.6369
  688TIP3   OH2 2069   5.016   0.030   2.819  0.0460  0.0192 -0.5837
  688TIP3    H1 2070   5.063   0.107   2.787  0.2980  0.5114  0.8573
  688TIP3    H2 2071   5.075  -0.006   2.886 -0.5330 -0.8182 -0.5213
  689TIP3   OH2 2072   6.175   4.417   4.489 -0.5522  0.0446 -0.4971
  689TIP3    H1 2073   6.203   4.457   4.406  1.6614  1.2775  0.7436
  689TIP3    H2 2074   6.095   4.464   4.513 -0.1185  1.0515 -0.9873
  690TIP3   OH2 2075   4.399   3.745   4.984 -0.4144  0.5278  0.2650
  690TIP3    H1 2076   4.454   3.793   5.046 -1.9549  0.9524  1.3751
  690TIP3    H2 2077   4.351   3.681   5.038 -0.3567 -0.4553 -0.7936
  691TIP3   OH2 2078   5.158   5.631   1.495  0.3190  0.3740  0.0386
  691TIP3    H1 2079   5.215   5.573   1.445 -1.1026 -0.1753 -1.0161
  691TIP3    H2 2080   5.128   5.695   1.431 -2.0897 -0.7535 -0.0634
  692TIP3   OH2 2081   4.449   1.803   3.257 -0.2259  0.3169 -0.0797
  692TIP3    H1 2082   4.462   1.732   3.320  0.0005  0.2309 -0.2236
  692TIP3    H2 2083   4.405   1.871   3.307 -1.0112 -0.1685 -0.0980
  693TIP3   OH2 2084   4.289   2.681   5.209  0.0190  0.0802 -0.4750
  693TIP3    H1 2085   4.303   2.771   5.178  2.4514 -0.0393  0.0779
  693TIP3    H2 2086   4.283   2.629   5.129 -0.2678  0.5773 -0.7837
  694TIP3   OH2 2087   1.594   1.755   3.331  0.1251  0.7328 -0.0205
  694TIP3    H1 2088   1.514   1.704   3.323  0.2371  0.7668 -1.7076
  694TIP3    H2 2089   1.646   1.732   3.254  1.3231  1.4315  0.5381
  695TIP3   OH2 2090   0.045   1.482   2.074  0.2530 -0.4109 -0.0980
  695TIP3    H1 2091   0.039   1.578   2.067 -0.1134 -0.4024  0.3056
  695TIP3    H2 2092   0.015   1.451   1.988  0.7392 -0.1564 -0.3669
  696TIP3   OH2 2093   1.716   1.695   3.089 -0.2895 -0.0195  1.0579
  696TIP3    H1 2094   1.753   1.608   3.106 -0.7147 -0.3952  0.1601
  696TIP3    H2 2095   1.792   1.749   3.067 -0.2330 -0.9306 -1.3672
  697TIP3   OH2 2096   5.904   0.720   0.569  0.5821  0.0222 -1.0624
  697TIP3    H1 2097   5.863   0.633   0.569 -0.8989  0.6817 -0.0081
  697TIP3    H2 2098   5.831   0.781   0.570  1.5506  1.2542  1.3328
  698TIP3   OH2 2099   0.264   0.929   1.032 -0.1436 -0.2839 -0.2372
  698TIP3    H1 2100   0.184   0.886   1.000 -0.4761  0.0583  0.1244
  698TIP3    H2 2101   0.313   0.951   0.953 -1.0210  0.6753 -0.5304
  699TIP3   OH2 2102   1.414   5.450   2.303  0.4225 -0.1236  0.6782
  699TIP3    H1 2103   1.325   5.432   2.272  0.5173  1.3663 -0.5859
  699TIP3    H2 2104   1.465   5.461   2.223  1.4972  0.1910  1.3934
  700TIP3   OH2 2105   0.172   4.801   1.005  0.1770  0.2051  0.6784
  700TIP3    H1 2106   0.221   4.883   1.003 -1.4941  1.2709  0.9798
  700TIP3    H2 2107   0.102   4.816   1.069 -1.6539 -0.5387 -1.0336
  701TIP3   OH2 2108   3.113   0.467   0.300  0.2354  0.9191 -0.1186
  701TIP3    H1 2109   3.172   0.541   0.285  1.6661 -0.2690 -0.5729
  701TIP3    H2 2110   3.138   0.403   0.233 -1.4000  0.2552 -0.1386
  702TIP3   OH2 2111   5.356   4.080   0.847 -0.0787  0.0045 -0.5483
  702TIP3    H1 2112   5.380   4.013   0.782  0.6596  0.2758 -0.5621
  702TIP3    H2 2113   5.274   4.117   0.814  0.7094  0.7290 -1.7954
  703TIP3   OH2 2114   4.162   2.323   1.641  0.0965  0.0185  0.4377
  703TIP3    H1 2115   4.206   2.408   1.648  0.3870 -0.1400  0.5876
  703TIP3    H2 2116   4.069   2.343   1.641  0.1401  0.2782  1.4000
  704TIP3   OH2 2117   2.415   3.314   0.374 -0.2983  0.3391 -0.4255
  704TIP3    H1 2118   2.359   3.356   0.309 -2.0067 -1.5322 -0.2613
  704TIP3    H2 2119   2.382   3.346   0.458 -0.9422 -0.5045 -0.3428
  705TIP3   OH2 2120   3.601   1.526   4.708 -0.0234 -0.4051 -0.2556
  705TIP3    H1 2121   3.624   1.612   4.673 -0.2634 -0.5792 -0.8424
  705TIP3    H2 2122   3.655   1.465   4.658  1.0088 -0.5252  0.9312
  706TIP3   OH2 2123   2.327   3.810   3.098  0.2399 -0.4844  0.0748
  706TIP3    H1 2124   2.237   3.777   3.092 -0.0534  0.2723  0.2060
  706TIP3    H2 2125   2.371   3.748   3.156 -0.6094 -0.0218  1.2597
  707TIP3   OH2 2126   5.894   5.807   1.513 -0.1261  0.0886  0.1288
  707TIP3    H1 2127   5.969   5.841   1.464 -0.1162  1.1423  0.8433
  707TIP3    H2 2128   5.872   5.877   1.574  0.2421 -1.3981  2.0620
  708TIP3   OH2 2129   5.211   1.376   2.220 -0.0991  0.0222 -0.3634
  708TIP3    H1 2130   5.246   1.457   2.184  0.5103 -0.3833 -0.7175
  708TIP3    H2 2131   5.180   1.400   2.307  2.3550  0.1677  0.5702
  709TIP3   OH2 2132   3.288   2.582   3.552  0.2724  0.5400  0.3367
  709TIP3    H1 2133   3.227   2.522   3.508 -0.0755  0.4247  0.9563
  709TIP3    H2 2134   3.233   2.631   3.614  0.8739  0.1168  1.2372
  710TIP3   OH2 2135   0.618   2.253   1.948  0.2840  0.5576 -0.4217
  710TIP3    H1 2136   0.526   2.224   1.946  0.6874 -0.7651 -0.6976
  710TIP3    H2 2137   0.621   2.316   2.020 -0.9122  0.9016 -0.6362
  711TIP3   OH2 2138   5.556   2.405   4.925  0.0969 -0.4303 -0.4752
  711TIP3    H1 2139   5.558   2.484   4.871 -0.0116 -0.9324 -1.2309
  711TIP3    H2 2140   5.643   2.366   4.915 -0.1627 -0.9270 -0.9257
  712TIP3   OH2 2141   3.654   2.315   3.176  0.0660 -0.1707 -0.2976
  712TIP3    H1 2142   3.749   2.303   3.169  0.3952  0.7642  1.6639
  712TIP3    H2 2143   3.639   2.404   3.144 -0.3423 -0.6951 -1.6372
  713TIP3   OH2 2144   1.389   2.095   1.294 -0.2241 -0.8842 -0.1606
  713TIP3    H1 2145   1.480   2.072   1.314 -0.7310 -1.4083  1.7523
  713TIP3    H2 2146   1.359   2.145   1.370 -1.7142 -1.2135 -0.4936
  714TIP3   OH2 2147   4.621   3.046   2.860 -0.2587  0.5470  0.2043
  714TIP3    H1 2148   4.599   2.969   2.913  0.2243  0.8399  0.8460
  714TIP3    H2 2149   4.543   3.101   2.865  0.1867  1.0950  1.5831
  715TIP3   OH2 2150   4.215   3.423   1.994 -0.6447  0.3583  0.5490
  715TIP3    H1 2151   4.232   3.492   1.929  0.9472 -0.6986 -0.2194
  715TIP3    H2 2152   4.195   3.346   1.942 -0.3877 -0.2526  1.3437
  716TIP3   OH2 2153   0.755   5.538   2.672 -0.0457 -0.1271 -0.1877
  716TIP3    H1 2154   0.769   5.548   2.766 -1.3593 -0.3672  0.0586
  716TIP3    H2 2155   0.799   5.613   2.633 -0.0971  0.3694  0.6856
  717TIP3   OH2 2156   2.240   3.418   3.035 -0.4565  0.1794 -0.7980
  717TIP3    H1 2157   2.334   3.409   3.018  0.1967 -0.3677  2.4801
  717TIP3    H2 2158   2.198   3.382   2.957  2.0288 -0.2574 -2.0466
  718TIP3   OH2 2159   2.027   2.779   4.634 -0.1243  0.3099 -0.7261
  718TIP3    H1 2160   2.033   2.807   4.726  2.9551  0.7794 -0.9624
  718TIP3    H2 2161   2.023   2.860   4.584  1.0587  0.1478 -1.1040
  719TIP3   OH2 2162   3.761   2.551   5.002 -0.1328  0.0515  1.0394
  719TIP3    H1 2163   3.855   2.542   5.020  0.4940  2.3624 -0.7009
  719TIP3    H2 2164   3.741   2.642   5.023 -1.7585 -0.1183  0.3774
  720TIP3   OH2 2165   1.630   4.032   4.211  0.1155 -0.0535  0.5024
  720TIP3    H1 2166   1.621   3.939   4.231  0.1485 -0.0112  0.7145
  720TIP3    H2 2167   1.602   4.077   4.291  1.4900  0.0942  0.9168
  721TIP3   OH2 2168   4.656   2.775   3.845  0.6854  0.3145  0.0858
  721TIP3    H1 2169   4.597   2.734   3.781  0.8689  1.6564 -0.9783
  721TIP3    H2 2170   4.611   2.856   3.870  1.7458  1.0116 -0.2184
  722TIP3   OH2 2171   6.157   2.511   3.396  0.1804  0.0708  0.6128
  722TIP3    H1 2172   6.134   2.516   3.488 -0.1639 -1.7146  0.6562
  722TIP3    H2 2173   6.142   2.600   3.363 -0.6743  0.4964  2.0406
  723TIP3   OH2 2174   4.491   2.311   2.397  0.7359 -0.1453 -0.4291
  723TIP3    H1 2175   4.451   2.238   2.444  0.1720 -0.8702 -1.9332
  723TIP3    H2 2176   4.562   2.341   2.453 -0.1872 -0.6548  1.0479
  724TIP3   OH2 2177   3.260   0.730   2.783  0.1443  0.4127  0.0154
  724TIP3    H1 2178   3.168   0.745   2.801  0.8126  1.2790  3.3805
  724TIP3    H2 2179   3.268   0.635   2.774 -0.7059 -0.0786  3.1381
  725TIP3   OH2 2180   4.813   1.140   4.821 -0.2676 -0.1914  0.1686
  725TIP3    H1 2181   4.861   1.203   4.767  0.0794 -1.9238 -1.6860
  725TIP3    H2 2182   4.881   1.097   4.874  0.0901 -1.4643 -1.2305
  726TIP3   OH2 2183   6.156   5.561   2.014 -0.1265 -0.2383 -0.4080
  726TIP3    H1 2184   6.098   5.600   1.948  1.0513  0.5300 -1.0312
  726TIP3    H2 2185   6.228   5.625   2.023 -0.0216 -0.5618  1.2738
  727TIP3   OH2 2186   0.667   0.979   3.947 -0.0917 -0.1943 -0.3451
  727TIP3    H1 2187   0.630   1.001   3.862  0.9783  0.6432 -0.6132
  727TIP3    H2 2188   0.713   0.896   3.932 -0.8749 -0.6457 -0.2876
  728TIP3   OH2 2189   4.396   4.823   2.659 -0.1655  0.5818 -0.0455
  728TIP3    H1 2190   4.358   4.736   2.666  0.8062 -0.1227 -2.4947
  728TIP3    H2 2191   4.488   4.812   2.683 -0.2720  1.1934  0.7076
  729TIP3   OH2 2192   4.632   4.273   4.504  0.1536  0.2034 -0.1526
  729TIP3    H1 2193   4.625   4.322   4.422  0.0417  1.0004  0.3112
  729TIP3    H2 2194   4.544   4.277   4.541  0.1672 -0.2829 -0.0685
  730TIP3   OH2 2195   3.486   1.909   3.587 -0.3205 -0.2227 -0.3162
  730TIP3    H1 2196   3.476   1.982   3.649  0.6151  0.2739 -0.7387
  730TIP3    H2 2197   3.459   1.945   3.503 -0.3650 -0.5310 -0.4355
  731TIP3   OH2 2198   2.556   2.433   1.752  0.1358  0.2276 -0.5072
  731TIP3    H1 2199   2.482   2.472   1.706 -0.0907 -1.9476 -2.1511
  731TIP3    H2 2200   2.600   2.380   1.685  0.5714 -2.0598  1.4714
  732TIP3   OH2 2201   4.314   5.333   0.918 -0.1923  0.1283 -0.1813
  732TIP3    H1 2202   4.316   5.293   1.005 -0.9829  2.0047  0.7483
  732TIP3    H2 2203   4.237   5.390   0.919  1.1845  2.1175 -1.1988
  733TIP3   OH2 2204   3.581   4.155   2.174  0.2433 -0.1911 -0.5405
  733TIP3    H1 2205   3.490   4.125   2.167 -0.1220  0.8721 -0.5877
  733TIP3    H2 2206   3.580   4.216   2.248  1.3639 -1.6874  0.7545
  734TIP3   OH2 2207   4.505   3.170   1.785  0.2824  0.1397 -0.1932
  734TIP3    H1 2208   4.482   3.247   1.733  2.6219  1.2062  0.1960
  734TIP3    H2 2209   4.539   3.206   1.868  0.6640 -1.3401  0.3308
  735TIP3   OH2 2210   5.276   4.269   4.651 -0.3492  0.2567 -0.0176
  735TIP3    H1 2211   5.248   4.188   4.609  0.9999 -1.1489  1.6497
  735TIP3    H2 2212   5.215   4.282   4.723  0.6994 -0.5220  1.0514
  736TIP3   OH2 2213   2.512   3.227   2.798 -0.2925 -0.4271  0.4067
  736TIP3    H1 2214   2.497   3.140   2.759 -0.2073  0.0253 -0.6781
  736TIP3    H2 2215   2.534   3.209   2.889 -0.0907 -1.5654  0.1499
  737TIP3   OH2 2216   2.578   1.269   3.471 -0.1973 -0.3031 -0.1659
  737TIP3    H1 2217   2.659   1.218   3.473  0.4986  0.7691  0.6949
  737TIP3    H2 2218   2.608   1.358   3.451 -0.7754  0.7115  2.9842
  738TIP3   OH2 2219   6.066   5.710   4.554 -0.5411  0.5716  0.3619
  738TIP3    H1 2220   6.022   5.629   4.529  1.3248 -0.2903 -0.3710
  738TIP3    H2 2221   6.032   5.730   4.641 -2.2959 -0.0365 -0.1429
  739TIP3   OH2 2222   4.670   2.890   4.649  0.2993 -0.0834 -0.3219
  739TIP3    H1 2223   4.733   2.862   4.714 -0.8614 -0.1006  0.8391
  739TIP3    H2 2224   4.585   2.865   4.685 -0.4073  0.2476 -1.6671
  740TIP3   OH2 2225   0.616   4.152   0.486 -0.1360 -0.3586 -0.0545
  740TIP3    H1 2226   0.521   4.137   0.488  0.0631 -1.6802  0.1792
  740TIP3    H2 2227   0.643   4.147   0.578  0.3075 -1.0304 -0.2194
  741TIP3   OH2 2228   5.586   0.273   1.349 -0.5167  0.5822  0.3843
  741TIP3    H1 2229   5.671   0.250   1.312  0.1648  0.7653  1.7595
  741TIP3    H2 2230   5.533   0.300   1.274 -0.0501 -1.5235 -0.7817
  742TIP3   OH2 2231   0.807   5.723   4.912 -0.0433  0.1222  0.3761
  742TIP3    H1 2232   0.850   5.782   4.850  1.3384  0.5514  1.6954
  742TIP3    H2 2233   0.765   5.782   4.976 -0.5235 -0.3228  0.4800
  743TIP3   OH2 2234   2.291   1.414   4.831  0.4234 -0.1916 -0.3546
  743TIP3    H1 2235   2.279   1.469   4.753 -2.3497 -0.8218 -0.4730
  743TIP3    H2 2236   2.280   1.474   4.904 -1.1888 -0.2624 -0.4920
  744TIP3   OH2 2237   3.578   0.052   3.493  0.1522  0.3105 -0.5944
  744TIP3    H1 2238   3.661   0.057   3.540 -0.6834  1.8910  0.8064
  744TIP3    H2 2239   3.532  -0.021   3.532 -0.2874  1.2436  0.6973
  745TIP3   OH2 2240   1.103   3.025   1.089  0.4980 -0.6353  1.1121
  745TIP3    H1 2241   1.095   2.946   1.036 -0.9267  0.1884 -0.0050
  745TIP3    H2 2242   1.100   3.096   1.025 -0.3007  0.3695  2.2197
  746TIP3   OH2 2243   1.586   0.475   0.672 -0.1000  0.2380  0.1697
  746TIP3    H1 2244   1.559   0.394   0.630 -0.1560  0.7853 -0.8893
  746TIP3    H2 2245   1.640   0.447   0.746  1.6641 -0.7461 -1.3969
  747TIP3   OH2 2246   1.414   4.897   3.682 -0.0888  0.1100 -0.0534
  747TIP3    H1 2247   1.420   4.859   3.595  0.2701 -0.8348  0.3682
  747TIP3    H2 2248   1.505   4.910   3.710 -0.2006  1.0133 -0.0644
  748TIP3   OH2 2249   5.178   1.591   4.996  0.0726  0.3714 -0.4854
  748TIP3    H1 2250   5.143   1.677   5.020  0.1586  0.0984  0.6710
  748TIP3    H2 2251   5.258   1.582   5.048  0.3921 -0.1630 -1.0522
  749TIP3   OH2 2252   1.314   3.190   3.362  0.0019  0.0844 -0.2053
  749TIP3    H1 2253   1.242   3.252   3.358 -0.2097 -0.1989 -2.4332
  749TIP3    H2 2254   1.367   3.219   3.436 -1.5335  1.2484  0.4945
  750TIP3   OH2 2255   1.534   4.123   4.451 -0.1710  0.2051 -0.2183
  750TIP3    H1 2256   1.499   4.037   4.476 -0.8630  0.8770  1.2113
  750TIP3    H2 2257   1.510   4.181   4.523 -1.5292  2.0790 -2.0616
  751TIP3   OH2 2258   1.075   5.928   2.334  0.1514  0.3167  0.0541
  751TIP3    H1 2259   1.008   5.873   2.294  0.5604  1.3034 -2.1372
  751TIP3    H2 2260   1.130   5.867   2.383 -0.5907 -0.9314 -0.6140
  752TIP3   OH2 2261   1.957   1.382   1.078  0.4312 -0.2930 -0.0846
  752TIP3    H1 2262   2.031   1.368   1.019 -0.5548  0.1639 -1.4858
  752TIP3    H2 2263   1.881   1.355   1.028 -0.4253 -0.1551  1.0955
  753TIP3   OH2 2264   4.923   0.185   1.298  0.1539 -0.0939 -0.2931
  753TIP3    H1 2265   4.921   0.090   1.313  0.2734  0.0872  0.9738
  753TIP3    H2 2266   5.009   0.201   1.259  0.1915 -0.4912 -0.3769
  754TIP3   OH2 2267   0.766   3.508   4.066 -0.5176  0.4579 -0.5592
  754TIP3    H1 2268   0.817   3.552   4.134 -1.0787 -0.1429  0.2730
  754TIP3    H2 2269   0.802   3.541   3.984  0.5660  0.7593  0.0171
  755TIP3   OH2 2270   2.124   4.641   3.561 -0.6214 -0.5795 -0.1387
  755TIP3    H1 2271   2.070   4.606   3.491  1.4887 -1.6565 -1.3207
  755TIP3    H2 2272   2.098   4.591   3.638 -0.9395 -1.4330 -0.7820
  756TIP3   OH2 2273   0.190   4.350   3.851 -0.1617 -0.7775 -0.6129
  756TIP3    H1 2274   0.112   4.392   3.888  0.7627  0.8871 -0.4465
  756TIP3    H2 2275   0.157   4.269   3.812 -1.6955 -0.9459  0.9138
  757TIP3   OH2 2276   6.203   3.526   3.122  0.0655  0.3108  0.1499
  757TIP3    H1 2277   6.142   3.550   3.052  0.9125  0.6047 -0.5103
  757TIP3    H2 2278   6.289   3.528   3.080  0.4327 -1.3494  0.7221
  758TIP3   OH2 2279   0.250   1.680   4.055  0.1572  0.2579  0.2996
  758TIP3    H1 2280   0.317   1.637   4.108 -0.0742 -0.3499  0.1149
  758TIP3    H2 2281   0.203   1.608   4.014 -1.1761  0.6237  1.1154
  759TIP3   OH2 2282   0.734   2.803   2.238 -0.1724  0.3876  0.0784
  759TIP3    H1 2283   0.770   2.789   2.326  0.2517 -0.0964 -0.1680
  759TIP3    H2 2284   0.696   2.891   2.242  0.1162  0.4953  0.6555
  760TIP3   OH2 2285   2.686   2.464   1.155  0.8420 -0.1298  0.3350
  760TIP3    H1 2286   2.668   2.541   1.208 -1.3195 -0.6194  0.4380
  760TIP3    H2 2287   2.736   2.406   1.212  0.3674  0.2182  1.1281
  761TIP3   OH2 2288   5.013   1.225   1.247 -0.0492  0.4312  0.3091
  761TIP3    H1 2289   4.952   1.270   1.189  0.7338  0.2140 -0.7178
  761TIP3    H2 2290   5.099   1.258   1.222  0.3600 -0.1425  0.9176
  762TIP3   OH2 2291   2.296   3.874   4.490 -0.4324 -0.1768 -0.5774
  762TIP3    H1 2292   2.286   3.903   4.581 -1.1679 -1.7938 -0.1169
  762TIP3    H2 2293   2.384   3.836   4.486 -1.2436 -2.2141  0.0994
  763TIP3   OH2 2294   5.180   0.157   3.984 -0.0908 -0.8377 -0.1772
  763TIP3    H1 2295   5.159   0.246   4.014 -1.0585 -1.0090 -0.2914
  763TIP3    H2 2296   5.169   0.162   3.889  2.5963 -0.3860 -0.5374
  764TIP3   OH2 2297   5.683   3.605   4.900  0.0516 -0.1481  0.0079
  764TIP3    H1 2298   5.774   3.626   4.879  0.1300 -0.2675  0.2241
  764TIP3    H2 2299   5.686   3.515   4.932 -0.0021  0.1697  0.9425
  765TIP3   OH2 2300   4.050   3.332   3.239 -0.0122 -0.1046 -0.6391
  765TIP3    H1 2301   4.100   3.403   3.278 -0.1070  0.0091 -0.7234
  765TIP3    H2 2302   4.002   3.373   3.166 -2.3493  0.3913  1.0536
  766TIP3   OH2 2303   1.159   4.624   2.052  0.2603  0.2580  0.1673
  766TIP3    H1 2304   1.244   4.618   2.009 -0.0813 -0.1655 -0.4642
  766TIP3    H2 2305   1.120   4.538   2.041  0.1375  0.1613  1.2932
  767TIP3   OH2 2306   1.221   4.539   0.987 -0.2941 -0.1650 -0.6761
  767TIP3    H1 2307   1.156   4.578   1.046 -1.6446 -1.1587 -1.4686
  767TIP3    H2 2308   1.287   4.502   1.046 -1.1646 -0.3786  0.2006
  768TIP3   OH2 2309   3.113   4.325   4.781 -1.0346  0.3975 -0.2377
  768TIP3    H1 2310   3.045   4.291   4.723 -0.6114 -0.2460 -0.3633
  768TIP3    H2 2311   3.074   4.403   4.820 -0.9602  1.5378 -2.2533
  769TIP3   OH2 2312   2.604   2.101   4.953 -0.3665  0.4851 -0.4794
  769TIP3    H1 2313   2.676   2.153   4.988 -1.0769  0.7507  0.6285
  769TIP3    H2 2314   2.621   2.012   4.986 -0.4988  0.5324 -0.2811
  770TIP3   OH2 2315   6.249   0.350   1.953 -0.3000 -0.5556 -0.1632
  770TIP3    H1 2316   6.220   0.345   2.045  0.4893  0.5688  0.1655
  770TIP3    H2 2317   6.200   0.280   1.909 -1.4353 -0.4768  0.9119
  771TIP3   OH2 2318   6.019   3.447   0.146 -0.1049  0.4281 -0.9673
  771TIP3    H1 2319   5.981   3.431   0.060  0.0776  1.8989 -1.3631
  771TIP3    H2 2320   6.110   3.470   0.128 -0.3609  1.9397 -0.5418
  772TIP3   OH2 2321   4.315   2.595   2.343 -0.3130 -0.4335 -0.0223
  772TIP3    H1 2322   4.329   2.547   2.261 -1.5236 -0.4096 -0.2616
  772TIP3    H2 2323   4.402   2.627   2.367  0.3587 -1.9166 -0.3749
  773TIP3   OH2 2324   0.815   3.730   4.726 -0.4415 -0.0505 -0.0207
  773TIP3    H1 2325   0.780   3.816   4.702  0.5492  0.3177 -0.1913
  773TIP3    H2 2326   0.833   3.737   4.820 -0.1046  0.0182 -0.0906
  774TIP3   OH2 2327   0.587   0.574   2.508  0.0852  0.0066 -0.5912
  774TIP3    H1 2328   0.522   0.586   2.577  1.4967 -0.1047  0.7966
  774TIP3    H2 2329   0.584   0.481   2.488  0.9743 -0.3164  0.6808
  775TIP3   OH2 2330   0.493   1.544   2.857  0.7818  0.6545  0.5108
  775TIP3    H1 2331   0.536   1.629   2.845  1.0518  0.4916  0.3157
  775TIP3    H2 2332   0.402   1.560   2.835  1.1934  0.4336 -1.5161
  776TIP3   OH2 2333   4.266   5.063   3.674 -0.7091 -0.5272  0.8186
  776TIP3    H1 2334   4.258   4.989   3.614 -0.2135  0.0387  0.0206
  776TIP3    H2 2335   4.181   5.108   3.669 -0.7468 -0.6101  0.7127
  777TIP3   OH2 2336   2.423   5.231   1.392  0.0301  0.8576  0.2118
  777TIP3    H1 2337   2.356   5.294   1.417 -1.4133 -0.5951  0.1195
  777TIP3    H2 2338   2.409   5.216   1.299 -0.5532 -0.6395  0.5263
  778TIP3   OH2 2339   4.192   1.974   4.451 -0.3697  0.1197 -0.2700
  778TIP3    H1 2340   4.194   2.016   4.366 -0.9691 -0.5565 -0.6310
  778TIP3    H2 2341   4.165   2.043   4.512 -0.1406  0.5523 -0.6593
  779TIP3   OH2 2342   3.422   2.236   4.200  0.3195 -0.4150  0.2027
  779TIP3    H1 2343   3.432   2.150   4.240 -0.5123 -1.0333 -0.8497
  779TIP3    H2 2344   3.397   2.293   4.272 -0.0101 -1.2465  0.7656
  780TIP3   OH2 2345   3.104   3.989   0.408  0.0596  0.3200 -0.3050
  780TIP3    H1 2346   3.140   3.901   0.404  1.1146  0.7294 -0.3341
  780TIP3    H2 2347   3.135   4.031   0.327  0.6366  1.0891  0.2960
  781TIP3   OH2 2348   5.074   5.382   2.876 -0.5968 -0.1256  0.0453
  781TIP3    H1 2349   5.100   5.474   2.878 -0.8902 -0.0027 -1.1446
  781TIP3    H2 2350   5.136   5.338   2.935  0.0081  0.7186  0.0483
  782TIP3   OH2 2351   0.578   4.642   4.401 -0.1901 -0.3384  0.6011
  782TIP3    H1 2352   0.669   4.613   4.388  0.1750  1.1144 -0.2976
  782TIP3    H2 2353   0.577   4.676   4.491  0.7570  1.6238 -0.0812
  783TIP3   OH2 2354   5.187   0.476   2.457 -0.2145 -0.4161  0.4773
  783TIP3    H1 2355   5.271   0.523   2.460 -0.1803 -0.4425  0.0569
  783TIP3    H2 2356   5.152   0.496   2.370 -0.5236 -0.6156  0.5545
  784TIP3   OH2 2357   5.966   4.899   1.564  0.4777  0.1102 -0.4300
  784TIP3    H1 2358   5.930   4.918   1.651  0.2529  0.9607 -0.6954
  784TIP3    H2 2359   5.931   4.969   1.509 -0.2436 -1.0235 -1.4382
  785TIP3   OH2 2360   2.975   1.503   4.188  0.2689 -0.1314  0.4611
  785TIP3    H1 2361   3.035   1.475   4.257 -0.9534 -1.4271  1.0666
  785TIP3    H2 2362   2.901   1.541   4.235  0.4573  1.1901 -0.2596
  786TIP3   OH2 2363   1.071   3.599   0.379 -0.3634 -0.1319  0.6422
  786TIP3    H1 2364   1.075   3.518   0.328  0.6892  0.2097  0.1506
  786TIP3    H2 2365   1.119   3.663   0.326  0.6185  0.2841  1.9799
  787TIP3   OH2 2366   1.374   2.496   3.538  0.2386  0.3724  0.5850
  787TIP3    H1 2367   1.395   2.589   3.538 -2.1115  0.9707 -1.2100
  787TIP3    H2 2368   1.279   2.492   3.540  0.1747 -1.9209 -1.7889
  788TIP3   OH2 2369   2.007   1.071   4.528  0.0451  0.4753  0.2238
  788TIP3    H1 2370   2.019   1.053   4.621 -1.3394 -1.0455  0.1564
  788TIP3    H2 2371   1.923   1.031   4.506  0.6864  0.1274 -1.8576
  789TIP3   OH2 2372   4.455   2.024   4.239  0.2779  0.1106  0.3342
  789TIP3    H1 2373   4.369   2.066   4.232  0.3384  0.1247 -0.4995
  789TIP3    H2 2374   4.444   1.941   4.192  1.3245  1.1100 -1.8100
  790TIP3   OH2 2375   2.173   3.324   2.784  0.2353  0.4722 -0.4864
  790TIP3    H1 2376   2.085   3.349   2.756  0.8694  1.0341 -2.0917
  790TIP3    H2 2377   2.195   3.249   2.729  0.4460 -0.2080  0.5058
  791TIP3   OH2 2378   3.408   1.373   2.561  0.0517 -0.0918  1.0449
  791TIP3    H1 2379   3.498   1.406   2.566 -0.0317  0.5414 -0.7355
  791TIP3    H2 2380   3.415   1.290   2.514 -0.0959 -1.1296  2.7771
  792TIP3   OH2 2381   4.732   1.784   5.044 -0.2813 -0.1367 -0.0497
  792TIP3    H1 2382   4.669   1.812   4.977 -0.6036 -0.5802  0.0656
  792TIP3    H2 2383   4.705   1.831   5.123 -0.2747 -0.0846 -0.0782
  793TIP3   OH2 2384   1.194   4.203   2.502 -0.1786 -0.3637  0.1948
  793TIP3    H1 2385   1.159   4.291   2.486 -0.7900 -0.7470 -0.6868
  793TIP3    H2 2386   1.232   4.207   2.590 -2.2570  0.1527  1.1278
  794TIP3   OH2 2387   5.117   2.845   0.781  0.3749  0.2931 -0.2897
  794TIP3    H1 2388   5.069   2.763   0.767  0.7024 -0.1168  0.9382
  794TIP3    H2 2389   5.140   2.873   0.692  2.1876 -2.0998 -0.6723
  795TIP3   OH2 2390   0.851   0.842   3.591 -0.0390  0.3798 -0.0159
  795TIP3    H1 2391   0.907   0.917   3.570 -0.5945  0.7414 -0.2255
  795TIP3    H2 2392   0.767   0.881   3.615 -0.0008 -0.1215  1.0057
  796TIP3   OH2 2393   1.481   1.345   4.338  0.0169 -0.6311 -0.4307
  796TIP3    H1 2394   1.423   1.305   4.273  0.4675 -0.7657 -0.7538
  796TIP3    H2 2395   1.563   1.359   4.291  0.8912 -2.2083  0.5501
  797TIP3   OH2 2396   0.903   1.522   4.826 -0.6413  0.0320 -0.0053
  797TIP3    H1 2397   0.897   1.439   4.779 -1.5414 -0.0379  0.2307
  797TIP3    H2 2398   0.896   1.498   4.919  1.5731  0.1157  0.2488
  798TIP3   OH2 2399   4.809   2.499   2.281  0.1569  0.0757  0.5807
  798TIP3    H1 2400   4.841   2.412   2.305 -0.1663 -0.3033 -0.3122
  798TIP3    H2 2401   4.889   2.552   2.274  0.4595 -0.4339  0.0375
  799TIP3   OH2 2402   1.875  -0.003   0.126 -0.2271  0.0806  0.5440
  799TIP3    H1 2403   1.857  -0.055   0.048  2.2825 -1.5350  0.9454
  799TIP3    H2 2404   1.894   0.085   0.093  1.3573 -0.7086 -0.7390
  800TIP3   OH2 2405   6.022   4.010   3.348  0.0899 -0.5793 -0.3177
  800TIP3    H1 2406   6.064   3.993   3.264 -0.5648  0.7831 -0.9567
  800TIP3    H2 2407   6.087   4.061   3.397  0.8477 -2.1874  0.4031
  801TIP3   OH2 2408   0.011   4.976   2.677 -0.0641 -0.1915  0.1238
  801TIP3    H1 2409  -0.039   4.930   2.609 -1.8535  2.1953 -0.2914
  801TIP3    H2 2410   0.047   4.906   2.731 -2.9050 -2.1231 -0.2564
  802TIP3   OH2 2411   2.494   1.884   1.526 -0.4878  0.1708  0.5135
  802TIP3    H1 2412   2.483   1.794   1.496  0.2213  0.1904  0.1741
  802TIP3    H2 2413   2.495   1.936   1.446 -2.8366  0.7283  0.7786
  803TIP3   OH2 2414   1.699   1.760   3.577 -0.0107 -0.0558  0.5926
  803TIP3    H1 2415   1.687   1.743   3.484  2.3835 -0.3308  0.2830
  803TIP3    H2 2416   1.724   1.853   3.582  1.3859 -0.4256  0.7766
  804TIP3   OH2 2417   1.816   5.076   3.963 -0.3215  0.7326 -0.4401
  804TIP3    H1 2418   1.823   5.137   4.037 -0.1796 -0.7238  0.8061
  804TIP3    H2 2419   1.906   5.047   3.948 -0.6306 -0.8930  0.5520
  805TIP3   OH2 2420   0.216   4.896   4.958 -0.3406  0.5059 -0.3442
  805TIP3    H1 2421   0.159   4.831   4.917 -0.6268  1.0743 -0.8596
  805TIP3    H2 2422   0.158   4.947   5.015 -0.3288  0.9756 -0.7405
  806TIP3   OH2 2423   1.581   3.779   2.816 -0.1872  0.3994 -0.4468
  806TIP3    H1 2424   1.676   3.778   2.833 -0.1457 -0.3349 -0.6885
  806TIP3    H2 2425   1.574   3.786   2.721 -0.3819  0.3555 -0.4346
  807TIP3   OH2 2426   3.215   1.079   2.856 -0.0512  0.1318  0.3638
  807TIP3    H1 2427   3.192   0.986   2.853  1.1514 -0.1632 -0.1623
  807TIP3    H2 2428   3.160   1.119   2.789  1.4592 -0.6806 -1.4301
  808TIP3   OH2 2429   0.874   0.394   2.334  0.5458 -0.6494 -0.1945
  808TIP3    H1 2430   0.907   0.465   2.280  0.2402  1.9983  2.7980
  808TIP3    H2 2431   0.802   0.432   2.383  1.1917 -2.5865  2.5220
  809TIP3   OH2 2432   4.143   3.796   1.196 -0.0343 -0.1679 -1.0269
  809TIP3    H1 2433   4.181   3.722   1.244 -1.8510  0.1981  1.1221
  809TIP3    H2 2434   4.082   3.755   1.134 -1.4002 -0.5280  0.4900
  810TIP3   OH2 2435   5.154   0.803   3.529 -0.0373 -0.3231 -0.1399
  810TIP3    H1 2436   5.182   0.724   3.483  2.6596  0.0916  0.5923
  810TIP3    H2 2437   5.234   0.853   3.541 -1.6378  2.5061 -0.4475
  811TIP3   OH2 2438   3.910   0.666   0.861 -0.4907  0.2026  0.2420
  811TIP3    H1 2439   3.875   0.608   0.794 -0.9999  0.1447  0.5454
  811TIP3    H2 2440   3.842   0.734   0.871  0.4077  1.2526 -0.6122
  812TIP3   OH2 2441   5.226   0.608   3.330  0.1233  0.0859  1.2134
  812TIP3    H1 2442   5.221   0.561   3.247 -0.8710  0.5300  1.0074
  812TIP3    H2 2443   5.314   0.588   3.364  1.0695  0.9974 -0.5858
  813TIP3   OH2 2444   2.204   3.100   1.673 -0.6312  0.0752 -0.2500
  813TIP3    H1 2445   2.161   3.180   1.643  0.0750  0.3574 -0.5386
  813TIP3    H2 2446   2.200   3.105   1.768 -1.9685 -0.3195 -0.2572
  814TIP3   OH2 2447   2.583   3.596   2.002  0.0574  0.2278  0.1007
  814TIP3    H1 2448   2.575   3.685   1.967 -1.8999 -0.0317 -0.2285
  814TIP3    H2 2449   2.494   3.574   2.029  0.8689 -0.9295  1.9574
  815TIP3   OH2 2450   4.718   2.460   0.798 -0.1046  0.3309  0.0745
  815TIP3    H1 2451   4.723   2.510   0.717 -0.6982 -0.2361 -0.3216
  815TIP3    H2 2452   4.758   2.375   0.777 -1.3525 -0.2592  0.0097
  816TIP3   OH2 2453   1.280   5.633   3.766  0.1703  0.0606  0.7636
  816TIP3    H1 2454   1.345   5.634   3.836  0.5437 -0.4773  0.4288
  816TIP3    H2 2455   1.265   5.540   3.748 -0.0224  0.1935  0.2218
  817TIP3   OH2 2456   0.573   2.341   4.650 -0.0339  0.4100  0.1634
  817TIP3    H1 2457   0.495   2.388   4.681 -0.3108 -0.1442  0.3123
  817TIP3    H2 2458   0.646   2.399   4.672 -0.3689  0.7614  0.3672
  818TIP3   OH2 2459   1.146   1.478   4.327  0.0875 -0.5086  0.1682
  818TIP3    H1 2460   1.188   1.559   4.357 -0.3762  0.1023 -0.7661
  818TIP3    H2 2461   1.208   1.441   4.265 -0.5273  0.1765 -0.8944
  819TIP3   OH2 2462   5.982   1.240   4.596 -0.0069  0.3398  0.0649
  819TIP3    H1 2463   6.033   1.208   4.670 -0.8375 -1.0044  0.0836
  819TIP3    H2 2464   5.921   1.303   4.634  2.5246  3.1732 -0.1569
  820TIP3   OH2 2465   2.632   2.824   4.212  0.0389  0.3299 -0.1607
  820TIP3    H1 2466   2.591   2.849   4.129  0.9977  0.2461 -0.6827
  820TIP3    H2 2467   2.714   2.782   4.186  0.7809  1.0936  0.8424
  821TIP3   OH2 2468   3.458   5.927   2.449 -0.3581  0.2340  0.1644
  821TIP3    H1 2469   3.412   5.853   2.410  0.1484 -0.6252  1.1418
  821TIP3    H2 2470   3.389   5.980   2.489 -0.6580 -0.0777  0.0626
  822TIP3   OH2 2471   6.275   3.904   0.661 -0.1448 -0.3076 -0.2509
  822TIP3    H1 2472   6.236   3.816   0.664  0.2664 -0.5351 -1.1906
  822TIP3    H2 2473   6.370   3.887   0.660 -0.0461  0.1827  0.4171
  823TIP3   OH2 2474   1.024   0.744   3.034  0.5482 -0.2497  0.1993
  823TIP3    H1 2475   0.970   0.764   3.110  2.0509  1.9353  0.7896
  823TIP3    H2 2476   1.026   0.825   2.983  1.9763 -0.7397 -0.5942
  824TIP3   OH2 2477   5.542   4.770   2.588  0.1605 -0.3676 -0.4361
  824TIP3    H1 2478   5.560   4.734   2.675  1.4093  1.3458  0.0685
  824TIP3    H2 2479   5.565   4.863   2.595 -1.8368  0.3229 -1.9901
  825TIP3   OH2 2480   4.182   3.045   4.258  0.9370 -0.1801  0.0117
  825TIP3    H1 2481   4.195   3.082   4.345  0.2389  2.4918 -0.9160
  825TIP3    H2 2482   4.088   3.052   4.242  1.1170 -0.1674 -1.1425
  826TIP3   OH2 2483   5.887   1.037   2.433 -0.7326  0.1069  0.0301
  826TIP3    H1 2484   5.956   1.100   2.455  0.4263 -0.4700 -1.6663
  826TIP3    H2 2485   5.909   1.009   2.344 -1.8786 -1.8157  0.2996
  827TIP3   OH2 2486   3.503   2.028   4.352  0.2093  0.1814  0.1039
  827TIP3    H1 2487   3.511   2.040   4.446  2.1127  0.5487 -0.0629
  827TIP3    H2 2488   3.467   1.940   4.341  2.8415 -1.1393  1.1940
  828TIP3   OH2 2489   2.965   2.828   1.635  0.1275  0.2131  0.0274
  828TIP3    H1 2490   2.913   2.902   1.604  1.7031  0.6483 -1.7612
  828TIP3    H2 2491   3.008   2.794   1.557  0.5456 -1.7234  1.0327
  829TIP3   OH2 2492   4.991   2.482   1.279  0.0939 -0.2491 -0.5945
  829TIP3    H1 2493   4.961   2.521   1.197  1.3816 -0.7697 -1.3494
  829TIP3    H2 2494   4.939   2.402   1.288 -0.5403  0.1682 -0.5377
  830TIP3   OH2 2495   5.818   2.807   0.336  0.1185 -0.5626 -0.2367
  830TIP3    H1 2496   5.786   2.846   0.255 -1.3247  1.6725  1.2635
  830TIP3    H2 2497   5.762   2.845   0.404  1.3198 -2.2548  1.8239
  831TIP3   OH2 2498   2.945   3.732   4.802  0.0870  0.0883  0.3391
  831TIP3    H1 2499   2.887   3.803   4.830  1.3489  1.2818  0.0305
  831TIP3    H2 2500   2.889   3.672   4.753 -0.7955  1.4409 -0.3373
  832TIP3   OH2 2501   3.445   1.783   2.468  0.2753 -0.3206  0.2839
  832TIP3    H1 2502   3.493   1.717   2.418 -0.7856 -2.0761  1.4932
  832TIP3    H2 2503   3.513   1.837   2.509  1.1547  0.2381 -1.7906
  833TIP3   OH2 2504   4.140   5.042   4.945  0.4563 -0.0579 -0.3021
  833TIP3    H1 2505   4.231   5.027   4.970  0.4285 -0.7351 -0.5913
  833TIP3    H2 2506   4.129   4.991   4.865 -0.4898 -0.8497  0.3240
  834TIP3   OH2 2507   1.104   1.165   1.184 -0.0590 -0.0903 -0.4826
  834TIP3    H1 2508   1.119   1.218   1.263  2.6852  0.3298 -1.1956
  834TIP3    H2 2509   1.142   1.080   1.206  0.0875 -0.1840 -1.0953
  835TIP3   OH2 2510   0.168   0.864   2.735  0.4089 -0.7416  0.2469
  835TIP3    H1 2511   0.242   0.807   2.714  0.0144 -0.7333 -1.3126
  835TIP3    H2 2512   0.152   0.914   2.655 -0.7225 -0.1039  0.8361
  836TIP3   OH2 2513   4.927   1.059   2.139 -0.1272  0.4024 -0.1521
  836TIP3    H1 2514   4.916   1.018   2.225  0.1668  0.8183  0.0889
  836TIP3    H2 2515   4.892   0.995   2.077 -1.7445  0.7443  0.3859
  837TIP3   OH2 2516   5.507   0.411   3.925 -0.1721  0.7095  0.5916
  837TIP3    H1 2517   5.579   0.459   3.885 -0.3580  0.2132 -0.3725
  837TIP3    H2 2518   5.490   0.339   3.864 -2.9874  2.0867 -0.3864
  838TIP3   OH2 2519   5.649   3.026   4.119  0.6928  0.9022 -0.3642
  838TIP3    H1 2520   5.592   3.078   4.062  0.7097  1.7899  0.4146
  838TIP3    H2 2521   5.678   3.087   4.186 -0.5749 -0.4768  1.5305
  839TIP3   OH2 2522   4.553   4.276   0.068  0.0981 -0.1140  0.4220
  839TIP3    H1 2523   4.554   4.254   0.162 -0.2685 -0.2023  0.4089
  839TIP3    H2 2524   4.501   4.357   0.064  1.8497  1.0760  0.5288
  840TIP3   OH2 2525   1.590   3.234   5.131  0.2510  0.1253  0.3637
  840TIP3    H1 2526   1.546   3.168   5.185  0.1496  1.4316  1.9514
  840TIP3    H2 2527   1.680   3.201   5.122 -0.2172 -1.0193 -0.2481
  841TIP3   OH2 2528   0.260   2.760   4.602 -0.4608  0.5038  0.1535
  841TIP3    H1 2529   0.175   2.724   4.579 -0.8719  0.7895  1.1958
  841TIP3    H2 2530   0.260   2.765   4.697  0.5303  0.9792  0.1480
  842TIP3   OH2 2531   1.443   2.868   1.520 -0.1274 -0.2762 -0.6401
  842TIP3    H1 2532   1.378   2.903   1.459 -0.3670 -0.2217 -0.3542
  842TIP3    H2 2533   1.527   2.893   1.482 -0.2772 -0.1708 -0.9067
  843TIP3   OH2 2534   0.045   5.991   5.035  0.4032  0.6372 -0.0238
  843TIP3    H1 2535   0.031   5.918   4.974  0.5552  0.1428  0.5170
  843TIP3    H2 2536  -0.041   6.032   5.044 -0.0308 -0.3776  0.7741
  844TIP3   OH2 2537   4.169   1.046   0.268 -0.2209 -0.7445 -0.4530
  844TIP3    H1 2538   4.177   1.140   0.284 -0.3797 -1.1997  3.0263
  844TIP3    H2 2539   4.216   1.032   0.185  0.5008  2.2428 -0.6735
  845TIP3   OH2 2540   2.196   2.375   1.929 -0.2464 -0.0191  0.1759
  845TIP3    H1 2541   2.105   2.405   1.938 -0.7248 -0.9172 -1.2637
  845TIP3    H2 2542   2.189   2.280   1.919  0.8848 -0.1291  0.2948
  846TIP3   OH2 2543   4.247   5.156   3.377 -0.0161  0.1314 -0.5338
  846TIP3    H1 2544   4.302   5.134   3.303  0.9643 -1.0623  0.4963
  846TIP3    H2 2545   4.307   5.159   3.452 -1.1049  0.3680  0.3704
  847TIP3   OH2 2546   0.427   1.628   1.073 -0.0298 -0.3597 -0.2701
  847TIP3    H1 2547   0.435   1.649   1.166 -2.4355  1.6831 -0.4141
  847TIP3    H2 2548   0.510   1.586   1.050  2.1302  2.2489  1.9938
  848TIP3   OH2 2549   5.749   2.239   0.322 -0.3036  0.4307  0.3098
  848TIP3    H1 2550   5.704   2.158   0.347  1.4837 -0.9344 -0.6358
  848TIP3    H2 2551   5.678   2.299   0.299 -1.7668 -0.2370  2.6248
  849TIP3   OH2 2552   4.502   3.792   2.616  0.3858 -0.5485  0.4347
  849TIP3    H1 2553   4.445   3.794   2.693 -2.0634 -0.4737 -1.2667
  849TIP3    H2 2554   4.537   3.881   2.609  0.5055 -0.5147  1.3151
  850TIP3   OH2 2555   4.245   0.191   1.301  0.3664 -0.0386 -0.3162
  850TIP3    H1 2556   4.253   0.279   1.262  0.8461  0.1833  0.2739
  850TIP3    H2 2557   4.151   0.177   1.307  0.2697  0.7519  0.2650
  851TIP3   OH2 2558   4.416   0.145   0.706  0.0171 -0.5721 -0.1481
  851TIP3    H1 2559   4.457   0.167   0.790 -0.3575  1.3131 -0.4031
  851TIP3    H2 2560   4.342   0.205   0.699  1.5972  1.3120 -3.0164
  852TIP3   OH2 2561   6.321   4.226   3.143 -0.3361  0.0748  0.2263
  852TIP3    H1 2562   6.342   4.150   3.198  1.1346 -1.2965 -2.0554
  852TIP3    H2 2563   6.300   4.296   3.205  0.2114 -1.6460  2.4683
  853TIP3   OH2 2564   0.595   5.838   4.591 -0.0317  0.2849 -0.2338
  853TIP3    H1 2565   0.591   5.758   4.642  0.6317  1.3003  1.4988
  853TIP3    H2 2566   0.508   5.845   4.550 -0.1188 -1.2434 -0.3495
  854TIP3   OH2 2567   2.268   5.589   0.814  0.3380 -0.0422  0.1499
  854TIP3    H1 2568   2.187   5.560   0.773  0.3131  0.1397  0.0706
  854TIP3    H2 2569   2.278   5.680   0.786 -0.5248  0.6256  1.8008
  855TIP3   OH2 2570   1.514   4.330   2.613 -0.2109  0.1836 -0.3130
  855TIP3    H1 2571   1.447   4.271   2.647  0.1920 -1.3106 -1.9348
  855TIP3    H2 2572   1.552   4.372   2.690 -2.4038  0.4397  0.6916
  856TIP3   OH2 2573   2.112   0.984   2.666  0.3303 -0.0317 -0.1752
  856TIP3    H1 2574   2.081   0.920   2.603 -1.6843 -1.0537  1.7486
  856TIP3    H2 2575   2.150   0.932   2.737  1.1029  1.0350  0.2276
  857TIP3   OH2 2576   4.664   3.979   2.086 -0.1075  0.2429 -0.8173
  857TIP3    H1 2577   4.577   3.940   2.079  0.4193 -0.8917 -1.4250
  857TIP3    H2 2578   4.662   4.054   2.027 -0.6823  0.2518 -0.7916
  858TIP3   OH2 2579   4.361   2.317   5.105  0.1906  0.3073 -0.5238
  858TIP3    H1 2580   4.309   2.363   5.039 -0.2885 -0.4371 -0.6801
  858TIP3    H2 2581   4.423   2.265   5.054  0.0840  0.0372 -0.3810
  859TIP3   OH2 2582   3.188   0.590   3.121  0.1583 -0.2154  0.4317
  859TIP3    H1 2583   3.169   0.588   3.215 -0.8306 -0.7272  0.2394
  859TIP3    H2 2584   3.183   0.683   3.098 -0.9294 -0.2090  0.6470
  860TIP3   OH2 2585   5.753   3.440   4.437 -0.2689 -0.6861  0.3273
  860TIP3    H1 2586   5.785   3.486   4.514 -2.6895  1.1771  0.3220
  860TIP3    H2 2587   5.809   3.470   4.366 -0.4930  0.6975  0.7068
  861TIP3   OH2 2588   1.440   0.281   2.084 -0.1465  0.0210  0.1384
  861TIP3    H1 2589   1.477   0.257   2.169  0.5262  0.0936 -0.1309
  861TIP3    H2 2590   1.475   0.216   2.023 -0.5630  0.0181 -0.1037
  862TIP3   OH2 2591   2.076   2.546   3.928 -0.2225 -0.3247  0.0134
  862TIP3    H1 2592   2.146   2.482   3.941 -0.6265 -0.7955 -0.1049
  862TIP3    H2 2593   2.087   2.575   3.838 -1.6492 -2.2196 -0.8444
  863TIP3   OH2 2594   1.356   4.554   2.371 -0.1349  0.4620 -0.0596
  863TIP3    H1 2595   1.267   4.590   2.374  0.4854  2.0718 -0.2161
  863TIP3    H2 2596   1.349   4.477   2.314 -1.8409 -0.7278  1.6211
  864TIP3   OH2 2597   5.002   1.969   2.305 -0.3867 -0.1810 -0.7487
  864TIP3    H1 2598   4.929   1.911   2.327 -0.8984  0.3821 -0.9118
  864TIP3    H2 2599   4.968   2.057   2.321  1.0491  0.0466  1.4991
  865TIP3   OH2 2600   5.194   0.772   4.992 -0.0916  0.6552  0.3436
  865TIP3    H1 2601   5.255   0.701   4.973  0.7847  1.2138  1.0066
  865TIP3    H2 2602   5.137   0.738   5.061 -0.1573  0.3385  0.1331
  866TIP3   OH2 2603   2.695   3.085   3.624  0.1524  0.1622 -0.7616
  866TIP3    H1 2604   2.780   3.040   3.622 -0.4977 -1.0930 -2.0173
  866TIP3    H2 2605   2.643   3.034   3.686  0.0300  0.3910 -0.6757
  867TIP3   OH2 2606   3.802   1.980   4.749 -0.4577  0.7224  0.0235
  867TIP3    H1 2607   3.883   2.025   4.722  0.3358 -0.0610  1.0286
  867TIP3    H2 2608   3.832   1.907   4.803 -1.7658 -0.5277 -0.8572
  868TIP3   OH2 2609   1.459   5.047   4.067 -0.6228 -0.5604 -0.1557
  868TIP3    H1 2610   1.525   5.083   4.008 -0.1832 -1.7940 -0.4419
  868TIP3    H2 2611   1.398   5.001   4.009  0.4658 -2.8217  0.3868
  869TIP3   OH2 2612   3.562   2.304   3.456  0.0415 -0.5308 -0.3114
  869TIP3    H1 2613   3.468   2.295   3.472 -0.0269 -0.8488 -0.8453
  869TIP3    H2 2614   3.568   2.365   3.382  0.3683  1.3690  1.2038
  870TIP3   OH2 2615   4.151   4.431   2.157  0.7682 -0.7286 -0.3643
  870TIP3    H1 2616   4.065   4.389   2.156 -0.1804  1.0886  0.1389
  870TIP3    H2 2617   4.179   4.424   2.248  0.3925  0.1013 -0.1771
  871TIP3   OH2 2618   1.514   0.807   1.024  0.5659  0.1591 -0.0500
  871TIP3    H1 2619   1.501   0.855   1.105  0.0045 -2.4691  1.5348
  871TIP3    H2 2620   1.446   0.739   1.024 -0.3072  0.8118 -3.4004
  872TIP3   OH2 2621   5.761   1.328   2.179  0.0622  0.3343 -0.3975
  872TIP3    H1 2622   5.715   1.349   2.260 -1.3288  0.5849 -1.2136
  872TIP3    H2 2623   5.758   1.409   2.128  1.8575  0.5071 -0.3013
  873TIP3   OH2 2624   0.259   4.454   2.144  0.2044  0.1852 -0.4776
  873TIP3    H1 2625   0.293   4.379   2.095 -0.4857 -0.3732 -0.1079
  873TIP3    H2 2626   0.204   4.416   2.212  1.5283  0.9162  1.0604
  874TIP3   OH2 2627   5.093   3.076   4.692 -0.0692 -0.2475  0.3933
  874TIP3    H1 2628   5.147   3.005   4.656 -0.6675  0.5152 -2.1916
  874TIP3    H2 2629   5.082   3.052   4.784  0.9098 -2.7735 -0.0444
  875TIP3   OH2 2630   4.045   4.884   3.512  0.4385  1.0328 -0.2338
  875TIP3    H1 2631   4.008   4.796   3.519 -1.1804  1.4259 -2.7021
  875TIP3    H2 2632   4.133   4.870   3.477  1.5391  0.2754  2.5993
  876TIP3   OH2 2633   0.679   2.639   1.079 -0.3538  0.5208  0.3790
  876TIP3    H1 2634   0.668   2.728   1.115  0.3282  0.9835 -0.5287
  876TIP3    H2 2635   0.676   2.651   0.984 -1.3317 -0.5792  0.2490
  877TIP3   OH2 2636   0.099   0.009   3.352 -0.2406  0.1360  0.1185
  877TIP3    H1 2637   0.014   0.047   3.330  0.7120  1.2367 -1.9767
  877TIP3    H2 2638   0.120  -0.047   3.278  1.0599  0.2349  0.3934
  878TIP3   OH2 2639   2.178   5.804   4.944  0.0267 -0.4915  0.2893
  878TIP3    H1 2640   2.240   5.740   4.909 -0.1507  0.6170 -2.1979
  878TIP3    H2 2641   2.093   5.761   4.936 -0.0763 -0.0378 -1.2391
  879TIP3   OH2 2642   5.760   5.160   4.858 -0.3039  0.3320  0.1914
  879TIP3    H1 2643   5.696   5.210   4.808 -0.6486  1.4574  1.6962
  879TIP3    H2 2644   5.750   5.191   4.948  1.2202 -0.6565  0.7401
  880TIP3   OH2 2645   2.758   3.845   3.848  0.2398 -0.6346  0.1785
  880TIP3    H1 2646   2.752   3.840   3.944 -0.8879 -0.4852  0.1261
  880TIP3    H2 2647   2.750   3.754   3.820  0.6420 -0.6869  0.2190
  881TIP3   OH2 2648   5.743   5.400   4.004 -0.6991 -0.1817  0.4895
  881TIP3    H1 2649   5.778   5.334   3.944 -3.1757 -0.3075 -0.9318
  881TIP3    H2 2650   5.789   5.481   3.979 -1.8187 -0.1918 -1.7955
  882TIP3   OH2 2651   2.030   5.876   3.287  0.3591  0.0159 -0.4125
  882TIP3    H1 2652   2.028   5.780   3.288 -0.2559  0.0245  0.1276
  882TIP3    H2 2653   2.026   5.901   3.380  2.0016  0.5568 -0.4512
  883TIP3   OH2 2654   6.262   2.874   4.805 -0.3807 -0.2488 -0.0814
  883TIP3    H1 2655   6.265   2.803   4.869  1.4739 -0.4747 -0.3791
  883TIP3    H2 2656   6.351   2.910   4.804 -0.9707  1.3106 -0.8107
  884TIP3   OH2 2657   0.228   5.827   5.157 -0.4377  0.0662 -1.0139
  884TIP3    H1 2658   0.266   5.865   5.236 -1.7248 -1.5707  0.4824
  884TIP3    H2 2659   0.177   5.898   5.118  0.4128  0.9697 -0.5416
  885TIP3   OH2 2660   0.660   1.217   4.097 -0.0732 -0.1738  0.8905
  885TIP3    H1 2661   0.569   1.242   4.079  0.2245 -0.5528 -1.4530
  885TIP3    H2 2662   0.683   1.156   4.027  2.3133  0.7293  0.7780
  886TIP3   OH2 2663   3.794   3.464   4.823 -0.3608  0.7162 -0.0728
  886TIP3    H1 2664   3.730   3.535   4.820  0.0725  1.2607  2.0727
  886TIP3    H2 2665   3.742   3.386   4.844 -0.4299  1.0365  0.9977
  887TIP3   OH2 2666   5.932   3.626   0.734  0.0447  0.1793 -0.4820
  887TIP3    H1 2667   6.026   3.635   0.722  0.1881 -0.6403 -0.0698
  887TIP3    H2 2668   5.899   3.716   0.739  1.0620  0.5001  1.2669
  888TIP3   OH2 2669   6.189   0.296   4.967  0.3627  0.3658  0.5283
  888TIP3    H1 2670   6.231   0.357   5.028  0.7434 -0.3040  0.9546
  888TIP3    H2 2671   6.099   0.288   4.999  0.4826  0.2350  0.8395
  889TIP3   OH2 2672   1.830   4.902   3.372  0.4634  0.2234  0.1534
  889TIP3    H1 2673   1.777   4.972   3.409 -0.6761  0.2593 -1.4155
  889TIP3    H2 2674   1.806   4.824   3.423 -0.2380  0.4720  0.2197
  890TIP3   OH2 2675   4.256   4.166   0.572 -0.1752 -0.2710  0.2530
  890TIP3    H1 2676   4.231   4.248   0.614  2.2169 -0.1860  1.7189
  890TIP3    H2 2677   4.190   4.103   0.600 -1.1992  0.8098  0.3458
  891TIP3   OH2 2678   5.426   0.728   1.547  0.2325  0.1274 -0.2406
  891TIP3    H1 2679   5.331   0.717   1.542  0.3777 -1.4795  0.1761
  891TIP3    H2 2680   5.443   0.809   1.498 -1.3808  0.6801  0.0503
  892TIP3   OH2 2681   5.006   5.127   1.089 -0.5888  0.6809 -1.0214
  892TIP3    H1 2682   5.013   5.205   1.033  0.2815  1.4079  0.0487
  892TIP3    H2 2683   4.921   5.089   1.067 -1.0142  1.9116 -1.6166
  893TIP3   OH2 2684   2.018   4.631   4.281  0.1684  0.0644 -0.1037
  893TIP3    H1 2685   2.093   4.572   4.272  0.1692  0.2089 -1.1164
  893TIP3    H2 2686   1.954   4.580   4.329  0.3616 -0.5901 -0.5229
  894TIP3   OH2 2687   0.871   2.968   2.537  0.8980  0.0929  0.6945
  894TIP3    H1 2688   0.886   2.979   2.631  1.7883  0.3679  0.5319
  894TIP3    H2 2689   0.814   3.041   2.512 -1.7358 -1.5336  1.5232
  895TIP3   OH2 2690   2.684   0.709   4.104  0.6181 -0.1243  1.0537
  895TIP3    H1 2691   2.736   0.762   4.164  1.8715  2.0654 -1.7607
  895TIP3    H2 2692   2.748   0.655   4.058 -0.2035 -1.0759  0.9938
  896TIP3   OH2 2693   4.978   1.520   1.602  0.1375 -0.2584 -0.9572
  896TIP3    H1 2694   5.059   1.545   1.559  1.6987 -0.0409  1.8311
  896TIP3    H2 2695   4.964   1.429   1.576  0.6602  0.0229 -2.2998
  897TIP3   OH2 2696   2.725   5.067   1.990 -0.0542  0.6099 -0.6192
  897TIP3    H1 2697   2.772   5.057   1.908  0.6751 -0.2193 -0.1223
  897TIP3    H2 2698   2.787   5.039   2.057 -0.8877  0.5366  0.1492
  898TIP3   OH2 2699   3.681   0.041   2.376  0.0768  0.9884 -0.4764
  898TIP3    H1 2700   3.661   0.133   2.391 -0.4265  0.9497 -0.8578
  898TIP3    H2 2701   3.710   0.037   2.285  0.5438  0.8389 -0.3229
  899TIP3   OH2 2702   5.532   3.249   2.999  0.3683 -0.2699  0.1595
  899TIP3    H1 2703   5.620   3.272   2.969  0.7260 -1.3909  0.2892
  899TIP3    H2 2704   5.493   3.332   3.025  0.4171  0.6486 -2.4083
  900TIP3   OH2 2705   3.048   4.323   1.822 -0.0767  0.1533 -0.3262
  900TIP3    H1 2706   3.089   4.303   1.906  0.0961  0.3946 -0.3496
  900TIP3    H2 2707   2.985   4.253   1.807 -0.5015  0.4028  0.2707
  901TIP3   OH2 2708   4.675   3.486   3.908  0.0263  1.0623 -0.0636
  901TIP3    H1 2709   4.641   3.402   3.877  0.8539  1.1849 -1.4223
  901TIP3    H2 2710   4.770   3.477   3.900  0.3623  1.0118  2.8284
  902TIP3   OH2 2711   1.408   0.011   0.521  0.3844 -0.2956 -0.4649
  902TIP3    H1 2712   1.466   0.049   0.455 -0.4088  0.0167 -1.0021
  902TIP3    H2 2713   1.342  -0.035   0.470  1.2070 -2.2679  0.1679
  903TIP3   OH2 2714   5.988   5.465   4.775  0.3180  0.5921  0.8117
  903TIP3    H1 2715   6.034   5.385   4.751  0.2949  1.0373 -0.8367
  903TIP3    H2 2716   5.953   5.499   4.692  0.5190  2.4216  1.4207
  904TIP3   OH2 2717   0.911   1.902   3.158  0.4090 -0.1829 -0.1917
  904TIP3    H1 2718   0.917   1.975   3.096 -0.1740  0.9948  1.0885
  904TIP3    H2 2719   0.968   1.928   3.230  1.2150 -1.6130 -0.2630
  905TIP3   OH2 2720   6.274   3.010   3.856  0.8628 -0.4888  0.2758
  905TIP3    H1 2721   6.293   2.931   3.804  0.4952  1.2855 -2.7547
  905TIP3    H2 2722   6.228   3.068   3.796  0.5002  1.8076  2.6089
  906TIP3   OH2 2723   0.865   2.980   3.997 -0.1366  0.3441  0.0435
  906TIP3    H1 2724   0.820   3.050   3.949 -0.9232  1.6097  2.4669
  906TIP3    H2 2725   0.803   2.955   4.066  1.1722 -0.9737  0.7906
  907TIP3   OH2 2726   1.516   0.363   3.631  0.2489  0.4401  0.4052
  907TIP3    H1 2727   1.598   0.395   3.667  1.1554 -1.4631  0.1423
  907TIP3    H2 2728   1.453   0.433   3.649  2.0357  2.2545  0.0126
  908TIP3   OH2 2729   4.395   1.150   0.682 -0.1791  0.1699 -0.0449
  908TIP3    H1 2730   4.410   1.083   0.615  0.0174  0.2365 -0.0664
  908TIP3    H2 2731   4.466   1.213   0.669  1.5469 -1.1972  1.9721
  909TIP3   OH2 2732   3.829   1.287   1.956 -0.7342 -0.3325  0.1715
  909TIP3    H1 2733   3.825   1.229   1.879 -2.0827 -0.2208  0.1319
  909TIP3    H2 2734   3.800   1.372   1.924 -0.3777 -0.0419  0.6050
  910TIP3   OH2 2735   3.323   2.361   4.436  0.4488  0.4003 -0.8673
  910TIP3    H1 2736   3.350   2.300   4.505 -1.6324  0.8001  0.3723
  910TIP3    H2 2737   3.344   2.448   4.471 -1.4061  0.6608 -0.2858
  911TIP3   OH2 2738   0.480   3.957   2.389  0.4307 -0.0572  0.0559
  911TIP3    H1 2739   0.403   3.906   2.364  1.0076 -1.0292  0.1818
  911TIP3    H2 2740   0.450   4.015   2.458 -0.3520  0.0976 -0.4029
  912TIP3   OH2 2741   6.219   0.942   2.611 -0.1864  0.3384  0.0120
  912TIP3    H1 2742   6.186   1.027   2.582 -0.4177 -0.3070 -1.7840
  912TIP3    H2 2743   6.266   0.908   2.534  1.9370 -0.1478  1.4509
  913TIP3   OH2 2744   0.420   5.901   2.390  0.1271  0.2884  0.2661
  913TIP3    H1 2745   0.482   5.837   2.355  0.7065  0.3757  1.0935
  913TIP3    H2 2746   0.354   5.911   2.321  0.2560 -0.8760 -0.0421
  914TIP3   OH2 2747   2.337   2.959   1.263 -0.3176  0.4952  0.0758
  914TIP3    H1 2748   2.245   2.940   1.282 -0.4895  1.1704 -0.0711
  914TIP3    H2 2749   2.380   2.958   1.349 -0.9836  2.9263  0.5014
  915TIP3   OH2 2750   1.545   0.440   4.118  0.0605  0.5917  0.2163
  915TIP3    H1 2751   1.455   0.407   4.109 -0.2100  1.2740  0.3528
  915TIP3    H2 2752   1.567   0.472   4.031  0.9275 -1.3787 -0.3582
  916TIP3   OH2 2753   5.979   5.246   5.042  0.3432  0.7093 -0.4027
  916TIP3    H1 2754   5.981   5.303   4.965  1.5922  0.2525 -0.7382
  916TIP3    H2 2755   6.070   5.244   5.072 -0.0526  0.5223  0.8264
  917TIP3   OH2 2756   0.814   4.123   2.937 -0.3434  0.3029  0.4226
  917TIP3    H1 2757   0.893   4.149   2.984 -0.3598  2.0503 -0.4687
  917TIP3    H2 2758   0.761   4.079   3.004  0.7636  0.3527  1.3725
  918TIP3   OH2 2759   0.478   0.042   4.070  0.1327 -0.1076 -0.0295
  918TIP3    H1 2760   0.452   0.132   4.089 -2.3617 -0.8820  0.5905
  918TIP3    H2 2761   0.570   0.048   4.045  1.3028  2.0860  4.0037
  919TIP3   OH2 2762   6.220   0.421   0.923 -0.6826 -0.3635 -0.2065
  919TIP3    H1 2763   6.244   0.479   0.995 -1.5039 -2.0741  1.5248
  919TIP3    H2 2764   6.188   0.480   0.855 -0.2884  1.2892  0.9704
  920TIP3   OH2 2765   4.302   2.021   0.001 -0.3587  0.6560 -0.7793
  920TIP3    H1 2766   4.255   1.941   0.023 -0.1701  1.0642  1.3153
  920TIP3    H2 2767   4.375   2.024   0.062  0.2518  1.9027 -1.5177
  921TIP3   OH2 2768   0.665   3.917   4.966 -0.3982 -0.3006 -0.2716
  921TIP3    H1 2769   0.716   3.983   5.013 -1.4747 -0.2709  0.8960
  921TIP3    H2 2770   0.720   3.838   4.968  1.3771  0.7202 -2.5789
  922TIP3   OH2 2771   2.043   0.096   3.094  0.0914  0.2849  0.5287
  922TIP3    H1 2772   2.061   0.179   3.049  2.4436  0.8725  2.3566
  922TIP3    H2 2773   2.102   0.033   3.052 -1.0680 -0.3086 -0.2695
  923TIP3   OH2 2774   4.759   2.902   2.672 -0.3820  0.2043  0.3547
  923TIP3    H1 2775   4.773   2.815   2.708  0.1367 -0.3014 -1.0206
  923TIP3    H2 2776   4.693   2.941   2.730 -0.8622 -1.2108  0.8118
  924TIP3   OH2 2777   3.081   1.960   1.824  0.6870 -0.0840 -0.0204
  924TIP3    H1 2778   3.127   2.036   1.788 -0.5962  0.2325 -1.0752
  924TIP3    H2 2779   3.027   1.928   1.751  0.2178 -1.2203  0.7897
  925TIP3   OH2 2780   4.344   4.731   2.288  0.3964 -0.2579 -0.2396
  925TIP3    H1 2781   4.346   4.798   2.220  2.8335  0.2868  0.2677
  925TIP3    H2 2782   4.282   4.765   2.353  0.1032  0.5312 -0.9194
  926TIP3   OH2 2783   5.178   1.197   4.583 -0.0820 -0.2821  0.2739
  926TIP3    H1 2784   5.223   1.133   4.639 -0.0161 -0.6599 -0.2128
  926TIP3    H2 2785   5.247   1.234   4.529 -0.3903 -1.0774 -0.6882
  927TIP3   OH2 2786   0.580   4.218   1.786 -0.4666 -0.3531  0.1346
  927TIP3    H1 2787   0.556   4.283   1.719  0.3085 -0.5555 -0.3574
  927TIP3    H2 2788   0.548   4.135   1.751 -0.2863 -0.4230  0.1363
  928TIP3   OH2 2789   2.795   5.497   0.680  0.3797 -0.3473  0.1856
  928TIP3    H1 2790   2.707   5.536   0.687  0.0235 -1.0798 -0.0407
  928TIP3    H2 2791   2.844   5.535   0.753  0.1677  0.8123 -0.2627
  929TIP3   OH2 2792   0.069   1.561   4.496 -0.0474 -0.3150  0.4683
  929TIP3    H1 2793   0.106   1.490   4.443  0.0592 -0.6628  1.0052
  929TIP3    H2 2794   0.065   1.526   4.585 -0.3796  0.2078  0.6671
  930TIP3   OH2 2795   0.383   2.973   3.937 -0.2512 -0.0946  0.6523
  930TIP3    H1 2796   0.477   2.959   3.928 -0.2332  0.0747  0.5492
  930TIP3    H2 2797   0.343   2.891   3.909 -0.1251 -0.2632  0.9672
  931TIP3   OH2 2798   1.066   0.083   4.071  0.0720  0.1457  0.4656
  931TIP3    H1 2799   1.026   0.003   4.105  0.2244  0.2516  0.9118
  931TIP3    H2 2800   1.036   0.090   3.981  0.2769 -0.5609  0.3404
  932TIP3   OH2 2801   5.954   3.818   3.589  0.0310 -0.2335 -0.4221
  932TIP3    H1 2802   6.049   3.811   3.598 -0.0740 -3.5968 -0.5447
  932TIP3    H2 2803   5.941   3.888   3.525  2.3593  0.6951  0.0067
  933TIP3   OH2 2804   5.846   2.639   4.936  0.1777 -0.8350  0.2225
  933TIP3    H1 2805   5.834   2.728   4.969  1.2378 -0.2072 -0.9912
  933TIP3    H2 2806   5.757   2.607   4.919 -0.2243 -0.1281  0.9478
  934TIP3   OH2 2807   1.289   4.836   0.081 -0.2401  0.0184  0.2833
  934TIP3    H1 2808   1.248   4.753   0.059 -0.4029  0.5513 -1.5825
  934TIP3    H2 2809   1.383   4.820   0.071 -0.3322  0.4393 -1.7458
  935TIP3   OH2 2810   3.871   5.210   1.594  0.1368 -0.1416 -0.2394
  935TIP3    H1 2811   3.850   5.137   1.535 -2.6203  0.9592 -0.8101
  935TIP3    H2 2812   3.877   5.169   1.680 -1.6659 -1.0803 -0.4994
  936TIP3   OH2 2813   1.383   4.455   3.229  0.0148  0.1841 -0.8452
  936TIP3    H1 2814   1.412   4.540   3.196  2.4042 -0.8369 -1.5520
  936TIP3    H2 2815   1.333   4.477   3.308  2.2743  2.1851  0.1589
  937TIP3   OH2 2816   5.600   5.171   3.540 -0.4357  0.8229 -0.4402
  937TIP3    H1 2817   5.522   5.116   3.556  0.4327 -0.5168 -0.6325
  937TIP3    H2 2818   5.580   5.218   3.459 -0.9814  0.3543 -0.5851
  938TIP3   OH2 2819   0.842   3.263   4.547  0.2166  0.2640 -0.4005
  938TIP3    H1 2820   0.892   3.212   4.611  1.1166 -0.9428 -1.9816
  938TIP3    H2 2821   0.880   3.351   4.552  1.1122 -0.1195 -0.1160
  939TIP3   OH2 2822   5.305   3.075   4.434  0.4068 -0.0229 -0.1399
  939TIP3    H1 2823   5.273   3.065   4.345  1.9433 -0.9330 -0.6396
  939TIP3    H2 2824   5.286   2.992   4.477 -1.4846  0.8510  0.8231
  940TIP3   OH2 2825   3.237   5.368   2.982 -0.3805  0.1603  0.5881
  940TIP3    H1 2826   3.209   5.278   2.996 -0.4258 -0.1953 -1.4585
  940TIP3    H2 2827   3.227   5.410   3.068 -2.0205 -1.3170  1.1817
  941TIP3   OH2 2828   3.139   3.093   1.556 -0.0102 -0.6579 -0.3675
  941TIP3    H1 2829   3.048   3.073   1.577 -0.4394  0.5903 -0.9080
  941TIP3    H2 2830   3.151   3.061   1.466  0.5344 -2.1141  0.1989
  942TIP3   OH2 2831   1.234   4.463   3.456  0.2037 -0.2208  0.6363
  942TIP3    H1 2832   1.274   4.377   3.443 -0.3492 -0.3248 -0.4312
  942TIP3    H2 2833   1.144   4.444   3.480  0.0040  0.0725  0.1142
  943TIP3   OH2 2834   4.222   5.634   4.040  0.9374  0.0595  0.2152
  943TIP3    H1 2835   4.247   5.690   4.113  1.0760 -1.1870  1.1732
  943TIP3    H2 2836   4.153   5.682   3.995  0.3957  0.6029  1.5609
  944TIP3   OH2 2837   1.071   2.218   3.789 -0.2969  0.2437  0.1184
  944TIP3    H1 2838   1.109   2.168   3.716 -0.2675 -0.6639  0.7450
  944TIP3    H2 2839   1.128   2.295   3.797 -0.5315  0.5633 -1.0657
  945TIP3   OH2 2840   2.395   3.485   2.702  0.3435  0.0845 -0.8575
  945TIP3    H1 2841   2.304   3.474   2.731  0.9028  1.3266  1.6274
  945TIP3    H2 2842   2.442   3.411   2.741  0.7858  0.7716 -0.0485
  946TIP3   OH2 2843   5.128   5.848   4.098 -0.2921 -0.4997 -0.0881
  946TIP3    H1 2844   5.081   5.777   4.143 -1.6256  0.1434 -0.4243
  946TIP3    H2 2845   5.111   5.833   4.005  0.0682 -0.1627 -0.2118
  947TIP3   OH2 2846   0.833   4.869   3.671  0.6449  0.4563 -0.0187
  947TIP3    H1 2847   0.853   4.931   3.741  0.8712  0.4829 -0.1074
  947TIP3    H2 2848   0.904   4.880   3.608 -0.1255  1.2365 -0.7871
  948TIP3   OH2 2849   3.152   1.338   5.055  0.6755  0.8735  0.4856
  948TIP3    H1 2850   3.205   1.259   5.061  0.6742  0.7895 -0.5180
  948TIP3    H2 2851   3.215   1.410   5.050  0.6769  0.9316  1.2059
  949TIP3   OH2 2852   4.971   0.096   0.377 -0.1162  0.0936 -0.1786
  949TIP3    H1 2853   4.931   0.015   0.410 -2.8126  0.5604 -1.9523
  949TIP3    H2 2854   4.954   0.093   0.283  1.3787  1.8876 -0.5397
  950TIP3   OH2 2855   1.709   0.562   0.451  0.1647 -0.1268 -0.1841
  950TIP3    H1 2856   1.658   0.552   0.530  0.4024  1.3296  0.1830
  950TIP3    H2 2857   1.673   0.640   0.408  0.3516 -0.6104 -1.2719
  951TIP3   OH2 2858   1.139   4.076   4.695 -0.0558 -0.0033  0.9411
  951TIP3    H1 2859   1.061   4.088   4.749  1.6910  0.3660  3.5565
  951TIP3    H2 2860   1.148   4.159   4.648 -0.7546  0.2558  1.2434
  952TIP3   OH2 2861   3.799   4.371   0.432  0.3341  0.6854 -0.5759
  952TIP3    H1 2862   3.817   4.427   0.508  0.2650 -0.1979  0.1164
  952TIP3    H2 2863   3.880   4.372   0.382  0.9208  0.0641  0.3278
  953TIP3   OH2 2864   0.642   3.493   0.316  0.2081 -0.4649 -0.5647
  953TIP3    H1 2865   0.674   3.404   0.334  1.3422 -0.1124 -0.7348
  953TIP3    H2 2866   0.633   3.497   0.221 -0.5777 -0.6283 -0.5032
  954TIP3   OH2 2867   3.274   1.331   0.797  0.0022 -0.3704 -0.1446
  954TIP3    H1 2868   3.292   1.255   0.852  0.9591 -1.3301 -1.6999
  954TIP3    H2 2869   3.180   1.325   0.777 -0.1204 -0.6121  0.4945
  955TIP3   OH2 2870   4.529   1.013   4.619 -0.5007 -0.3053 -0.1809
  955TIP3    H1 2871   4.543   1.021   4.714 -1.2888  0.3835 -0.1140
  955TIP3    H2 2872   4.481   0.931   4.610 -1.0798 -0.0003  0.0902
  956TIP3   OH2 2873   3.052   2.234   1.956 -0.3421  0.2170 -0.2697
  956TIP3    H1 2874   3.053   2.146   1.994 -1.8440  0.1543 -0.3290
  956TIP3    H2 2875   3.113   2.228   1.882  0.9587 -0.2452  0.7989
  957TIP3   OH2 2876   0.775   5.757   4.086 -0.7070  0.1794  0.0460
  957TIP3    H1 2877   0.799   5.805   4.007 -0.4685 -0.9062 -0.5632
  957TIP3    H2 2878   0.682   5.778   4.100 -1.1739 -0.7829 -1.4012
  958TIP3   OH2 2879   6.304   1.666   3.806 -0.1456 -0.2714 -0.2352
  958TIP3    H1 2880   6.383   1.612   3.804 -0.5189 -0.8975  1.0133
  958TIP3    H2 2881   6.336   1.756   3.812  0.4734 -0.4725 -0.4607
  959TIP3   OH2 2882   4.408   4.505   4.592 -0.7472  0.5176 -0.0621
  959TIP3    H1 2883   4.423   4.462   4.676 -0.2268 -0.2999 -0.5646
  959TIP3    H2 2884   4.313   4.499   4.579 -0.9491  1.4939  0.9025
  960TIP3   OH2 2885   3.375   3.849   1.654  0.0994  0.7035 -0.0767
  960TIP3    H1 2886   3.394   3.811   1.569  0.2055  1.6521 -0.4903
  960TIP3    H2 2887   3.288   3.815   1.677  1.1216 -1.6177  0.6571
  961TIP3   OH2 2888   1.522   4.107   0.312  0.3645 -0.1045  0.2591
  961TIP3    H1 2889   1.431   4.078   0.308  0.1325  0.0230  2.7726
  961TIP3    H2 2890   1.572   4.025   0.320  0.4476 -0.1461 -0.5816
  962TIP3   OH2 2891   4.068   4.835   2.783  0.2882 -0.1600  0.1732
  962TIP3    H1 2892   4.100   4.785   2.708  0.5259  1.7453 -1.0691
  962TIP3    H2 2893   3.973   4.825   2.779  0.0517  1.9497 -2.0169
  963TIP3   OH2 2894   5.375   2.487   0.701 -0.0855  0.6015 -0.0354
  963TIP3    H1 2895   5.429   2.550   0.748  0.7475  0.3442 -0.6162
  963TIP3    H2 2896   5.375   2.409   0.756  1.6478 -0.0192 -0.8279
  964TIP3   OH2 2897   2.687   3.607   0.138  0.4050 -0.0238  0.2930
  964TIP3    H1 2898   2.672   3.590   0.231  1.2088  1.8223  0.8218
  964TIP3    H2 2899   2.747   3.682   0.137  0.9693 -0.4343 -1.7226
  965TIP3   OH2 2900   2.248   2.267   5.141  0.3776 -0.0707 -0.3098
  965TIP3    H1 2901   2.179   2.318   5.099  0.8987  0.1964 -0.8658
  965TIP3    H2 2902   2.291   2.220   5.069  1.5960  0.7648 -0.1727
  966TIP3   OH2 2903   1.461   5.704   0.654 -0.8846  0.5144 -0.0686
  966TIP3    H1 2904   1.514   5.626   0.663 -0.2697  0.9665  0.2879
  966TIP3    H2 2905   1.419   5.695   0.568  0.2040  0.4210 -0.5989
  967TIP3   OH2 2906   2.113   2.258   3.216  0.0781 -0.4992  0.0046
  967TIP3    H1 2907   2.123   2.347   3.183  0.9808 -0.7298 -0.3796
  967TIP3    H2 2908   2.087   2.268   3.307  0.2436  0.1523 -0.0177
  968TIP3   OH2 2909   0.404   5.622   3.511  0.3448  0.0904 -0.1940
  968TIP3    H1 2910   0.401   5.570   3.430 -0.6971 -1.4279  0.7500
  968TIP3    H2 2911   0.480   5.678   3.501  1.3180 -1.3699 -1.4696
  969TIP3   OH2 2912   0.961   0.862   1.891 -0.0826  0.1313  0.4101
  969TIP3    H1 2913   0.949   0.863   1.796  0.8199  0.5163  0.2941
  969TIP3    H2 2914   1.052   0.836   1.903  0.2374  1.5009  1.1223
  970TIP3   OH2 2915   2.057   1.029   1.818 -0.7131 -0.0681  0.1979
  970TIP3    H1 2916   2.126   1.077   1.862 -0.1898 -0.6080 -0.0095
  970TIP3    H2 2917   2.101   0.986   1.745 -1.5468  0.7437 -0.8120
  971TIP3   OH2 2918   4.894   3.440   4.372  0.3336  0.4680 -0.1462
  971TIP3    H1 2919   4.884   3.511   4.308  1.0469  0.8329  0.1315
  971TIP3    H2 2920   4.950   3.376   4.328  0.6617  0.6286  0.0293
  972TIP3   OH2 2921   6.077   5.428   3.892 -0.1690  0.0612  0.2354
  972TIP3    H1 2922   6.125   5.361   3.941 -0.9700 -1.9265 -1.5862
  972TIP3    H2 2923   6.106   5.418   3.802  0.3308  2.8163 -0.0206
  973TIP3   OH2 2924   3.883   3.854   2.476 -0.1671 -0.2982  0.0970
  973TIP3    H1 2925   3.788   3.845   2.487 -0.4261  0.4038 -1.2459
  973TIP3    H2 2926   3.903   3.800   2.399  0.5692 -0.6833  0.5549
  974TIP3   OH2 2927   4.649   5.016   3.049  0.3976  0.7129  0.6650
  974TIP3    H1 2928   4.698   5.048   3.124  1.8676  1.4585 -0.5649
  974TIP3    H2 2929   4.697   5.049   2.973 -0.2661 -1.1467 -0.6272
  975TIP3   OH2 2930   6.206   5.522   0.510 -0.2107  0.0540  0.2519
  975TIP3    H1 2931   6.231   5.457   0.444  0.5801  1.5102 -0.9278
  975TIP3    H2 2932   6.141   5.578   0.467 -1.2653 -0.2117  1.4196
  976TIP3   OH2 2933   0.569   3.131   4.162  0.0470  0.5428 -0.5648
  976TIP3    H1 2934   0.583   3.146   4.256  0.6989 -0.5960 -0.4565
  976TIP3    H2 2935   0.558   3.036   4.155  2.0496  0.3411 -1.8655
  977TIP3   OH2 2936   4.319   1.276   4.740  0.1420 -0.6544 -0.1245
  977TIP3    H1 2937   4.363   1.258   4.657 -1.4921  1.1134 -1.4816
  977TIP3    H2 2938   4.289   1.366   4.732 -2.3159 -1.2508  1.3218
  978TIP3   OH2 2939   2.911   1.069   4.965  0.0708  0.1677  0.4802
  978TIP3    H1 2940   2.996   1.039   4.933 -0.7455  0.1006 -1.7542
  978TIP3    H2 2941   2.903   1.158   4.931 -1.0623 -0.0939  0.0428
  979TIP3   OH2 2942   4.270   5.813   1.555  0.1704 -0.5950 -0.3620
  979TIP3    H1 2943   4.219   5.749   1.606 -0.8284 -0.6923 -1.4363
  979TIP3    H2 2944   4.204   5.861   1.505  0.8184  1.7582  0.9056
  980TIP3   OH2 2945   1.201   5.412   3.374 -0.2968  0.2226  0.6884
  980TIP3    H1 2946   1.239   5.329   3.402 -1.2967 -0.9278 -1.1902
  980TIP3    H2 2947   1.140   5.436   3.444 -0.4271 -0.9229  0.9835
  981TIP3   OH2 2948   5.457   3.167   1.663  0.5142  0.5634  0.0926
  981TIP3    H1 2949   5.418   3.254   1.650  0.5634  0.4521 -0.9412
  981TIP3    H2 2950   5.523   3.161   1.593  2.1813  0.6232  1.6062
  982TIP3   OH2 2951   6.258   5.072   2.167  0.4251 -0.0779  0.0478
  982TIP3    H1 2952   6.286   5.010   2.235 -2.1150  1.4945  2.7507
  982TIP3    H2 2953   6.183   5.029   2.126  0.1068  0.2139  0.3202
  983TIP3   OH2 2954   0.056   0.698   0.316 -0.1167  0.5692 -0.3114
  983TIP3    H1 2955  -0.025   0.695   0.367 -0.6381  0.0658 -1.1412
  983TIP3    H2 2956   0.052   0.782   0.271  0.0613  0.7578  0.0220
  984TIP3   OH2 2957   3.180   5.716   3.020  0.0143  0.0654 -0.4219
  984TIP3    H1 2958   3.240   5.662   3.072  1.2948  0.2550 -1.6149
  984TIP3    H2 2959   3.155   5.659   2.946 -0.0738  0.4878 -0.7201
  985TIP3   OH2 2960   4.214   1.176   2.021 -0.0258  0.6125 -0.2906
  985TIP3    H1 2961   4.292   1.130   1.992 -1.0427 -0.7807 -0.8974
  985TIP3    H2 2962   4.171   1.204   1.940 -0.7394  0.3469 -0.0123
  986TIP3   OH2 2963   1.677   5.671   2.259 -0.3618 -0.3847 -0.0809
  986TIP3    H1 2964   1.710   5.590   2.220  0.6986  0.2941 -0.6533
  986TIP3    H2 2965   1.652   5.726   2.185  0.4269  0.4098  0.2156
  987TIP3   OH2 2966   2.786   5.097   0.923 -0.1854 -0.1498  0.3264
  987TIP3    H1 2967   2.747   5.141   0.999 -0.5243  0.3233 -0.1160
  987TIP3    H2 2968   2.737   5.015   0.916 -0.3480 -0.0639  0.4445
  988TIP3   OH2 2969   5.781   2.637   3.267 -0.0334  0.0341 -0.2700
  988TIP3    H1 2970   5.693   2.618   3.234 -0.8563  2.7446  0.1193
  988TIP3    H2 2971   5.768   2.706   3.332  2.4599  1.2377 -0.9339
  989TIP3   OH2 2972   4.675   5.884   5.075  0.3496  0.0632  0.3263
  989TIP3    H1 2973   4.580   5.871   5.076  0.4333 -0.8717 -1.4153
  989TIP3    H2 2974   4.686   5.974   5.045  0.0300 -0.0323 -0.0769
  990TIP3   OH2 2975   2.782   1.947   0.198  0.0054  1.0878 -0.7547
  990TIP3    H1 2976   2.841   2.014   0.233 -0.9668  0.7309  1.8094
  990TIP3    H2 2977   2.821   1.922   0.115  1.4928  3.3798 -0.8373
  991TIP3   OH2 2978   3.826   3.618   4.251 -0.2516 -0.4007 -0.0754
  991TIP3    H1 2979   3.842   3.581   4.164 -0.6350 -0.4368 -0.1359
  991TIP3    H2 2980   3.769   3.554   4.294 -1.1851  0.2603 -0.2970
  992TIP3   OH2 2981   2.619   3.201   5.046 -0.3423  0.2476  0.9129
  992TIP3    H1 2982   2.695   3.241   5.089 -0.1886  1.7355 -0.6423
  992TIP3    H2 2983   2.544   3.232   5.097  0.0031 -0.2965  1.7700
  993TIP3   OH2 2984   1.122   0.186   3.802  0.1058  0.3982 -0.1068
  993TIP3    H1 2985   1.125   0.281   3.806 -0.6418  0.4315 -0.1704
  993TIP3    H2 2986   1.068   0.166   3.726 -1.8349 -0.0334  1.3021
  994TIP3   OH2 2987   1.308   1.994   4.460 -0.0110 -0.1344 -0.3859
  994TIP3    H1 2988   1.389   1.951   4.485 -0.8994 -1.2273  0.7459
  994TIP3    H2 2989   1.307   1.992   4.364  1.2697 -0.1190 -0.4094
  995TIP3   OH2 2990   1.090   2.506   3.403  0.4112 -0.7766 -0.5149
  995TIP3    H1 2991   1.049   2.543   3.480 -0.4035 -1.5442 -0.5657
  995TIP3    H2 2992   1.109   2.581   3.347  0.0845 -0.3135 -0.0121
  996TIP3   OH2 2993   0.709   0.335   1.643  0.6770  0.4637  0.6803
  996TIP3    H1 2994   0.771   0.390   1.691  3.1855 -1.6495  0.1119
  996TIP3    H2 2995   0.739   0.246   1.659 -0.8800 -0.5527 -1.5281
  997TIP3   OH2 2996   6.256   5.202   3.248  0.3720 -0.2190  0.1872
  997TIP3    H1 2997   6.216   5.122   3.281 -0.3389 -0.5823 -1.4522
  997TIP3    H2 2998   6.347   5.177   3.230  0.4757 -0.3077  0.7947
  998TIP3   OH2 2999   5.712   4.774   0.486 -0.0696  0.0523 -0.0062
  998TIP3    H1 3000   5.619   4.753   0.477 -0.3666  0.3435  2.0156
  998TIP3    H2 3001   5.715   4.869   0.493  0.1657 -0.0456  1.6877
  999TIP3   OH2 3002   4.082   3.819   1.450  0.2339  0.6856 -0.3773
  999TIP3    H1 3003   4.055   3.766   1.375 -2.7085  1.8954 -0.2907
  999TIP3    H2 3004   4.147   3.880   1.414 -1.8185  1.8920 -2.2606
 1000TIP3   OH2 3005   5.485   3.095   0.784  0.7935  0.2760 -0.7140
 1000TIP3    H1 3006   5.439   3.165   0.830 -0.1792  0.7085 -2.2710
 1000TIP3    H2 3007   5.563   3.136   0.748 -0.0488  0.7586 -2.0901
 1001TIP3   OH2 3008   2.474   3.508   1.537  0.1362 -0.4282  0.0475
 1001TIP3    H1 3009   2.482   3.444   1.607  0.5685 -0.5986 -0.1555
 1001TIP3    H2 3010   2.474   3.593   1.583 -0.5189 -0.5698  0.3193
 1002TIP3   OH2 3011   4.953   4.095   0.050  0.5560 -0.1943  0.2771
 1002TIP3    H1 3012   5.049   4.096   0.056  0.5692 -1.6914  0.8628
 1002TIP3    H2 3013   4.935   4.054  -0.034  0.4223  0.4960 -0.0328
 1003TIP3   OH2 3014   3.984   3.055   2.544 -0.4188  0.3950  0.8508
 1003TIP3    H1 3015   3.892   3.084   2.538 -0.2559  0.7478 -0.2974
 1003TIP3    H2 3016   4.005   3.027   2.455  1.3717  2.7952  0.4234
 1004TIP3   OH2 3017   5.805   0.906   3.632 -0.1516 -0.0264 -0.5272
 1004TIP3    H1 3018   5.857   0.830   3.659 -0.4496 -0.3983 -0.9887
 1004TIP3    H2 3019   5.728   0.868   3.590 -0.7267  0.5233  0.0167
 1005TIP3   OH2 3020   5.054   4.929   0.662 -0.6282  0.4723  0.0067
 1005TIP3    H1 3021   4.986   4.893   0.720  0.0989  0.8676  1.1494
 1005TIP3    H2 3022   5.122   4.861   0.661 -0.2854  0.8009  0.2898
 1006TIP3   OH2 3023   4.454   4.868   3.759 -0.2756  0.5639 -0.1156
 1006TIP3    H1 3024   4.418   4.947   3.720 -0.6548 -0.1071 -1.1659
 1006TIP3    H2 3025   4.420   4.867   3.848 -0.9443  1.1625 -0.3568
 1007TIP3   OH2 3026   1.079   3.653   1.836  0.3480 -0.6517  0.0377
 1007TIP3    H1 3027   1.047   3.657   1.926 -1.2833  1.6472 -0.5800
 1007TIP3    H2 3028   1.063   3.562   1.809 -4.2468 -0.1423  0.3632
 1008TIP3   OH2 3029   6.303   0.861   0.685 -0.0730 -0.1501  0.0176
 1008TIP3    H1 3030   6.293   0.817   0.769 -1.0188  0.7485  0.4036
 1008TIP3    H2 3031   6.325   0.952   0.709 -1.6559  0.4472 -0.6322
 1009TIP3   OH2 3032   5.736   2.312   4.434 -0.3095  0.0128  0.0433
 1009TIP3    H1 3033   5.791   2.249   4.388 -1.2359  0.1445 -1.2953
 1009TIP3    H2 3034   5.750   2.394   4.387 -0.2436  0.4859  0.8584
 1010TIP3   OH2 3035   3.099   1.673   2.806 -0.0460  0.3500 -0.2114
 1010TIP3    H1 3036   3.134   1.584   2.802  0.2034  0.3407  1.4440
 1010TIP3    H2 3037   3.173   1.729   2.784  0.0448  0.1842 -0.3290
 1011TIP3   OH2 3038   4.492   3.716   3.231  0.0099 -0.5252  0.2670
 1011TIP3    H1 3039   4.467   3.760   3.150  0.1273  1.8911  1.4359
 1011TIP3    H2 3040   4.582   3.743   3.247  0.2771 -1.6648  0.7714
 1012TIP3   OH2 3041   2.420   4.700   1.919 -0.0125 -0.1238 -0.6755
 1012TIP3    H1 3042   2.351   4.701   1.986  1.9441 -2.5628  1.6265
 1012TIP3    H2 3043   2.452   4.790   1.915  0.1774  0.0262  2.2435
 1013TIP3   OH2 3044   5.716   5.670   4.376 -0.2796  0.1775  0.3405
 1013TIP3    H1 3045   5.714   5.581   4.339  0.7916  0.7018 -1.0481
 1013TIP3    H2 3046   5.676   5.725   4.309 -1.0201  0.7553  1.2304
 1014TIP3   OH2 3047   2.415   3.775   4.882 -0.5196  0.3461 -0.3295
 1014TIP3    H1 3048   2.353   3.848   4.878  0.1788  0.9646 -0.0864
 1014TIP3    H2 3049   2.379   3.709   4.823  0.2252  1.9633 -2.6990
 1015TIP3   OH2 3050   3.467   0.267   1.466 -0.1541  0.7121 -0.3250
 1015TIP3    H1 3051   3.555   0.244   1.435 -1.1587 -2.4038 -1.2630
 1015TIP3    H2 3052   3.441   0.341   1.410  0.7847 -0.2391 -2.1329
 1016TIP3   OH2 3053   4.550   3.801   4.738  0.3343  0.2648 -0.1098
 1016TIP3    H1 3054   4.482   3.852   4.695 -0.3677 -0.8368 -0.3642
 1016TIP3    H2 3055   4.508   3.767   4.817  1.0024  0.6518  0.4150
 1017TIP3   OH2 3056   2.793   2.275   5.006 -0.2875  0.1940  0.0339
 1017TIP3    H1 3057   2.840   2.290   4.924 -0.2894  1.0127  0.1708
 1017TIP3    H2 3058   2.825   2.344   5.065 -1.7355  0.8549  0.0908
 1018TIP3   OH2 3059   2.768   4.469   3.168 -0.2270 -0.2913  0.0850
 1018TIP3    H1 3060   2.751   4.516   3.249  1.2087 -1.8690  1.3920
 1018TIP3    H2 3061   2.689   4.481   3.115 -0.2010  2.9223  0.5825
 1019TIP3   OH2 3062   4.646   5.558   5.094  0.1287 -0.0872  0.6728
 1019TIP3    H1 3063   4.720   5.534   5.149 -0.4005 -0.1320  1.3642
 1019TIP3    H2 3064   4.569   5.526   5.140 -0.2036 -2.1181 -1.1579
 1020TIP3   OH2 3065   0.121   1.803   3.140  0.3356 -0.0963 -0.3207
 1020TIP3    H1 3066   0.099   1.879   3.193  0.1628  1.2284 -2.2049
 1020TIP3    H2 3067   0.175   1.837   3.069  0.3730 -1.7576 -1.1505
 1021TIP3   OH2 3068   4.733   3.421   0.789  0.0772  0.7147  0.5094
 1021TIP3    H1 3069   4.639   3.434   0.796 -0.1434 -0.8440  0.8625
 1021TIP3    H2 3070   4.758   3.377   0.870  0.2352 -3.1512 -1.4002
 1022TIP3   OH2 3071   5.006   2.275   0.578  0.1460  0.0233  0.7233
 1022TIP3    H1 3072   5.066   2.227   0.522 -0.1210 -0.1898  0.6177
 1022TIP3    H2 3073   4.980   2.351   0.526 -0.0947 -0.1697  0.5627
 1023TIP3   OH2 3074   1.371   0.544   4.875 -0.1485  0.1347  0.1896
 1023TIP3    H1 3075   1.278   0.542   4.897  0.2384 -1.9023  1.9117
 1023TIP3    H2 3076   1.416   0.546   4.960  1.3755 -1.7021 -0.4909
 1024TIP3   OH2 3077   5.748   1.925   4.081  0.4619  0.1723  0.0026
 1024TIP3    H1 3078   5.776   1.877   4.003  1.9107  1.0227 -0.0274
 1024TIP3    H2 3079   5.811   1.901   4.148 -1.1523 -1.0768  1.1625
 1025TIP3   OH2 3080   6.066   0.202   4.065  0.1264  0.4012 -0.6495
 1025TIP3    H1 3081   6.141   0.221   4.009  0.6912  2.0097  0.5745
 1025TIP3    H2 3082   6.104   0.169   4.146 -0.6447 -1.0658 -0.8460
 1026TIP3   OH2 3083   4.521   4.831   2.016  0.4130  0.1205  0.3743
 1026TIP3    H1 3084   4.497   4.899   2.079  0.8433  0.6847 -0.0645
 1026TIP3    H2 3085   4.560   4.762   2.069  0.6724  0.5446  0.7417
 1027TIP3   OH2 3086   1.465   4.267   1.101  0.2223  0.2592 -0.3185
 1027TIP3    H1 3087   1.498   4.188   1.059 -0.7918 -0.6327  0.5165
 1027TIP3    H2 3088   1.406   4.236   1.169 -0.0381  1.7337  0.1745
 1028TIP3   OH2 3089   0.587   2.917   5.041  0.1099  0.6912 -0.4560
 1028TIP3    H1 3090   0.673   2.900   5.079 -0.1975  0.7835  0.2924
 1028TIP3    H2 3091   0.528   2.926   5.116 -0.5780  0.5162 -0.9622
 1029TIP3   OH2 3092   0.949   3.523   4.593 -0.3318  0.6679  0.8438
 1029TIP3    H1 3093   1.041   3.538   4.615 -0.4195  0.2946  1.4917
 1029TIP3    H2 3094   0.904   3.600   4.626 -0.1528  1.2590 -0.2412
 1030TIP3   OH2 3095   1.148   2.973   3.395 -0.2689  0.2331  0.1665
 1030TIP3    H1 3096   1.205   3.049   3.399  1.4259 -1.0597  2.1427
 1030TIP3    H2 3097   1.082   2.988   3.463 -1.1492  0.8063 -0.7830
 1031TIP3   OH2 3098   0.218   0.126   4.722 -0.2713  0.0546 -0.0355
 1031TIP3    H1 3099   0.257   0.103   4.637  0.4703  0.5792  0.1564
 1031TIP3    H2 3100   0.208   0.221   4.719  0.3361  0.1496  0.7072
 1032TIP3   OH2 3101   1.819   5.918   1.676 -0.0774 -0.9005 -0.2345
 1032TIP3    H1 3102   1.829   5.841   1.733  2.3357 -1.2857 -1.0743
 1032TIP3    H2 3103   1.846   5.991   1.731 -1.0706 -0.7974  0.1412
 1033TIP3   OH2 3104   5.550   1.932   2.189 -0.5096 -0.1452  0.0052
 1033TIP3    H1 3105   5.617   1.967   2.130 -0.7047 -1.5839 -1.1594
 1033TIP3    H2 3106   5.472   1.924   2.134 -1.1687 -0.0316  0.9029
 1034TIP3   OH2 3107   4.080   0.837   0.989 -0.0194 -0.1352 -0.0701
 1034TIP3    H1 3108   4.018   0.778   0.947  0.4940  0.2441 -1.4108
 1034TIP3    H2 3109   4.042   0.924   0.979  0.2942  0.0001 -0.0976
 1035TIP3   OH2 3110   5.802   2.415   3.589 -0.3061 -0.2893 -0.3253
 1035TIP3    H1 3111   5.869   2.479   3.611 -0.8303  0.1243  0.0792
 1035TIP3    H2 3112   5.852   2.337   3.563  0.3629  0.6560 -2.0766
 1036TIP3   OH2 3113   6.299   2.204   4.275  0.2673  0.3011  0.1482
 1036TIP3    H1 3114   6.266   2.190   4.364  2.7685 -0.0701  1.1229
 1036TIP3    H2 3115   6.392   2.223   4.288  0.3466  1.9949 -2.3028
 1037TIP3   OH2 3116   0.462   0.071   2.918  0.9595 -0.5526  0.1809
 1037TIP3    H1 3117   0.470  -0.007   2.972 -2.9377 -2.6300 -1.7913
 1037TIP3    H2 3118   0.390   0.121   2.958  0.2103 -0.4904 -1.1663
 1038TIP3   OH2 3119   1.443   2.439   2.274 -0.2046  0.5616  0.0204
 1038TIP3    H1 3120   1.448   2.462   2.181  0.3805  0.1971 -0.0399
 1038TIP3    H2 3121   1.508   2.370   2.286 -0.4952  0.3866  0.6382
 1039TIP3   OH2 3122   2.857   4.330   3.616  0.1773 -0.3548  0.1235
 1039TIP3    H1 3123   2.899   4.264   3.669 -0.8938 -0.3655  0.9923
 1039TIP3    H2 3124   2.795   4.281   3.561 -2.5102  0.0107  2.5475
 1040TIP3   OH2 3125   3.991   5.625   3.790  0.2017 -0.4198  0.6700
 1040TIP3    H1 3126   3.968   5.545   3.742  0.4901 -1.2918  1.9281
 1040TIP3    H2 3127   3.938   5.620   3.870  1.3642 -0.1474  1.4804
 1041TIP3   OH2 3128   2.193   4.848   4.507 -0.0583 -0.8432  0.0374
 1041TIP3    H1 3129   2.188   4.756   4.480 -1.6559 -1.1262  1.1021
 1041TIP3    H2 3130   2.286   4.864   4.521  0.4000 -1.8330 -1.6492
 1042TIP3   OH2 3131   2.069   3.313   1.526  0.2316  0.2380  0.0424
 1042TIP3    H1 3132   2.016   3.393   1.533 -0.6302 -0.3833  0.8229
 1042TIP3    H2 3133   2.124   3.328   1.449 -0.4587  1.2736 -0.2736
 1043TIP3   OH2 3134   3.221   1.121   0.559  0.0821  0.1137  0.2775
 1043TIP3    H1 3135   3.283   1.193   0.564  0.4027  0.0023 -1.5373
 1043TIP3    H2 3136   3.167   1.140   0.482  0.0208 -1.4368 -0.1128
 1044TIP3   OH2 3137   1.951   3.800   0.673  0.2935  0.1511 -0.8691
 1044TIP3    H1 3138   2.001   3.735   0.723 -0.8920 -0.8628 -0.9245
 1044TIP3    H2 3139   2.017   3.854   0.631  1.3489  0.7444  1.3730
 1045TIP3   OH2 3140   3.895   3.120   5.047 -0.3218  0.2347 -0.0346
 1045TIP3    H1 3141   3.830   3.050   5.061 -1.1981  1.0373  0.0085
 1045TIP3    H2 3142   3.875   3.155   4.960 -0.0006  0.5504  0.0153
 1046TIP3   OH2 3143   4.128   0.781   3.083  0.0654 -0.0431  0.0796
 1046TIP3    H1 3144   4.102   0.717   3.149 -0.5746 -0.2958 -0.4042
 1046TIP3    H2 3145   4.104   0.866   3.119 -2.8956 -0.3405 -0.9620
 1047TIP3   OH2 3146   1.755   1.220   2.775  0.0087 -0.1353 -0.1252
 1047TIP3    H1 3147   1.795   1.133   2.784  1.6454  0.0947 -3.4751
 1047TIP3    H2 3148   1.826   1.281   2.795  0.8703  0.2757 -3.6496
 1048TIP3   OH2 3149   1.513   4.378   5.105 -0.0007  0.2727 -0.4852
 1048TIP3    H1 3150   1.472   4.346   5.186 -1.1710  0.7767 -0.8604
 1048TIP3    H2 3151   1.446   4.370   5.038  0.5485  1.0133 -1.1535
 1049TIP3   OH2 3152   0.692   4.436   3.228  0.1997 -0.3610 -0.1090
 1049TIP3    H1 3153   0.676   4.527   3.255  1.2114  0.0050 -0.6750
 1049TIP3    H2 3154   0.605   4.397   3.222 -0.2733  0.6677 -0.1575
 1050TIP3   OH2 3155   4.127   2.490   0.073  0.2613  0.6410  0.2172
 1050TIP3    H1 3156   4.116   2.478   0.167  0.9017  1.0459  0.3464
 1050TIP3    H2 3157   4.106   2.583   0.058 -1.0807  0.2893 -0.2346
 1051TIP3   OH2 3158   5.755   5.269   3.741 -0.4934  0.0793  0.0046
 1051TIP3    H1 3159   5.841   5.227   3.731 -0.1633  0.9444 -0.9898
 1051TIP3    H2 3160   5.699   5.226   3.676 -0.7619 -0.3370  0.5062
 1052TIP3   OH2 3161   0.910   4.871   4.496  0.1102 -0.1776  0.6332
 1052TIP3    H1 3162   0.849   4.800   4.477  0.2690  0.0376 -0.7951
 1052TIP3    H2 3163   0.923   4.868   4.591  0.2724 -2.1701  0.5766
 1053TIP3   OH2 3164   1.838   1.819   1.244  0.3291 -0.3058  0.0959
 1053TIP3    H1 3165   1.789   1.893   1.280  0.7801  0.3364 -0.5803
 1053TIP3    H2 3166   1.865   1.848   1.157  2.2379 -0.4881  0.5803
 1054TIP3   OH2 3167   3.878   3.572   2.683  0.2398  0.3165  0.0439
 1054TIP3    H1 3168   3.786   3.577   2.709  0.7131 -0.9453  2.2165
 1054TIP3    H2 3169   3.924   3.624   2.750  1.2419 -0.3675 -0.0954
 1055TIP3   OH2 3170   3.323   2.530   2.058  0.4608 -0.2037  0.2018
 1055TIP3    H1 3171   3.385   2.518   1.985 -0.4127  0.4666 -0.6693
 1055TIP3    H2 3172   3.238   2.508   2.021  0.1017 -0.6727  1.2694
 1056TIP3   OH2 3173   0.553   2.538   4.929 -0.2998  0.2695 -0.5586
 1056TIP3    H1 3174   0.517   2.613   4.976  0.8734  0.7203 -0.3674
 1056TIP3    H2 3175   0.499   2.532   4.850 -0.5102  1.2114 -0.5013
 1057TIP3   OH2 3176   4.743   5.157   0.998 -0.4101 -0.0537  0.2885
 1057TIP3    H1 3177   4.714   5.214   0.928 -1.2696 -0.2866  0.4459
 1057TIP3    H2 3178   4.737   5.210   1.077 -0.1917 -0.0384  0.2969
 1058TIP3   OH2 3179   1.470   0.082   0.119  0.1566  0.0029 -0.0463
 1058TIP3    H1 3180   1.434   0.134   0.191 -0.7904 -0.3039 -0.2789
 1058TIP3    H2 3181   1.459   0.137   0.042 -2.1866 -1.0473 -0.5368
 1059TIP3   OH2 3182   6.304   4.574   2.957 -0.0431  0.6322  0.7076
 1059TIP3    H1 3183   6.310   4.596   3.050  0.7342 -0.9498  1.0738
 1059TIP3    H2 3184   6.227   4.519   2.951 -0.7012  1.5867  0.2042
 1060TIP3   OH2 3185   4.993   0.148   1.952  0.1740 -0.2005  0.2873
 1060TIP3    H1 3186   5.026   0.059   1.940  0.3717  0.0494 -1.2153
 1060TIP3    H2 3187   4.988   0.184   1.863  0.4086  1.4032  0.8928
 1061TIP3   OH2 3188   6.307   3.674   2.006  0.1805 -0.3523 -0.0171
 1061TIP3    H1 3189   6.287   3.585   1.976  0.0835 -0.0618 -0.8249
 1061TIP3    H2 3190   6.221   3.712   2.027  0.1754 -0.2715 -0.1829
 1062TIP3   OH2 3191   1.356   1.742   0.831  0.0216  1.0904 -0.3846
 1062TIP3    H1 3192   1.361   1.834   0.857  2.2516  0.3898  2.0314
 1062TIP3    H2 3193   1.272   1.712   0.866 -1.1709  2.3095 -1.9753
 1063TIP3   OH2 3194   5.236   3.862   0.399  0.5306 -0.1691 -0.8499
 1063TIP3    H1 3195   5.144   3.870   0.376  0.0648 -0.5713  0.7405
 1063TIP3    H2 3196   5.283   3.896   0.323 -0.9574  2.1456 -0.8197
 1064TIP3   OH2 3197   5.886   1.512   1.940 -0.2556  0.5921  0.0091
 1064TIP3    H1 3198   5.929   1.521   2.025 -0.0899  1.9743 -0.1873
 1064TIP3    H2 3199   5.843   1.597   1.926  0.5806  0.7681 -1.7359
 1065TIP3   OH2 3200   4.451   4.428   0.642 -0.0161  1.0913  0.4045
 1065TIP3    H1 3201   4.520   4.493   0.626  0.3107  0.5341 -0.5109
 1065TIP3    H2 3202   4.418   4.406   0.555 -1.1945  1.1670  0.8156
 1066TIP3   OH2 3203   4.306   3.594   4.749 -0.5829 -0.5658 -0.2428
 1066TIP3    H1 3204   4.321   3.607   4.655  0.2765  0.1612 -0.0089
 1066TIP3    H2 3205   4.354   3.664   4.792 -2.6175  0.3473  0.6723
 1067TIP3   OH2 3206   4.139   2.176   2.212  0.4304  0.1091 -0.5297
 1067TIP3    H1 3207   4.151   2.269   2.194  0.2747  0.2813  0.2144
 1067TIP3    H2 3208   4.224   2.136   2.193  0.8779  0.6047  0.3313
 1068TIP3   OH2 3209   2.002   5.217   4.905  0.4584  0.4916 -0.2438
 1068TIP3    H1 3210   1.966   5.149   4.962  3.0177  0.0165  0.9592
 1068TIP3    H2 3211   2.041   5.169   4.832  0.7596  0.7959 -0.2852
 1069TIP3   OH2 3212   0.131   4.877   3.295 -0.0088 -0.2825  0.2541
 1069TIP3    H1 3213   0.159   4.858   3.206 -0.5890 -0.7834  0.1717
 1069TIP3    H2 3214   0.209   4.912   3.338  0.3448 -0.2931 -0.3689
 1070TIP3   OH2 3215   1.857   4.710   3.138  0.2430 -0.2344 -0.1550
 1070TIP3    H1 3216   1.783   4.657   3.168 -0.7636  0.0060 -2.0211
 1070TIP3    H2 3217   1.848   4.792   3.186 -1.2337  0.1019 -0.9299
 1071TIP3   OH2 3218   0.022   4.007   3.307  0.0800 -0.1854  0.1742
 1071TIP3    H1 3219   0.088   3.957   3.258 -0.8059 -0.9815 -0.2323
 1071TIP3    H2 3220   0.051   4.002   3.398  0.1313 -1.2695  0.1121
 1072TIP3   OH2 3221   5.756   2.048   1.986 -0.1277 -0.3154 -0.0092
 1072TIP3    H1 3222   5.802   2.132   1.989 -0.2726 -0.2366  0.0122
 1072TIP3    H2 3223   5.826   1.983   1.982  0.0190 -0.2592  1.3184
 1073TIP3   OH2 3224   4.283   4.680   4.173  0.3156 -0.2499 -0.1389
 1073TIP3    H1 3225   4.345   4.680   4.246  0.2668  1.4484 -0.0621
 1073TIP3    H2 3226   4.228   4.603   4.188  0.2161  0.1471  1.7048
 1074TIP3   OH2 3227   2.753   5.310   3.262  0.5811 -0.2858 -0.0368
 1074TIP3    H1 3228   2.817   5.285   3.329  0.4177  0.5327  0.4456
 1074TIP3    H2 3229   2.743   5.232   3.208  0.1191 -1.2544  1.3784
 1075TIP3   OH2 3230   1.297   0.560   2.225  0.2574  0.0665 -0.2384
 1075TIP3    H1 3231   1.341   0.535   2.144  1.6285  0.6158  0.3136
 1075TIP3    H2 3232   1.214   0.599   2.197  0.1578 -0.8966 -1.3037
 1076TIP3   OH2 3233   1.821   4.632   0.550  0.1211 -0.3030  0.1038
 1076TIP3    H1 3234   1.773   4.563   0.504 -0.9746  0.1621  0.5190
 1076TIP3    H2 3235   1.755   4.698   0.570  0.5579 -0.4990  2.3984
 1077TIP3   OH2 3236   2.042   0.341   0.220  0.2768 -0.0409 -1.1459
 1077TIP3    H1 3237   2.098   0.335   0.142  0.8490 -1.0503 -0.6698
 1077TIP3    H2 3238   1.956   0.363   0.185  0.6332  0.0283 -2.0173
 1078TIP3   OH2 3239   2.229   4.973   2.334 -0.2943 -0.1105 -0.1157
 1078TIP3    H1 3240   2.228   5.063   2.367 -0.8012 -0.1275 -0.0704
 1078TIP3    H2 3241   2.189   4.922   2.405  0.0415 -0.3786 -0.1188
 1079TIP3   OH2 3242   2.240   2.801   0.452 -0.3402  0.5212 -0.2195
 1079TIP3    H1 3243   2.260   2.719   0.498 -1.8836  0.6145  0.6891
 1079TIP3    H2 3244   2.326   2.836   0.427  0.4825 -0.2718  1.3181
 1080TIP3   OH2 3245   4.746   3.265   2.695  0.0286 -0.4516 -0.0895
 1080TIP3    H1 3246   4.728   3.175   2.723 -0.9753  0.0481  0.9272
 1080TIP3    H2 3247   4.808   3.298   2.760 -0.5180 -0.0354  0.2277
 1081TIP3   OH2 3248   2.339   3.579   2.123 -0.0792 -0.2646 -0.4822
 1081TIP3    H1 3249   2.315   3.665   2.156  0.3268 -0.4789  0.4124
 1081TIP3    H2 3250   2.401   3.545   2.188 -1.9953 -2.2118  0.4871
 1082TIP3   OH2 3251   0.662   1.901   3.926  0.7755 -0.5970 -0.0186
 1082TIP3    H1 3252   0.691   1.944   4.006 -2.5791  0.8394  0.5685
 1082TIP3    H2 3253   0.681   1.965   3.857 -0.6648  0.2217  0.3219
 1083TIP3   OH2 3254   0.758   1.970  -0.023  0.0519 -0.2975  0.0890
 1083TIP3    H1 3255   0.727   1.881  -0.034 -0.4034 -0.2056  0.5607
 1083TIP3    H2 3256   0.805   1.969   0.061 -1.1828  0.2129  0.8197
 1084TIP3   OH2 3257   4.422   4.534   2.115  0.3619  0.0428 -0.6099
 1084TIP3    H1 3258   4.393   4.572   2.198 -0.0163 -1.0360 -0.2357
 1084TIP3    H2 3259   4.353   4.472   2.092  0.2842  0.5839 -1.9262
 1085TIP3   OH2 3260   1.655   4.043   2.544 -0.3328  0.0598 -0.1275
 1085TIP3    H1 3261   1.644   3.948   2.547 -0.8626  0.1301  1.7870
 1085TIP3    H2 3262   1.574   4.075   2.504 -0.0870 -0.2839 -0.9263
 1086TIP3   OH2 3263   2.477   3.769   2.760 -0.5029 -0.0070  0.5525
 1086TIP3    H1 3264   2.474   3.675   2.776  0.5779 -0.2508 -0.5713
 1086TIP3    H2 3265   2.408   3.784   2.695  0.2007 -0.2492 -0.2637
 1087TIP3   OH2 3266   2.228   1.808   0.668 -0.2944  0.5327  0.9412
 1087TIP3    H1 3267   2.188   1.895   0.674 -0.1199  0.5755  1.5537
 1087TIP3    H2 3268   2.321   1.824   0.685  0.3434  0.7031 -2.2022
 1088TIP3   OH2 3269   5.176   5.133   3.377 -0.4177  0.0353 -0.3477
 1088TIP3    H1 3270   5.185   5.227   3.393  0.0508 -0.3822  2.2030
 1088TIP3    H2 3271   5.083   5.121   3.356  0.0254  1.3625 -3.7047
 1089TIP3   OH2 3272   4.593   1.434   4.412 -0.0876  0.1055 -0.2469
 1089TIP3    H1 3273   4.511   1.444   4.461 -0.9404 -1.4430 -1.2687
 1089TIP3    H2 3274   4.637   1.359   4.454  0.4637  0.4601 -0.1768
 1090TIP3   OH2 3275   4.838   1.423   3.728 -0.5375  0.1038 -0.2884
 1090TIP3    H1 3276   4.871   1.356   3.668 -1.8638 -1.9744  1.1342
 1090TIP3    H2 3277   4.749   1.395   3.749 -0.6104  1.4793  1.5690
 1091TIP3   OH2 3278   4.621   0.628   0.957 -0.4490  0.1173  0.2882
 1091TIP3    H1 3279   4.599   0.618   1.050  0.3090 -0.0542  0.4635
 1091TIP3    H2 3280   4.697   0.570   0.945  0.4528  1.3376 -0.0539
 1092TIP3   OH2 3281   4.650   5.648   2.012 -0.1187  0.1852 -0.5801
 1092TIP3    H1 3282   4.610   5.564   1.990  1.7114 -0.5829 -1.2277
 1092TIP3    H2 3283   4.735   5.646   1.966  0.5131  1.8382  0.4427
 1093TIP3   OH2 3284   5.131   5.620   0.263  0.5672  0.0459 -0.4384
 1093TIP3    H1 3285   5.133   5.529   0.231 -0.1983 -0.0822 -0.1401
 1093TIP3    H2 3286   5.135   5.612   0.358 -1.0287  0.2467 -0.3346
 1094TIP3   OH2 3287   4.714   5.362   2.811 -0.2284 -0.1207  0.3494
 1094TIP3    H1 3288   4.626   5.395   2.826  0.0836  1.1544 -0.5107
 1094TIP3    H2 3289   4.743   5.406   2.731  0.3752 -2.1623 -0.6268
 1095TIP3   OH2 3290   4.254   0.771   4.357 -0.0492  0.2466  0.1534
 1095TIP3    H1 3291   4.215   0.684   4.344  0.9660 -0.0479 -1.1426
 1095TIP3    H2 3292   4.195   0.830   4.309 -2.0450  0.6958  2.9008
 1096TIP3   OH2 3293   5.784   2.016   3.641 -0.2120  0.1369  0.7308
 1096TIP3    H1 3294   5.715   2.072   3.606  0.8845  0.6114 -0.7866
 1096TIP3    H2 3295   5.858   2.031   3.582  0.5777 -1.7767  1.1792
 1097TIP3   OH2 3296   3.996   3.124   4.673 -0.0118  0.8113 -0.1172
 1097TIP3    H1 3297   3.901   3.113   4.669  0.0050  0.9111 -1.0775
 1097TIP3    H2 3298   4.010   3.204   4.724 -0.5147  1.6014 -1.1696
 1098TIP3   OH2 3299   2.930   0.555   4.373 -0.2290  0.0731 -0.0504
 1098TIP3    H1 3300   2.848   0.571   4.420 -1.3836 -2.1953 -1.1453
 1098TIP3    H2 3301   2.918   0.597   4.288 -0.6375 -0.9500 -0.5176
 1099TIP3   OH2 3302   6.027   4.681   1.921  0.4298  1.0729 -0.4567
 1099TIP3    H1 3303   6.010   4.775   1.917 -0.9045  0.8494 -0.5033
 1099TIP3    H2 3304   5.941   4.640   1.904  0.6540 -0.1360  1.0894
 1100TIP3   OH2 3305   1.301   1.136   3.657  0.4088  0.3636  0.2465
 1100TIP3    H1 3306   1.271   1.046   3.672 -1.4034  0.7179 -0.8762
 1100TIP3    H2 3307   1.312   1.173   3.744  1.4729 -1.0122  0.7279
 1101TIP3   OH2 3308   4.316   4.247   3.734 -0.1636  0.1674  0.1055
 1101TIP3    H1 3309   4.306   4.184   3.806  1.8537  0.4220  0.6829
 1101TIP3    H2 3310   4.269   4.324   3.764 -0.5599 -0.2201  0.5118
 1102TIP3   OH2 3311   5.179   4.421   4.221 -0.5702  0.3312  0.0025
 1102TIP3    H1 3312   5.147   4.331   4.225 -1.8682  0.7368 -0.7106
 1102TIP3    H2 3313   5.125   4.469   4.283  1.1193  0.3707  1.5066
 1103TIP3   OH2 3314   3.184   4.939   0.919 -0.4455 -0.0666 -0.0913
 1103TIP3    H1 3315   3.245   5.004   0.884  0.2013 -0.0704  0.9614
 1103TIP3    H2 3316   3.127   4.917   0.846 -0.9668  1.9966 -0.3710
 1104TIP3   OH2 3317   3.882   2.776   0.902 -0.2958  0.0907 -0.1630
 1104TIP3    H1 3318   3.876   2.711   0.832  0.4201 -0.5705  0.3744
 1104TIP3    H2 3319   3.974   2.774   0.929  0.2510  2.7764 -1.4829
 1105TIP3   OH2 3320   1.266   0.421   4.112 -0.1812 -0.6970  0.1742
 1105TIP3    H1 3321   1.275   0.496   4.171  1.3174  0.0985 -0.9859
 1105TIP3    H2 3322   1.215   0.357   4.162 -1.3338  1.0004  1.2669
 1106TIP3   OH2 3323   4.746   2.846   0.480  0.0998  0.2265 -0.1279
 1106TIP3    H1 3324   4.796   2.887   0.550  1.6173 -1.1438 -0.3550
 1106TIP3    H2 3325   4.746   2.911   0.410 -0.9408  1.3774  0.9086
 1107TIP3   OH2 3326   0.021   4.215   2.068  0.2333  0.6221 -0.0378
 1107TIP3    H1 3327   0.067   4.149   2.119  0.3916  1.6284  1.1479
 1107TIP3    H2 3328  -0.039   4.256   2.130 -0.3573  1.1349 -0.9278
 1108TIP3   OH2 3329   0.893   3.838   0.707  0.2327  0.4492 -0.0710
 1108TIP3    H1 3330   0.968   3.785   0.734 -0.0549  1.1476  2.3541
 1108TIP3    H2 3331   0.915   3.926   0.736 -0.9404  0.9195 -0.5662
 1109TIP3   OH2 3332   2.442   2.200   1.380 -0.1750 -0.6631 -0.0868
 1109TIP3    H1 3333   2.409   2.284   1.411 -0.8966 -0.5141 -1.1792
 1109TIP3    H2 3334   2.524   2.187   1.427  1.3138  1.9037 -1.7401
 1110TIP3   OH2 3335   3.538   2.696   2.813 -0.3965  0.1587  0.2117
 1110TIP3    H1 3336   3.534   2.709   2.719  0.5215  1.0593  0.2844
 1110TIP3    H2 3337   3.520   2.782   2.851 -0.2318 -0.0793  0.8482
 1111TIP3   OH2 3338   2.629   1.620   0.198 -0.1475 -0.0767 -0.1076
 1111TIP3    H1 3339   2.565   1.637   0.130  0.4596  0.8368 -0.4723
 1111TIP3    H2 3340   2.583   1.565   0.262 -0.9923 -0.1951 -0.8068
 1112TIP3   OH2 3341   4.390   4.507   3.094 -0.4422  0.2309 -0.1180
 1112TIP3    H1 3342   4.316   4.483   3.039 -1.8212  0.6828  1.4495
 1112TIP3    H2 3343   4.464   4.512   3.034 -1.2996 -1.9219 -1.4780
 1113TIP3   OH2 3344   4.374   0.495   2.987 -0.1119  0.2558 -0.4870
 1113TIP3    H1 3345   4.368   0.400   2.976 -2.2932  0.3456 -0.5009
 1113TIP3    H2 3346   4.429   0.506   3.065 -3.1297 -1.2658  2.1079
 1114TIP3   OH2 3347   2.742   3.055   3.167  0.7143 -0.3930 -0.5956
 1114TIP3    H1 3348   2.751   2.998   3.243 -0.9876  0.5053  0.3477
 1114TIP3    H2 3349   2.678   3.011   3.111 -0.7082  0.6014  0.2007
 1115TIP3   OH2 3350   4.187   2.164   2.526  0.6039  0.2040 -0.7216
 1115TIP3    H1 3351   4.183   2.130   2.436  0.3973 -2.7116  0.2793
 1115TIP3    H2 3352   4.270   2.131   2.560  0.6030  1.1494  0.2156
 1116TIP3   OH2 3353   2.183   1.885   2.845 -0.1607  0.1817 -0.3396
 1116TIP3    H1 3354   2.204   1.939   2.769 -1.1521  1.9943  0.6177
 1116TIP3    H2 3355   2.232   1.923   2.917 -1.6754  0.5190  0.5723
 1117TIP3   OH2 3356   6.268   1.476   3.177  0.5275 -0.2616  0.8652
 1117TIP3    H1 3357   6.270   1.494   3.083  1.7116  0.4015  0.9995
 1117TIP3    H2 3358   6.288   1.383   3.184  3.5680  0.2795  0.5682
 1118TIP3   OH2 3359   2.581   0.065   3.324 -0.3072 -0.0183  0.2078
 1118TIP3    H1 3360   2.638   0.135   3.294 -2.2065  1.1072 -1.0255
 1118TIP3    H2 3361   2.629   0.022   3.394  1.8544  1.0761 -0.5258
 1119TIP3   OH2 3362   2.716   2.276   4.211  0.0332 -0.2476 -0.4736
 1119TIP3    H1 3363   2.723   2.182   4.197  0.5391 -0.0860 -1.3578
 1119TIP3    H2 3364   2.629   2.299   4.180 -0.4837 -0.5658  0.6695
 1120TIP3   OH2 3365   5.400   4.783   2.031 -0.1295  0.2672 -0.1642
 1120TIP3    H1 3366   5.408   4.762   2.124 -0.5474  1.9118  0.2837
 1120TIP3    H2 3367   5.323   4.735   2.002 -1.7005  1.9017  1.0756
 1121TIP3   OH2 3368   3.846   2.460   0.275  0.2122  0.3700  0.0953
 1121TIP3    H1 3369   3.937   2.451   0.305  0.7180 -0.5714 -1.5903
 1121TIP3    H2 3370   3.819   2.371   0.252 -1.1184  0.6523  0.4918
 1122TIP3   OH2 3371   5.809   0.127   1.243  0.2574 -0.0151  0.3062
 1122TIP3    H1 3372   5.874   0.164   1.183  0.8728  0.9045  1.4902
 1122TIP3    H2 3373   5.785   0.043   1.204  0.7749  0.4727 -1.1123
 1123TIP3   OH2 3374   2.951   2.502   2.970  0.0814  0.1812  0.3026
 1123TIP3    H1 3375   2.958   2.582   2.917  2.7932  0.3621  0.7785
 1123TIP3    H2 3376   2.905   2.440   2.914  0.5049  1.1882 -1.2220
 1124TIP3   OH2 3377   4.645   4.634   4.731 -0.4352  0.1575 -0.1097
 1124TIP3    H1 3378   4.556   4.615   4.704 -0.2640 -0.8499  0.0016
 1124TIP3    H2 3379   4.674   4.555   4.777  0.1863  0.8311  0.6823
 1125TIP3   OH2 3380   5.688   3.125   1.265  0.3517  0.8710  0.0319
 1125TIP3    H1 3381   5.613   3.067   1.253  0.8536  0.0378  0.7633
 1125TIP3    H2 3382   5.668   3.202   1.213 -1.2066  0.8432  0.5525
 1126TIP3   OH2 3383   0.620   2.568   3.394  0.1154 -0.4563  0.4973
 1126TIP3    H1 3384   0.669   2.563   3.312 -1.8596 -0.5698 -0.7601
 1126TIP3    H2 3385   0.587   2.480   3.408 -0.6323 -0.1618  0.6857
 1127TIP3   OH2 3386   1.083   0.210   3.226  0.1256  0.5923 -0.5114
 1127TIP3    H1 3387   1.070   0.140   3.289  0.7647  2.0483  1.3211
 1127TIP3    H2 3388   1.002   0.211   3.175 -0.0848 -1.1298 -0.2717
 1128TIP3   OH2 3389   0.923   4.063   5.119  0.4563 -0.3494  0.3245
 1128TIP3    H1 3390   0.937   4.156   5.103 -0.4110  0.0745  1.8208
 1128TIP3    H2 3391   0.997   4.019   5.076  1.6014  1.1285  0.7165
 1129TIP3   OH2 3392   1.106   2.560   1.802  0.2744 -0.4831  0.3345
 1129TIP3    H1 3393   1.086   2.652   1.787  0.2024 -0.5152  0.2380
 1129TIP3    H2 3394   1.188   2.562   1.852  1.5913 -0.4232 -1.7324
 1130TIP3   OH2 3395   5.717   5.194   1.866 -0.3041  0.5348  0.4835
 1130TIP3    H1 3396   5.672   5.139   1.802  0.5120 -1.3682  1.4658
 1130TIP3    H2 3397   5.762   5.132   1.923  2.3229  2.2771  0.4544
 1131TIP3   OH2 3398   2.728   2.737   3.023 -0.2299 -0.2098  0.1492
 1131TIP3    H1 3399   2.758   2.701   3.107  0.8295 -0.8139 -0.4724
 1131TIP3    H2 3400   2.808   2.762   2.978 -0.8533  1.3109 -0.1826
 1132TIP3   OH2 3401   5.334   4.827   1.112 -0.5279 -0.8051 -0.2325
 1132TIP3    H1 3402   5.294   4.807   1.027  0.8377 -0.8270 -0.9084
 1132TIP3    H2 3403   5.343   4.922   1.113 -0.8334 -0.7780  0.0302
 1133TIP3   OH2 3404   5.093   3.240   1.567 -0.2258  0.1559 -0.0994
 1133TIP3    H1 3405   5.097   3.194   1.651  2.1347 -1.3904 -0.9317
 1133TIP3    H2 3406   5.177   3.284   1.560 -0.7944  1.1049 -1.2316
 1134TIP3   OH2 3407   2.824   4.228   1.564  0.2254 -0.2930  0.2362
 1134TIP3    H1 3408   2.805   4.209   1.472  4.4588  0.0318 -0.9137
 1134TIP3    H2 3409   2.756   4.291   1.590 -2.0019 -1.5272 -2.1085
 1135TIP3   OH2 3410   6.136   1.184   2.523  0.3174  0.6380  0.1611
 1135TIP3    H1 3411   6.223   1.222   2.535  0.5198  0.4483 -0.6107
 1135TIP3    H2 3412   6.095   1.239   2.456  1.4904 -1.7540 -2.7703
 1136TIP3   OH2 3413   2.037   3.445   2.182  0.7213 -0.1950  0.6152
 1136TIP3    H1 3414   2.054   3.521   2.126 -0.9723  1.0198  1.6727
 1136TIP3    H2 3415   2.045   3.477   2.271 -2.1172 -0.6417  1.1304
 1137TIP3   OH2 3416   2.793   0.062   4.192 -0.3628 -0.3353  0.0250
 1137TIP3    H1 3417   2.716   0.089   4.243 -1.1045 -0.6642 -0.9033
 1137TIP3    H2 3418   2.777   0.097   4.105  0.6639 -0.2097 -0.1250
 1138TIP3   OH2 3419   3.898   4.213   3.974  0.0078  0.1670  0.3639
 1138TIP3    H1 3420   3.904   4.121   3.948  1.0885  0.5875 -1.0057
 1138TIP3    H2 3421   3.873   4.210   4.066 -1.0769 -1.4694  0.0696
 1139TIP3   OH2 3422   4.256   5.362   4.627 -0.5339  0.5323  0.0192
 1139TIP3    H1 3423   4.265   5.456   4.642 -0.4152  0.4819  0.2807
 1139TIP3    H2 3424   4.184   5.335   4.684  0.7915  0.1006  1.5767
 1140TIP3   OH2 3425   2.544   3.169   4.245  0.3097 -0.2059 -0.1313
 1140TIP3    H1 3426   2.601   3.095   4.228  1.0925 -0.5001  3.0972
 1140TIP3    H2 3427   2.554   3.225   4.168  1.8960 -2.0781 -1.3946
 1141TIP3   OH2 3428   4.925   0.612   1.757  0.9342  0.3541 -0.6012
 1141TIP3    H1 3429   4.886   0.601   1.843  1.8593 -1.6919 -0.3898
 1141TIP3    H2 3430   4.903   0.702   1.732  0.6302  0.9898  1.7371
 1142TIP3   OH2 3431   3.343   3.237   2.004  0.0516  0.2139 -0.2962
 1142TIP3    H1 3432   3.253   3.211   2.024  0.1081  0.0630 -0.2359
 1142TIP3    H2 3433   3.336   3.291   1.926 -0.3448  2.0072  0.9181
 1143TIP3   OH2 3434   3.798   2.242   0.134 -0.0605 -0.6485  0.4135
 1143TIP3    H1 3435   3.819   2.250   0.041  0.4601 -0.0922  0.5664
 1143TIP3    H2 3436   3.717   2.191   0.136 -0.2632 -0.3808 -0.3603
 1144TIP3   OH2 3437   3.514   3.955   3.860  0.0567 -0.4607  0.1861
 1144TIP3    H1 3438   3.583   3.907   3.815 -0.5982 -0.9321 -0.3343
 1144TIP3    H2 3439   3.487   4.023   3.798  0.4442  0.1006  0.6183
 1145TIP3   OH2 3440   4.419   2.466   0.449  0.4696  0.0921  0.1251
 1145TIP3    H1 3441   4.513   2.469   0.432  0.3643  1.8662 -0.2914
 1145TIP3    H2 3442   4.380   2.521   0.382 -0.7629  0.3334  0.9951
 1146TIP3   OH2 3443   6.016   2.111   5.013 -0.0582 -0.2412 -0.2790
 1146TIP3    H1 3444   6.048   2.201   5.002  0.1702 -0.0761  1.4319
 1146TIP3    H2 3445   6.005   2.101   5.108  3.8106 -3.3023  0.1030
 1147TIP3   OH2 3446   3.042   4.555   4.917  0.0135 -0.1914 -0.2324
 1147TIP3    H1 3447   3.103   4.602   4.859 -0.9734 -0.7225 -1.7590
 1147TIP3    H2 3448   3.056   4.595   5.003  0.9546  1.2005 -0.9762
 1148TIP3   OH2 3449   2.956   2.732   3.189 -0.2038 -0.2702 -0.6033
 1148TIP3    H1 3450   3.046   2.764   3.178 -0.7925  1.2424 -1.2888
 1148TIP3    H2 3451   2.923   2.780   3.265  0.0967 -2.1412  0.7834
 1149TIP3   OH2 3452   2.700   4.134   0.729  0.2503 -0.4704  0.3338
 1149TIP3    H1 3453   2.742   4.049   0.723 -0.3845 -0.7357 -0.5658
 1149TIP3    H2 3454   2.717   4.163   0.819  2.1799 -0.6360  0.0519
 1150TIP3   OH2 3455   3.064   5.590   1.791 -0.0042 -0.4761 -0.0366
 1150TIP3    H1 3456   3.003   5.610   1.720  0.5362 -1.3020 -0.7594
 1150TIP3    H2 3457   3.052   5.661   1.854 -3.4011 -1.7989  1.0135
 1151TIP3   OH2 3458   4.911   1.326   2.737  0.2290  0.1464 -0.4118
 1151TIP3    H1 3459   4.911   1.303   2.644 -0.3660 -0.6940 -0.2147
 1151TIP3    H2 3460   4.907   1.242   2.783 -0.4437  0.5824  0.3558
 1152TIP3   OH2 3461   1.516   2.528   0.903  0.3055  0.1499 -0.3025
 1152TIP3    H1 3462   1.510   2.526   0.999  1.5088 -1.3246 -0.1984
 1152TIP3    H2 3463   1.609   2.546   0.886  0.0764  0.5146 -1.1940
 1153TIP3   OH2 3464   2.989   2.228   4.461  0.0081 -0.2938 -0.2112
 1153TIP3    H1 3465   2.990   2.320   4.438 -1.2049 -0.3921 -0.7171
 1153TIP3    H2 3466   3.002   2.226   4.556  0.9307  0.3346 -0.3165
 1154TIP3   OH2 3467   1.405   1.971   4.129  0.5870  1.0462 -0.1699
 1154TIP3    H1 3468   1.415   1.948   4.036  2.6806 -0.0982  0.2625
 1154TIP3    H2 3469   1.495   1.982   4.160  0.1535 -1.6033  2.4373
 1155TIP3   OH2 3470   0.878   5.546   0.706 -0.2308 -0.2750 -0.1798
 1155TIP3    H1 3471   0.828   5.617   0.747 -0.8926 -0.6962 -0.2286
 1155TIP3    H2 3472   0.861   5.556   0.612 -1.0194 -0.9897 -0.1259
 1156TIP3   OH2 3473   1.068   5.554   5.130  0.2329 -0.1456  0.2033
 1156TIP3    H1 3474   1.070   5.487   5.199 -0.5891 -0.6888 -0.2678
 1156TIP3    H2 3475   1.028   5.630   5.171  0.6191 -0.1430  0.5816
 1157TIP3   OH2 3476   6.219   2.150   2.812  0.0887  0.1519 -0.6033
 1157TIP3    H1 3477   6.203   2.077   2.872  1.2620  0.1861 -0.2170
 1157TIP3    H2 3478   6.206   2.114   2.725  0.7349 -0.5426 -0.4173
 1158TIP3   OH2 3479   5.821   2.385   1.111  0.7789  0.3648 -0.2564
 1158TIP3    H1 3480   5.815   2.477   1.137  0.2592  0.1826  0.3003
 1158TIP3    H2 3481   5.890   2.349   1.167 -0.4241 -0.0564  0.9977
 1159TIP3   OH2 3482   2.315   4.962   3.973  0.0318  0.1757  0.3185
 1159TIP3    H1 3483   2.359   4.985   3.891  1.5159  0.7306  1.2307
 1159TIP3    H2 3484   2.373   4.996   4.041 -0.6319 -1.2319  1.6239
 1160TIP3   OH2 3485   3.195   4.456   2.354  0.1542  0.7080  0.4406
 1160TIP3    H1 3486   3.132   4.514   2.398 -2.7637 -1.0380 -1.1613
 1160TIP3    H2 3487   3.190   4.481   2.262  0.9817 -0.2100  0.1377
 1161TIP3   OH2 3488   5.103   1.759   3.562 -0.2071  0.1739  0.2883
 1161TIP3    H1 3489   5.133   1.759   3.653 -0.0537 -0.4070  0.2430
 1161TIP3    H2 3490   5.136   1.677   3.526 -1.8149 -0.4979  0.2286
 1162TIP3   OH2 3491   3.199   2.876   1.000 -0.1026 -0.0156  0.1423
 1162TIP3    H1 3492   3.145   2.901   0.925 -0.7904  1.4037  1.0587
 1162TIP3    H2 3493   3.144   2.815   1.050  0.2752 -0.7963 -0.3686
 1163TIP3   OH2 3494   4.220   3.406   4.264  0.0957 -0.4052  0.1700
 1163TIP3    H1 3495   4.313   3.408   4.288  0.2357  1.2352 -0.4013
 1163TIP3    H2 3496   4.177   3.365   4.338  1.3823 -2.1278  0.0276
 1164TIP3   OH2 3497   6.182   1.799   4.540  0.0578  0.4016  0.0703
 1164TIP3    H1 3498   6.276   1.811   4.523 -0.1146  0.7160 -0.7002
 1164TIP3    H2 3499   6.175   1.710   4.573  0.6831  0.5293  0.5845
 1165TIP3   OH2 3500   0.431   1.537   1.585  0.0473 -0.3853 -0.3099
 1165TIP3    H1 3501   0.502   1.540   1.650  0.0233 -0.2720 -0.2890
 1165TIP3    H2 3502   0.362   1.485   1.627  0.3971 -1.0988 -0.6073
 1166TIP3   OH2 3503   4.541   3.734   1.581 -0.0018 -0.1279  0.2655
 1166TIP3    H1 3504   4.492   3.814   1.595 -0.2300 -0.6057  2.4551
 1166TIP3    H2 3505   4.614   3.760   1.524 -0.2383  1.5475  0.6902
 1167TIP3   OH2 3506   1.760   5.874   2.940  0.0874 -0.2487  0.2586
 1167TIP3    H1 3507   1.665   5.863   2.947  0.2105 -1.6977 -0.0634
 1167TIP3    H2 3508   1.790   5.880   3.031 -0.0512 -2.4851  0.4968
 1168TIP3   OH2 3509   4.382   1.848   2.327 -0.3737 -0.2368 -0.0679
 1168TIP3    H1 3510   4.439   1.773   2.309 -0.0421 -0.2458  0.9358
 1168TIP3    H2 3511   4.392   1.905   2.250  0.4077 -0.5971 -0.2423
 1169TIP3   OH2 3512   0.811   1.486   3.710  0.4157  0.0505 -0.3353
 1169TIP3    H1 3513   0.724   1.516   3.683  0.5956 -0.1476 -1.1728
 1169TIP3    H2 3514   0.800   1.460   3.801 -0.2709  0.5555 -0.2645
 1170TIP3   OH2 3515   5.579   3.707   1.369  0.3110 -0.4874 -0.6607
 1170TIP3    H1 3516   5.572   3.649   1.293 -3.2420  1.3535 -1.9679
 1170TIP3    H2 3517   5.578   3.795   1.332 -0.8857  0.4536  1.4553
 1171TIP3   OH2 3518   1.357   3.036   0.796  0.1103 -0.0458  0.4345
 1171TIP3    H1 3519   1.278   3.070   0.753 -1.7108 -1.2490  2.5968
 1171TIP3    H2 3520   1.342   2.942   0.802  1.1047 -0.1429  2.0511
 1172TIP3   OH2 3521   2.672   5.258   2.355  0.3522  0.2811  0.3630
 1172TIP3    H1 3522   2.725   5.325   2.311 -1.7711  2.9772  1.5540
 1172TIP3    H2 3523   2.717   5.242   2.437  0.8242  0.3402  0.1191
 1173TIP3   OH2 3524   2.304   1.040   1.463 -1.0165 -0.6758  0.2425
 1173TIP3    H1 3525   2.387   1.057   1.505 -2.1298 -0.3290  2.4165
 1173TIP3    H2 3526   2.295   1.109   1.397  0.5858 -1.0126 -0.3812
 1174TIP3   OH2 3527   2.577   3.800   0.765  0.4171 -0.1550  0.4625
 1174TIP3    H1 3528   2.651   3.796   0.704  0.3850 -0.4020  0.4408
 1174TIP3    H2 3529   2.617   3.794   0.852  0.7271  2.6686  0.6294
 1175TIP3   OH2 3530   0.844   2.503   1.960 -0.0817 -0.1235  0.0841
 1175TIP3    H1 3531   0.832   2.436   2.028  1.5537 -0.0815  0.4466
 1175TIP3    H2 3532   0.928   2.543   1.980 -0.4461  1.1897 -0.8819
 1176TIP3   OH2 3533   1.928   4.691   4.755  0.0746  0.0973 -0.0094
 1176TIP3    H1 3534   1.867   4.757   4.720  0.6640  0.1681 -0.9344
 1176TIP3    H2 3535   1.948   4.635   4.680  0.6154 -0.3425  0.4552
 1177TIP3   OH2 3536   4.053   3.989   3.132 -0.0807 -0.4623 -0.0577
 1177TIP3    H1 3537   4.101   3.970   3.212 -1.0938  0.0956  0.6959
 1177TIP3    H2 3538   4.120   4.020   3.071  0.4686  0.7166  1.1072
 1178TIP3   OH2 3539   4.746   1.802   4.109  0.3023 -0.5903  0.1486
 1178TIP3    H1 3540   4.692   1.737   4.065 -0.0810  0.4458 -0.9650
 1178TIP3    H2 3541   4.715   1.803   4.200 -2.8116  1.1906 -0.8006
 1179TIP3   OH2 3542   2.790   2.148   0.496  0.2768  0.3312 -0.1467
 1179TIP3    H1 3543   2.779   2.085   0.568 -1.2213  0.7682  0.0497
 1179TIP3    H2 3544   2.784   2.234   0.538 -3.0158  0.6434 -0.9714
 1180TIP3   OH2 3545   4.962   3.393   4.018 -0.1798 -0.3677  0.2649
 1180TIP3    H1 3546   5.011   3.373   4.098 -1.3328 -0.4016  0.9865
 1180TIP3    H2 3547   5.001   3.337   3.952  1.7895  0.7077  0.4165
 1181TIP3   OH2 3548   0.742   4.396   2.952 -0.8072 -0.5337 -0.2402
 1181TIP3    H1 3549   0.741   4.420   3.045 -0.4191  1.5120 -0.7059
 1181TIP3    H2 3550   0.768   4.304   2.951 -0.6677 -0.5581  1.6586
 1182TIP3   OH2 3551   0.691   2.209   3.280 -0.5813 -0.2415  0.2746
 1182TIP3    H1 3552   0.722   2.295   3.249 -1.1723  0.2635  1.0258
 1182TIP3    H2 3553   0.604   2.200   3.241 -0.3045 -0.7468 -0.2294
 1183TIP3   OH2 3554   4.541   1.042   3.021 -0.1343  0.1534 -0.6463
 1183TIP3    H1 3555   4.523   1.130   2.987 -0.8199  0.3941  0.3011
 1183TIP3    H2 3556   4.468   0.988   2.989  0.1199 -0.0061 -0.9647
 1184TIP3   OH2 3557   1.813   3.356   0.798  0.3350  0.3902 -0.6840
 1184TIP3    H1 3558   1.871   3.374   0.724  0.7062  2.6477  0.0736
 1184TIP3    H2 3559   1.838   3.268   0.827  2.2165  0.6338 -1.4239
 1185TIP3   OH2 3560   0.245   4.556   3.210 -0.1325 -0.0380 -0.0664
 1185TIP3    H1 3561   0.150   4.559   3.204 -0.0615  0.9811 -1.0253
 1185TIP3    H2 3562   0.264   4.474   3.255 -1.4333 -0.5329 -0.3838
 1186TIP3   OH2 3563   0.029   2.759   2.484  0.3109  0.2870  0.4428
 1186TIP3    H1 3564  -0.065   2.754   2.470  0.1208  0.1233  1.6686
 1186TIP3    H2 3565   0.049   2.853   2.489  0.3957  0.3510 -0.8892
 1187TIP3   OH2 3566   1.368   1.639   0.148  0.0155 -0.5912  0.2562
 1187TIP3    H1 3567   1.424   1.623   0.072 -1.8808 -0.2947 -1.2955
 1187TIP3    H2 3568   1.423   1.619   0.224  2.3900  0.3512 -1.1260
 1188TIP3   OH2 3569   2.822   4.710   0.009 -0.3753 -0.4612 -0.5489
 1188TIP3    H1 3570   2.729   4.709  -0.017 -0.7484  0.3482  0.6655
 1188TIP3    H2 3571   2.825   4.655   0.088 -0.0422  0.4326  0.0729
 1189TIP3   OH2 3572   4.104   3.612   0.671 -0.2795  0.1397 -0.4638
 1189TIP3    H1 3573   4.033   3.581   0.615  0.4880 -1.6197 -0.5219
 1189TIP3    H2 3574   4.183   3.601   0.619  0.4414 -1.3930  0.8503
 1190TIP3   OH2 3575   0.074   5.080   1.686  0.0427  0.2274  0.0673
 1190TIP3    H1 3576   0.155   5.029   1.691  0.0466 -0.1376 -2.3959
 1190TIP3    H2 3577   0.102   5.166   1.656 -0.4408  0.1974 -0.4812
 1191TIP3   OH2 3578   5.195   0.475   4.011  0.2398  0.2853  0.5672
 1191TIP3    H1 3579   5.272   0.443   3.963  0.7060 -0.1198  1.5614
 1191TIP3    H2 3580   5.231   0.531   4.079 -0.3896  0.5275  0.7040
 1192TIP3   OH2 3581   0.138   1.387   0.640  0.2433 -0.4339 -0.5856
 1192TIP3    H1 3582   0.088   1.456   0.685 -1.5236 -0.2220 -2.7141
 1192TIP3    H2 3583   0.210   1.434   0.597  0.7938 -0.3704  0.3791
 1193TIP3   OH2 3584   1.139   2.588   4.280  0.0925 -0.0841  0.0133
 1193TIP3    H1 3585   1.092   2.613   4.200 -0.6947  0.5717  0.6563
 1193TIP3    H2 3586   1.198   2.518   4.253  0.5580  0.7957 -1.3435
 1194TIP3   OH2 3587   1.793   3.207   1.617 -0.4259  0.1066 -0.3420
 1194TIP3    H1 3588   1.882   3.205   1.581  0.0290  0.4832  0.7033
 1194TIP3    H2 3589   1.797   3.147   1.692 -1.2235 -0.3376 -0.6523
 1195TIP3   OH2 3590   3.783   1.102   5.015  0.7809  0.0015  0.0086
 1195TIP3    H1 3591   3.806   1.130   5.104  1.4366 -1.8934  0.5033
 1195TIP3    H2 3592   3.707   1.154   4.992  1.4810  1.5842  1.0885
 1196TIP3   OH2 3593   5.470   1.210   0.797 -0.0434 -0.5706 -0.0530
 1196TIP3    H1 3594   5.547   1.258   0.827 -0.9990  0.2182  1.2855
 1196TIP3    H2 3595   5.480   1.123   0.835 -0.9622  0.2537  2.2901
 1197TIP3   OH2 3596   5.198   4.791   2.256  0.0550  0.1120 -0.1288
 1197TIP3    H1 3597   5.150   4.863   2.216 -1.2319 -0.6065  0.0493
 1197TIP3    H2 3598   5.176   4.715   2.202 -0.6221 -0.6089  1.1162
 1198TIP3   OH2 3599   1.311   2.498   1.263 -0.9346 -0.0424  0.3250
 1198TIP3    H1 3600   1.241   2.469   1.204 -1.7733  0.0345  1.2608
 1198TIP3    H2 3601   1.266   2.521   1.344  0.0650  0.9342  0.6325
 1199TIP3   OH2 3602   1.510   1.092   3.483  0.6478  0.3083  0.1756
 1199TIP3    H1 3603   1.574   1.151   3.522  0.3733 -0.1443  1.3444
 1199TIP3    H2 3604   1.450   1.070   3.554  1.1732 -1.9860  0.0102
 1200TIP3   OH2 3605   2.724   5.411   2.114  0.2384  0.0260 -0.3327
 1200TIP3    H1 3606   2.686   5.398   2.027  0.6188  0.7376 -0.6177
 1200TIP3    H2 3607   2.819   5.409   2.099  0.3851 -2.5790  0.4881
 1201TIP3   OH2 3608   4.543   0.661   1.260  0.2955 -0.2380  0.0091
 1201TIP3    H1 3609   4.584   0.613   1.332 -1.9199 -0.9149  0.8798
 1201TIP3    H2 3610   4.568   0.752   1.275  0.4458 -0.4632  1.2336
 1202TIP3   OH2 3611   1.378   4.392   1.465  0.1267 -0.8953  0.0502
 1202TIP3    H1 3612   1.284   4.374   1.463 -0.1390  0.3880 -1.7171
 1202TIP3    H2 3613   1.419   4.312   1.432 -0.4351 -1.0646 -0.2485
 1203TIP3   OH2 3614   5.073   5.821   3.048 -0.8513  0.3589 -0.5006
 1203TIP3    H1 3615   5.094   5.729   3.062 -3.5693  0.0831  3.1392
 1203TIP3    H2 3616   4.996   5.819   2.992 -0.9017  0.4191 -0.4324
 1204TIP3   OH2 3617   4.720   5.239   2.126 -0.3743 -0.5875 -0.2560
 1204TIP3    H1 3618   4.727   5.276   2.038 -2.4601 -0.3525 -0.3699
 1204TIP3    H2 3619   4.733   5.144   2.113  1.5942 -0.3496 -0.4326
 1205TIP3   OH2 3620   5.536   3.900   2.909 -0.8911  1.0806 -0.2788
 1205TIP3    H1 3621   5.480   3.858   2.974  1.3409  1.1750  1.8670
 1205TIP3    H2 3622   5.620   3.854   2.916  0.1389  2.6465 -1.4489
 1206TIP3   OH2 3623   3.933   4.684   1.296  0.0480  0.1197 -0.2787
 1206TIP3    H1 3624   4.006   4.712   1.242 -0.4021 -0.1837 -1.0543
 1206TIP3    H2 3625   3.855   4.706   1.245 -0.3344 -2.2108 -0.7912
 1207TIP3   OH2 3626   0.250   2.213   0.479  0.0280 -0.5961 -0.5345
 1207TIP3    H1 3627   0.234   2.201   0.573 -0.9321  1.8751 -0.3084
 1207TIP3    H2 3628   0.326   2.272   0.476 -0.0496 -0.5343 -1.3084
 1208TIP3   OH2 3629   3.581   3.027   3.758  0.4160 -0.3488  0.0535
 1208TIP3    H1 3630   3.623   2.948   3.723 -0.2190 -1.0187  0.7789
 1208TIP3    H2 3631   3.606   3.028   3.850 -0.5132 -0.3414  0.3165
 1209TIP3   OH2 3632   4.610   4.396   3.267  0.2051  0.5171 -0.3040
 1209TIP3    H1 3633   4.578   4.340   3.338 -0.7171  0.1767 -0.9658
 1209TIP3    H2 3634   4.554   4.375   3.193  0.9570  1.0858 -1.0600
 1210TIP3   OH2 3635   3.112   1.441   2.669 -0.1957  0.4192 -0.2337
 1210TIP3    H1 3636   3.072   1.356   2.685 -2.1552  1.4752  0.8787
 1210TIP3    H2 3637   3.184   1.423   2.608  0.3453 -2.1944  1.0528
 1211TIP3   OH2 3638   0.063   0.926   0.179  0.2432 -0.1716 -0.0354
 1211TIP3    H1 3639  -0.006   0.962   0.123  1.4049  2.7815  0.2216
 1211TIP3    H2 3640   0.071   0.989   0.250  1.4295 -1.8393  1.3899
 1212TIP3   OH2 3641   0.582   4.926   2.005  0.8835 -0.4997 -0.8853
 1212TIP3    H1 3642   0.639   4.936   2.080 -0.8106 -0.4074  0.4567
 1212TIP3    H2 3643   0.507   4.877   2.038 -1.5407  2.4493 -1.5363
 1213TIP3   OH2 3644   0.919   0.438   1.183 -1.1027 -0.0526 -0.4233
 1213TIP3    H1 3645   1.005   0.459   1.221 -1.1770 -0.9754  0.2708
 1213TIP3    H2 3646   0.930   0.457   1.090 -0.3772  0.5583 -0.2261
 1214TIP3   OH2 3647   3.593   0.660   4.969 -0.2722  0.6143 -0.2782
 1214TIP3    H1 3648   3.667   0.688   5.022  1.0640 -0.1067 -1.6922
 1214TIP3    H2 3649   3.628   0.654   4.880 -1.6406 -1.1948 -0.7418
 1215TIP3   OH2 3650   3.842   1.135   4.735  0.1640  0.7019 -0.0214
 1215TIP3    H1 3651   3.920   1.083   4.752  0.3811  0.7881 -0.7138
 1215TIP3    H2 3652   3.825   1.181   4.817  1.1709  1.1103 -0.0309
 1216TIP3   OH2 3653   0.778   2.344   1.447 -0.2814  0.1589  0.2320
 1216TIP3    H1 3654   0.808   2.400   1.375  2.5369  0.0306  1.1955
 1216TIP3    H2 3655   0.828   2.372   1.523 -1.2344 -1.4786  1.5491
 1217TIP3   OH2 3656   5.881   0.237   3.303  0.2851 -0.0927  0.0309
 1217TIP3    H1 3657   5.882   0.178   3.227 -2.0224  0.6044 -0.6256
 1217TIP3    H2 3658   5.959   0.291   3.292  1.5283 -1.8482 -0.2744
 1218TIP3   OH2 3659   1.289   0.928   4.504 -0.0987  0.2346  0.3631
 1218TIP3    H1 3660   1.275   1.005   4.560 -0.1341  0.8387 -0.4662
 1218TIP3    H2 3661   1.376   0.897   4.527  0.7696  1.7397 -0.7167
 1219TIP3   OH2 3662   4.366   2.045   2.109 -0.1084  0.2229  0.2159
 1219TIP3    H1 3663   4.453   2.083   2.114  0.0446 -0.0393 -0.4566
 1219TIP3    H2 3664   4.319   2.098   2.045 -0.8222  1.0854  1.3957
 1220TIP3   OH2 3665   2.634   2.349   4.465 -0.2305 -0.0070  0.1209
 1220TIP3    H1 3666   2.715   2.319   4.424 -1.4801 -1.1559 -1.6338
 1220TIP3    H2 3667   2.659   2.429   4.511  1.7174  0.1465 -1.0938
 1221TIP3   OH2 3668   5.601   0.100   4.373  0.1550  0.2201 -0.0756
 1221TIP3    H1 3669   5.659   0.042   4.325  0.2976  0.7714 -0.5872
 1221TIP3    H2 3670   5.572   0.164   4.308 -0.8704  0.0720  0.2219
 1222TIP3   OH2 3671   4.189   1.131   3.193 -0.7349 -0.6038 -0.5171
 1222TIP3    H1 3672   4.188   1.109   3.100  0.3886  1.9223 -1.2197
 1222TIP3    H2 3673   4.271   1.180   3.205 -0.9133 -0.7584  1.7855
 1223TIP3   OH2 3674   3.848   5.574   1.544 -0.4919 -0.4345  0.3128
 1223TIP3    H1 3675   3.834   5.491   1.499 -0.0528  0.2312 -1.1071
 1223TIP3    H2 3676   3.801   5.638   1.491  1.7709  0.7056 -0.4509
 1224TIP3   OH2 3677   1.643   5.580   3.721 -0.1732 -0.5702 -0.4444
 1224TIP3    H1 3678   1.701   5.509   3.747 -0.3014  0.0126  1.6793
 1224TIP3    H2 3679   1.608   5.613   3.804 -2.0042  0.3780 -1.5342
 1225TIP3   OH2 3680   1.871   1.196   2.512  0.3155  0.4482 -0.1076
 1225TIP3    H1 3681   1.804   1.261   2.494  0.2915  0.1436 -1.1809
 1225TIP3    H2 3682   1.859   1.174   2.604 -3.0231 -1.7554 -0.8671
 1226TIP3   OH2 3683   2.514   5.520   0.995  0.4342 -0.3076 -0.1208
 1226TIP3    H1 3684   2.418   5.517   1.000  0.3857  1.3410  1.1817
 1226TIP3    H2 3685   2.533   5.608   0.962  1.4923 -0.1928  0.7352
 1227TIP3   OH2 3686   5.584   1.760   0.180  0.4986  0.1876  0.0116
 1227TIP3    H1 3687   5.612   1.745   0.090  0.2570 -1.1492  0.1305
 1227TIP3    H2 3688   5.636   1.698   0.232 -1.6627 -1.4289  0.3851
 1228TIP3   OH2 3689   0.013   5.768   1.996 -0.1173  0.0998  0.0759
 1228TIP3    H1 3690   0.003   5.843   1.937  2.1936  0.5694  0.1866
 1228TIP3    H2 3691   0.098   5.731   1.972 -0.8371 -2.0162  0.5896
 1229TIP3   OH2 3692   2.194   5.836   0.687 -0.4866 -0.1882 -0.3932
 1229TIP3    H1 3693   2.104   5.854   0.662 -0.3405 -0.1231 -0.8838
 1229TIP3    H2 3694   2.240   5.919   0.673 -0.0929 -0.5500 -1.3603
 1230TIP3   OH2 3695   3.729   0.622   0.297 -0.8104  0.8424  0.5579
 1230TIP3    H1 3696   3.746   0.645   0.389 -0.4931  0.3251  0.6348
 1230TIP3    H2 3697   3.813   0.633   0.254 -1.2584  2.4073  0.0283
 1231TIP3   OH2 3698   4.671   1.447   2.722 -0.1649  0.5749 -0.0917
 1231TIP3    H1 3699   4.673   1.541   2.705  1.6452  0.4494 -0.7564
 1231TIP3    H2 3700   4.762   1.418   2.712 -0.8569 -1.4567 -1.1074
 1232TIP3   OH2 3701   3.786   5.818   4.051 -0.0165  0.0090  0.3300
 1232TIP3    H1 3702   3.877   5.809   4.023  0.4265 -0.0008  1.7132
 1232TIP3    H2 3703   3.735   5.783   3.977  1.1161 -0.6840 -0.1557
 1233TIP3   OH2 3704   1.957   3.138   4.126  0.0836  0.1983 -0.2004
 1233TIP3    H1 3705   2.024   3.180   4.072 -2.8371  2.3278 -2.5021
 1233TIP3    H2 3706   1.952   3.048   4.094  0.3695  0.6311 -1.4935
 1234TIP3   OH2 3707   2.464   1.206   1.642 -0.0119 -0.4386 -0.9985
 1234TIP3    H1 3708   2.383   1.256   1.655 -0.2165 -1.0476  0.1706
 1234TIP3    H2 3709   2.531   1.273   1.627 -0.6648  0.0853 -1.7146
 1235TIP3   OH2 3710   5.982   5.103   3.741  0.3445 -0.1695 -0.2776
 1235TIP3    H1 3711   6.065   5.075   3.778  0.8437  0.0159 -1.2130
 1235TIP3    H2 3712   6.003   5.128   3.651 -0.7485 -0.2525 -0.5734
 1236TIP3   OH2 3713   6.028   2.343   4.166 -0.4053  0.1207  0.0324
 1236TIP3    H1 3714   5.995   2.269   4.115 -0.6099  0.3442 -0.1669
 1236TIP3    H2 3715   6.105   2.310   4.211 -0.4695 -0.1991 -0.0938
 1237TIP3   OH2 3716   0.036   5.195   4.650  0.2126  0.1733  0.0801
 1237TIP3    H1 3717   0.117   5.143   4.658  0.3965  0.6132  1.1517
 1237TIP3    H2 3718   0.063   5.273   4.602  0.0236 -0.5074 -1.1717
 1238TIP3   OH2 3719   6.261   4.924   4.626  0.5291 -0.0215  0.0330
 1238TIP3    H1 3720   6.311   5.006   4.624  0.9417 -0.2754 -0.4534
 1238TIP3    H2 3721   6.328   4.856   4.617  0.1682 -0.4017  0.2160
 1239TIP3   OH2 3722   4.466   5.870   2.730 -0.4876 -0.5835 -0.3120
 1239TIP3    H1 3723   4.430   5.834   2.811 -0.2334 -1.4653 -0.5837
 1239TIP3    H2 3724   4.408   5.943   2.708 -1.4867 -1.3160 -0.1812
 1240TIP3   OH2 3725   0.415   5.628   5.045 -0.1599 -0.1183 -0.7638
 1240TIP3    H1 3726   0.397   5.653   4.955 -0.8800 -1.3157 -0.9734
 1240TIP3    H2 3727   0.356   5.681   5.097  0.0164  0.3300 -1.0132
 1241TIP3   OH2 3728   2.236   4.464   4.259  0.2310  0.6129 -0.1922
 1241TIP3    H1 3729   2.246   4.393   4.322  0.7626  1.5314  0.7800
 1241TIP3    H2 3730   2.307   4.525   4.280 -0.7961  1.9059 -0.3714
 1242TIP3   OH2 3731   6.292   2.121   0.419  0.4911  0.3798 -0.3503
 1242TIP3    H1 3732   6.252   2.116   0.506  1.6723 -0.0032  0.1981
 1242TIP3    H2 3733   6.354   2.194   0.425  1.9435 -0.8154 -0.2478
 1243TIP3   OH2 3734   2.237   4.185   1.013  0.9549  0.3591 -0.0639
 1243TIP3    H1 3735   2.280   4.243   0.950  0.1924  0.9170 -0.0847
 1243TIP3    H2 3736   2.273   4.212   1.098  0.7212  0.7598 -0.0901
 1244TIP3   OH2 3737   0.752   2.828   2.952 -0.0956  0.1301 -1.0466
 1244TIP3    H1 3738   0.710   2.757   2.903  1.0273  1.4274 -4.1568
 1244TIP3    H2 3739   0.836   2.791   2.980 -1.9978 -1.7060  3.1659
 1245TIP3   OH2 3740   4.860   4.419   1.094 -0.2318 -0.2027 -0.0518
 1245TIP3    H1 3741   4.775   4.421   1.050 -0.5869  0.6992  0.6531
 1245TIP3    H2 3742   4.844   4.374   1.177 -0.5008  1.7631  1.0068
 1246TIP3   OH2 3743   0.390   3.226   3.485  0.4372  0.5091 -0.4111
 1246TIP3    H1 3744   0.327   3.245   3.417 -0.3268  1.3038  0.4848
 1246TIP3    H2 3745   0.388   3.131   3.495  1.2856  0.2698 -2.1376
 1247TIP3   OH2 3746   2.419   1.087   0.994 -0.0431  0.0637 -0.2752
 1247TIP3    H1 3747   2.403   1.127   0.908  2.5944  1.1527 -0.3677
 1247TIP3    H2 3748   2.465   1.005   0.974  2.8505  1.4661 -0.0220
 1248TIP3   OH2 3749   2.475   4.865   5.083  0.2310  0.5374  0.1529
 1248TIP3    H1 3750   2.419   4.943   5.078  0.4367  0.6876  0.1738
 1248TIP3    H2 3751   2.513   4.856   4.996  1.1956  1.2034  0.4841
 1249TIP3   OH2 3752   1.816   0.325   3.512 -0.4151  0.3466  0.4788
 1249TIP3    H1 3753   1.801   0.377   3.591 -1.6751  1.1563 -0.2503
 1249TIP3    H2 3754   1.878   0.376   3.461  0.7717 -0.4089  1.1354
 1250TIP3   OH2 3755   0.178   4.902   0.318  0.1239  0.0353 -0.3936
 1250TIP3    H1 3756   0.223   4.869   0.396 -0.7446  0.0688  0.1336
 1250TIP3    H2 3757   0.247   4.941   0.265  1.3168 -3.0473 -1.3072
 1251TIP3   OH2 3758   4.415   3.562   2.875 -0.3994 -0.3203 -0.1986
 1251TIP3    H1 3759   4.345   3.511   2.835 -1.2184 -0.6582  1.5454
 1251TIP3    H2 3760   4.487   3.501   2.887  0.7436  0.2940 -3.0668
 1252TIP3   OH2 3761   4.744   4.256   0.681 -0.6292  0.2632  0.2103
 1252TIP3    H1 3762   4.684   4.225   0.613 -1.8104  0.5619  1.0648
 1252TIP3    H2 3763   4.727   4.350   0.686  0.3159  0.4480  0.1066
 1253TIP3   OH2 3764   1.581   2.894   2.113  0.7136 -0.0059  0.3168
 1253TIP3    H1 3765   1.559   2.896   2.020  2.2160 -1.1021 -0.1066
 1253TIP3    H2 3766   1.511   2.943   2.155 -0.8329 -0.7926 -1.2197
 1254TIP3   OH2 3767   3.745  -0.004   2.111  0.1613  0.2775  0.5550
 1254TIP3    H1 3768   3.774   0.078   2.071  1.2432 -0.0614  0.6085
 1254TIP3    H2 3769   3.704  -0.053   2.039  0.1875  0.5527  0.3527
 1255TIP3   OH2 3770   4.710   0.866   1.628 -0.1396  0.3166  0.0466
 1255TIP3    H1 3771   4.740   0.884   1.539 -2.5539  0.0865 -0.8814
 1255TIP3    H2 3772   4.697   0.771   1.630  3.1091 -0.2285  1.7992
 1256TIP3   OH2 3773   3.758   5.682   2.317 -0.4288  0.2969  0.3207
 1256TIP3    H1 3774   3.839   5.731   2.304 -0.3016  0.0683  0.2504
 1256TIP3    H2 3775   3.777   5.621   2.388 -0.3117 -0.2467 -0.1650
 1257TIP3   OH2 3776   5.885   1.544   2.500  0.1512  0.0561 -0.5215
 1257TIP3    H1 3777   5.792   1.565   2.496 -0.3414 -1.9982 -1.1456
 1257TIP3    H2 3778   5.910   1.563   2.590 -0.9526  0.3575 -0.2614
 1258TIP3   OH2 3779   2.906   5.812   0.003  0.7919  0.9278  0.6933
 1258TIP3    H1 3780   2.973   5.845   0.063  0.1555  0.0464  1.9566
 1258TIP3    H2 3781   2.867   5.737   0.050 -0.6992  1.0810 -0.2253
 1259TIP3   OH2 3782   2.472   1.867   1.203 -0.4591 -0.9092 -0.5186
 1259TIP3    H1 3783   2.502   1.794   1.149 -0.8875 -1.1759 -0.4055
 1259TIP3    H2 3784   2.506   1.945   1.159  1.0493 -1.2206  0.0360
 1260TIP3   OH2 3785   4.476   1.818   3.989  0.2790 -0.3618 -0.0989
 1260TIP3    H1 3786   4.500   1.750   3.927 -1.9515 -0.1799 -1.2588
 1260TIP3    H2 3787   4.435   1.771   4.062 -2.4197 -0.3147 -1.4604
 1261TIP3   OH2 3788   0.565   3.450   3.020 -0.8856 -0.4124  0.3861
 1261TIP3    H1 3789   0.531   3.457   2.931  2.0543 -1.8507 -0.9943
 1261TIP3    H2 3790   0.575   3.541   3.048  2.5191  0.4297 -2.7289
 1262TIP3   OH2 3791   4.987   5.104   0.446  0.2752  0.0661 -0.0040
 1262TIP3    H1 3792   5.067   5.084   0.398  0.8520  1.4094  0.3528
 1262TIP3    H2 3793   4.980   5.033   0.510  1.2187 -0.0414  0.0025
 1263TIP3   OH2 3794   5.184   4.103   2.041  0.1691 -0.8390  0.2669
 1263TIP3    H1 3795   5.195   4.060   2.126  0.3903 -1.2360  0.0419
 1263TIP3    H2 3796   5.255   4.068   1.988 -0.2221 -0.9109 -0.2086
 1264TIP3   OH2 3797   2.520   1.243   3.749 -0.4252 -0.5385 -0.0947
 1264TIP3    H1 3798   2.431   1.261   3.778 -0.1871  0.1849  0.2040
 1264TIP3    H2 3799   2.519   1.256   3.655 -0.7690 -1.0973 -0.1708
 1265TIP3   OH2 3800   3.798   5.072   4.461 -0.4921 -0.5479  0.1589
 1265TIP3    H1 3801   3.866   5.009   4.437  0.3195  0.3558  0.0218
 1265TIP3    H2 3802   3.718   5.020   4.467  0.3813 -1.8321  1.3378
 1266TIP3   OH2 3803   4.946   5.145   1.680  0.1008 -0.3875 -0.0154
 1266TIP3    H1 3804   4.992   5.069   1.644 -0.4963 -1.1952  0.8855
 1266TIP3    H2 3805   4.901   5.112   1.757 -0.4931  0.8035  0.1760
 1267TIP3   OH2 3806   5.049   4.394   0.035  0.4503  1.0065  0.6276
 1267TIP3    H1 3807   4.980   4.331   0.058 -0.4691  1.7113 -0.1107
 1267TIP3    H2 3808   5.102   4.350  -0.031  0.2736  0.7193  0.6780
 1268TIP3   OH2 3809   5.031   2.591   0.755  0.6110  0.6496 -0.1406
 1268TIP3    H1 3810   5.081   2.537   0.816  1.7819  0.7698 -0.9593
 1268TIP3    H2 3811   5.044   2.549   0.670 -1.4179  0.1855 -0.2881
 1269TIP3   OH2 3812   1.876   5.169   2.126  0.4743 -0.1248  0.6547
 1269TIP3    H1 3813   1.870   5.246   2.183  1.4257  0.4096  0.0462
 1269TIP3    H2 3814   1.805   5.180   2.064  0.7072  0.3609  0.4652
 1270TIP3   OH2 3815   5.944   1.254   3.464 -0.3983  0.0592 -0.5636
 1270TIP3    H1 3816   5.942   1.343   3.428 -2.2203  0.0526 -0.6093
 1270TIP3    H2 3817   6.033   1.242   3.495 -0.7579  3.0499  2.2312
 1271TIP3   OH2 3818   5.379   0.002   4.125 -0.6420  0.1197  0.9404
 1271TIP3    H1 3819   5.317   0.036   4.061  0.8005 -0.0003 -0.5863
 1271TIP3    H2 3820   5.424   0.080   4.159  0.5808  0.0121 -0.3507
 1272TIP3   OH2 3821   5.312   5.454   1.323  0.1246 -0.3493  0.2157
 1272TIP3    H1 3822   5.307   5.404   1.241 -0.3655 -1.9147  1.1483
 1272TIP3    H2 3823   5.359   5.397   1.383  2.0460  1.4982  0.5718
 1273TIP3   OH2 3824   1.103   1.715   0.946  0.0963  0.2738  0.2396
 1273TIP3    H1 3825   1.071   1.805   0.936 -0.0391  0.2234  0.2248
 1273TIP3    H2 3826   1.127   1.709   1.038  0.1185  0.3295  0.2378
 1274TIP3   OH2 3827   5.920   1.701   0.805  0.0417 -0.0350  0.2686
 1274TIP3    H1 3828   5.984   1.644   0.761 -1.1694 -1.2678  0.0588
 1274TIP3    H2 3829   5.951   1.707   0.895 -0.2817 -1.7596  0.5134
 1275TIP3   OH2 3830   2.919   4.552   0.277  0.6946 -0.3698  0.3606
 1275TIP3    H1 3831   2.995   4.605   0.253 -0.3878  1.8759  1.5216
 1275TIP3    H2 3832   2.932   4.534   0.370 -0.0368 -0.1944  0.5018
 1276TIP3   OH2 3833   3.987   3.333   3.583  0.8767 -0.0603  0.0800
 1276TIP3    H1 3834   4.050   3.278   3.630 -0.8062 -1.5151  0.7532
 1276TIP3    H2 3835   3.904   3.286   3.591  0.2422  0.2520 -3.3166
 1277TIP3   OH2 3836   5.994   5.732   1.847 -0.0398 -0.9397 -0.2152
 1277TIP3    H1 3837   6.051   5.792   1.799  0.6318 -2.4225 -1.3436
 1277TIP3    H2 3838   5.925   5.789   1.884  0.3994  0.4711 -1.4638
 1278TIP3   OH2 3839   5.410   3.393   3.585 -0.1316  0.1199  0.0660
 1278TIP3    H1 3840   5.338   3.452   3.609 -0.6382 -0.9545  1.3038
 1278TIP3    H2 3841   5.488   3.434   3.625 -0.5110 -0.1327  1.0887
 1279TIP3   OH2 3842   0.778   3.666   5.006  0.1148  0.1636  0.1659
 1279TIP3    H1 3843   0.788   3.577   4.972  0.2189  0.3357 -0.2639
 1279TIP3    H2 3844   0.843   3.672   5.076  0.2084 -0.0505  0.0990
 1280TIP3   OH2 3845   2.359   2.212   4.903  0.4121  0.0730  1.1536
 1280TIP3    H1 3846   2.445   2.175   4.921 -0.2934 -1.2422  2.0230
 1280TIP3    H2 3847   2.360   2.230   4.809  1.1181 -1.3674  0.8504
 1281TIP3   OH2 3848   1.481   1.874   3.857  0.0335  0.5109 -0.0909
 1281TIP3    H1 3849   1.567   1.882   3.816 -0.0022  0.5497 -0.1589
 1281TIP3    H2 3850   1.467   1.780   3.866  0.2037  0.5114  0.1744
 1282TIP3   OH2 3851   4.628   0.581   3.107  0.0142  0.7142 -0.1670
 1282TIP3    H1 3852   4.657   0.668   3.135  0.4831 -0.0910  2.0321
 1282TIP3    H2 3853   4.670   0.521   3.169 -0.7128 -1.0440 -1.3216
 1283TIP3   OH2 3854   5.876   3.876   0.463 -0.0713 -0.3383 -0.4858
 1283TIP3    H1 3855   5.912   3.949   0.512 -0.0782 -0.4222 -0.3550
 1283TIP3    H2 3856   5.886   3.901   0.371 -0.5628  0.0589 -0.4333
 1284TIP3   OH2 3857   5.177   4.783   4.717  0.2503 -0.0996  0.2652
 1284TIP3    H1 3858   5.087   4.750   4.717 -0.1105  0.8274 -0.1374
 1284TIP3    H2 3859   5.210   4.763   4.630  1.1090 -2.1107  0.9971
 1285TIP3   OH2 3860   2.242   0.554   1.986  0.5716 -0.1841 -0.1447
 1285TIP3    H1 3861   2.189   0.512   1.919  0.2336 -0.1641  0.1050
 1285TIP3    H2 3862   2.331   0.525   1.968  0.2896 -1.4069  0.3115
 1286TIP3   OH2 3863   2.681   3.340   4.432 -0.0758  0.1721  0.7849
 1286TIP3    H1 3864   2.598   3.296   4.418 -0.1383  0.1227  1.2929
 1286TIP3    H2 3865   2.684   3.408   4.364 -1.8530  2.0866  2.4818
 1287TIP3   OH2 3866   3.485   5.722   2.141 -0.4979 -0.3104 -0.4121
 1287TIP3    H1 3867   3.467   5.815   2.130  1.5881  0.5734  2.5368
 1287TIP3    H2 3868   3.440   5.680   2.067 -0.5079  3.1005 -2.5547
 1288TIP3   OH2 3869   1.259   4.001   0.310  0.0153  0.0053  0.2025
 1288TIP3    H1 3870   1.216   4.041   0.234 -1.4782 -0.8817  0.5210
 1288TIP3    H2 3871   1.210   4.033   0.385  2.1190  1.6892  0.9588
 1289TIP3   OH2 3872   1.507   3.221   3.734  0.1167  0.2701  0.2959
 1289TIP3    H1 3873   1.475   3.311   3.729  1.8680  0.9054 -0.1898
 1289TIP3    H2 3874   1.595   3.229   3.770  0.7707 -1.1331 -0.8928
 1290TIP3   OH2 3875   5.206   5.034   0.938 -0.7822  0.5801  0.1290
 1290TIP3    H1 3876   5.141   5.070   0.999  0.2398  0.6543  1.2252
 1290TIP3    H2 3877   5.239   5.110   0.891 -0.5393  0.7369  0.5400
 1291TIP3   OH2 3878   5.640   1.987   0.347  0.1963 -0.1031  0.9041
 1291TIP3    H1 3879   5.671   1.946   0.428  2.1303  0.1377  0.3540
 1291TIP3    H2 3880   5.616   1.913   0.291 -1.6500 -0.2553  1.8462
 1292TIP3   OH2 3881   4.079   1.730   4.515  0.6440  0.1810  0.1938
 1292TIP3    H1 3882   4.108   1.811   4.472  0.2151  1.1314  1.6221
 1292TIP3    H2 3883   4.082   1.750   4.609  1.7345 -1.8939  0.6442
 1293TIP3   OH2 3884   2.343   5.892   3.228 -0.0578  0.5061  0.3507
 1293TIP3    H1 3885   2.412   5.921   3.169  0.3587 -0.8816  0.1161
 1293TIP3    H2 3886   2.288   5.835   3.174 -0.6173  0.5392  0.8787
 1294TIP3   OH2 3887   5.032   5.485   4.503 -0.0263  0.5937  0.1523
 1294TIP3    H1 3888   4.960   5.498   4.564  0.3247 -0.2655  0.7669
 1294TIP3    H2 3889   5.101   5.445   4.556  1.1841  2.0944 -0.2484
 1295TIP3   OH2 3890   0.997   4.442   3.587 -0.0746  0.3368 -0.3184
 1295TIP3    H1 3891   0.973   4.363   3.636 -0.6840 -0.0834 -1.2637
 1295TIP3    H2 3892   0.922   4.500   3.597 -0.3177  0.1437 -0.9494
 1296TIP3   OH2 3893   5.998   1.328   2.341  0.2510  0.3481 -0.3249
 1296TIP3    H1 3894   5.957   1.408   2.374  0.7544  0.3475  0.3152
 1296TIP3    H2 3895   5.935   1.294   2.277 -0.4575  0.6752  0.1821
 1297TIP3   OH2 3896   3.822   1.332   0.357  0.1904  0.1383  0.4369
 1297TIP3    H1 3897   3.793   1.397   0.292  0.6145 -1.0359 -0.9775
 1297TIP3    H2 3898   3.882   1.380   0.414 -0.2819  1.2314  0.0437
 1298TIP3   OH2 3899   0.624   4.261   1.180  0.6237 -0.4619  0.3297
 1298TIP3    H1 3900   0.639   4.275   1.086  0.4509 -0.3633  0.3180
 1298TIP3    H2 3901   0.678   4.185   1.201 -1.7568 -2.5191 -0.5351
 1299TIP3   OH2 3902   6.094   4.774   2.932 -0.2245  0.2741  0.2352
 1299TIP3    H1 3903   6.189   4.763   2.934 -0.0975  0.3552 -2.1247
 1299TIP3    H2 3904   6.081   4.865   2.905 -0.8437 -0.6014 -2.7951
 1300TIP3   OH2 3905   2.976   0.965   1.434  0.1135 -0.4309 -0.3317
 1300TIP3    H1 3906   2.909   1.034   1.436  1.0418  0.4850  0.0604
 1300TIP3    H2 3907   3.050   1.005   1.389  0.7025 -1.1480 -0.0171
 1301TIP3   OH2 3908   4.270   4.671   1.524  0.7057  0.2121  0.2711
 1301TIP3    H1 3909   4.270   4.650   1.618  1.2628 -0.0973  0.2065
 1301TIP3    H2 3910   4.361   4.694   1.505  1.1047 -1.8923 -0.6572
 1302TIP3   OH2 3911   6.312   2.705   5.003 -0.7105  0.3220 -0.3319
 1302TIP3    H1 3912   6.261   2.628   5.028  1.9052 -1.4796 -0.1294
 1302TIP3    H2 3913   6.317   2.758   5.083  1.0084 -1.4928  0.8562
 1303TIP3   OH2 3914   1.459   5.897   3.249 -0.8620  0.1534 -0.0691
 1303TIP3    H1 3915   1.436   5.805   3.257 -1.6086  0.3908  0.5617
 1303TIP3    H2 3916   1.460   5.930   3.338 -1.1155  0.8827 -0.3301
 1304TIP3   OH2 3917   1.796   4.732   3.568 -0.0271  0.4548  0.3531
 1304TIP3    H1 3918   1.881   4.710   3.606  0.2432  0.4078 -0.2653
 1304TIP3    H2 3919   1.741   4.656   3.585  0.7576 -0.5278 -1.3468
 1305TIP3   OH2 3920   3.164   0.679   1.474 -0.0397  0.0349 -0.3105
 1305TIP3    H1 3921   3.150   0.709   1.564 -0.2884  1.6900 -0.8568
 1305TIP3    H2 3922   3.076   0.670   1.438 -0.0339 -2.4488  0.1069
 1306TIP3   OH2 3923   1.768   4.514   5.212 -0.2761  0.7726 -0.2620
 1306TIP3    H1 3924   1.708   4.466   5.157 -0.7330  1.1748 -0.1216
 1306TIP3    H2 3925   1.836   4.546   5.152  0.8027 -1.1867 -0.1622
 1307TIP3   OH2 3926   3.639   4.074   1.772  0.1558 -0.1283 -0.2293
 1307TIP3    H1 3927   3.659   4.152   1.720  0.7502 -0.0243  0.1463
 1307TIP3    H2 3928   3.655   4.001   1.712  0.9782 -0.0169 -0.1600
 1308TIP3   OH2 3929   0.505   5.832   4.178 -0.3562  0.4391  0.4134
 1308TIP3    H1 3930   0.411   5.834   4.197 -0.4366  0.3963  0.0410
 1308TIP3    H2 3931   0.539   5.911   4.220 -0.5194  0.3369  0.7432
 1309TIP3   OH2 3932   1.588   0.059   3.662  0.4471  0.0965 -0.5298
 1309TIP3    H1 3933   1.672   0.069   3.705  0.3960  0.8005 -0.5793
 1309TIP3    H2 3934   1.568   0.146   3.628 -1.1405  0.4059  1.0352
 1310TIP3   OH2 3935   0.925   1.470   0.927  0.2090  0.4843 -0.2085
 1310TIP3    H1 3936   0.966   1.530   0.864 -1.3131  1.6116 -0.2061
 1310TIP3    H2 3937   0.909   1.524   1.004  0.3860 -0.3998  0.4551
 1311TIP3   OH2 3938   5.112   5.058   4.709  0.0386  0.2387 -0.2264
 1311TIP3    H1 3939   5.191   5.108   4.730  0.7995  0.2437 -2.8284
 1311TIP3    H2 3940   5.134   4.968   4.730  0.3431  0.3684  0.0236
 1312TIP3   OH2 3941   5.480   0.566   2.967 -0.1150  0.0850  0.5577
 1312TIP3    H1 3942   5.474   0.471   2.983  0.3989 -0.2723 -1.1622
 1312TIP3    H2 3943   5.489   0.574   2.872  2.3275  1.7171  0.8318
 1313TIP3   OH2 3944   5.397   5.725   3.803 -0.0503  0.0421  0.0271
 1313TIP3    H1 3945   5.387   5.657   3.869 -1.8231 -0.7220 -0.9329
 1313TIP3    H2 3946   5.464   5.783   3.837 -0.6795 -0.4888  2.3394
 1314TIP3   OH2 3947   0.400   0.292   0.260  0.2333 -0.4472 -0.5687
 1314TIP3    H1 3948   0.337   0.244   0.205 -0.6414  1.2496 -1.1345
 1314TIP3    H2 3949   0.382   0.384   0.242  1.2248  0.1376  1.1590
 1315TIP3   OH2 3950   2.288   1.378   3.863 -0.3652  0.2985  0.3685
 1315TIP3    H1 3951   2.201   1.342   3.846 -0.7193  1.0612  0.5198
 1315TIP3    H2 3952   2.299   1.371   3.958  0.1976 -0.8018  0.2353
 1316TIP3   OH2 3953   0.207   3.855   1.567  0.0444  0.2255  0.9090
 1316TIP3    H1 3954   0.266   3.781   1.582  0.6271  0.9532  2.4854
 1316TIP3    H2 3955   0.125   3.829   1.611 -1.3943 -1.3307 -2.3450
 1317TIP3   OH2 3956   2.827   2.307   0.753 -0.3196  0.2410 -0.7613
 1317TIP3    H1 3957   2.867   2.390   0.781  1.5952 -0.2728 -1.8054
 1317TIP3    H2 3958   2.793   2.269   0.834  0.2784  1.2555  0.0039
 1318TIP3   OH2 3959   0.108   2.389   3.385  0.6653 -0.3918  0.3614
 1318TIP3    H1 3960   0.187   2.399   3.437 -0.7023 -0.1342  2.4916
 1318TIP3    H2 3961   0.084   2.478   3.360  0.4461 -0.3712  0.6480
 1319TIP3   OH2 3962   0.190   3.254   0.470  0.3820 -0.3157 -0.1331
 1319TIP3    H1 3963   0.268   3.271   0.419 -0.0307  2.0532 -0.0746
 1319TIP3    H2 3964   0.132   3.207   0.410  0.5966  0.8320 -1.2766
 1320TIP3   OH2 3965   4.314   4.857   4.417 -0.0412 -0.0745 -0.4381
 1320TIP3    H1 3966   4.297   4.947   4.448 -1.0967 -0.3345 -0.2120
 1320TIP3    H2 3967   4.409   4.848   4.421  0.0096  0.6541  0.6503
 1321TIP3   OH2 3968   1.238   1.149   0.773  0.2181  0.1120 -0.1807
 1321TIP3    H1 3969   1.199   1.069   0.738  0.4718 -0.5784  1.0612
 1321TIP3    H2 3970   1.332   1.132   0.770  0.2278 -0.8283  2.6538
 1322TIP3   OH2 3971   1.963   1.298   1.355  0.2632  0.1931  0.2872
 1322TIP3    H1 3972   1.950   1.276   1.263 -0.4806 -0.7653  0.6061
 1322TIP3    H2 3973   1.908   1.236   1.402  1.6374 -0.1941  1.4446
 1323TIP3   OH2 3974   2.361   2.427   2.703 -0.0601  0.3086 -0.4987
 1323TIP3    H1 3975   2.424   2.355   2.707 -1.0908 -0.8247 -2.7672
 1323TIP3    H2 3976   2.286   2.397   2.754  0.1768  0.5448  0.0006
 1324TIP3   OH2 3977   2.625   1.013   2.919 -0.3351  0.2479  0.7444
 1324TIP3    H1 3978   2.571   1.047   2.991 -0.2027 -0.1830  1.0512
 1324TIP3    H2 3979   2.658   1.091   2.875 -1.0203  0.5195  0.6953
 1325TIP3   OH2 3980   2.232   0.315   0.031 -0.1449  0.1285 -0.4135
 1325TIP3    H1 3981   2.294   0.339   0.100 -1.1726  0.6179  0.3744
 1325TIP3    H2 3982   2.283   0.320  -0.050  1.0431 -0.2817  0.2753
 1326TIP3   OH2 3983   1.200   3.780   4.797 -0.1024 -0.9911 -0.1932
 1326TIP3    H1 3984   1.269   3.719   4.771  1.0378  0.2610 -0.1580
 1326TIP3    H2 3985   1.175   3.824   4.716  0.9808  0.3999  0.1959
 1327TIP3   OH2 3986   3.303   2.899   2.421  0.9203 -0.4722 -0.5132
 1327TIP3    H1 3987   3.257   2.819   2.448 -1.7479  0.7757 -0.9777
 1327TIP3    H2 3988   3.324   2.884   2.329 -1.1497 -0.0811 -1.1146
 1328TIP3   OH2 3989   2.994   0.620   0.833 -0.0520 -0.0439 -0.1565
 1328TIP3    H1 3990   3.001   0.536   0.788  1.9309 -0.1844  0.3034
 1328TIP3    H2 3991   3.041   0.681   0.776 -2.3240  1.0237 -0.9936
 1329TIP3   OH2 3992   4.094   2.466   2.153 -0.0973  0.3807  0.0174
 1329TIP3    H1 3993   4.073   2.558   2.135  1.8134  0.7170 -0.6519
 1329TIP3    H2 3994   4.077   2.421   2.070  0.3784  0.3931 -0.0877
 1330TIP3   OH2 3995   2.285   2.476   2.334 -0.4074 -0.1665  0.2763
 1330TIP3    H1 3996   2.210   2.509   2.285 -0.8476 -0.1303  0.9516
 1330TIP3    H2 3997   2.305   2.392   2.294 -0.9580 -0.2794  0.2277
 1331TIP3   OH2 3998   5.660   0.471   5.109 -0.3017  0.0918  0.4335
 1331TIP3    H1 3999   5.686   0.421   5.187 -1.6434  0.3615  1.0924
 1331TIP3    H2 4000   5.605   0.541   5.144 -1.9102 -0.4818 -0.8425
 1332TIP3   OH2 4001   3.804   1.234   3.107  0.5047 -0.2614 -0.0564
 1332TIP3    H1 4002   3.845   1.309   3.064 -1.2566  1.1912  0.6445
 1332TIP3    H2 4003   3.797   1.168   3.038  0.7982  0.7643 -1.0980
 1333TIP3   OH2 4004   6.319   1.344   1.844 -0.6016  0.5922 -0.3710
 1333TIP3    H1 4005   6.304   1.327   1.751  0.8763  0.1188 -0.5442
 1333TIP3    H2 4006   6.239   1.315   1.887 -0.2125 -1.8943 -1.1988
 1334TIP3   OH2 4007   1.843   0.348   0.029  0.2981  0.1894 -0.4146
 1334TIP3    H1 4008   1.758   0.392   0.037  0.2967  0.2470 -0.7492
 1334TIP3    H2 4009   1.823   0.266  -0.016  0.4567  0.3091 -0.7030
 1335TIP3   OH2 4010   4.951   0.765   2.619  0.2128 -0.2326  0.8430
 1335TIP3    H1 4011   4.879   0.722   2.664  0.0414 -1.1461 -0.2787
 1335TIP3    H2 4012   4.979   0.703   2.552  1.3195  0.5632  0.5316
 1336TIP3   OH2 4013   1.800   4.700   4.474  0.4724  0.6902 -0.4295
 1336TIP3    H1 4014   1.721   4.677   4.522  1.0881 -1.9593 -0.5070
 1336TIP3    H2 4015   1.768   4.733   4.389 -0.5394  2.5533  0.6151
 1337TIP3   OH2 4016   0.932   1.754   2.005 -0.6448  0.1398  0.1566
 1337TIP3    H1 4017   0.886   1.806   2.071 -0.3741 -1.2859  1.5170
 1337TIP3    H2 4018   0.882   1.673   1.998 -1.5289  0.7922 -2.5308
 1338TIP3   OH2 4019   5.120   2.778   0.316  0.1603  0.2695  0.2578
 1338TIP3    H1 4020   5.158   2.729   0.389  0.2579  0.2303  0.1815
 1338TIP3    H2 4021   5.081   2.855   0.357 -2.0408 -0.9911  0.6857
 1339TIP3   OH2 4022   0.646   1.489   0.806  0.2405 -0.9689 -0.0687
 1339TIP3    H1 4023   0.645   1.445   0.891  1.0106 -3.7247 -1.3586
 1339TIP3    H2 4024   0.735   1.521   0.796 -0.5073  1.7276  1.1865
 1340TIP3   OH2 4025   1.112   5.470   1.655 -0.0032 -0.5385 -0.0278
 1340TIP3    H1 4026   1.164   5.455   1.734 -0.4400 -0.4303  0.2806
 1340TIP3    H2 4027   1.027   5.501   1.686  0.0598  0.2012 -0.5710
 1341TIP3   OH2 4028   2.403   3.427   2.400 -0.2194  0.4442 -0.0689
 1341TIP3    H1 4029   2.489   3.416   2.439  0.2218 -0.3143 -1.2286
 1341TIP3    H2 4030   2.348   3.363   2.445 -0.5075  1.7499  1.5327
 1342TIP3   OH2 4031   2.831   4.259   0.949 -0.4123  0.1181 -0.1830
 1342TIP3    H1 4032   2.849   4.330   0.888 -0.9226 -0.0758 -0.5680
 1342TIP3    H2 4033   2.912   4.249   0.999  0.3400 -0.3108 -1.4399
 1343TIP3   OH2 4034   0.649   4.708   4.660 -0.3118 -0.1832  0.5688
 1343TIP3    H1 4035   0.732   4.736   4.700 -0.4626  0.4032  0.4806
 1343TIP3    H2 4036   0.587   4.705   4.734 -1.2289  3.2933  0.1276
 1344TIP3   OH2 4037   1.059   3.382   2.916  0.1853 -0.3806  0.2308
 1344TIP3    H1 4038   0.998   3.413   2.850  0.6929  1.6449  0.6221
 1344TIP3    H2 4039   1.041   3.289   2.924  1.0030 -1.0294 -3.6774
 1345TIP3   OH2 4040   3.726   1.802   3.598 -0.3359  0.4513 -0.1355
 1345TIP3    H1 4041   3.745   1.795   3.505  1.2610  0.5702  0.1638
 1345TIP3    H2 4042   3.636   1.835   3.602 -0.9091 -0.8448 -1.6067
 1346TIP3   OH2 4043   0.121   3.141   3.062  0.4572 -0.2293 -0.0516
 1346TIP3    H1 4044   0.176   3.183   2.995 -1.8711  1.0001 -1.3408
 1346TIP3    H2 4045   0.153   3.176   3.145  1.1247  1.0579 -0.8245
 1347TIP3   OH2 4046   6.066   1.990   0.906 -0.0248  0.1703 -0.1310
 1347TIP3    H1 4047   6.046   2.054   0.975  1.7663 -0.3890  0.9809
 1347TIP3    H2 4048   6.050   1.905   0.947  0.2463 -0.1561 -0.6885
 1348TIP3   OH2 4049   2.587   1.475   4.716  0.2814  0.2649 -0.4890
 1348TIP3    H1 4050   2.578   1.410   4.646  3.3720  1.2645 -2.0153
 1348TIP3    H2 4051   2.564   1.427   4.796 -1.1697 -1.5766 -1.9076
 1349TIP3   OH2 4052   3.299   5.963   0.465  0.0408  0.3489  0.3407
 1349TIP3    H1 4053   3.306   5.873   0.433  0.2986 -0.2430  1.9930
 1349TIP3    H2 4054   3.216   5.965   0.512 -0.5897  1.3566 -0.7610
 1350TIP3   OH2 4055   1.561   0.291   4.881  0.2477  0.2991 -0.0280
 1350TIP3    H1 4056   1.490   0.353   4.870 -1.9378 -2.0766 -0.1751
 1350TIP3    H2 4057   1.534   0.213   4.832  2.3859 -1.1590  0.9015
 1351TIP3   OH2 4058   1.882   4.847   1.853 -0.1346 -0.0193  0.3948
 1351TIP3    H1 4059   1.836   4.794   1.787  0.0040 -1.6814  1.5520
 1351TIP3    H2 4060   1.975   4.833   1.834 -0.0714  1.2188 -0.3233
 1352TIP3   OH2 4061   5.282   0.471   1.202 -0.4232  0.0232 -0.1294
 1352TIP3    H1 4062   5.357   0.524   1.175 -1.6748  0.5229 -3.0844
 1352TIP3    H2 4063   5.245   0.518   1.277  1.7009  0.1477  0.9291
 1353TIP3   OH2 4064   2.678   3.184   0.359 -0.3852  0.0019  0.1172
 1353TIP3    H1 4065   2.752   3.245   0.369 -1.5288  1.5575 -0.5456
 1353TIP3    H2 4066   2.601   3.237   0.379 -1.3121 -1.8297  1.7677
 1354TIP3   OH2 4067   5.139   5.734   0.530  0.5272 -0.0486  0.7895
 1354TIP3    H1 4068   5.171   5.670   0.593  2.5614  1.0456  0.9383
 1354TIP3    H2 4069   5.177   5.817   0.558  0.3110  0.7203 -1.0407
 1355TIP3   OH2 4070   1.383   3.651   3.208 -0.1552 -0.5843  0.4921
 1355TIP3    H1 4071   1.362   3.617   3.121 -0.4846  0.1413  0.2809
 1355TIP3    H2 4072   1.299   3.682   3.243  0.0437 -0.4966  0.8991
 1356TIP3   OH2 4073   2.979   0.096   0.455 -0.0075  0.3087  0.3034
 1356TIP3    H1 4074   2.888   0.124   0.471 -0.2015 -0.0876 -0.0661
 1356TIP3    H2 4075   3.008   0.152   0.383 -0.6409 -0.8901 -0.9293
 1357TIP3   OH2 4076   0.275   2.877   1.722  0.6143  0.3198  0.3332
 1357TIP3    H1 4077   0.355   2.914   1.685  0.6774 -0.0847  0.0596
 1357TIP3    H2 4078   0.269   2.914   1.810  0.3023  1.5374 -0.1762
 1358TIP3   OH2 4079   5.154   0.244   2.601 -0.0488 -0.0729  0.3858
 1358TIP3    H1 4080   5.196   0.320   2.560  0.1654 -0.0348  0.6758
 1358TIP3    H2 4081   5.064   0.247   2.570 -0.0657  0.3497  0.4660
 1359TIP3   OH2 4082   4.234   3.926   3.346 -0.1117 -0.1827  0.1136
 1359TIP3    H1 4083   4.251   3.833   3.362  3.0469  0.1346 -0.7918
 1359TIP3    H2 4084   4.317   3.969   3.363 -0.8635  2.2031 -1.6622
 1360TIP3   OH2 4085   2.062   3.057   3.009  0.0372  0.4753 -0.8308
 1360TIP3    H1 4086   2.131   2.991   3.018 -1.1676 -1.1728 -2.7620
 1360TIP3    H2 4087   2.106   3.132   2.970  1.0639  0.1114 -0.4181
 1361TIP3   OH2 4088   2.081   5.352   3.117 -0.1875  0.5789  0.0467
 1361TIP3    H1 4089   2.036   5.366   3.033 -0.5112  1.3373  0.3399
 1361TIP3    H2 4090   2.113   5.262   3.112 -1.2518  0.2084 -0.4112
 1362TIP3   OH2 4091   2.583   5.559   2.321  0.5555  0.2114 -0.3971
 1362TIP3    H1 4092   2.635   5.523   2.249 -0.3382 -1.1397 -0.4142
 1362TIP3    H2 4093   2.531   5.628   2.281 -0.7806 -1.2755 -1.3826
 1363TIP3   OH2 4094   5.621   0.540   1.463  0.4700  0.1968  0.1807
 1363TIP3    H1 4095   5.582   0.455   1.442  0.6986  0.7283 -2.7681
 1363TIP3    H2 4096   5.546   0.597   1.480  0.1261  0.2015 -1.2562
 1364TIP3   OH2 4097   3.560   2.543   3.661  0.0274  0.0707  0.0727
 1364TIP3    H1 4098   3.572   2.452   3.687 -0.7995  0.5750  2.5255
 1364TIP3    H2 4099   3.468   2.548   3.634  0.1059  0.1524 -0.1802
 1365TIP3   OH2 4100   5.373   4.252   1.746  0.5444  0.6194 -0.0782
 1365TIP3    H1 4101   5.372   4.205   1.829  0.7859  1.2787  0.2960
 1365TIP3    H2 4102   5.421   4.193   1.686  1.5758  0.7426  0.5998
 1366TIP3   OH2 4103   3.406   0.987   3.395  0.4773 -0.0573  0.3964
 1366TIP3    H1 4104   3.441   1.052   3.334 -1.3424 -1.7076 -2.6777
 1366TIP3    H2 4105   3.475   0.921   3.401 -0.2011 -1.1151 -2.0634
 1367TIP3   OH2 4106   1.381   1.721   1.921 -0.3482 -0.1848  0.2647
 1367TIP3    H1 4107   1.408   1.748   2.009  0.9858  0.7137 -0.3916
 1367TIP3    H2 4108   1.313   1.783   1.896  1.2102  1.3292 -0.3952
 1368TIP3   OH2 4109   2.166   3.932   0.977  0.3369  0.3355 -0.3127
 1368TIP3    H1 4110   2.208   4.018   0.973  0.0323  0.4500 -1.3191
 1368TIP3    H2 4111   2.188   3.899   1.064  1.2195  1.0462 -0.2456
 1369TIP3   OH2 4112   3.830   0.427   5.064 -0.1097 -0.1842  0.4627
 1369TIP3    H1 4113   3.839   0.333   5.080 -1.5125 -0.4119 -0.0271
 1369TIP3    H2 4114   3.865   0.440   4.976  0.7527 -0.1108  0.8019
 1370TIP3   OH2 4115   0.447   0.960   3.015 -0.0016 -0.4414  0.3471
 1370TIP3    H1 4116   0.431   1.010   2.934 -0.1181  1.5212  1.5249
 1370TIP3    H2 4117   0.462   1.027   3.082  0.0870 -2.0174  1.9685
 1371TIP3   OH2 4118   5.326   2.633   1.097  0.1803 -0.9158  0.1199
 1371TIP3    H1 4119   5.400   2.585   1.133  1.9082 -0.4224 -2.4883
 1371TIP3    H2 4120   5.270   2.566   1.058  1.6791 -1.0701 -1.9335
 1372TIP3   OH2 4121   2.338   2.359   1.036 -0.7041  0.0054 -0.2333
 1372TIP3    H1 4122   2.404   2.379   0.970  0.3845  0.5942  0.9741
 1372TIP3    H2 4123   2.317   2.443   1.076  1.6931 -0.6359  2.8607
 1373TIP3   OH2 4124   0.219   1.045   2.238 -0.5199 -0.0815  0.1267
 1373TIP3    H1 4125   0.216   1.141   2.237 -1.7005 -0.0514  1.5738
 1373TIP3    H2 4126   0.135   1.018   2.201  0.3199 -0.6119 -1.4504
 1374TIP3   OH2 4127   6.191   1.352   1.180  0.7101 -0.3269 -0.3183
 1374TIP3    H1 4128   6.207   1.442   1.152  0.7643 -0.2838 -0.1477
 1374TIP3    H2 4129   6.252   1.299   1.128  0.6268 -0.2725 -0.4708
 1375TIP3   OH2 4130   2.487   5.810   0.052 -0.4829 -0.6556 -0.3140
 1375TIP3    H1 4131   2.484   5.714   0.049  0.4288 -0.7477  0.7659
 1375TIP3    H2 4132   2.478   5.831   0.145  0.3660  0.2504 -0.4183
 1376TIP3   OH2 4133   2.029   2.156   2.909  0.3950  0.5507  0.0446
 1376TIP3    H1 4134   2.109   2.126   2.951  0.4753 -0.6247 -0.8970
 1376TIP3    H2 4135   1.983   2.206   2.976  1.2313  0.0152  1.0303
 1377TIP3   OH2 4136   2.743   0.387   2.820  0.3323 -0.3065  0.3980
 1377TIP3    H1 4137   2.655   0.350   2.814 -0.4498  1.3791  0.9888
 1377TIP3    H2 4138   2.801   0.316   2.791 -1.2801 -1.1120 -0.9893
 1378TIP3   OH2 4139   3.816   2.130   3.429 -0.5824 -0.4826 -0.1656
 1378TIP3    H1 4140   3.781   2.191   3.493 -1.8089  0.0244 -1.2680
 1378TIP3    H2 4141   3.774   2.154   3.347  3.3928  1.0951 -2.0135
 1379TIP3   OH2 4142   0.908   4.738   3.360 -0.4786  0.2210 -0.0510
 1379TIP3    H1 4143   0.998   4.730   3.391 -0.4404  2.3779  0.5526
 1379TIP3    H2 4144   0.902   4.826   3.323 -2.4984  0.3840  0.5070
 1380TIP3   OH2 4145   2.589   2.185   0.022 -0.0242 -0.1273 -1.0652
 1380TIP3    H1 4146   2.671   2.227  -0.006 -0.2822  1.1478 -0.0134
 1380TIP3    H2 4147   2.606   2.091   0.011  1.7019  0.0856 -0.5731
 1381TIP3   OH2 4148   4.866   3.905   4.259  0.0363  0.1261 -0.2299
 1381TIP3    H1 4149   4.851   3.813   4.238 -0.0104 -0.3662  1.7233
 1381TIP3    H2 4150   4.929   3.935   4.194 -2.2795 -0.3465 -2.8784
 1382TIP3   OH2 4151   0.369   0.075   2.030 -0.6185 -0.0832  0.1643
 1382TIP3    H1 4152   0.381   0.049   2.122  0.4177  1.6424  0.5849
 1382TIP3    H2 4153   0.307   0.147   2.034  0.0225  0.5190 -0.3756
 1383TIP3   OH2 4154   0.078   5.864   1.181 -0.0638  0.1987  0.2890
 1383TIP3    H1 4155   0.133   5.876   1.258 -1.6956  0.0559  1.5295
 1383TIP3    H2 4156   0.087   5.946   1.132  1.2976  0.1404  0.4117
 1384TIP3   OH2 4157   3.633   5.222   1.342 -0.0020 -0.3434  0.7423
 1384TIP3    H1 4158   3.593   5.309   1.334 -1.1433 -0.7165  2.1633
 1384TIP3    H2 4159   3.725   5.237   1.319 -0.3016  1.1115  0.3563
 1385TIP3   OH2 4160   4.248   5.028   2.542 -0.9093 -0.1395 -0.2753
 1385TIP3    H1 4161   4.303   4.957   2.575  0.1240 -0.1131 -1.7999
 1385TIP3    H2 4162   4.305   5.105   2.544 -2.2381  0.8857  2.0488
 1386TIP3   OH2 4163   3.473   4.488   1.743 -0.1855 -0.1261  0.5577
 1386TIP3    H1 4164   3.395   4.464   1.791  0.4968  0.4950  2.0389
 1386TIP3    H2 4165   3.526   4.408   1.740 -1.0397 -0.6692 -0.8433
 1387TIP3   OH2 4166   4.508   5.168   1.404  0.2311 -0.1051 -0.4535
 1387TIP3    H1 4167   4.585   5.123   1.439  0.7731  1.5980  0.6789
 1387TIP3    H2 4168   4.439   5.149   1.468 -0.2373 -1.3854 -1.3128
 1388TIP3   OH2 4169   6.114   5.452   1.548 -0.0468  0.2647  0.6442
 1388TIP3    H1 4170   6.148   5.541   1.532 -1.5291  1.6411  4.0912
 1388TIP3    H2 4171   6.180   5.394   1.510  1.1492  2.8091 -1.4768
 1389TIP3   OH2 4172   3.227   4.900   4.378  0.2458 -0.3760  0.0448
 1389TIP3    H1 4173   3.186   4.841   4.442  0.2837 -0.1192  0.3120
 1389TIP3    H2 4174   3.154   4.937   4.328 -0.0454  1.3654  1.6203
 1390TIP3   OH2 4175   5.999   0.895   5.135 -0.0909 -0.4617  0.0519
 1390TIP3    H1 4176   6.066   0.878   5.202 -0.0975 -0.8350 -0.0342
 1390TIP3    H2 4177   5.957   0.810   5.122  0.4391 -0.5804 -1.0025
 1391TIP3   OH2 4178   5.212   0.163   3.169  0.1793  0.3399  0.2209
 1391TIP3    H1 4179   5.204   0.124   3.256  2.8033 -0.1522  0.3338
 1391TIP3    H2 4180   5.261   0.098   3.118 -0.3975  1.0656 -1.3154
 1392TIP3   OH2 4181   0.217   3.246   0.056  0.2963  0.5094 -0.3490
 1392TIP3    H1 4182   0.301   3.213   0.088  0.6725  0.5433 -1.2703
 1392TIP3    H2 4183   0.198   3.192  -0.020 -1.5980 -0.9564  1.0691
 1393TIP3   OH2 4184   4.741   4.458   4.974  0.0788 -0.4208  0.1824
 1393TIP3    H1 4185   4.801   4.447   5.048  0.7440 -0.8188 -0.3951
 1393TIP3    H2 4186   4.779   4.403   4.905 -0.4118  0.1012 -0.5157
 1394TIP3   OH2 4187   4.563   4.973   0.409 -0.5071 -0.3537  0.2993
 1394TIP3    H1 4188   4.622   5.048   0.419 -0.3669 -0.4090 -0.1003
 1394TIP3    H2 4189   4.475   5.010   0.419 -0.3941 -0.4518  2.0793
 1395TIP3   OH2 4190   0.272   0.720   2.367 -0.1719 -0.1557 -0.3306
 1395TIP3    H1 4191   0.322   0.717   2.449 -0.6332  0.2987 -0.0218
 1395TIP3    H2 4192   0.338   0.738   2.300  0.1298  0.0841  0.0229
 1396TIP3   OH2 4193   5.914   0.485   3.618 -0.6910 -0.0649  0.1851
 1396TIP3    H1 4194   5.824   0.507   3.642 -0.3814  0.6874  0.6925
 1396TIP3    H2 4195   5.962   0.567   3.626  0.3645 -0.7673  1.4252
 1397TIP3   OH2 4196   0.705   2.690   0.103  0.2163  0.3291  0.5796
 1397TIP3    H1 4197   0.655   2.696   0.021 -1.0269  0.8855  1.3465
 1397TIP3    H2 4198   0.734   2.780   0.119  1.3588  0.0357  0.2277
 1398TIP3   OH2 4199   1.265   4.903   3.956  0.0663  0.0609  0.2153
 1398TIP3    H1 4200   1.182   4.855   3.955 -0.1493  0.4207 -0.5595
 1398TIP3    H2 4201   1.306   4.882   3.872  0.2733  0.6966  0.1478
 1399TIP3   OH2 4202   2.040   1.657   1.041 -0.0168  0.0239  0.1596
 1399TIP3    H1 4203   2.091   1.615   1.110 -2.5097 -2.6476  0.6076
 1399TIP3    H2 4204   2.032   1.589   0.973  0.2080  1.6949 -1.6049
 1400TIP3   OH2 4205   3.403   1.141   4.764 -0.9202 -0.2437  0.0448
 1400TIP3    H1 4206   3.432   1.232   4.759 -1.3910  0.0683  2.0525
 1400TIP3    H2 4207   3.483   1.090   4.762 -0.5125  0.3434  0.8956
 1401TIP3   OH2 4208   1.088   0.761   4.041  0.1027  0.4089  0.1874
 1401TIP3    H1 4209   1.164   0.725   3.995 -0.9475  0.2944 -1.5926
 1401TIP3    H2 4210   1.094   0.855   4.025 -0.8360  0.2688 -1.2118
 1402TIP3   OH2 4211   2.086   4.189   4.828 -0.3090  0.1054  0.0018
 1402TIP3    H1 4212   1.994   4.203   4.849 -0.0062 -0.4548  1.9982
 1402TIP3    H2 4213   2.109   4.109   4.875  1.1716  0.1812 -0.5270
 1403TIP3   OH2 4214   0.650   0.371   1.240 -0.1159 -0.1358 -0.3122
 1403TIP3    H1 4215   0.627   0.370   1.148 -0.6790 -1.0755 -0.1735
 1403TIP3    H2 4216   0.746   0.367   1.241 -0.0759 -4.3923 -0.9059
 1404TIP3   OH2 4217   2.169   5.241   2.432 -0.0231  0.2924  0.3441
 1404TIP3    H1 4218   2.208   5.292   2.503 -0.3432  0.8426  0.1269
 1404TIP3    H2 4219   2.088   5.286   2.412 -0.7443 -0.7851  0.7240
 1405TIP3   OH2 4220   3.180   0.665   0.619 -0.0794 -0.0135  0.5583
 1405TIP3    H1 4221   3.202   0.682   0.527  0.5866 -0.9823  0.5201
 1405TIP3    H2 4222   3.127   0.586   0.617 -0.3729  0.1691  0.9803
 1406TIP3   OH2 4223   0.968   1.310  -0.006  0.1898  0.1880 -0.1982
 1406TIP3    H1 4224   1.038   1.253  -0.039  0.1928  1.1158 -1.8886
 1406TIP3    H2 4225   0.957   1.284   0.085  1.2166 -1.4903 -0.5104
 1407TIP3   OH2 4226   1.014   0.483   2.660  0.5051 -0.2219 -0.8908
 1407TIP3    H1 4227   1.043   0.405   2.612  1.0318 -0.7357  0.2219
 1407TIP3    H2 4228   1.082   0.497   2.726 -0.7215 -0.2004  0.4141
 1408TIP3   OH2 4229   2.484   0.115   3.039 -0.1247 -0.0914  0.3144
 1408TIP3    H1 4230   2.452   0.099   3.128  1.3185  1.4355  1.1778
 1408TIP3    H2 4231   2.441   0.196   3.012  0.3782  0.1246  0.1419
 1409TIP3   OH2 4232   3.213   0.929   3.100 -0.2151  0.2760 -0.3036
 1409TIP3    H1 4233   3.282   0.962   3.043 -0.8025  0.7158 -0.7809
 1409TIP3    H2 4234   3.144   0.996   3.095 -0.4954  0.0585  0.5031
 1410TIP3   OH2 4235   1.658   5.605   0.392  0.0198  0.1162  0.0436
 1410TIP3    H1 4236   1.719   5.559   0.334 -0.5788  0.1137 -0.5954
 1410TIP3    H2 4237   1.580   5.619   0.339  0.4209  2.4873 -0.0060
 1411TIP3   OH2 4238   4.792   2.061   0.586  0.6885 -0.2269  0.2966
 1411TIP3    H1 4239   4.822   2.145   0.621  0.7902 -0.5384  0.9660
 1411TIP3    H2 4240   4.835   1.995   0.640  1.8590 -0.7616 -1.2207
 1412TIP3   OH2 4241   0.091   2.539   0.981  0.1336  0.3186 -0.0011
 1412TIP3    H1 4242   0.037   2.615   0.959  0.9814  1.2772  1.1158
 1412TIP3    H2 4243   0.177   2.560   0.944  0.1958 -0.4321 -0.2933
 1413TIP3   OH2 4244   1.489   3.348   1.842  0.1102 -0.4003 -0.0113
 1413TIP3    H1 4245   1.500   3.430   1.889 -0.2920  0.0724 -0.7388
 1413TIP3    H2 4246   1.405   3.356   1.798  0.5475 -0.7636 -0.9497
 1414TIP3   OH2 4247   4.290   4.576   0.846 -0.2681 -0.1686 -0.3194
 1414TIP3    H1 4248   4.358   4.567   0.913 -1.6809 -0.7938  1.0921
 1414TIP3    H2 4249   4.323   4.526   0.772  0.7535 -0.5702  0.3851
 1415TIP3   OH2 4250   3.804   1.820   1.395  0.0452 -0.3419 -0.4731
 1415TIP3    H1 4251   3.812   1.740   1.447 -0.8253  0.6341  1.2560
 1415TIP3    H2 4252   3.893   1.836   1.362  0.7627 -0.7658  1.1318
 1416TIP3   OH2 4253   1.750   1.419   2.489 -0.2327  0.2294 -0.3332
 1416TIP3    H1 4254   1.801   1.494   2.520  1.6962 -0.5320 -1.4625
 1416TIP3    H2 4255   1.659   1.448   2.492  0.1794  1.5101  2.2125
 1417TIP3   OH2 4256   4.928   2.768   1.454  0.0562  0.2248 -0.2598
 1417TIP3    H1 4257   4.994   2.788   1.387  0.0535  1.0276 -0.0318
 1417TIP3    H2 4258   4.898   2.680   1.432  1.6884 -0.4406  0.0178
 1418TIP3   OH2 4259   2.512   4.244   2.248  0.2025 -0.6264 -0.1221
 1418TIP3    H1 4260   2.526   4.295   2.328 -1.7699  0.2313 -0.2791
 1418TIP3    H2 4261   2.433   4.192   2.266 -0.1723 -0.5411 -1.4448
 1419TIP3   OH2 4262   5.927   4.190   2.973  0.1119 -0.3078  0.4855
 1419TIP3    H1 4263   5.868   4.158   2.905 -0.7840 -0.1798  1.1856
 1419TIP3    H2 4264   5.939   4.115   3.031  1.1393 -0.5183  0.0324
 1420TIP3   OH2 4265   0.099   0.043   1.938  0.1744 -0.1659  0.4163
 1420TIP3    H1 4266   0.170  -0.021   1.929  0.4272  0.2763 -0.8146
 1420TIP3    H2 4267   0.139   0.117   1.982  0.3822 -0.0711  0.0711
 1421TIP3   OH2 4268   5.518   3.966   1.309 -0.0939  0.7198  0.2466
 1421TIP3    H1 4269   5.511   3.959   1.213  1.1700  0.4849  0.1581
 1421TIP3    H2 4270   5.530   4.060   1.325 -1.3228  0.8909  0.2681
 1422TIP3   OH2 4271   1.477   1.501   2.506 -0.2227 -0.1907  0.2673
 1422TIP3    H1 4272   1.408   1.524   2.569 -1.1931  2.1149 -1.5080
 1422TIP3    H2 4273   1.431   1.490   2.423  1.4523  0.8208 -0.8553
 1423TIP3   OH2 4274   6.059   2.967   1.014  0.3060  0.0166 -0.1309
 1423TIP3    H1 4275   5.966   2.946   1.025  0.4790 -1.0214 -0.5681
 1423TIP3    H2 4276   6.081   3.019   1.091  0.7635 -4.5181  3.2225
 1424TIP3   OH2 4277   2.741   2.186   1.006 -0.0606  0.0799  0.0253
 1424TIP3    H1 4278   2.651   2.159   1.024 -1.0745  1.9015 -1.8822
 1424TIP3    H2 4279   2.758   2.256   1.069 -0.6755  0.9942 -0.8096
 1425TIP3   OH2 4280   3.692   4.117   0.039 -0.0698 -0.2998 -0.4378
 1425TIP3    H1 4281   3.777   4.153   0.014  0.6625 -1.0544  0.8241
 1425TIP3    H2 4282   3.669   4.059  -0.034  0.6448 -0.3115 -0.6678
 1426TIP3   OH2 4283   0.149   3.538   1.768  0.0642  0.0382  0.0264
 1426TIP3    H1 4284   0.115   3.627   1.768  1.5729  0.6747  1.3638
 1426TIP3    H2 4285   0.148   3.511   1.676  1.4664  2.2179 -0.6880
 1427TIP3   OH2 4286   3.561   1.912   1.396  0.4771 -0.5162  0.1550
 1427TIP3    H1 4287   3.651   1.882   1.399  2.0731  3.2906 -2.0087
 1427TIP3    H2 4288   3.541   1.938   1.486  2.6472  1.1478  0.2269
 1428TIP3   OH2 4289   3.577   3.181   0.722  0.7321 -0.0506  0.4626
 1428TIP3    H1 4290   3.649   3.236   0.692  0.6628  2.3688  4.1003
 1428TIP3    H2 4291   3.620   3.102   0.756  1.1696 -0.5769 -1.1872
 1429TIP3   OH2 4292   2.034   3.032   4.547  0.1849 -0.0620  0.1198
 1429TIP3    H1 4293   2.028   3.095   4.619 -0.5511  0.3251 -0.2709
 1429TIP3    H2 4294   1.964   3.058   4.487  0.1205 -1.0265 -0.2299
 1430TIP3   OH2 4295   2.138   1.161   2.470  0.5118 -0.0277  0.5602
 1430TIP3    H1 4296   2.043   1.159   2.464  0.5993 -0.8959 -1.1913
 1430TIP3    H2 4297   2.159   1.099   2.540 -0.1648 -0.7303  0.1519
 1431TIP3   OH2 4298   0.184   3.294   1.879  0.2711 -0.7141  0.0844
 1431TIP3    H1 4299   0.256   3.289   1.942  0.0933  1.6172  0.5572
 1431TIP3    H2 4300   0.177   3.387   1.858 -3.1472 -0.7299  0.6699
 1432TIP3   OH2 4301   4.905   4.193   3.448 -0.1323 -0.0042 -0.4637
 1432TIP3    H1 4302   4.861   4.255   3.506  0.1610  0.8168 -1.0942
 1432TIP3    H2 4303   4.955   4.248   3.388  2.8472 -0.8778  1.0174
 1433TIP3   OH2 4304   1.518   4.003   0.986  0.2532  0.0715 -0.1780
 1433TIP3    H1 4305   1.604   3.988   1.025  0.0479  0.4743  0.4362
 1433TIP3    H2 4306   1.538   4.044   0.901  0.6494  1.0530  0.3705
 1434TIP3   OH2 4307   1.335   0.288   1.615 -0.0138 -0.3504 -0.3082
 1434TIP3    H1 4308   1.244   0.272   1.590 -0.2109 -0.2831  0.3501
 1434TIP3    H2 4309   1.352   0.227   1.687  0.6445 -0.7664 -0.7964
 1435TIP3   OH2 4310   3.156   1.354   2.400  0.0557  0.6579 -0.2873
 1435TIP3    H1 4311   3.247   1.341   2.375  0.2808  0.6369  0.5221
 1435TIP3    H2 4312   3.139   1.446   2.380  0.0582  0.5069 -1.0238
 1436TIP3   OH2 4313   2.023   0.013   2.797  0.3116  0.4288  0.3915
 1436TIP3    H1 4314   2.029   0.083   2.731  0.8020  1.1772  1.2195
 1436TIP3    H2 4315   1.972   0.051   2.868 -0.7379 -0.5824  0.2140
 1437TIP3   OH2 4316   3.699   3.942   1.548  0.4748  0.1755  0.0905
 1437TIP3    H1 4317   3.772   3.900   1.595  0.5709  1.4894  1.1957
 1437TIP3    H2 4318   3.682   3.884   1.474  2.5230 -0.2638 -0.1013
 1438TIP3   OH2 4319   3.092   2.798   0.298  0.3528  0.2489 -0.5471
 1438TIP3    H1 4320   3.037   2.866   0.336 -1.7970 -0.7487 -1.6679
 1438TIP3    H2 4321   3.165   2.844   0.258 -0.2599  1.7559  0.0276
 1439TIP3   OH2 4322   2.620   3.997   1.582 -0.8121 -0.2478  0.4388
 1439TIP3    H1 4323   2.642   4.032   1.496 -0.8287 -0.9884  0.1310
 1439TIP3    H2 4324   2.633   4.071   1.642  1.7869 -0.3951  0.1922
 1440TIP3   OH2 4325   2.753   5.204   0.664 -0.3167  0.1037 -0.0378
 1440TIP3    H1 4326   2.745   5.164   0.751 -0.6511 -0.6644 -0.4163
 1440TIP3    H2 4327   2.748   5.298   0.681 -0.1023 -0.0234  0.8041
 1441TIP3   OH2 4328   4.625   0.666   2.521 -0.6220 -0.0856 -0.1461
 1441TIP3    H1 4329   4.577   0.745   2.547  1.9199  0.9144  1.9190
 1441TIP3    H2 4330   4.651   0.626   2.603  2.7467 -0.0545 -1.0698
 1442TIP3   OH2 4331   5.579   1.165   5.010 -0.4544  0.0157  0.0247
 1442TIP3    H1 4332   5.534   1.082   5.024  0.7725 -0.7445 -0.3156
 1442TIP3    H2 4333   5.670   1.146   5.032  0.2249  0.7099 -1.9593
 1443TIP3   OH2 4334   3.153   5.063   5.041  0.5992 -0.8176 -0.1170
 1443TIP3    H1 4335   3.069   5.039   5.081  1.7130 -2.0702  1.6510
 1443TIP3    H2 4336   3.151   5.159   5.037 -1.3806 -0.8605 -1.2782
 1444TIP3   OH2 4337   4.805   5.462   0.202 -0.1146 -0.3604  0.1428
 1444TIP3    H1 4338   4.811   5.482   0.109 -1.2113 -3.1381 -0.6070
 1444TIP3    H2 4339   4.806   5.548   0.245 -1.9502  1.1454 -2.5480
 1445TIP3   OH2 4340   2.068   1.618   0.199 -0.7673 -0.2056 -0.6373
 1445TIP3    H1 4341   2.144   1.622   0.256 -0.0383  0.2717 -1.6175
 1445TIP3    H2 4342   2.077   1.536   0.151 -0.4198  0.2234 -1.3346
 1446TIP3   OH2 4343   4.228   1.446   3.832  0.7249 -0.2015  0.1306
 1446TIP3    H1 4344   4.233   1.532   3.791  0.9850 -0.9189 -1.4039
 1446TIP3    H2 4345   4.297   1.395   3.789 -1.4462 -2.1055 -1.3175
 1447TIP3   OH2 4346   1.980   4.216   1.834 -0.0362  0.3750  0.4866
 1447TIP3    H1 4347   1.995   4.134   1.881 -0.1539 -0.1958 -0.4617
 1447TIP3    H2 4348   1.953   4.190   1.746  2.9886  1.3982 -0.8834
 1448TIP3   OH2 4349   3.246   3.853   4.258 -0.1236 -0.3138 -0.3014
 1448TIP3    H1 4350   3.313   3.845   4.190  2.2530 -1.9740  2.0921
 1448TIP3    H2 4351   3.205   3.767   4.262  1.0860 -0.8399  1.6030
 1449TIP3   OH2 4352   2.304   4.519   2.347 -0.1479 -0.1985 -0.2268
 1449TIP3    H1 4353   2.317   4.466   2.426 -0.8502  2.0869  1.5444
 1449TIP3    H2 4354   2.209   4.523   2.335 -0.0606 -0.3111 -1.0451
 1450TIP3   OH2 4355   3.725   3.581   4.559  0.2915 -0.2450  0.3414
 1450TIP3    H1 4356   3.721   3.606   4.652  0.9694  0.0666  0.2981
 1450TIP3    H2 4357   3.814   3.547   4.548  0.6247  0.8155 -0.4466
 1451TIP3   OH2 4358   0.762   3.811   2.772  0.0097  0.7400 -0.4119
 1451TIP3    H1 4359   0.678   3.845   2.802 -1.6550 -2.8302 -0.6266
 1451TIP3    H2 4360   0.754   3.809   2.676  0.3229  0.2943 -0.4283
 1452TIP3   OH2 4361   4.792   4.315   3.057  0.3365 -0.1413 -0.5658
 1452TIP3    H1 4362   4.768   4.292   3.147 -0.0744  0.1437 -0.6008
 1452TIP3    H2 4363   4.873   4.366   3.066 -0.0754  0.4805 -0.2992
 1453TIP3   OH2 4364   4.171   3.000   4.530 -0.4263 -0.3211 -0.1167
 1453TIP3    H1 4365   4.091   3.024   4.578 -0.2718  1.6514 -0.7943
 1453TIP3    H2 4366   4.179   2.905   4.545 -1.4520 -0.1292  2.1095
 1454TIP3   OH2 4367   2.984   4.201   4.230 -0.2237  0.5759  0.4630
 1454TIP3    H1 4368   3.050   4.205   4.161 -0.8186 -0.4164 -0.1711
 1454TIP3    H2 4369   3.020   4.140   4.294 -0.7752 -0.4357 -0.1706
 1455TIP3   OH2 4370   1.508   4.072   2.057 -0.2158 -0.1242 -0.4252
 1455TIP3    H1 4371   1.417   4.053   2.076 -0.0249  1.9080  3.7225
 1455TIP3    H2 4372   1.505   4.144   1.994 -1.4826 -0.2560 -0.5393
 1456TIP3   OH2 4373   3.669   2.837   0.151 -0.2327  0.0935 -0.0332
 1456TIP3    H1 4374   3.610   2.897   0.197 -2.2453 -1.2902 -0.6729
 1456TIP3    H2 4375   3.692   2.771   0.216  0.8987  0.7730  0.2917
 1457TIP3   OH2 4376   0.703   4.047   3.207  0.0401  0.4811  0.5991
 1457TIP3    H1 4377   0.668   3.983   3.269  0.6563 -0.3180  0.1447
 1457TIP3    H2 4378   0.672   4.132   3.239  1.4808  0.2399  2.7891
 1458TIP3   OH2 4379   1.642   2.502   2.788  0.1201  0.3485 -0.4842
 1458TIP3    H1 4380   1.602   2.424   2.751 -1.5485 -0.9897  3.6391
 1458TIP3    H2 4381   1.577   2.571   2.775  0.9420  0.8010 -2.7170
 1459TIP3   OH2 4382   0.528   1.774   3.039  0.2495  0.3564  0.1576
 1459TIP3    H1 4383   0.616   1.737   3.036 -0.6547 -1.9926 -2.8334
 1459TIP3    H2 4384   0.473   1.702   3.072 -0.7004  1.5089  1.1754
 1460TIP3   OH2 4385   5.952   0.441   3.932 -0.4330  0.2590 -0.1672
 1460TIP3    H1 4386   6.038   0.472   3.903  0.1289 -1.6497 -0.7400
 1460TIP3    H2 4387   5.960   0.345   3.931 -2.8690 -0.0157 -1.2105
 1461TIP3   OH2 4388   3.026   3.800   1.102  0.2813 -0.1888 -0.0196
 1461TIP3    H1 4389   2.960   3.753   1.051 -2.4262  1.3754  1.7773
 1461TIP3    H2 4390   3.040   3.881   1.052  2.5699 -1.3727 -1.4784
 1462TIP3   OH2 4391   0.651   5.262   3.219 -0.0930 -0.2983  0.3937
 1462TIP3    H1 4392   0.697   5.239   3.299 -0.0943 -1.2573  0.1359
 1462TIP3    H2 4393   0.718   5.303   3.164 -0.2037  0.8015  1.0471
 1463TIP3   OH2 4394   1.282   4.147   4.318 -0.2359  0.5425  0.9409
 1463TIP3    H1 4395   1.367   4.135   4.359  0.8282  2.0584 -0.6878
 1463TIP3    H2 4396   1.266   4.064   4.272 -0.3860 -0.3091  2.4769
 1464TIP3   OH2 4397   3.888   0.946   1.643  0.4466  0.2264 -0.2857
 1464TIP3    H1 4398   3.865   0.900   1.562 -3.3468 -0.5671  1.0093
 1464TIP3    H2 4399   3.857   1.036   1.630  0.5222  0.2976  0.0026
 1465TIP3   OH2 4400   0.589   4.317   5.202 -0.2646 -0.4022  0.3526
 1465TIP3    H1 4401   0.545   4.309   5.118 -0.0375 -1.4380  0.3150
 1465TIP3    H2 4402   0.624   4.406   5.203  0.6520 -0.7136 -1.0991
 1466TIP3   OH2 4403   3.175   3.846   4.721  0.1379 -0.0851 -0.2374
 1466TIP3    H1 4404   3.167   3.933   4.683  0.2304  0.6839  1.4122
 1466TIP3    H2 4405   3.087   3.824   4.749  0.4197  0.2971  1.0113
 1467TIP3   OH2 4406   4.966   2.840   2.206 -0.1804  0.0730  0.1109
 1467TIP3    H1 4407   5.011   2.877   2.282 -1.7651  2.1621  0.1418
 1467TIP3    H2 4408   5.000   2.751   2.199  0.8279  0.1661  2.6051
 1468TIP3   OH2 4409   2.799   3.893   1.768 -0.7131  0.2180  0.1318
 1468TIP3    H1 4410   2.869   3.957   1.753  1.0303 -2.2122 -3.5822
 1468TIP3    H2 4411   2.737   3.909   1.698 -1.4899 -0.6434  0.6025
 1469TIP3   OH2 4412   1.839   1.344   4.745 -0.1749  0.1649 -0.4806
 1469TIP3    H1 4413   1.819   1.391   4.664 -2.6477 -1.0041 -0.6260
 1469TIP3    H2 4414   1.852   1.253   4.717 -1.3897 -0.3081  0.4412
 1470TIP3   OH2 4415   0.670   3.594   1.000  0.3429  0.4131  0.4339
 1470TIP3    H1 4416   0.714   3.674   1.031 -1.0386  1.6103 -0.5461
 1470TIP3    H2 4417   0.585   3.595   1.045  0.4997 -0.7903  0.7820
 1471TIP3   OH2 4418   4.073   4.601   4.734  0.2408 -0.3059 -0.4090
 1471TIP3    H1 4419   4.023   4.555   4.801 -1.7646  2.4631  0.1907
 1471TIP3    H2 4420   4.157   4.621   4.775  0.4602 -1.8105 -0.0833
 1472TIP3   OH2 4421   4.872   2.988   4.505 -0.0590 -0.3943  0.1250
 1472TIP3    H1 4422   4.808   2.943   4.559 -0.5472  0.1897  0.0468
 1472TIP3    H2 4423   4.945   3.007   4.564 -1.3621  1.9343  1.1282
 1473TIP3   OH2 4424   2.136   1.586   2.767  0.0562 -0.0170  0.1691
 1473TIP3    H1 4425   2.181   1.560   2.686  1.2020 -1.6432  1.2608
 1473TIP3    H2 4426   2.143   1.681   2.768  0.5359  0.0004 -1.3526
 1474TIP3   OH2 4427   5.770   4.738   2.196  0.4817 -0.1576 -0.4169
 1474TIP3    H1 4428   5.807   4.790   2.267 -0.5321  0.3514 -0.2398
 1474TIP3    H2 4429   5.699   4.792   2.161  0.0248 -1.0249 -0.8595
 1475TIP3   OH2 4430   3.226   2.447   2.306 -0.1490  0.1036  0.0291
 1475TIP3    H1 4431   3.285   2.481   2.239 -0.1120  0.6178  0.3172
 1475TIP3    H2 4432   3.239   2.352   2.303 -0.8020  0.0295 -1.2908
 1476TIP3   OH2 4433   5.845   3.448   0.924  0.2699 -0.0863  0.1475
 1476TIP3    H1 4434   5.880   3.453   1.013  1.9285 -0.3822 -0.4380
 1476TIP3    H2 4435   5.889   3.520   0.877  1.1664 -1.2874 -0.9428
 1477TIP3   OH2 4436   0.790   4.371   0.314  0.0199  0.3909  0.4680
 1477TIP3    H1 4437   0.741   4.295   0.346 -1.5741  2.0829  2.3254
 1477TIP3    H2 4438   0.736   4.407   0.244  1.0115 -0.4094 -0.7461
 1478TIP3   OH2 4439   0.044   1.130   1.047  0.1930 -0.2935  0.0347
 1478TIP3    H1 4440   0.038   1.039   1.076 -1.7802  0.1871  1.3845
 1478TIP3    H2 4441  -0.030   1.141   0.988  0.5080  0.4010 -0.2406
 1479TIP3   OH2 4442   1.867   4.044   4.970  0.1937  0.5858  0.3463
 1479TIP3    H1 4443   1.908   4.045   5.057 -0.4637 -1.0678  0.7216
 1479TIP3    H2 4444   1.785   3.996   4.983  1.6787 -2.9912 -1.7724
 1480TIP3   OH2 4445   4.118   2.200   0.548 -0.2398 -0.4362  0.5613
 1480TIP3    H1 4446   4.119   2.108   0.520 -0.6131 -0.3101  0.1136
 1480TIP3    H2 4447   4.206   2.216   0.581 -0.3376 -1.1170  1.1819
 1481TIP3   OH2 4448   5.677   5.843   5.046  0.1238 -0.1281  0.5609
 1481TIP3    H1 4449   5.740   5.837   5.118  0.5896  0.8410  0.2487
 1481TIP3    H2 4450   5.657   5.936   5.040  2.0481  0.2325 -2.1868
 1482TIP3   OH2 4451   2.788   2.720   3.883  0.0057 -0.6466  0.7895
 1482TIP3    H1 4452   2.823   2.713   3.972 -0.7853 -0.0407  1.1560
 1482TIP3    H2 4453   2.714   2.660   3.881  0.6742 -1.4881  0.1875
 1483TIP3   OH2 4454   3.796   3.774   4.919 -0.5026 -0.2506  0.2499
 1483TIP3    H1 4455   3.866   3.708   4.917 -0.5133 -0.2498 -0.7394
 1483TIP3    H2 4456   3.840   3.856   4.896 -0.9158 -0.3596 -1.0440
 1484TIP3   OH2 4457   2.425   5.662   2.840 -0.1083  0.3065  0.0367
 1484TIP3    H1 4458   2.372   5.709   2.905 -0.8073  1.4348 -1.2936
 1484TIP3    H2 4459   2.502   5.717   2.827  0.4124 -0.3111  0.4765
 1485TIP3   OH2 4460   4.923   3.510   0.445 -0.3279 -0.1156 -0.0647
 1485TIP3    H1 4461   4.968   3.468   0.372 -0.9884  0.1732 -0.6458
 1485TIP3    H2 4462   4.993   3.539   0.503  0.2129 -0.1637 -0.6866
 1486TIP3   OH2 4463   1.317   3.703   2.443 -0.2668 -0.3459 -0.4793
 1486TIP3    H1 4464   1.272   3.633   2.396 -1.5495 -1.4722  2.2316
 1486TIP3    H2 4465   1.270   3.711   2.526  1.6203  1.7863  0.4952
 1487TIP3   OH2 4466   4.449   2.628   3.708  0.4787 -0.3324  0.1689
 1487TIP3    H1 4467   4.468   2.535   3.716  0.7079 -0.2961  0.0585
 1487TIP3    H2 4468   4.377   2.633   3.645  1.3993 -0.3408 -0.8944
 1488TIP3   OH2 4469   3.706   5.705   4.993 -0.0609  0.2333 -0.2195
 1488TIP3    H1 4470   3.616   5.728   5.015 -0.5001 -0.9498 -0.7222
 1488TIP3    H2 4471   3.707   5.700   4.897  0.3946 -0.3170 -0.1910
 1489TIP3   OH2 4472   1.655   1.711   0.550  0.4545  0.3828 -0.3422
 1489TIP3    H1 4473   1.717   1.712   0.623  1.0753 -0.7575 -0.8268
 1489TIP3    H2 4474   1.704   1.747   0.477  0.6218 -0.6753 -0.7685
 1490TIP3   OH2 4475   2.375   5.627   4.827  0.7115  0.0649  0.0318
 1490TIP3    H1 4476   2.464   5.610   4.859  0.7822 -0.3397 -0.3679
 1490TIP3    H2 4477   2.348   5.544   4.786  0.7580  0.6614 -1.2434
 1491TIP3   OH2 4478   5.607   5.736   4.121  0.3703 -0.0506 -0.4405
 1491TIP3    H1 4479   5.694   5.721   4.085  0.9695 -0.4960  1.0922
 1491TIP3    H2 4480   5.583   5.824   4.091  0.9095 -0.3126 -1.6821
 1492TIP3   OH2 4481   0.759   0.263   4.393 -0.0102  0.0323  0.3470
 1492TIP3    H1 4482   0.818   0.272   4.318  0.6298 -0.7479  0.7448
 1492TIP3    H2 4483   0.803   0.200   4.451 -0.9724 -0.1392  0.9087
 1493TIP3   OH2 4484   4.596   0.096   2.021  0.3101  0.1252  0.5345
 1493TIP3    H1 4485   4.506   0.124   2.038 -0.5535 -1.4956 -0.9748
 1493TIP3    H2 4486   4.644   0.121   2.100 -1.1239  2.2888  0.8350
 1494TIP3   OH2 4487   4.553   2.305   3.732  0.3039  0.4546 -0.1183
 1494TIP3    H1 4488   4.642   2.289   3.701  0.6438 -0.9248  1.4444
 1494TIP3    H2 4489   4.511   2.354   3.660  2.8889  3.0014 -0.1018
 1495TIP3   OH2 4490   2.604   5.243   1.092  0.0549 -0.3719 -0.1722
 1495TIP3    H1 4491   2.570   5.321   1.049 -1.5205 -1.3787 -0.8651
 1495TIP3    H2 4492   2.526   5.190   1.111  1.0058 -1.4405  0.9520
 1496TIP3   OH2 4493   4.642   2.231   1.134 -0.0335 -0.1107 -0.3778
 1496TIP3    H1 4494   4.671   2.145   1.167 -1.0839 -0.8169 -1.2161
 1496TIP3    H2 4495   4.597   2.271   1.208  2.7453  0.9289  0.8967
 1497TIP3   OH2 4496   2.493   5.218   2.878 -0.0831 -0.1220  0.5623
 1497TIP3    H1 4497   2.556   5.289   2.865  0.3022 -0.0682  2.4130
 1497TIP3    H2 4498   2.429   5.230   2.808  2.4013 -0.7499 -2.0080
 1498TIP3   OH2 4499   5.275   5.908   1.838  0.1527  0.2893 -0.1139
 1498TIP3    H1 4500   5.254   5.989   1.791 -0.8469 -0.1731 -0.4965
 1498TIP3    H2 4501   5.192   5.881   1.878 -0.1061 -1.6804 -1.8049
 1499TIP3   OH2 4502   5.287   3.258   4.657  0.3857  0.4502 -0.0744
 1499TIP3    H1 4503   5.341   3.213   4.592 -0.3515 -1.1280  0.3539
 1499TIP3    H2 4504   5.200   3.221   4.645 -0.4145  2.2729 -0.1215
 1500TIP3   OH2 4505   5.013   2.021   3.534  0.1489 -0.2274 -0.2285
 1500TIP3    H1 4506   5.041   1.930   3.530  2.7065  0.4481  0.0362
 1500TIP3    H2 4507   5.023   2.053   3.444  2.4005  0.5529  0.2476
 1501TIP3   OH2 4508   2.240   1.162   0.793 -0.3686 -0.1450 -0.7750
 1501TIP3    H1 4509   2.221   1.071   0.771 -1.1344 -0.1862  0.0326
 1501TIP3    H2 4510   2.177   1.213   0.743 -2.1265 -0.2398  1.2340
 1502TIP3   OH2 4511   4.490   1.918   1.423  0.4108  0.2090  1.3797
 1502TIP3    H1 4512   4.434   1.908   1.346  1.5724 -0.8618  0.6458
 1502TIP3    H2 4513   4.457   1.997   1.466 -1.1277  0.0602  0.5364
 1503TIP3   OH2 4514   5.095   2.904   4.945  0.4204  0.2198  0.1587
 1503TIP3    H1 4515   5.081   2.833   5.007  1.0646 -0.3416 -0.3204
 1503TIP3    H2 4516   5.022   2.896   4.883  0.9362 -0.5440 -0.3635
 1504TIP3   OH2 4517   2.993   3.344   0.346  0.0774 -0.1661  0.5375
 1504TIP3    H1 4518   3.029   3.415   0.293 -1.5742  0.2572 -0.0702
 1504TIP3    H2 4519   3.012   3.265   0.295 -0.3318  0.1048 -0.0485
 1505TIP3   OH2 4520   2.579   4.957   2.758 -0.3591 -0.3363  0.4116
 1505TIP3    H1 4521   2.570   5.004   2.675  1.3835 -1.1043 -0.2723
 1505TIP3    H2 4522   2.560   5.022   2.825 -1.7726  0.3151 -0.5697
 1506TIP3   OH2 4523   4.406   3.914   1.899 -0.7320 -0.3912 -1.2492
 1506TIP3    H1 4524   4.399   3.827   1.936  0.4066  0.4976  1.2764
 1506TIP3    H2 4525   4.337   3.964   1.943  1.6229  1.0676  1.1048
 1507TIP3   OH2 4526   4.268   1.425   3.087  0.0758 -0.8017 -0.4758
 1507TIP3    H1 4527   4.314   1.503   3.055  1.4551 -1.2240  0.4161
 1507TIP3    H2 4528   4.227   1.388   3.009 -0.6545  0.8377 -0.9080
 1508TIP3   OH2 4529   0.593   0.091   0.352  0.4827 -0.1956  0.0804
 1508TIP3    H1 4530   0.518   0.138   0.316 -0.1299 -0.1290  1.3836
 1508TIP3    H2 4531   0.652   0.080   0.278 -0.2439  0.8763 -0.6932
 1509TIP3   OH2 4532   5.129   1.250   0.203 -0.2563 -0.0525  0.2874
 1509TIP3    H1 4533   5.035   1.247   0.223 -0.0125 -0.5937  1.3904
 1509TIP3    H2 4534   5.167   1.178   0.253  0.3449 -1.8371 -2.5178
 1510TIP3   OH2 4535   2.718   3.498   0.880 -0.3237 -0.0657 -0.7233
 1510TIP3    H1 4536   2.736   3.451   0.961 -0.3499  0.1258 -0.6053
 1510TIP3    H2 4537   2.622   3.500   0.874 -0.3231 -0.0081 -0.7160
 1511TIP3   OH2 4538   5.393   5.417   2.875 -0.0942  0.1562 -0.8750
 1511TIP3    H1 4539   5.362   5.350   2.935  0.5573  0.7164  0.1070
 1511TIP3    H2 4540   5.422   5.368   2.798  0.6932 -0.7349 -0.0314
 1512TIP3   OH2 4541   1.536   5.230   2.063  0.2080 -0.9994  0.2413
 1512TIP3    H1 4542   1.538   5.279   1.981  1.0785  0.9503  1.3688
 1512TIP3    H2 4543   1.564   5.141   2.039 -0.1646 -0.6289 -1.6567
 1513TIP3   OH2 4544   4.198   5.141   0.158 -0.2899  0.1057 -0.1321
 1513TIP3    H1 4545   4.151   5.088   0.093  1.8630 -1.8590 -0.2106
 1513TIP3    H2 4546   4.243   5.208   0.105 -1.2337  0.6544 -0.2670
 1514TIP3   OH2 4547   3.135   1.118   0.290 -0.4268  0.2041 -0.4908
 1514TIP3    H1 4548   3.216   1.081   0.255 -0.9069 -2.2491  0.7877
 1514TIP3    H2 4549   3.129   1.204   0.249  4.1187  1.6265  1.1975
 1515TIP3   OH2 4550   2.995   5.229   0.478 -0.0713 -0.3783  0.3579
 1515TIP3    H1 4551   2.931   5.237   0.549 -0.9663  0.5416 -0.5144
 1515TIP3    H2 4552   3.061   5.295   0.498 -1.4529  1.4413 -0.7503
 1516TIP3   OH2 4553   1.356   4.424   0.163 -0.4839  0.2680 -0.2304
 1516TIP3    H1 4554   1.310   4.340   0.151  0.6067 -0.8990  2.8090
 1516TIP3    H2 4555   1.399   4.439   0.080 -0.1739 -2.5752 -0.7039
 1517TIP3   OH2 4556   3.421   1.378   0.050  0.3812  0.7964  0.1284
 1517TIP3    H1 4557   3.436   1.432   0.127  1.4843  1.2408 -0.3722
 1517TIP3    H2 4558   3.507   1.370   0.009  0.0520 -0.4810 -0.3787
 1518TIP3   OH2 4559   2.950   1.712   3.980 -1.1047 -0.1834  0.0279
 1518TIP3    H1 4560   2.984   1.767   4.050  0.6231 -1.5085  0.3057
 1518TIP3    H2 4561   2.883   1.658   4.023 -0.9349 -0.1283  0.3665
 1519TIP3   OH2 4562   4.814   3.393   2.480 -0.2721  0.6274  0.7266
 1519TIP3    H1 4563   4.752   3.460   2.454 -1.7797 -1.1363 -0.5304
 1519TIP3    H2 4564   4.768   3.342   2.547 -0.5780 -1.1631 -0.7614
 1520TIP3   OH2 4565   4.598   5.330   4.780  0.2524 -0.3014 -0.8416
 1520TIP3    H1 4566   4.571   5.357   4.692 -0.6149  1.3141 -0.1064
 1520TIP3    H2 4567   4.577   5.404   4.836 -0.1565 -1.6880  0.9233
 1521TIP3   OH2 4568   4.963   0.152   0.808  1.0419  0.0360  0.0835
 1521TIP3    H1 4569   4.901   0.221   0.831  0.6584 -0.5187  0.7390
 1521TIP3    H2 4570   5.043   0.199   0.785  1.0139  0.6741  1.2278
 1522TIP3   OH2 4571   5.291   5.697   4.521  0.6818  0.4735  0.2308
 1522TIP3    H1 4572   5.221   5.762   4.519 -1.5823 -1.7948 -1.6317
 1522TIP3    H2 4573   5.326   5.695   4.432  0.5281 -0.9723  0.1691
 1523TIP3   OH2 4574   0.248   5.317   0.633  0.6823 -0.4844  0.2785
 1523TIP3    H1 4575   0.219   5.270   0.711 -2.3063 -1.2300 -1.1121
 1523TIP3    H2 4576   0.276   5.248   0.573  1.6001 -0.0327  0.1789
 1524TIP3   OH2 4577   3.097   5.307   5.132 -0.0482 -0.1501 -0.5109
 1524TIP3    H1 4578   3.155   5.378   5.105 -0.4605 -0.1968 -1.5567
 1524TIP3    H2 4579   3.009   5.342   5.119 -0.2601 -0.5314 -0.1476
 1525TIP3   OH2 4580   5.864   1.539   3.009  0.1118 -0.1671  0.4438
 1525TIP3    H1 4581   5.913   1.464   3.042  0.9921 -0.4882 -1.4626
 1525TIP3    H2 4582   5.886   1.610   3.069  2.4521 -0.4710  0.0489
 1526TIP3   OH2 4583   1.087   0.685   3.465  0.6099  0.4162 -0.0238
 1526TIP3    H1 4584   1.071   0.702   3.558 -2.7277 -0.7076 -0.2470
 1526TIP3    H2 4585   1.058   0.594   3.453  2.0783  0.1606 -1.9614
 1527TIP3   OH2 4586   4.283   5.862   4.739  0.6387 -0.0175  0.0582
 1527TIP3    H1 4587   4.228   5.907   4.803  0.0049 -0.6606 -0.0155
 1527TIP3    H2 4588   4.362   5.915   4.733  0.3729  0.4732  0.7905
 1528TIP3   OH2 4589   0.621   5.076   0.044 -0.4571 -0.0161  0.2073
 1528TIP3    H1 4590   0.713   5.087   0.071 -0.0821 -0.1376 -0.9713
 1528TIP3    H2 4591   0.598   5.159   0.003 -0.6661 -0.2154 -0.0831
 1529TIP3   OH2 4592   5.321   1.681   0.733  0.1044 -0.3005 -0.4039
 1529TIP3    H1 4593   5.312   1.742   0.660 -0.3957  2.6026  1.8523
 1529TIP3    H2 4594   5.412   1.651   0.730  1.4499  3.2327  0.1473
 1530TIP3   OH2 4595   1.533   2.371   0.285 -0.2694 -0.4792  0.1004
 1530TIP3    H1 4596   1.589   2.448   0.271  0.3102 -1.1267 -1.4093
 1530TIP3    H2 4597   1.444   2.405   0.279 -0.0199  0.1613 -0.0965
 1531TIP3   OH2 4598   3.002   2.130   0.313  0.3012 -0.0047  0.7156
 1531TIP3    H1 4599   2.922   2.150   0.361  0.7212  0.2970  1.3135
 1531TIP3    H2 4600   3.051   2.212   0.314  1.2972 -0.5703  1.7174
 1532TIP3   OH2 4601   4.112   5.118   4.350  0.7763  0.3601  0.5121
 1532TIP3    H1 4602   4.148   5.143   4.265 -0.1354  1.3329  0.3862
 1532TIP3    H2 4603   4.079   5.200   4.387 -3.1906 -0.6342 -0.3027
 1533TIP3   OH2 4604   3.732   2.870   4.954  0.1743  0.0073  0.0497
 1533TIP3    H1 4605   3.823   2.841   4.962  0.1008 -0.1696  0.2887
 1533TIP3    H2 4606   3.709   2.855   4.863  0.1653 -0.6166  0.1498
 1534TIP3   OH2 4607   3.473   4.439   2.203  0.0379 -0.3994  0.1206
 1534TIP3    H1 4608   3.400   4.444   2.264  0.9093 -0.2952  1.1773
 1534TIP3    H2 4609   3.432   4.419   2.118 -1.1644 -0.7822  0.7716
 1535TIP3   OH2 4610   0.780   1.654   3.072  0.2918 -0.2661 -0.3036
 1535TIP3    H1 4611   0.824   1.643   2.988 -0.7462  1.2749 -1.0931
 1535TIP3    H2 4612   0.828   1.725   3.116 -1.3599  1.5239 -1.2292
 1536TIP3   OH2 4613   1.322   5.358   1.505  0.1348  0.4554  0.4565
 1536TIP3    H1 4614   1.277   5.401   1.578  0.9898  1.0723  0.6274
 1536TIP3    H2 4615   1.330   5.267   1.533 -1.4220  0.2064  0.2174
 1537TIP3   OH2 4616   1.074   3.558   0.037  0.1684 -0.6097  0.4066
 1537TIP3    H1 4617   1.092   3.495   0.106  0.5619 -1.1391 -0.1614
 1537TIP3    H2 4618   1.011   3.513  -0.020 -0.7829  0.1322  0.8483
 1538TIP3   OH2 4619   3.092   5.142   2.999 -0.4650  0.2382  0.4553
 1538TIP3    H1 4620   3.112   5.053   3.029 -1.7955  0.0224  0.7484
 1538TIP3    H2 4621   2.997   5.143   2.988 -0.4952  1.6796  0.6506
 1539TIP3   OH2 4622   1.926   4.539   4.985  0.0455 -0.1131 -0.2060
 1539TIP3    H1 4623   1.932   4.596   4.909  1.7842 -1.2947 -1.0445
 1539TIP3    H2 4624   1.864   4.471   4.959  0.0252 -0.0735 -0.2618
 1540TIP3   OH2 4625   2.660   3.641   0.439 -0.2586 -0.1442  0.5413
 1540TIP3    H1 4626   2.735   3.700   0.443  0.8336 -1.3964 -0.6474
 1540TIP3    H2 4627   2.685   3.567   0.494 -0.1371 -1.0877 -0.7654
 1541TIP3   OH2 4628   3.214   1.150   4.130 -0.1633 -0.0584 -0.1008
 1541TIP3    H1 4629   3.248   1.189   4.050 -0.1793  0.4819  0.1466
 1541TIP3    H2 4630   3.121   1.135   4.112 -0.2254  0.3041 -0.0990
 1542TIP3   OH2 4631   0.924   4.833   0.800 -0.9496  0.5629 -0.0925
 1542TIP3    H1 4632   0.855   4.895   0.778 -0.9659  0.2295 -1.0437
 1542TIP3    H2 4633   0.900   4.753   0.752 -1.2766 -0.3919  1.6045
 1543TIP3   OH2 4634   5.918   4.146   3.664 -0.3113  0.3357  0.4756
 1543TIP3    H1 4635   5.912   4.241   3.657  1.4145  0.6442  2.3378
 1543TIP3    H2 4636   5.939   4.130   3.756  0.3653 -1.7895  0.0017
 1544TIP3   OH2 4637   3.325   3.211   4.018  0.6202  0.1372  0.5506
 1544TIP3    H1 4638   3.270   3.216   4.097 -1.0566  0.2312 -0.5834
 1544TIP3    H2 4639   3.355   3.301   4.004 -1.2458  0.6583 -0.3677
 1545TIP3   OH2 4640   4.509   0.844   4.284  0.0925  0.2919  0.4430
 1545TIP3    H1 4641   4.413   0.845   4.289 -0.2875 -0.5136 -3.5784
 1545TIP3    H2 4642   4.533   0.933   4.259  0.1764 -0.0035 -0.5549
 1546TIP3   OH2 4643   2.981   4.142   1.153 -0.6077  0.5885 -0.0686
 1546TIP3    H1 4644   3.030   4.174   1.229  0.5456  1.5741 -1.1725
 1546TIP3    H2 4645   2.890   4.141   1.182  0.0081 -1.3962  2.0955
 1547TIP3   OH2 4646   2.079   0.442   2.647  0.3766  0.3218  0.2110
 1547TIP3    H1 4647   2.057   0.356   2.612 -1.7075  0.9134 -0.0595
 1547TIP3    H2 4648   2.159   0.466   2.602 -0.5234 -0.2993 -1.8416
 1548TIP3   OH2 4649   3.386   4.615   4.407 -0.3787 -0.1041 -0.3026
 1548TIP3    H1 4650   3.435   4.666   4.472  0.4457 -0.4932 -0.5975
 1548TIP3    H2 4651   3.382   4.671   4.330 -0.4498 -0.0433 -0.2540
 1549TIP3   OH2 4652   0.098   0.596   2.140 -0.1660 -0.1440  0.2444
 1549TIP3    H1 4653   0.160   0.587   2.211  0.5016 -1.3402 -0.4558
 1549TIP3    H2 4654   0.151   0.596   2.060 -0.9650  0.1335 -0.3097
 1550TIP3   OH2 4655   4.788   0.994   3.549  0.1073 -0.3583  0.3869
 1550TIP3    H1 4656   4.808   0.913   3.501  1.1420 -0.3170  0.7130
 1550TIP3    H2 4657   4.706   1.025   3.511 -0.6304 -1.8723  0.6597
 1551TIP3   OH2 4658   1.695   4.871   3.802 -0.2285 -0.4678 -0.8014
 1551TIP3    H1 4659   1.739   4.854   3.719 -0.3870  0.9646 -1.2057
 1551TIP3    H2 4660   1.733   4.952   3.834 -0.9421 -0.4259 -0.0098
 1552TIP3   OH2 4661   3.038   4.747   4.564 -0.5277 -0.8629 -0.0969
 1552TIP3    H1 4662   2.973   4.750   4.634 -1.3400  0.0382 -0.8610
 1552TIP3    H2 4663   2.987   4.753   4.483  0.5073  0.4645 -0.7014
 1553TIP3   OH2 4664   1.508   0.541   1.661 -0.6261  0.2879  0.3281
 1553TIP3    H1 4665   1.522   0.621   1.610 -0.3876 -0.3925 -0.7151
 1553TIP3    H2 4666   1.423   0.508   1.630 -0.1531 -0.5044 -0.1480
 1554TIP3   OH2 4667   3.846   5.555   3.085 -0.0491  0.4190  0.5684
 1554TIP3    H1 4668   3.922   5.607   3.059  1.1404  0.0135  2.9795
 1554TIP3    H2 4669   3.771   5.603   3.048  1.3109  0.9392 -1.6798
 1555TIP3   OH2 4670   5.055   4.169   4.269  0.5512  0.0064 -0.6046
 1555TIP3    H1 4671   5.038   4.123   4.187  1.3557 -2.2466  0.4253
 1555TIP3    H2 4672   5.137   4.133   4.301  0.1182  0.6109  1.3473
 1556TIP3   OH2 4673   1.494   3.140   4.822  0.3261 -0.0761 -0.4226
 1556TIP3    H1 4674   1.580   3.104   4.801  1.2471  1.1685  0.9847
 1556TIP3    H2 4675   1.493   3.145   4.918 -0.8512  1.0111 -0.4624
 1557TIP3   OH2 4676   4.417   1.623   2.604 -0.3045 -0.2101 -0.0901
 1557TIP3    H1 4677   4.337   1.573   2.621  0.4746 -1.5073 -0.1840
 1557TIP3    H2 4678   4.456   1.583   2.526  1.7696 -1.3309  1.4163
 1558TIP3   OH2 4679   5.623   1.042   4.207 -0.3575 -0.0395 -0.3531
 1558TIP3    H1 4680   5.674   0.976   4.253 -0.6659 -1.5744 -2.1155
 1558TIP3    H2 4681   5.686   1.109   4.183 -0.1651  0.7742  2.1315
 1559TIP3   OH2 4682   5.557   2.376   0.205  0.3478  0.1448  0.4344
 1559TIP3    H1 4683   5.589   2.359   0.117  1.2278  4.7716 -0.4285
 1559TIP3    H2 4684   5.461   2.380   0.196  0.2519 -1.8001  0.3086
 1560TIP3   OH2 4685   0.133   0.532   4.104 -0.1251 -0.4162 -0.2174
 1560TIP3    H1 4686   0.054   0.537   4.050 -0.9299 -3.2631  0.5433
 1560TIP3    H2 4687   0.166   0.444   4.090  1.6720 -0.0258  1.2076
 1561TIP3   OH2 4688   4.455   0.559   4.061 -0.1052  0.0747  0.4400
 1561TIP3    H1 4689   4.465   0.564   3.966 -1.3052  0.7185  0.3159
 1561TIP3    H2 4690   4.366   0.591   4.076  0.7853  2.0224  1.9491
 1562TIP3   OH2 4691   3.733   4.982   1.462  0.0200  0.3225 -0.5151
 1562TIP3    H1 4692   3.665   4.916   1.475  0.1422  0.1381 -0.7804
 1562TIP3    H2 4693   3.686   5.060   1.433 -0.0756  0.1835 -0.7339
 1563TIP3   OH2 4694   1.610   4.601   4.693 -0.1376  0.1508  0.1071
 1563TIP3    H1 4695   1.551   4.647   4.634 -0.5142  0.0572  0.4046
 1563TIP3    H2 4696   1.553   4.543   4.744  0.2798 -0.3625  0.0043
 1564TIP3   OH2 4697   1.425   0.906   0.054  0.3799  0.0389  0.4841
 1564TIP3    H1 4698   1.427   0.943   0.142 -0.9702  1.6486 -0.1108
 1564TIP3    H2 4699   1.332   0.889   0.038  0.4974  0.6553 -0.9581
 1565TIP3   OH2 4700   2.814   0.764   4.548 -0.0414  0.0313  0.0297
 1565TIP3    H1 4701   2.770   0.706   4.611 -1.2711 -0.0927 -0.8996
 1565TIP3    H2 4702   2.843   0.838   4.600  0.3014 -0.7544  0.9997
 1566TIP3   OH2 4703   1.614   5.354   3.362 -0.2687  0.8145 -0.3068
 1566TIP3    H1 4704   1.599   5.442   3.330  1.1475  1.6302  1.1263
 1566TIP3    H2 4705   1.574   5.352   3.449  0.3333  0.3083 -0.0268
 1567TIP3   OH2 4706   2.555   1.783   3.914 -0.3296 -0.6936 -0.4570
 1567TIP3    H1 4707   2.566   1.706   3.860 -0.4084 -2.1751  1.5256
 1567TIP3    H2 4708   2.643   1.822   3.918  0.3431 -2.2178  0.6570
 1568TIP3   OH2 4709   3.462   1.290   3.541 -0.3527  0.3417 -0.0415
 1568TIP3    H1 4710   3.455   1.224   3.610  0.8134 -0.1134 -0.3311
 1568TIP3    H2 4711   3.517   1.249   3.475 -1.5110  0.7401 -1.2993
 1569TIP3   OH2 4712   4.345   5.420   0.285  0.1261 -0.1884  0.0090
 1569TIP3    H1 4713   4.378   5.481   0.218 -0.5917  0.8573  0.5933
 1569TIP3    H2 4714   4.424   5.378   0.319  0.4689 -1.1969 -1.9016
 1570TIP3   OH2 4715   4.809   3.828   4.955 -0.6051  0.0279 -0.1754
 1570TIP3    H1 4716   4.730   3.847   5.005 -0.3322  0.2575  0.1744
 1570TIP3    H2 4717   4.801   3.883   4.877 -0.5437  0.4558  0.1126
 1571TIP3   OH2 4718   4.898   4.765   4.759 -0.1277 -0.2934 -0.2176
 1571TIP3    H1 4719   4.812   4.727   4.743 -0.3275 -0.5815  1.3922
 1571TIP3    H2 4720   4.888   4.858   4.736 -0.5899 -0.5062 -0.9194
 1572TIP3   OH2 4721   3.849   2.806   2.409  0.6402 -0.3332 -0.0062
 1572TIP3    H1 4722   3.815   2.878   2.461  2.1380  0.6186 -0.2904
 1572TIP3    H2 4723   3.773   2.751   2.391 -0.3180  0.5629  1.1870
 1573TIP3   OH2 4724   0.606   0.285   3.269 -0.1240 -0.2882 -0.2595
 1573TIP3    H1 4725   0.651   0.210   3.230  1.2301 -0.4318  1.4744
 1573TIP3    H2 4726   0.583   0.256   3.357  2.3817  1.9537  1.2765
 1574TIP3   OH2 4727   6.090   5.674   4.909 -0.4972 -0.0237 -0.1473
 1574TIP3    H1 4728   6.032   5.750   4.898  0.8492  1.3887  1.7825
 1574TIP3    H2 4729   6.041   5.601   4.871 -1.4766  1.9027 -3.0215
 1575TIP3   OH2 4730   0.114   5.651   1.538 -0.1429  0.2029 -0.0482
 1575TIP3    H1 4731   0.132   5.561   1.566 -0.1850  0.0375 -0.5581
 1575TIP3    H2 4732   0.170   5.704   1.595 -0.1090 -0.1413  0.2485
 1576TIP3   OH2 4733   2.411   0.579   4.188  0.0789  0.0107 -0.1115
 1576TIP3    H1 4734   2.492   0.626   4.167  0.3130 -0.2478  0.2162
 1576TIP3    H2 4735   2.428   0.488   4.164  0.4812 -0.3681  1.4870
 1577TIP3   OH2 4736   0.334   2.595   1.677 -0.3524  0.7181 -0.3336
 1577TIP3    H1 4737   0.350   2.568   1.767 -1.6593 -1.0028 -0.5812
 1577TIP3    H2 4738   0.317   2.689   1.684  1.8947  1.1295  0.8652
 1578TIP3   OH2 4739   2.120   2.890   3.764  0.1272  0.9804  0.3617
 1578TIP3    H1 4740   2.133   2.976   3.724  1.9539 -0.3809 -2.2114
 1578TIP3    H2 4741   2.025   2.876   3.760 -0.0467  2.2270 -0.5814
 1579TIP3   OH2 4742   2.063   2.837   0.242  0.2115  0.2383 -0.0098
 1579TIP3    H1 4743   2.136   2.809   0.298 -0.2611  1.0860  1.0818
 1579TIP3    H2 4744   1.985   2.815   0.292 -0.3587 -1.5729 -1.6086
 1580TIP3   OH2 4745   0.626   5.526   1.374 -0.4018  0.2296 -0.7212
 1580TIP3    H1 4746   0.585   5.529   1.460  1.2264 -0.5327  0.1248
 1580TIP3    H2 4747   0.554   5.508   1.313 -1.4363 -0.1209  0.5760
 1581TIP3   OH2 4748   5.239   1.867   0.934  0.5120 -0.2077 -0.1226
 1581TIP3    H1 4749   5.271   1.813   0.862 -0.8894 -0.9470 -0.2259
 1581TIP3    H2 4750   5.151   1.833   0.953 -1.7230  3.7368 -2.0658
 1582TIP3   OH2 4751   1.945   0.617   0.900 -0.6527 -0.1926 -0.2191
 1582TIP3    H1 4752   1.997   0.680   0.950 -0.3654 -1.2523  0.8568
 1582TIP3    H2 4753   1.860   0.659   0.890  0.1042  1.1774 -1.2103
 1583TIP3   OH2 4754   3.972   5.779   3.580 -0.3298  0.2247  0.1730
 1583TIP3    H1 4755   3.963   5.731   3.662  0.9391 -0.4549 -0.0411
 1583TIP3    H2 4756   3.954   5.713   3.512 -1.3198  0.7648 -0.0961
 1584TIP3   OH2 4757   6.124   3.191   4.962 -0.2701 -0.4780 -0.2170
 1584TIP3    H1 4758   6.113   3.120   5.025 -0.6082 -0.9128 -0.7581
 1584TIP3    H2 4759   6.218   3.197   4.948 -0.2266 -0.6860 -0.0087
 1585TIP3   OH2 4760   2.678   3.518   4.210 -0.3456 -0.5066 -0.4631
 1585TIP3    H1 4761   2.601   3.567   4.239  0.9058  1.0223  0.4669
 1585TIP3    H2 4762   2.742   3.585   4.185 -0.1375 -1.7385 -3.7216
 1586TIP3   OH2 4763   6.072   1.372   0.582 -0.3750  0.7412  0.6691
 1586TIP3    H1 4764   6.073   1.410   0.670  0.1715  2.5504 -0.0740
 1586TIP3    H2 4765   6.114   1.287   0.593  2.5669  2.1783  1.6673
 1587TIP3   OH2 4766   3.689   5.750   1.397  0.4370  0.0804 -0.3004
 1587TIP3    H1 4767   3.662   5.822   1.454  1.0686  0.2040 -0.1574
 1587TIP3    H2 4768   3.626   5.753   1.324  0.8339  1.1687 -0.6201
 1588TIP3   OH2 4769   1.263   5.824   4.103 -0.2307  0.2248  0.0929
 1588TIP3    H1 4770   1.180   5.865   4.081 -0.9780 -1.7235 -1.0542
 1588TIP3    H2 4771   1.239   5.742   4.147  1.0274 -0.6833 -0.8161
 1589TIP3   OH2 4772   5.287   1.550   4.101  0.2210  0.2987 -0.4776
 1589TIP3    H1 4773   5.348   1.484   4.065 -0.0712 -0.6941  0.7701
 1589TIP3    H2 4774   5.208   1.500   4.122 -0.0466  1.0621  0.3935
 1590TIP3   OH2 4775   4.417   0.285   2.373  0.5132 -0.1080 -0.3376
 1590TIP3    H1 4776   4.493   0.252   2.324  1.0370  0.4168  0.1103
 1590TIP3    H2 4777   4.408   0.376   2.344 -0.7051 -0.5039 -1.2983
 1591TIP3   OH2 4778   1.146   4.683   0.529  0.1696  0.3814  0.1153
 1591TIP3    H1 4779   1.201   4.643   0.597  1.0765  1.6075  0.1241
 1591TIP3    H2 4780   1.167   4.633   0.450 -1.0968 -1.2393  0.7370
 1592TIP3   OH2 4781   3.555   2.145   0.044  0.2419  0.2462  0.3907
 1592TIP3    H1 4782   3.595   2.079  -0.013  0.4939  0.3673  0.4262
 1592TIP3    H2 4783   3.499   2.094   0.103 -1.7620  0.2749 -1.3454
 1593TIP3   OH2 4784   4.733   2.574   0.553  0.1798 -0.1259 -0.3667
 1593TIP3    H1 4785   4.803   2.536   0.501  1.8838 -0.2609  1.8805
 1593TIP3    H2 4786   4.728   2.665   0.524  1.3118 -0.1124 -0.5673
 1594TIP3   OH2 4787   3.893   2.663   1.879 -0.1576 -0.0321  0.1694
 1594TIP3    H1 4788   3.824   2.720   1.844  1.0746  1.4558  0.0876
 1594TIP3    H2 4789   3.904   2.694   1.969  1.0529  0.3939 -0.1131
 1595TIP3   OH2 4790   5.043   1.768   1.450  0.5716  0.0467 -0.4840
 1595TIP3    H1 4791   5.061   1.696   1.390  0.8640  0.9428 -1.4913
 1595TIP3    H2 4792   5.059   1.847   1.399 -2.0490  0.8913 -0.1285
 1596TIP3   OH2 4793   0.939   1.937   0.226  0.1169  0.4146 -0.3264
 1596TIP3    H1 4794   0.970   1.846   0.229  1.7811  0.8526 -1.9246
 1596TIP3    H2 4795   0.884   1.947   0.304 -0.1264 -1.9497 -0.1224
 1597TIP3   OH2 4796   5.237   2.210   1.174  0.1290 -0.1353 -0.0061
 1597TIP3    H1 4797   5.196   2.142   1.228 -1.5740 -0.3722 -1.5302
 1597TIP3    H2 4798   5.293   2.162   1.113 -0.8216 -0.1793 -0.8671
 1598TIP3   OH2 4799   3.555   1.470   3.319 -0.3468 -0.3832 -0.0637
 1598TIP3    H1 4800   3.597   1.489   3.402  0.0849  0.1484 -0.3968
 1598TIP3    H2 4801   3.491   1.541   3.307 -0.3955 -0.4478 -0.1913
 1599TIP3   OH2 4802   3.364   3.894   0.650 -0.3704  0.5221 -0.2273
 1599TIP3    H1 4803   3.428   3.823   0.641 -0.9172 -0.2422  1.4608
 1599TIP3    H2 4804   3.286   3.851   0.687 -0.6370  2.0152  1.0635
 1600TIP3   OH2 4805   5.574   0.094   2.736 -0.2695  0.0578 -0.2401
 1600TIP3    H1 4806   5.618   0.120   2.817  1.8766  2.3603 -1.9960
 1600TIP3    H2 4807   5.546   0.176   2.696 -2.4688 -1.0938 -1.2873
 1601TIP3   OH2 4808   5.515   2.648   4.802 -0.2272 -0.2093 -0.0746
 1601TIP3    H1 4809   5.509   2.743   4.816  0.0909 -0.2989  0.7095
 1601TIP3    H2 4810   5.544   2.640   4.711  0.7828  0.4816  0.1633
 1602TIP3   OH2 4811   4.981   1.080   0.423 -0.9225 -0.1604 -0.1205
 1602TIP3    H1 4812   4.954   1.105   0.512 -0.2021 -0.3308  0.1521
 1602TIP3    H2 4813   4.900   1.085   0.371 -1.0898  1.3913  0.2181
 1603TIP3   OH2 4814   1.637   0.521   2.718  0.2856  0.0180 -0.3924
 1603TIP3    H1 4815   1.701   0.584   2.685 -0.8339  1.3189 -0.1516
 1603TIP3    H2 4816   1.624   0.546   2.809  1.1058 -1.6634  0.2135
 1604TIP3   OH2 4817   2.642   1.511   2.424  0.7284  0.0955  0.6220
 1604TIP3    H1 4818   2.561   1.553   2.453  0.6882 -0.5745  1.5468
 1604TIP3    H2 4819   2.704   1.530   2.494  1.0562 -0.3138  0.4415
 1605TIP3   OH2 4820   3.003   4.058   4.825 -0.2291  0.0162  0.5081
 1605TIP3    H1 4821   2.967   4.057   4.914  2.2716 -1.1309  1.6006
 1605TIP3    H2 4822   2.992   4.148   4.796  2.0933  1.4503  3.4705
 1606TIP3   OH2 4823   0.105   3.497   1.512  0.3250  0.2780  0.3309
 1606TIP3    H1 4824   0.098   3.412   1.468 -0.5920  1.0427 -1.0821
 1606TIP3    H2 4825   0.108   3.561   1.441 -0.8574  1.5528  1.3633
 1607TIP3   OH2 4826   0.385   2.427   2.868 -0.1597  0.4816  0.3295
 1607TIP3    H1 4827   0.303   2.475   2.882 -0.4014 -0.3414  1.9142
 1607TIP3    H2 4828   0.386   2.361   2.937  1.4045 -0.1228 -0.2435
 1608TIP3   OH2 4829   5.056   4.747   5.196 -0.0124 -0.1206 -0.2820
 1608TIP3    H1 4830   4.982   4.727   5.138 -0.5650 -2.2140  1.0182
 1608TIP3    H2 4831   5.124   4.686   5.170  0.7009  0.7173 -0.4192
 1609TIP3   OH2 4832   5.628   1.672   2.565 -0.0239 -0.0427 -0.2602
 1609TIP3    H1 4833   5.632   1.717   2.649 -0.1145 -0.8900  0.2034
 1609TIP3    H2 4834   5.566   1.601   2.578 -0.6725  0.3025 -1.2861
 1610TIP3   OH2 4835   2.545   1.738   4.189  0.0829 -0.2036  0.2926
 1610TIP3    H1 4836   2.565   1.719   4.097  3.5490  2.2757  0.3269
 1610TIP3    H2 4837   2.482   1.810   4.185  1.0165  0.6243 -0.2600
 1611TIP3   OH2 4838   3.877   4.001   5.106 -0.2170  0.0532  0.2805
 1611TIP3    H1 4839   3.879   4.084   5.154  1.3711  0.4447 -0.3994
 1611TIP3    H2 4840   3.787   3.993   5.076 -0.4506  1.4291  0.5441
 1612TIP3   OH2 4841   0.365   5.350   1.366 -0.0957 -0.2638  0.4040
 1612TIP3    H1 4842   0.399   5.338   1.454 -1.2342 -0.1030  0.8720
 1612TIP3    H2 4843   0.381   5.267   1.322  1.5775  0.0439  0.3621
 1613TIP3   OH2 4844   4.349   5.114   1.615  0.6288 -0.5889 -0.0126
 1613TIP3    H1 4845   4.365   5.032   1.661  0.9273 -0.2083  0.5613
 1613TIP3    H2 4846   4.358   5.182   1.682  0.4745 -0.0795 -0.5023
 1614TIP3   OH2 4847   4.904   1.603   0.058 -0.2087 -0.6527  0.3071
 1614TIP3    H1 4848   4.999   1.587   0.057  0.0228  0.5984  0.8641
 1614TIP3    H2 4849   4.894   1.685   0.106 -1.1773  1.8512 -3.6589
 1615TIP3   OH2 4850   5.098   4.203   1.127  0.0675 -0.0735  0.0798
 1615TIP3    H1 4851   5.021   4.250   1.159 -0.8328 -0.1667 -1.7839
 1615TIP3    H2 4852   5.172   4.248   1.166 -0.8245  2.0402 -0.5250
 1616TIP3   OH2 4853   5.045   0.994   4.911 -0.2372  1.1276  0.2532
 1616TIP3    H1 4854   5.015   1.009   5.001  0.4381  1.5558  0.4109
 1616TIP3    H2 4855   5.119   0.934   4.920 -1.9011 -1.1355 -0.2466
 1617TIP3   OH2 4856   4.078   2.786   1.255 -0.4105 -0.0502  0.1156
 1617TIP3    H1 4857   4.138   2.792   1.181  1.2829 -2.3505  1.1833
 1617TIP3    H2 4858   4.083   2.872   1.296  1.1137  0.2544 -0.6112
 1618TIP3   OH2 4859   0.434   2.885   0.328 -0.3490 -0.4307 -0.2100
 1618TIP3    H1 4860   0.496   2.817   0.356 -0.5777 -0.4865  0.1712
 1618TIP3    H2 4861   0.360   2.876   0.388 -0.4961 -0.0168 -0.3263
 1619TIP3   OH2 4862   6.082   3.241   4.453 -0.4136 -0.0395 -0.1938
 1619TIP3    H1 4863   6.002   3.189   4.450 -0.7113  0.3868  0.1298
 1619TIP3    H2 4864   6.079   3.283   4.539  1.3900 -1.9184  0.8641
 1620TIP3   OH2 4865   6.010   5.032   2.899  0.0537  0.2800 -0.2615
 1620TIP3    H1 4866   5.947   5.073   2.840 -0.0071  0.9710  0.2735
 1620TIP3    H2 4867   6.092   5.081   2.885  0.6540 -0.9574 -1.3509
 1621TIP3   OH2 4868   0.904   1.681   2.330  0.6097 -0.0707  0.2888
 1621TIP3    H1 4869   0.858   1.644   2.255 -0.3639 -0.4760  1.0603
 1621TIP3    H2 4870   0.940   1.605   2.375  2.8627  0.2822 -0.7708
 1622TIP3   OH2 4871   5.029   1.415   0.562 -0.0965 -0.6233 -0.2504
 1622TIP3    H1 4872   4.981   1.343   0.603  1.0715 -1.2168  0.1359
 1622TIP3    H2 4873   5.111   1.374   0.531 -0.4679  0.0208 -2.2515
 1623TIP3   OH2 4874   4.259   1.695   3.729 -0.2310  0.6443  0.1547
 1623TIP3    H1 4875   4.225   1.737   3.809 -0.6805 -3.5663  2.4364
 1623TIP3    H2 4876   4.353   1.691   3.743 -0.4301 -1.3192  1.2683
 1624TIP3   OH2 4877   1.038   1.196   1.473 -0.2623  0.1406  0.2973
 1624TIP3    H1 4878   0.993   1.119   1.439  0.4019 -0.1857  0.1447
 1624TIP3    H2 4879   1.100   1.162   1.538  1.5653  0.2716 -1.2800
 1625TIP3   OH2 4880   1.291   2.327   3.178  0.2851 -0.0999 -0.0480
 1625TIP3    H1 4881   1.280   2.421   3.163 -0.5584 -0.1917 -0.0915
 1625TIP3    H2 4882   1.269   2.287   3.094 -0.0607 -0.3670  0.1655
 1626TIP3   OH2 4883   2.410   0.777   2.384  0.3758  1.2692 -0.1609
 1626TIP3    H1 4884   2.369   0.799   2.468  1.1940  1.0145  0.3114
 1626TIP3    H2 4885   2.336   0.766   2.324 -0.3709 -0.6689  1.0220
 1627TIP3   OH2 4886   1.486   2.719   2.677  0.1701  0.4464  0.3244
 1627TIP3    H1 4887   1.455   2.704   2.588  0.1949  0.7984  0.2574
 1627TIP3    H2 4888   1.558   2.781   2.667  0.7494 -0.1837  0.4985
 1628TIP3   OH2 4889   3.326   4.736   0.712  0.4635  0.3073 -0.0836
 1628TIP3    H1 4890   3.412   4.698   0.696  1.1946  1.5661  0.6586
 1628TIP3    H2 4891   3.342   4.831   0.714 -0.9648  0.5700 -0.0536
 1629TIP3   OH2 4892   5.657   3.310   2.659 -0.2132 -0.0047 -0.1014
 1629TIP3    H1 4893   5.701   3.234   2.622 -0.2402 -1.2509  2.2224
 1629TIP3    H2 4894   5.675   3.305   2.753  0.5014  3.3464  0.0768
 1630TIP3   OH2 4895   6.203   0.557   0.674 -0.2303  0.2445  0.6147
 1630TIP3    H1 4896   6.112   0.542   0.649 -0.1394 -0.3462  0.6341
 1630TIP3    H2 4897   6.219   0.648   0.650 -0.0684 -0.3497 -1.8107
 1631TIP3   OH2 4898   5.501   2.673   0.863  0.2770  0.0878  0.4143
 1631TIP3    H1 4899   5.475   2.669   0.955  0.3057 -0.1995  0.4111
 1631TIP3    H2 4900   5.493   2.765   0.839 -0.8534  0.0026  0.3819
 1632TIP3   OH2 4901   0.155   5.352   3.922 -0.2407 -0.3282  0.1721
 1632TIP3    H1 4902   0.100   5.369   3.845 -1.1706  0.2682  0.9518
 1632TIP3    H2 4903   0.226   5.298   3.888 -0.5256  0.0783 -1.1508
 1633TIP3   OH2 4904   3.418   5.154   3.691  0.2985  0.0929  0.0957
 1633TIP3    H1 4905   3.497   5.157   3.745  0.5712 -0.3398 -0.2740
 1633TIP3    H2 4906   3.448   5.120   3.606 -0.4593 -1.0873  0.2802
 1634TIP3   OH2 4907   3.893   0.582   1.746 -0.1616  0.4793 -0.5375
 1634TIP3    H1 4908   3.967   0.632   1.779  0.8648 -1.9650  1.2118
 1634TIP3    H2 4909   3.906   0.578   1.651  0.2382  2.5781 -0.6002
 1635TIP3   OH2 4910   3.600   3.615   2.770 -0.3590  0.0331 -0.2743
 1635TIP3    H1 4911   3.611   3.700   2.812 -0.4066  0.2687 -0.7337
 1635TIP3    H2 4912   3.570   3.635   2.682  0.0710 -0.4395 -0.5366
 1636TIP3   OH2 4913   5.929   3.369   5.066 -0.2597 -0.7509 -0.3588
 1636TIP3    H1 4914   5.997   3.313   5.026 -1.7251 -2.0978 -1.0878
 1636TIP3    H2 4915   5.848   3.321   5.050 -1.2004 -0.0721  2.0831
 1637TIP3   OH2 4916   1.008   1.255   3.810  0.2174 -0.1139 -0.2833
 1637TIP3    H1 4917   0.945   1.327   3.816  0.0696 -0.1254 -1.5025
 1637TIP3    H2 4918   1.093   1.299   3.812  0.1784 -0.0776  1.0799
 1638TIP3   OH2 4919   5.908   2.275   2.314  1.1234  0.3314 -0.1931
 1638TIP3    H1 4920   5.863   2.357   2.292  0.5150 -0.3396 -1.5441
 1638TIP3    H2 4921   5.843   2.207   2.298  1.3694 -0.3837  1.6910
 1639TIP3   OH2 4922   6.236   1.894   2.889  0.1729  0.1535 -0.3629
 1639TIP3    H1 4923   6.220   1.841   2.967 -3.2291  0.3127 -0.8147
 1639TIP3    H2 4924   6.314   1.855   2.849  1.0661 -0.9162  2.2148
 1640TIP3   OH2 4925   5.652   2.361   4.006 -0.1194  0.8214  0.1683
 1640TIP3    H1 4926   5.639   2.407   3.924 -2.9800 -0.7471 -0.3700
 1640TIP3    H2 4927   5.715   2.292   3.985  1.0283  1.8989 -0.0351
 1641TIP3   OH2 4928   3.535   1.749   0.697  0.1315 -0.2886  0.2049
 1641TIP3    H1 4929   3.621   1.776   0.730 -0.2001  0.3628  0.5704
 1641TIP3    H2 4930   3.507   1.680   0.757  1.6231 -2.5676 -1.5884
 1642TIP3   OH2 4931   0.393   4.469   3.445  0.6378  0.2107  0.2639
 1642TIP3    H1 4932   0.313   4.463   3.499 -0.4131 -3.0590 -1.4080
 1642TIP3    H2 4933   0.383   4.552   3.397 -2.0615 -0.3113 -0.2442
 1643TIP3   OH2 4934   5.710   0.836   0.994  0.0811  0.0856  0.2770
 1643TIP3    H1 4935   5.724   0.759   0.939  0.2425 -0.0805  0.5528
 1643TIP3    H2 4936   5.737   0.809   1.081  0.7980  0.6721  0.2406
 1644TIP3   OH2 4937   5.268   5.925   3.325 -0.2637  0.4771 -0.1767
 1644TIP3    H1 4938   5.177   5.908   3.347 -0.3804  0.7546 -0.4423
 1644TIP3    H2 4939   5.317   5.859   3.373 -0.5890  0.4697  0.1455
 1645TIP3   OH2 4940   1.536   1.964   5.148 -0.0044 -0.4007  0.0469
 1645TIP3    H1 4941   1.612   1.996   5.099  0.5532 -2.4599 -0.5431
 1645TIP3    H2 4942   1.476   2.039   5.151  1.5432  0.9223 -0.4803
 1646TIP3   OH2 4943   3.655   5.528   3.668  0.7051 -0.4365 -0.0920
 1646TIP3    H1 4944   3.732   5.473   3.663  0.3578 -0.9917  0.4822
 1646TIP3    H2 4945   3.620   5.529   3.579  0.3259 -1.7302  0.0226
 1647TIP3   OH2 4946   5.834   0.577   0.902 -0.5157  0.3433 -0.6162
 1647TIP3    H1 4947   5.761   0.618   0.856 -1.1977 -0.7684 -0.5476
 1647TIP3    H2 4948   5.875   0.520   0.837 -0.2660  0.2709 -0.3983
 1648TIP3   OH2 4949   2.513   2.418   0.793 -0.0093  0.6737 -0.3223
 1648TIP3    H1 4950   2.596   2.445   0.832 -0.7934  0.9304  1.2420
 1648TIP3    H2 4951   2.538   2.354   0.726  1.3851 -0.2768  1.0226
 1649TIP3   OH2 4952   2.566  -0.019   1.508  0.0815  0.0162  0.6053
 1649TIP3    H1 4953   2.500   0.047   1.486  0.7481  0.6102  0.3650
 1649TIP3    H2 4954   2.636   0.030   1.552  0.7485 -0.4677  0.0986
 1650TIP3   OH2 4955   4.544   1.808   4.836  0.2464 -0.1840  0.7858
 1650TIP3    H1 4956   4.483   1.826   4.765  1.0921 -2.3401 -0.5975
 1650TIP3    H2 4957   4.586   1.726   4.811  0.7053 -0.9530  3.7380
 1651TIP3   OH2 4958   6.131   1.706   1.335 -0.1603  0.6775  0.3275
 1651TIP3    H1 4959   6.187   1.669   1.403 -0.8456 -0.6477  0.2051
 1651TIP3    H2 4960   6.187   1.769   1.290  1.2318 -0.5682  0.2347
 1652TIP3   OH2 4961   5.503   0.299   3.052 -0.0571 -0.1939  0.0246
 1652TIP3    H1 4962   5.455   0.271   3.130  0.7667  0.6177  0.8494
 1652TIP3    H2 4963   5.560   0.225   3.031 -0.6106 -0.5952 -0.0972
 1653TIP3   OH2 4964   3.153   2.065   4.742  0.2795  0.5280 -0.1829
 1653TIP3    H1 4965   3.192   2.076   4.828 -1.9673 -0.5207  1.0687
 1653TIP3    H2 4966   3.072   2.016   4.758  1.0599 -2.0955 -3.1747
 1654TIP3   OH2 4967   2.755   2.567   0.884 -0.4497 -0.4100 -0.4127
 1654TIP3    H1 4968   2.704   2.569   0.965 -0.2109  1.1291 -0.2662
 1654TIP3    H2 4969   2.721   2.640   0.833  0.4745 -0.3911 -1.0239
 1655TIP3   OH2 4970   0.814   1.013   2.422  0.4162 -0.6052 -0.2576
 1655TIP3    H1 4971   0.768   1.096   2.437 -0.5365 -0.7957 -1.8607
 1655TIP3    H2 4972   0.881   1.010   2.490  0.6857  1.6313 -0.3381
 1656TIP3   OH2 4973   1.345   3.645   1.099 -0.5017  0.1821 -0.6258
 1656TIP3    H1 4974   1.403   3.704   1.146 -0.2266 -1.1244  0.7628
 1656TIP3    H2 4975   1.386   3.559   1.107 -1.2595 -0.3399 -1.9535
 1657TIP3   OH2 4976   4.008   4.253   1.170 -0.1161  0.7914 -0.2691
 1657TIP3    H1 4977   3.949   4.316   1.127  0.4696  1.0323 -0.7445
 1657TIP3    H2 4978   4.094   4.272   1.131  0.0460 -0.3875 -0.5025
 1658TIP3   OH2 4979   5.680   2.957   0.127  0.5376 -0.1841 -0.3042
 1658TIP3    H1 4980   5.697   3.050   0.138  0.7940 -0.3864  1.2307
 1658TIP3    H2 4981   5.605   2.953   0.067  1.9582  0.9071 -2.2839
 1659TIP3   OH2 4982   3.490   4.945   3.127  0.2077  0.6748 -0.2520
 1659TIP3    H1 4983   3.420   5.010   3.125  1.1385  1.7455  0.2841
 1659TIP3    H2 4984   3.471   4.892   3.205 -1.1758 -0.4662 -1.3115
 1660TIP3   OH2 4985   5.519   1.141   3.711 -0.4757 -0.4565 -0.6099
 1660TIP3    H1 4986   5.561   1.202   3.771 -1.2576 -1.6942  1.2760
 1660TIP3    H2 4987   5.592   1.100   3.663  0.2080 -0.0244  0.0401
 1661TIP3   OH2 4988   1.920   3.326   2.682  0.4393 -0.1988 -0.3057
 1661TIP3    H1 4989   1.884   3.357   2.766  0.4835  0.5881 -0.5617
 1661TIP3    H2 4990   1.865   3.252   2.658 -0.2805  0.2554 -0.1104
 1662TIP3   OH2 4991   3.230   4.688   4.742  0.5432  0.3070  0.0700
 1662TIP3    H1 4992   3.313   4.704   4.696  0.6862  1.2399  0.6121
 1662TIP3    H2 4993   3.165   4.734   4.689  0.4661  0.0869 -0.0264
 1663TIP3   OH2 4994   0.072   1.070   4.549  0.1014  0.0072  0.3332
 1663TIP3    H1 4995  -0.022   1.055   4.536 -0.3107  2.0771  0.5815
 1663TIP3    H2 4996   0.097   1.005   4.615 -0.6166 -2.0384 -1.2747
 1664TIP3   OH2 4997   1.220   3.201   2.665  0.4143  0.2300  0.8675
 1664TIP3    H1 4998   1.221   3.140   2.739  2.4620 -2.7702 -1.3509
 1664TIP3    H2 4999   1.303   3.248   2.672  0.9922 -0.6336  0.1589
 1665TIP3   OH2 5000   3.954   1.284   3.736  0.3132  0.0487  0.5473
 1665TIP3    H1 5001   3.944   1.229   3.813  0.6030  1.3141  1.5356
 1665TIP3    H2 5002   3.939   1.373   3.769 -0.7286  0.5171 -1.1018
 1666TIP3   OH2 5003   5.309   3.453   4.144  0.1113 -0.1782  0.2697
 1666TIP3    H1 5004   5.392   3.492   4.173  0.9707 -0.2696 -1.8810
 1666TIP3    H2 5005   5.334   3.391   4.076 -1.7627  0.1630 -0.8023
 1667TIP3   OH2 5006   1.959   0.033   4.340  0.5931 -0.0252  0.7168
 1667TIP3    H1 5007   2.001  -0.046   4.306  1.4636  0.8372 -0.2833
 1667TIP3    H2 5008   1.996   0.044   4.428  3.1195  1.0844 -0.3711
 1668TIP3   OH2 5009   3.539   3.213   0.257  0.5000  0.0957 -0.4847
 1668TIP3    H1 5010   3.624   3.197   0.216  1.2323  1.2278  0.5423
 1668TIP3    H2 5011   3.557   3.273   0.329 -1.1343  0.1373 -0.0594
 1669TIP3   OH2 5012   1.388   0.398   2.816 -0.2293  0.0103  0.4726
 1669TIP3    H1 5013   1.478   0.421   2.790 -0.6457  0.2455 -0.8342
 1669TIP3    H2 5014   1.398   0.355   2.901  1.0270  0.9294  0.8358
 1670TIP3   OH2 5015   2.681   5.428   2.793  0.2547  0.1188  0.5235
 1670TIP3    H1 5016   2.644   5.510   2.827 -0.1601 -0.1637  0.7497
 1670TIP3    H2 5017   2.698   5.447   2.700  0.4033  0.5437  0.6343
 1671TIP3   OH2 5018   3.649   2.143   0.478  0.1414 -0.3147 -0.4027
 1671TIP3    H1 5019   3.586   2.206   0.512  0.0960  1.2808 -3.1461
 1671TIP3    H2 5020   3.734   2.185   0.488  0.3932 -0.8980 -0.0212
 1672TIP3   OH2 5021   5.775   2.645   0.079  0.2960 -0.3327  0.9744
 1672TIP3    H1 5022   5.731   2.638   0.164 -2.1353  1.3516 -0.0125
 1672TIP3    H2 5023   5.765   2.737   0.055  0.8781 -0.7759 -1.1490
 1673TIP3   OH2 5024   6.190   3.308   0.722 -0.2253 -0.0012 -0.6968
 1673TIP3    H1 5025   6.203   3.231   0.777 -1.6305 -0.5946 -1.1708
 1673TIP3    H2 5026   6.278   3.346   0.714  0.2241 -0.6183  0.8739
 1674TIP3   OH2 5027   0.046   5.640   3.426  0.2904  0.1069 -0.0199
 1674TIP3    H1 5028   0.109   5.575   3.456 -1.1245 -0.6128  1.5245
 1674TIP3    H2 5029   0.087   5.724   3.445  0.8435 -0.3490  0.8595
 1675TIP3   OH2 5030   4.103   2.416   0.339 -0.2747  0.0094  0.9438
 1675TIP3    H1 5031   4.125   2.335   0.385 -0.0857 -0.3435  0.2436
 1675TIP3    H2 5032   4.151   2.484   0.386  0.6899 -0.4760  0.6752
 1676TIP3   OH2 5033   5.229   2.133   2.713 -0.0873  0.2602 -0.9645
 1676TIP3    H1 5034   5.298   2.174   2.662 -0.7317  0.7443 -1.4724
 1676TIP3    H2 5035   5.154   2.129   2.653  0.1857 -2.5073 -1.2580
 1677TIP3   OH2 5036   5.066   1.559   2.747 -0.1716 -0.2203  0.5955
 1677TIP3    H1 5037   4.992   1.498   2.755 -0.6460  0.2498 -0.1041
 1677TIP3    H2 5038   5.041   1.633   2.803 -0.4138  0.1076  0.0595
 1678TIP3   OH2 5039   1.726   2.816   0.986  0.6812 -0.2388 -0.0120
 1678TIP3    H1 5040   1.787   2.744   0.969  0.4338 -0.3386 -0.4753
 1678TIP3    H2 5041   1.728   2.827   1.081  1.0174 -0.5944  0.0235
 1679TIP3   OH2 5042   1.101   3.924   4.462 -0.3348  0.4136 -0.4659
 1679TIP3    H1 5043   1.193   3.901   4.473 -0.1590  1.3084  0.0874
 1679TIP3    H2 5044   1.084   3.986   4.533 -1.5713 -0.3280 -0.0870
 1680TIP3   OH2 5045   4.345   0.789   1.044  0.3722  0.4000  0.5751
 1680TIP3    H1 5046   4.400   0.750   0.976  0.9270  2.6294 -0.3435
 1680TIP3    H2 5047   4.263   0.809   0.999 -0.0408 -0.0344  1.1296
 1681TIP3   OH2 5048   1.957   5.945   0.631  0.3055  0.6290 -0.0929
 1681TIP3    H1 5049   1.961   6.031   0.672  1.7123 -0.2774  1.8328
 1681TIP3    H2 5050   1.869   5.913   0.651 -0.1217  1.4648 -0.5696
 1682TIP3   OH2 5051   4.924   1.241   3.544 -0.4784  0.6875  0.6686
 1682TIP3    H1 5052   4.955   1.250   3.454 -2.5331  0.8076 -0.0830
 1682TIP3    H2 5053   4.875   1.158   3.544  0.1503  0.2944  1.8983
 1683TIP3   OH2 5054   1.020   2.565   3.127  0.0754 -0.9843  0.0581
 1683TIP3    H1 5055   1.108   2.541   3.156  0.5206 -1.1565 -1.3347
 1683TIP3    H2 5056   1.013   2.659   3.146  1.2987 -0.5376 -1.5190
 1684TIP3   OH2 5057   1.947   3.503   4.843  0.0900  0.2193  1.0369
 1684TIP3    H1 5058   1.941   3.547   4.928 -0.2888  2.2119  0.0413
 1684TIP3    H2 5059   1.950   3.575   4.779 -0.9738 -1.2161 -0.7215
 1685TIP3   OH2 5060   3.204   1.022   3.577  0.5276  0.0843  0.7135
 1685TIP3    H1 5061   3.283   1.006   3.525  1.1092  0.3606  1.5001
 1685TIP3    H2 5062   3.228   0.994   3.665 -0.5610 -0.7088  0.7811
 1686TIP3   OH2 5063   3.424   1.700   3.293  0.2272 -0.2090  0.0511
 1686TIP3    H1 5064   3.345   1.751   3.278  0.3602 -0.8113 -3.4921
 1686TIP3    H2 5065   3.496   1.762   3.279  0.3706 -0.4893 -0.4790
 1687TIP3   OH2 5066   0.591   3.459   1.957 -0.0971  0.5432  0.2534
 1687TIP3    H1 5067   0.605   3.489   2.047  0.2549  1.9208 -0.2419
 1687TIP3    H2 5068   0.544   3.530   1.914  1.4767  0.7995 -1.1829
 1688TIP3   OH2 5069   0.262   5.919   4.252 -0.5953  0.1709 -0.2552
 1688TIP3    H1 5070   0.234   5.936   4.342 -2.7203  2.0330 -1.1746
 1688TIP3    H2 5071   0.278   6.006   4.215  4.1939 -0.5833 -0.6653
 1689TIP3   OH2 5072   2.501   3.401   3.040 -0.1246 -0.2580  0.0468
 1689TIP3    H1 5073   2.533   3.460   3.107 -0.4254 -0.4477  0.3563
 1689TIP3    H2 5074   2.550   3.426   2.961  0.3344 -0.1336  0.3646
 1690TIP3   OH2 5075   6.341   0.821   0.982  0.2144  0.0259 -0.1469
 1690TIP3    H1 5076   6.248   0.832   1.005  0.7129 -1.0455  2.7240
 1690TIP3    H2 5077   6.361   0.730   1.003  1.3738 -0.5436 -3.1985
 1691TIP3   OH2 5078   5.621   4.116   1.682  0.3879  0.4408 -0.0130
 1691TIP3    H1 5079   5.673   4.133   1.604  0.2130  0.3342 -0.1516
 1691TIP3    H2 5080   5.625   4.021   1.693  1.8058  0.5807  1.0613
 1692TIP3   OH2 5081   1.366   5.644   0.929 -0.1183  0.2143  0.3871
 1692TIP3    H1 5082   1.305   5.577   0.898 -2.2913  1.7647  1.0804
 1692TIP3    H2 5083   1.376   5.703   0.854 -1.1603  1.0863  0.9150
 1693TIP3   OH2 5084   2.811   2.411   3.434  0.0943 -0.4332 -0.2369
 1693TIP3    H1 5085   2.859   2.382   3.512  1.0219 -0.6806 -0.8848
 1693TIP3    H2 5086   2.736   2.351   3.429 -0.3589  0.0164  0.8397
 1694TIP3   OH2 5087   1.828   1.484   1.543 -0.2707  0.3351 -0.1772
 1694TIP3    H1 5088   1.891   1.412   1.545 -1.1621 -0.4482  0.0421
 1694TIP3    H2 5089   1.881   1.561   1.521  0.6515 -0.4157 -0.6501
 1695TIP3   OH2 5090   0.593   0.991   2.138 -0.2122  0.3293 -0.0296
 1695TIP3    H1 5091   0.511   0.958   2.102 -0.4056 -0.7665  1.3182
 1695TIP3    H2 5092   0.581   1.086   2.142 -0.6511  0.3738 -1.5967
 1696TIP3   OH2 5093   6.051   2.084   2.074  0.0149 -0.4601 -0.1373
 1696TIP3    H1 5094   6.053   2.025   2.149  1.9817  0.7612  0.8452
 1696TIP3    H2 5095   6.018   2.167   2.108 -1.6268 -0.5859 -1.2597
 1697TIP3   OH2 5096   5.323   1.662   4.393  0.4565 -0.3364 -0.2583
 1697TIP3    H1 5097   5.284   1.716   4.324 -0.9100 -1.1844 -0.1958
 1697TIP3    H2 5098   5.403   1.709   4.418 -0.2793  1.2538 -0.7229
 1698TIP3   OH2 5099   0.482   3.510   2.748 -0.2590 -0.6634  0.2329
 1698TIP3    H1 5100   0.560   3.469   2.710  2.4431  1.2553  3.0986
 1698TIP3    H2 5101   0.470   3.590   2.696 -0.0407 -0.7645  0.0225
 1699TIP3   OH2 5102   5.237   2.293   4.402  0.4303  0.4160  0.4339
 1699TIP3    H1 5103   5.252   2.210   4.356  1.7261  0.5316  0.6012
 1699TIP3    H2 5104   5.200   2.268   4.486 -1.8774  0.1886 -0.5681
 1700TIP3   OH2 5105   2.949   1.427   1.646  0.2624 -0.1960  0.4555
 1700TIP3    H1 5106   2.999   1.452   1.723  2.7270 -1.6003 -0.5852
 1700TIP3    H2 5107   3.001   1.359   1.603 -0.5888  1.0225 -2.8668
 1701TIP3   OH2 5108   2.295   4.197   5.124 -0.4510  0.6435 -0.5935
 1701TIP3    H1 5109   2.378   4.243   5.130  0.3958 -0.5847 -2.2037
 1701TIP3    H2 5110   2.248   4.221   5.204  2.4630 -0.6488  1.6912
 1702TIP3   OH2 5111   5.624   4.992   2.146  0.1585 -0.1723  0.4334
 1702TIP3    H1 5112   5.542   4.963   2.107  0.6088  0.0871 -0.7598
 1702TIP3    H2 5113   5.602   5.012   2.237 -0.7861 -1.4040  0.4944
 1703TIP3   OH2 5114   4.451   0.206   2.649 -0.2531 -0.3266  0.1748
 1703TIP3    H1 5115   4.366   0.187   2.687 -0.8426 -0.3562 -1.0918
 1703TIP3    H2 5116   4.431   0.243   2.563  0.9668  1.3583  0.5643
 1704TIP3   OH2 5117   6.049   5.104   4.213 -0.1392 -0.2481 -0.4576
 1704TIP3    H1 5118   6.113   5.164   4.174 -0.9141  0.7937 -0.1737
 1704TIP3    H2 5119   5.979   5.099   4.147 -0.4255 -0.2369 -0.1558
 1705TIP3   OH2 5120   3.779   0.817   2.625 -0.2655  0.5614  0.0256
 1705TIP3    H1 5121   3.732   0.894   2.594 -0.2467  0.5886  0.0632
 1705TIP3    H2 5122   3.871   0.839   2.613 -0.2665  0.4541 -0.1736
 1706TIP3   OH2 5123   1.528   5.070   2.781 -0.2676  0.1308  0.5063
 1706TIP3    H1 5124   1.578   5.141   2.821  0.4861 -0.4751  0.6745
 1706TIP3    H2 5125   1.580   5.046   2.704 -1.4145  0.9184 -0.5458
 1707TIP3   OH2 5126   4.894   5.636   1.153 -0.1782  0.1556 -0.5423
 1707TIP3    H1 5127   4.896   5.650   1.058  1.0292  0.5092 -0.4886
 1707TIP3    H2 5128   4.802   5.646   1.177 -0.6024 -0.6072 -1.7593
 1708TIP3   OH2 5129   5.300   5.102   2.523  0.0179 -0.0794  0.3772
 1708TIP3    H1 5130   5.310   5.110   2.428 -0.6938 -1.8396  0.1174
 1708TIP3    H2 5131   5.385   5.127   2.558  1.0226 -1.5275 -0.8771
 1709TIP3   OH2 5132   0.485   3.676   2.524 -0.1521  0.1972  0.1919
 1709TIP3    H1 5133   0.571   3.650   2.490  0.1073  0.4658  0.6296
 1709TIP3    H2 5134   0.485   3.772   2.516 -0.1190  0.2556  0.8731
 1710TIP3   OH2 5135   1.189   2.081   3.571 -0.0682 -0.0616 -0.4245
 1710TIP3    H1 5136   1.267   2.030   3.552 -0.8764 -1.5718  0.1407
 1710TIP3    H2 5137   1.172   2.130   3.491  0.5439 -0.9463 -1.1166
 1711TIP3   OH2 5138   2.697   4.229   3.971  0.1830 -0.2891 -0.0219
 1711TIP3    H1 5139   2.630   4.202   3.908 -0.2178 -0.3572  0.4249
 1711TIP3    H2 5140   2.685   4.323   3.980 -0.7339 -0.4719  1.0279
 1712TIP3   OH2 5141   3.748   1.908   2.008 -0.1370  0.0994 -0.2932
 1712TIP3    H1 5142   3.739   1.998   1.977  2.2801 -0.4411 -3.0453
 1712TIP3    H2 5143   3.830   1.907   2.057 -0.8996 -0.3398  1.0169
 1713TIP3   OH2 5144   5.322   3.864   2.709  0.2103  0.0868  0.6147
 1713TIP3    H1 5145   5.360   3.933   2.655  1.1758 -0.4935  0.5209
 1713TIP3    H2 5146   5.398   3.816   2.743 -0.4160 -0.2697  1.5459
 1714TIP3   OH2 5147   4.502   0.087   1.229  0.2688 -0.0827 -0.3863
 1714TIP3    H1 5148   4.421   0.129   1.257  0.9979  0.1870  1.4590
 1714TIP3    H2 5149   4.563   0.159   1.215  0.5104 -0.3426 -0.6871
 1715TIP3   OH2 5150   4.842   2.298   3.307  0.2916 -0.3040  0.3362
 1715TIP3    H1 5151   4.756   2.271   3.339  0.8179 -0.1772  1.9887
 1715TIP3    H2 5152   4.825   2.361   3.238 -0.9416 -1.8163 -0.8025
 1716TIP3   OH2 5153   2.262   0.561   3.245  0.0976 -0.2411  0.0527
 1716TIP3    H1 5154   2.305   0.642   3.217  0.9074 -0.8179 -0.4354
 1716TIP3    H2 5155   2.305   0.538   3.328  0.4322 -0.5832 -0.2105
 1717TIP3   OH2 5156   1.541   4.070   3.187 -0.5234 -0.0521  0.1698
 1717TIP3    H1 5157   1.502   4.149   3.148 -0.2839 -0.3099 -0.5997
 1717TIP3    H2 5158   1.543   4.007   3.116 -3.1239 -1.6745  1.3828
 1718TIP3   OH2 5159   0.666   3.589   1.323  0.2712 -0.0016  0.6465
 1718TIP3    H1 5160   0.584   3.588   1.274 -1.2273 -1.6149  3.0071
 1718TIP3    H2 5161   0.731   3.556   1.260 -0.6896  1.7335 -1.4158
 1719TIP3   OH2 5162   3.291   1.705   1.690  0.1459 -0.5571 -0.5083
 1719TIP3    H1 5163   3.380   1.730   1.713  0.0397  1.7947 -2.3490
 1719TIP3    H2 5164   3.257   1.778   1.638 -2.4252 -1.9373 -0.9645
 1720TIP3   OH2 5165   4.720   1.900   0.900  0.1344  0.2174 -0.7039
 1720TIP3    H1 5166   4.791   1.963   0.912  0.1942  0.0774 -0.3007
 1720TIP3    H2 5167   4.641   1.948   0.923  0.3909 -0.5181  2.0597
 1721TIP3   OH2 5168   1.414   3.498   0.326  0.3701  0.1302  0.2268
 1721TIP3    H1 5169   1.444   3.511   0.416 -0.1118  0.9159  0.2847
 1721TIP3    H2 5170   1.373   3.581   0.302  1.6296  0.3984 -1.1672
 1722TIP3   OH2 5171   0.137   3.000   4.744  0.1623 -0.3376 -0.3213
 1722TIP3    H1 5172   0.179   3.044   4.670  0.2328  1.9337  0.9641
 1722TIP3    H2 5173   0.210   2.970   4.798  0.1898  1.0015  0.4436
 1723TIP3   OH2 5174   5.946   3.630   4.834  0.0442 -0.1605 -0.0926
 1723TIP3    H1 5175   5.989   3.545   4.829  0.7246  0.1479  0.3108
 1723TIP3    H2 5176   5.901   3.639   4.750 -0.1958 -0.9958 -0.0593
 1724TIP3   OH2 5177   4.918   3.641   4.167  0.1919 -0.1152 -0.2595
 1724TIP3    H1 5178   4.938   3.562   4.116  1.3451  0.3261 -0.5162
 1724TIP3    H2 5179   4.999   3.691   4.166 -0.4236  0.9184  0.1998
 1725TIP3   OH2 5180   1.946   4.038   3.412  0.2532  0.3269 -0.3415
 1725TIP3    H1 5181   1.898   3.977   3.356  1.5216 -0.8157 -0.2592
 1725TIP3    H2 5182   2.012   4.077   3.354 -0.7126  1.8554 -0.4526
 1726TIP3   OH2 5183   0.712   5.265   0.264  0.4011 -0.3929  0.2128
 1726TIP3    H1 5184   0.699   5.334   0.328  0.1572 -0.2015 -0.0367
 1726TIP3    H2 5185   0.671   5.299   0.184 -0.6126 -1.2162  0.3467
 1727TIP3   OH2 5186   4.047   4.870   4.720 -0.1566 -0.5902  0.2390
 1727TIP3    H1 5187   4.038   4.775   4.722  0.3402 -0.6355  0.9597
 1727TIP3    H2 5188   4.038   4.894   4.628  0.9811 -1.4676 -0.1202
 1728TIP3   OH2 5189   2.181   1.395   0.942 -0.2313 -0.1833  0.2834
 1728TIP3    H1 5190   2.205   1.321   0.885 -0.9741 -0.6720  0.5873
 1728TIP3    H2 5191   2.264   1.423   0.981  0.6258  1.3118 -2.3248
 1729TIP3   OH2 5192   0.875   5.035   0.227  0.2247  0.2015  0.2402
 1729TIP3    H1 5193   0.838   5.120   0.250 -0.9984  0.3895 -2.1551
 1729TIP3    H2 5194   0.961   5.054   0.190  0.7662  0.1758  1.4200
 1730TIP3   OH2 5195   5.250   1.348   0.887  0.2222  0.0689  0.3500
 1730TIP3    H1 5196   5.236   1.431   0.843  0.7119 -0.3289 -0.5892
 1730TIP3    H2 5197   5.319   1.305   0.837 -1.1253 -1.5988 -0.2022
 1731TIP3   OH2 5198   6.252   1.659   2.718  0.0285  0.7123  0.3206
 1731TIP3    H1 5199   6.176   1.613   2.752  0.3675  0.0364  0.1700
 1731TIP3    H2 5200   6.325   1.599   2.731  0.6509  1.5840  1.0184
 1732TIP3   OH2 5201   0.461   0.428   4.874 -0.1391 -0.3651 -0.4657
 1732TIP3    H1 5202   0.536   0.375   4.845  0.0103 -0.5940  0.2981
 1732TIP3    H2 5203   0.501   0.500   4.923 -0.4455 -1.2142  1.0938
 1733TIP3   OH2 5204   3.263   2.470   0.968  0.5702  0.0029 -0.1648
 1733TIP3    H1 5205   3.177   2.498   0.935  0.4288 -1.6475 -1.3003
 1733TIP3    H2 5206   3.251   2.466   1.063 -0.5607 -0.0196 -0.2868
 1734TIP3   OH2 5207   3.342   4.996   2.800 -0.6511 -0.3687 -0.2837
 1734TIP3    H1 5208   3.279   5.059   2.764 -2.0884 -2.0607 -0.9151
 1734TIP3    H2 5209   3.299   4.963   2.879 -0.6982 -1.6864 -0.8267
 1735TIP3   OH2 5210   3.722   3.093   3.217 -0.1164  0.1039  0.0175
 1735TIP3    H1 5211   3.775   3.022   3.253  0.5915  0.1682 -0.8746
 1735TIP3    H2 5212   3.742   3.168   3.272  1.2425  0.2940 -0.7108
 1736TIP3   OH2 5213   5.595   5.203   1.080  0.8499 -0.0593 -0.4479
 1736TIP3    H1 5214   5.670   5.153   1.045  1.9138  1.1528  0.0110
 1736TIP3    H2 5215   5.630   5.247   1.158 -0.5226  0.0696  0.1154
 1737TIP3   OH2 5216   3.673   3.561   3.247  0.3562  0.0299  0.1861
 1737TIP3    H1 5217   3.742   3.627   3.241  0.8500 -0.6006 -1.7421
 1737TIP3    H2 5218   3.609   3.587   3.181  0.6287 -1.4471 -0.7117
 1738TIP3   OH2 5219   0.678   5.334   1.936 -0.1595  0.0885  0.6962
 1738TIP3    H1 5220   0.640   5.421   1.924  0.9856  0.4436 -0.5628
 1738TIP3    H2 5221   0.717   5.312   1.852  1.0053 -0.9378  1.4517
 1739TIP3   OH2 5222   1.710   3.820   1.847 -0.9893  0.5428 -0.4106
 1739TIP3    H1 5223   1.749   3.897   1.888 -2.1004  2.0297 -2.0391
 1739TIP3    H2 5224   1.663   3.854   1.771 -2.1709 -1.6619 -0.7385
 1740TIP3   OH2 5225   3.622   1.690   2.854 -0.1143  0.0455 -0.5655
 1740TIP3    H1 5226   3.630   1.606   2.808 -0.9805 -0.3166 -0.0776
 1740TIP3    H2 5227   3.620   1.667   2.947  0.4199  0.6741 -0.3924
 1741TIP3   OH2 5228   0.407   3.832   1.186  0.2044  0.4455 -0.2817
 1741TIP3    H1 5229   0.499   3.852   1.204  0.4946 -0.3458 -0.8131
 1741TIP3    H2 5230   0.359   3.908   1.217  1.1757  1.6214 -1.5389
 1742TIP3   OH2 5231   4.732   0.835   3.127  0.0006 -0.0398 -0.0274
 1742TIP3    H1 5232   4.652   0.877   3.097  0.7313  1.5565  0.1636
 1742TIP3    H2 5233   4.802   0.896   3.103  1.0560 -0.9157  0.7155
 1743TIP3   OH2 5234   2.909   0.951   0.051 -0.5246  0.3110  0.4094
 1743TIP3    H1 5235   2.998   0.950   0.016  0.0842 -0.7042  1.8831
 1743TIP3    H2 5236   2.920   0.971   0.144 -1.9084  0.8241  0.4952
 1744TIP3   OH2 5237   3.268   3.556   3.490  0.3277  0.3900  0.3919
 1744TIP3    H1 5238   3.312   3.481   3.449 -0.0352 -0.4734  1.5248
 1744TIP3    H2 5239   3.328   3.584   3.559 -0.3022  0.0381  1.0945
 1745TIP3   OH2 5240   2.867   2.981   0.354 -0.4218  0.7177 -0.0445
 1745TIP3    H1 5241   2.869   2.987   0.259 -0.2696  2.9882  0.0621
 1745TIP3    H2 5242   2.803   3.047   0.382 -1.5567 -0.8711  1.3986
 1746TIP3   OH2 5243   5.128   4.300   4.984  0.1356  0.0231  0.4421
 1746TIP3    H1 5244   5.075   4.360   4.932 -0.2499 -1.7656 -1.3484
 1746TIP3    H2 5245   5.066   4.235   5.017  0.9450 -1.2814 -0.4827
 1747TIP3   OH2 5246   1.637   4.532   0.044  0.2359 -0.0730  0.0010
 1747TIP3    H1 5247   1.663   4.518  -0.047 -1.7615  0.2120 -0.6775
 1747TIP3    H2 5248   1.598   4.619   0.045 -3.6361 -1.6099  0.0544
 1748TIP3   OH2 5249   4.005   2.514   5.122  0.3172  0.0604 -0.0644
 1748TIP3    H1 5250   4.030   2.466   5.202  0.1831 -1.3670 -0.8386
 1748TIP3    H2 5251   4.077   2.498   5.061  0.2552  0.8501 -0.3559
 1749TIP3   OH2 5252   3.710   2.703   1.409  0.2294  0.2520 -0.2851
 1749TIP3    H1 5253   3.740   2.612   1.409 -0.6550 -0.0847  1.5832
 1749TIP3    H2 5254   3.737   2.737   1.494 -0.8964  1.2391 -0.2972
 1750TIP3   OH2 5255   5.409   0.869   0.676  0.0532  0.1789  0.6761
 1750TIP3    H1 5256   5.425   0.883   0.770  0.7689  0.0003  0.5882
 1750TIP3    H2 5257   5.315   0.880   0.666 -0.1075 -0.3149  1.5091
 1751TIP3   OH2 5258   6.306   0.318   2.452 -0.4989  0.5886 -0.0154
 1751TIP3    H1 5259   6.288   0.251   2.518 -2.4608  0.2379 -0.8405
 1751TIP3    H2 5260   6.262   0.397   2.486 -1.1671  0.5129 -0.6915
 1752TIP3   OH2 5261   1.877   0.659   3.458  0.2690 -0.4482 -0.2353
 1752TIP3    H1 5262   1.812   0.652   3.387  0.4472  1.8221 -0.7128
 1752TIP3    H2 5263   1.953   0.612   3.425 -0.1103 -0.5730 -0.9701
 1753TIP3   OH2 5264   5.814   1.829   0.580  0.4533 -0.4889  0.1492
 1753TIP3    H1 5265   5.811   1.925   0.577  0.7616 -0.4813  0.0527
 1753TIP3    H2 5266   5.842   1.809   0.670  0.7219 -0.4778  0.0701
 1754TIP3   OH2 5267   1.128   5.152   3.202 -0.4483 -0.3071 -0.2135
 1754TIP3    H1 5268   1.099   5.113   3.284  0.2294  1.4218  0.9027
 1754TIP3    H2 5269   1.221   5.172   3.216 -0.1443 -0.5536 -1.6529
 1755TIP3   OH2 5270   0.760   2.462   3.180 -0.7219 -0.6120 -0.0869
 1755TIP3    H1 5271   0.847   2.502   3.178 -0.6242 -0.6997  1.3187
 1755TIP3    H2 5272   0.753   2.414   3.098  0.3559 -0.1873 -0.4374
 1756TIP3   OH2 5273   1.683   2.976   1.471  0.4200  0.4622 -0.5515
 1756TIP3    H1 5274   1.703   3.024   1.390 -0.6681  0.9061 -0.5819
 1756TIP3    H2 5275   1.705   3.038   1.541  1.6435 -0.0308 -0.4824
 1757TIP3   OH2 5276   3.813   4.831   2.478 -0.2100 -0.0660  0.7173
 1757TIP3    H1 5277   3.722   4.825   2.509 -0.1418 -1.2587  0.7534
 1757TIP3    H2 5278   3.805   4.840   2.383 -0.3805  1.3634  0.8486
 1758TIP3   OH2 5279   6.109   2.528   2.075  0.4693 -0.3293  0.5871
 1758TIP3    H1 5280   6.037   2.546   2.014  0.4544  0.7036  0.8972
 1758TIP3    H2 5281   6.094   2.587   2.148  0.5947 -1.4172  1.5280
 1759TIP3   OH2 5282   0.765   3.084   3.763  0.1527  0.0822 -0.3930
 1759TIP3    H1 5283   0.835   3.088   3.699  0.0480 -1.1757 -0.6056
 1759TIP3    H2 5284   0.742   3.176   3.780  1.0670  0.4615 -1.1601
 1760TIP3   OH2 5285   3.127   5.845   4.331 -0.1402  0.1109 -0.4738
 1760TIP3    H1 5286   3.184   5.895   4.272 -0.4712  1.0013 -0.0553
 1760TIP3    H2 5287   3.089   5.911   4.388 -1.5318 -0.4784 -0.6954
 1761TIP3   OH2 5288   2.394   4.638   3.831  0.3022  0.1903 -0.0266
 1761TIP3    H1 5289   2.324   4.609   3.890  0.3586  2.2934  1.1577
 1761TIP3    H2 5290   2.387   4.733   3.830  0.3136  0.2677 -3.4912
 1762TIP3   OH2 5291   2.238   2.846   2.966 -0.0889 -0.5170  0.2858
 1762TIP3    H1 5292   2.299   2.776   2.945 -1.5995 -1.9065  0.3821
 1762TIP3    H2 5293   2.157   2.824   2.919 -0.4911  1.3867 -0.0226
 1763TIP3   OH2 5294   2.810   5.654   0.931 -0.9020  0.1767  0.3425
 1763TIP3    H1 5295   2.848   5.690   1.012 -0.5114  0.1600  0.1697
 1763TIP3    H2 5296   2.826   5.721   0.865 -1.4074  0.2806  0.3203
 1764TIP3   OH2 5297   4.959   0.761   0.312 -0.0821 -0.1160 -0.5197
 1764TIP3    H1 5298   4.884   0.794   0.361  1.5437  0.3572  1.8214
 1764TIP3    H2 5299   4.972   0.824   0.241 -1.8697 -0.2330 -0.9805
 1765TIP3   OH2 5300   2.320   2.541   0.286  0.1411 -0.2873 -0.7553
 1765TIP3    H1 5301   2.410   2.556   0.315  0.0248  1.6699 -1.2368
 1765TIP3    H2 5302   2.327   2.478   0.214  1.1076 -0.2691 -0.6819
 1766TIP3   OH2 5303   1.421   5.170   0.017 -0.2131 -0.0426 -0.4768
 1766TIP3    H1 5304   1.472   5.235   0.065 -0.4078  1.6069 -2.3473
 1766TIP3    H2 5305   1.397   5.105   0.082  0.4680  1.4808  1.3904
 1767TIP3   OH2 5306   5.260   0.879   4.632 -0.2019 -0.0544 -0.1540
 1767TIP3    H1 5307   5.255   0.901   4.725  1.3147 -1.9037  0.4290
 1767TIP3    H2 5308   5.176   0.838   4.612  0.2352 -1.5710  0.9827
 1768TIP3   OH2 5309   3.114   1.368   0.158 -0.1642  0.1876 -0.0515
 1768TIP3    H1 5310   3.084   1.444   0.108 -1.7247 -0.8272 -0.7393
 1768TIP3    H2 5311   3.209   1.375   0.157 -0.2582  2.3333  0.2460
 1769TIP3   OH2 5312   6.038   2.975   5.144  0.3076  0.0716 -0.0866
 1769TIP3    H1 5313   6.109   2.934   5.195  0.1803 -0.2485 -0.1633
 1769TIP3    H2 5314   5.959   2.928   5.172  0.5961 -2.2498 -2.7480
 1770TIP3   OH2 5315   4.955   2.610   3.544  0.2117  0.3946  0.2083
 1770TIP3    H1 5316   5.008   2.531   3.552 -1.5836 -0.7941  0.8826
 1770TIP3    H2 5317   5.013   2.681   3.572  1.7054 -0.7222  0.0620
 1771TIP3   OH2 5318   0.246   2.578   2.427  0.6636  0.1627 -0.1334
 1771TIP3    H1 5319   0.166   2.629   2.419  0.7275  0.2720 -0.0846
 1771TIP3    H2 5320   0.218   2.495   2.465  0.4447 -0.1461 -0.9612
 1772TIP3   OH2 5321   1.279   1.212   2.603 -0.2302 -0.5402  0.2871
 1772TIP3    H1 5322   1.250   1.298   2.632 -0.8944 -1.2759  1.9590
 1772TIP3    H2 5323   1.329   1.177   2.678  0.1872 -1.5256 -0.4263
 1773TIP3   OH2 5324   5.315   3.354   1.251 -0.1071  0.1370  0.2463
 1773TIP3    H1 5325   5.404   3.340   1.286 -0.1046  0.2206  0.2736
 1773TIP3    H2 5326   5.330   3.393   1.165 -0.1193  0.2865  0.3112
 1774TIP3   OH2 5327   0.306   0.071   0.862 -0.3117 -0.1895 -0.3140
 1774TIP3    H1 5328   0.286   0.064   0.955  0.4193 -1.5887 -0.2284
 1774TIP3    H2 5329   0.263   0.151   0.833 -0.0138  0.6044  1.3651
 1775TIP3   OH2 5330   2.278   5.553   3.873  0.0931  0.0492 -0.0248
 1775TIP3    H1 5331   2.253   5.535   3.782  1.4492  0.1339 -0.4332
 1775TIP3    H2 5332   2.349   5.618   3.866  0.3063 -0.0445  1.0893
 1776TIP3   OH2 5333   2.398   1.756   0.891 -0.0215 -0.1688  0.5091
 1776TIP3    H1 5334   2.326   1.695   0.875  0.3666 -0.2182 -1.3071
 1776TIP3    H2 5335   2.355   1.840   0.906 -0.4930  0.1619 -2.2432
 1777TIP3   OH2 5336   3.066   2.778   1.897  0.6117  0.5756 -0.6292
 1777TIP3    H1 5337   3.036   2.773   1.807 -0.2821 -0.0697 -0.3129
 1777TIP3    H2 5338   3.097   2.689   1.917  0.7712  0.7040 -0.2982
 1778TIP3   OH2 5339   1.846   3.396   2.929 -0.1119 -0.2656 -0.2237
 1778TIP3    H1 5340   1.897   3.360   3.002  1.6136 -1.4292 -1.9317
 1778TIP3    H2 5341   1.756   3.393   2.961  0.5102 -1.3214  1.6472
 1779TIP3   OH2 5342   0.639   3.893   3.435 -0.3518  0.3706 -0.4416
 1779TIP3    H1 5343   0.554   3.850   3.426 -1.4897  2.6089 -0.9490
 1779TIP3    H2 5344   0.644   3.919   3.527  0.9096 -1.8286  0.1947
 1780TIP3   OH2 5345   2.757   4.819   3.206 -0.1946  0.0243 -0.6412
 1780TIP3    H1 5346   2.661   4.823   3.212 -0.1489  3.5911 -0.6345
 1780TIP3    H2 5347   2.773   4.771   3.124 -1.9484 -0.7051 -0.6104
 1781TIP3   OH2 5348   4.154   1.096   4.001  0.3369  0.3763 -0.3105
 1781TIP3    H1 5349   4.072   1.124   3.961 -0.2937 -0.4004  0.3913
 1781TIP3    H2 5350   4.214   1.082   3.928  0.0372  1.5454 -0.7901
 1782TIP3   OH2 5351   2.811   5.287   4.459 -0.6613 -0.4126 -0.0506
 1782TIP3    H1 5352   2.822   5.291   4.554 -1.6978 -1.9404  0.1725
 1782TIP3    H2 5353   2.732   5.339   4.442 -0.0950  0.4323 -0.1884
 1783TIP3   OH2 5354   2.313   1.027   4.378  0.0434 -0.0908 -0.1095
 1783TIP3    H1 5355   2.249   0.961   4.353  0.1448 -0.1173 -0.3001
 1783TIP3    H2 5356   2.273   1.072   4.453 -0.1796 -0.1319 -0.2033
 1784TIP3   OH2 5357   3.404   0.875   2.569  0.0430 -0.2209  0.4002
 1784TIP3    H1 5358   3.336   0.940   2.586 -0.4863 -0.6943  0.1448
 1784TIP3    H2 5359   3.391   0.809   2.637  1.7493  0.8091  1.8131
 1785TIP3   OH2 5360   0.426   2.416   0.461 -0.1767 -0.3427  0.0803
 1785TIP3    H1 5361   0.471   2.453   0.537 -0.3309 -0.1924  0.1009
 1785TIP3    H2 5362   0.394   2.493   0.413  0.0445 -0.4319 -0.2128
 1786TIP3   OH2 5363   1.873   2.359   4.679  0.4883  0.5379  0.2451
 1786TIP3    H1 5364   1.867   2.277   4.630 -2.4804  1.2778 -0.8914
 1786TIP3    H2 5365   1.843   2.336   4.767  0.5103  0.2089  0.1684
 1787TIP3   OH2 5366   3.235   0.158   5.180 -0.3965  0.2361  0.2245
 1787TIP3    H1 5367   3.315   0.154   5.129 -0.8397  0.3158 -0.4857
 1787TIP3    H2 5368   3.185   0.230   5.142 -0.1518  1.1841  1.6373
 1788TIP3   OH2 5369   1.025   1.173   4.224 -0.0054  0.0277  0.2229
 1788TIP3    H1 5370   1.008   1.124   4.304  2.1669  0.2194  0.8676
 1788TIP3    H2 5371   1.080   1.247   4.252  0.4775  0.3196 -1.3655
 1789TIP3   OH2 5372   2.772   5.892   1.370 -0.1075 -0.5139 -0.2887
 1789TIP3    H1 5373   2.806   5.809   1.337  0.7975 -0.9413  1.5960
 1789TIP3    H2 5374   2.677   5.879   1.375  0.0707 -1.6490  0.4711
 1790TIP3   OH2 5375   3.778   1.818   0.797  0.0076 -0.4621 -0.0609
 1790TIP3    H1 5376   3.840   1.890   0.811 -1.1265  0.5354  0.0052
 1790TIP3    H2 5377   3.769   1.777   0.883  1.5142 -1.4462 -0.3240
 1791TIP3   OH2 5378   0.875   3.228   0.828  0.1813 -0.3054  0.0561
 1791TIP3    H1 5379   0.865   3.249   0.735  0.3897  0.8610  0.2913
 1791TIP3    H2 5380   0.796   3.264   0.869  0.8744  0.6612  0.5643
 1792TIP3   OH2 5381   0.489   4.124   0.252  0.1053 -0.1236  0.2385
 1792TIP3    H1 5382   0.565   4.136   0.309  0.5489 -0.8876 -0.1869
 1792TIP3    H2 5383   0.506   4.182   0.177 -0.0625  0.2174  0.4596
 1793TIP3   OH2 5384   4.140   5.678   1.074 -0.5628 -0.0803 -0.9542
 1793TIP3    H1 5385   4.060   5.702   1.121 -0.0667 -2.0048  1.0255
 1793TIP3    H2 5386   4.208   5.733   1.112 -0.7174  0.7725 -1.8685
 1794TIP3   OH2 5387   1.177   5.580   4.296 -0.1340  0.0094 -0.2677
 1794TIP3    H1 5388   1.118   5.654   4.285  1.9210  1.4890 -2.1554
 1794TIP3    H2 5389   1.119   5.504   4.300 -2.1928  1.4589 -0.8352
 1795TIP3   OH2 5390   2.445   1.125   0.154  0.1195 -0.3063 -0.3627
 1795TIP3    H1 5391   2.389   1.100   0.227  0.3560 -1.8359 -0.6632
 1795TIP3    H2 5392   2.532   1.137   0.193  0.3953 -1.7908 -0.4511
 1796TIP3   OH2 5393   1.847   5.726   1.866 -0.5460 -0.3656 -0.2513
 1796TIP3    H1 5394   1.931   5.716   1.909  0.3957  0.7779 -1.7294
 1796TIP3    H2 5395   1.805   5.640   1.876  0.2157 -0.5647  1.6117
 1797TIP3   OH2 5396   3.427   0.053   2.107 -0.4502  0.2882  0.4926
 1797TIP3    H1 5397   3.502   0.096   2.150 -0.7867  1.0795  0.3054
 1797TIP3    H2 5398   3.352   0.078   2.160 -0.6802  0.1283  0.2420
 1798TIP3   OH2 5399   4.643   3.049   3.245 -0.1123 -1.1350 -0.4668
 1798TIP3    H1 5400   4.704   3.107   3.201 -1.4048 -1.0957 -2.3436
 1798TIP3    H2 5401   4.595   3.106   3.306  0.8166 -0.9255  0.0889
 1799TIP3   OH2 5402   1.008   5.284   0.594  0.1432  0.6940  0.4874
 1799TIP3    H1 5403   0.944   5.337   0.643  0.7445  2.2103 -0.3114
 1799TIP3    H2 5404   0.987   5.194   0.619 -3.2717  0.9720 -0.8180
 1800TIP3   OH2 5405   0.001   5.726   3.733  0.4884  0.5300  0.0754
 1800TIP3    H1 5406  -0.044   5.663   3.677 -0.4554  2.4610 -1.4691
 1800TIP3    H2 5407   0.050   5.782   3.673  3.2758 -0.1097  1.5538
 1801TIP3   OH2 5408   2.038   1.302   3.729 -0.4791 -0.2728  0.0068
 1801TIP3    H1 5409   1.955   1.255   3.731 -0.8988  0.4599  2.1934
 1801TIP3    H2 5410   2.020   1.380   3.676 -1.2871  0.0225  0.6945
 1802TIP3   OH2 5411   3.286   3.215   2.664  0.0017 -0.4492  0.5536
 1802TIP3    H1 5412   3.350   3.285   2.677  0.3252 -0.6452  0.0418
 1802TIP3    H2 5413   3.224   3.250   2.601 -2.5107  1.1302  3.6248
 1803TIP3   OH2 5414   5.594   3.380   1.104 -0.0189  0.1991  0.6284
 1803TIP3    H1 5415   5.539   3.388   1.027  0.7978  0.5768  0.0643
 1803TIP3    H2 5416   5.661   3.448   1.093  2.9601 -2.6550 -0.7618
 1804TIP3   OH2 5417   2.924   0.638   3.688  0.0227 -0.0920 -0.3235
 1804TIP3    H1 5418   2.950   0.730   3.689 -0.2510 -0.0108  0.6281
 1804TIP3    H2 5419   3.005   0.590   3.672  0.3406  0.2716  0.1714
 1805TIP3   OH2 5420   5.248   3.627   4.979  0.4019 -0.4438 -0.1419
 1805TIP3    H1 5421   5.289   3.714   4.977  0.0310 -0.2697 -0.2716
 1805TIP3    H2 5422   5.181   3.631   4.911  1.3305 -1.3178 -1.1342
 1806TIP3   OH2 5423   2.042   2.884   1.212  0.2468  0.1949  0.1800
 1806TIP3    H1 5424   2.034   2.805   1.266 -2.0984 -0.4254 -0.9042
 1806TIP3    H2 5425   2.003   2.953   1.265  1.9796  0.6058  0.9871
 1807TIP3   OH2 5426   5.772   3.026   2.008  0.1877  0.3515  0.4145
 1807TIP3    H1 5427   5.730   3.094   1.955 -0.6522 -0.1589  0.4141
 1807TIP3    H2 5428   5.855   3.066   2.036  0.6317  0.6414 -1.2341
 1808TIP3   OH2 5429   1.469   5.357   3.581 -0.2001  0.2551 -0.2747
 1808TIP3    H1 5430   1.375   5.368   3.596  0.0323 -1.2773  3.1713
 1808TIP3    H2 5431   1.503   5.323   3.664  3.0366 -1.5203 -2.1252
 1809TIP3   OH2 5432   4.802   3.626   1.816  0.4460  0.0523  0.5827
 1809TIP3    H1 5433   4.804   3.698   1.753 -2.6853 -0.6905 -0.4940
 1809TIP3    H2 5434   4.723   3.641   1.868  0.3570 -1.9643  1.1147
 1810TIP3   OH2 5435   2.270   5.341   3.351 -0.1516  0.1303  0.1073
 1810TIP3    H1 5436   2.267   5.260   3.401  1.5771 -0.6376 -0.9521
 1810TIP3    H2 5437   2.209   5.327   3.278  1.1694 -0.8005 -0.8509
 1811TIP3   OH2 5438   5.142   5.822   3.845  0.1948  0.1365 -0.1182
 1811TIP3    H1 5439   5.173   5.892   3.788  0.2664  1.1221  1.0950
 1811TIP3    H2 5440   5.198   5.747   3.823  0.7043  0.7128 -0.8231
 1812TIP3   OH2 5441   5.387   3.878   0.186  0.2283 -0.4183 -0.0478
 1812TIP3    H1 5442   5.462   3.835   0.228  0.0276 -1.4800 -0.7443
 1812TIP3    H2 5443   5.379   3.835   0.101 -1.2930 -0.4778  0.0924
 1813TIP3   OH2 5444   1.773   0.089   1.148  0.3134 -0.1917  0.2915
 1813TIP3    H1 5445   1.729   0.085   1.063  0.6243  0.0937  0.1142
 1813TIP3    H2 5446   1.757   0.178   1.180  0.0588 -0.3470  0.6118
 1814TIP3   OH2 5447   4.603   1.078   1.764 -0.5941  0.5678 -0.2491
 1814TIP3    H1 5448   4.660   1.147   1.731 -0.0109  1.5478  2.5409
 1814TIP3    H2 5449   4.640   0.997   1.729  0.1801  1.4568 -1.5738
 1815TIP3   OH2 5450   0.648   3.775   0.368  0.5466  0.2707  0.1203
 1815TIP3    H1 5451   0.684   3.688   0.351  0.9958  0.3583  0.6209
 1815TIP3    H2 5452   0.724   3.829   0.385  0.1864  0.4928  1.0307
 1816TIP3   OH2 5453   0.993   5.746   4.269  0.1060  0.1998 -0.0388
 1816TIP3    H1 5454   0.972   5.788   4.186  0.4540 -0.5791 -0.5288
 1816TIP3    H2 5455   0.930   5.783   4.331 -0.1202  0.8289 -0.6294
 1817TIP3   OH2 5456   5.885   2.172   2.601  0.2217  0.1233  0.1610
 1817TIP3    H1 5457   5.839   2.157   2.519  1.3520  1.5308 -0.7658
 1817TIP3    H2 5458   5.950   2.102   2.606  0.8889  0.6637 -0.7171
 1818TIP3   OH2 5459   4.235   0.980   1.252  0.3906  0.3136 -0.9796
 1818TIP3    H1 5460   4.273   0.942   1.331 -1.7910 -2.2831 -1.0472
 1818TIP3    H2 5461   4.260   0.920   1.182 -2.8682 -1.0541 -1.1546
 1819TIP3   OH2 5462   3.087   2.479   3.385  0.3462 -0.3176  0.4768
 1819TIP3    H1 5463   2.996   2.507   3.385  0.8322  1.4141  1.3085
 1819TIP3    H2 5464   3.120   2.501   3.298 -0.9308 -4.5298 -1.3424
 1820TIP3   OH2 5465   5.134   2.183   4.625 -0.0785 -1.0150 -0.5748
 1820TIP3    H1 5466   5.130   2.089   4.637 -0.3681 -1.0739 -1.1134
 1820TIP3    H2 5467   5.121   2.219   4.713  1.2626 -1.4895 -0.1604
 1821TIP3   OH2 5468   3.617   4.995   2.827 -0.4653  0.6908  0.1015
 1821TIP3    H1 5469   3.650   5.020   2.913  0.2710  0.4472 -0.1038
 1821TIP3    H2 5470   3.524   5.017   2.830 -0.7174 -0.3545  1.3636
 1822TIP3   OH2 5471   1.092   2.614   0.133 -0.1865 -0.1608  0.2174
 1822TIP3    H1 5472   1.054   2.701   0.128  0.3883  0.1252  0.6940
 1822TIP3    H2 5473   1.100   2.586   0.042 -0.7098  0.1282  0.0785
 1823TIP3   OH2 5474   6.117   3.204   3.780  0.7039  0.4114  0.0613
 1823TIP3    H1 5475   6.092   3.251   3.859  1.0570 -0.5765  0.7770
 1823TIP3    H2 5476   6.036   3.200   3.728 -0.0921 -0.7239  1.3100
 1824TIP3   OH2 5477   3.397   2.218   2.613  0.1762 -0.6350 -0.9487
 1824TIP3    H1 5478   3.408   2.307   2.647 -1.1244 -0.1183 -1.7980
 1824TIP3    H2 5479   3.440   2.162   2.677  0.3638  0.5428 -0.0100
 1825TIP3   OH2 5480   0.807   5.539   2.959 -0.0965  0.0251  0.0089
 1825TIP3    H1 5481   0.881   5.499   3.003  1.2015  1.1524 -1.0356
 1825TIP3    H2 5482   0.760   5.587   3.028  0.7191  0.1004  0.5216
 1826TIP3   OH2 5483   4.572   1.131   0.428  0.7540 -0.2411 -0.2927
 1826TIP3    H1 5484   4.656   1.091   0.406  0.4875 -1.1346  0.2803
 1826TIP3    H2 5485   4.508   1.076   0.383  0.4708  0.4792 -0.7843
 1827TIP3   OH2 5486   2.011   5.338   3.515 -0.0877  0.0180  0.2053
 1827TIP3    H1 5487   2.012   5.292   3.431 -0.7663 -0.0192  0.2115
 1827TIP3    H2 5488   2.014   5.268   3.580  1.2554  0.0712  0.2265
 1828TIP3   OH2 5489   1.570   5.293   2.927 -0.3986 -0.0800 -0.0083
 1828TIP3    H1 5490   1.560   5.388   2.927  0.0416 -0.0033 -1.5635
 1828TIP3    H2 5491   1.508   5.262   2.993 -0.3573  1.2928  0.7071
 1829TIP3   OH2 5492   3.358   0.106   3.300 -0.0560  0.3249  0.9889
 1829TIP3    H1 5493   3.426   0.039   3.299 -0.9428 -0.6371 -1.2594
 1829TIP3    H2 5494   3.367   0.147   3.386  0.1069 -3.1079  2.8105
 1830TIP3   OH2 5495   0.733   2.568   2.716 -0.3012  0.1541  0.4409
 1830TIP3    H1 5496   0.800   2.546   2.781 -0.3981  0.5029  0.6586
 1830TIP3    H2 5497   0.673   2.626   2.762  0.7472  2.1280 -0.5243
 1831TIP3   OH2 5498   2.839   0.892   0.618  0.8962 -0.0091 -0.1252
 1831TIP3    H1 5499   2.833   0.982   0.585  1.7079  0.7383  1.6513
 1831TIP3    H2 5500   2.922   0.889   0.664  0.9640 -1.7530 -0.3038
 1832TIP3   OH2 5501   4.071   0.860   3.392 -0.4514 -0.0664 -0.1235
 1832TIP3    H1 5502   4.012   0.932   3.415  0.2441  0.4329  0.1227
 1832TIP3    H2 5503   4.037   0.785   3.441  0.1514  0.6307  1.4120
 1833TIP3   OH2 5504   2.273   3.233   4.305 -0.0892  0.8826  0.1908
 1833TIP3    H1 5505   2.296   3.320   4.271  0.8139 -0.3486 -2.6372
 1833TIP3    H2 5506   2.352   3.181   4.293 -1.4701 -1.0869 -1.0082
 1834TIP3   OH2 5507   4.861   3.498   3.336 -0.3231  0.3161  0.2063
 1834TIP3    H1 5508   4.849   3.586   3.301  0.9513  1.0210  1.4423
 1834TIP3    H2 5509   4.817   3.499   3.421 -1.0466 -0.5248 -0.1427
 1835TIP3   OH2 5510   0.069   2.710   2.774  0.2891  0.1001 -0.2201
 1835TIP3    H1 5511   0.134   2.776   2.799 -0.4612  0.7346  0.0903
 1835TIP3    H2 5512   0.065   2.715   2.679  1.0387 -0.2832 -0.2779
 1836TIP3   OH2 5513   2.163   0.158   0.707  0.5868  0.4315 -0.0908
 1836TIP3    H1 5514   2.197   0.157   0.796 -0.8492  3.0809  0.5950
 1836TIP3    H2 5515   2.240   0.173   0.652  1.1356  1.7792  0.9966
 1837TIP3   OH2 5516   4.402   1.111   1.478 -0.1980  0.3211 -0.4219
 1837TIP3    H1 5517   4.446   1.185   1.437 -1.2979  1.0849 -0.2768
 1837TIP3    H2 5518   4.310   1.136   1.480 -0.2973 -0.0023  1.8244
 1838TIP3   OH2 5519   1.673   1.682   2.786 -0.4635 -0.2836  0.4979
 1838TIP3    H1 5520   1.627   1.722   2.860  0.1538  0.7180  0.3579
 1838TIP3    H2 5521   1.703   1.597   2.821 -1.5438 -0.5253  0.8853
 1839TIP3   OH2 5522   1.060   1.408   1.865 -0.1999  0.4527  0.1544
 1839TIP3    H1 5523   1.002   1.361   1.926  0.9352 -0.6164  0.4592
 1839TIP3    H2 5524   1.106   1.471   1.920  1.5278 -1.1608  0.6674
 1840TIP3   OH2 5525   5.894   1.347   0.378 -0.4447 -0.2404  0.4463
 1840TIP3    H1 5526   5.873   1.257   0.403  1.0855 -1.0207 -0.8901
 1840TIP3    H2 5527   5.967   1.370   0.436 -0.0720 -0.2887 -0.0032
 1841TIP3   OH2 5528   2.514   3.227   1.342  0.8215 -0.2702  0.2568
 1841TIP3    H1 5529   2.582   3.163   1.320  1.2430  0.5622 -1.0062
 1841TIP3    H2 5530   2.432   3.179   1.335  0.8396 -0.0436 -3.9496
 1842TIP3   OH2 5531   2.590   4.697   2.851  0.5912  0.0845 -0.0936
 1842TIP3    H1 5532   2.598   4.784   2.810  0.3201  0.7402  1.1942
 1842TIP3    H2 5533   2.554   4.642   2.781 -0.2336  1.2621 -0.6428
 1843TIP3   OH2 5534   4.940   4.119   5.043 -0.4535 -0.2023  0.1219
 1843TIP3    H1 5535   4.847   4.105   5.030 -0.3995 -1.0103  0.5535
 1843TIP3    H2 5536   4.963   4.063   5.117  0.4311 -0.2301 -0.1587
 1844TIP3   OH2 5537   5.648   2.076   3.402 -0.3957 -0.4255 -0.1247
 1844TIP3    H1 5538   5.596   2.145   3.359 -2.1945 -0.9175  1.1328
 1844TIP3    H2 5539   5.660   2.010   3.334 -1.4523 -0.2991 -0.4570
 1845TIP3   OH2 5540   1.658   5.098   3.471  0.2449 -0.2891  0.1533
 1845TIP3    H1 5541   1.656   5.188   3.437  2.5895  0.1638  1.0546
 1845TIP3    H2 5542   1.674   5.108   3.565  1.5413 -1.6380  0.1108
 1846TIP3   OH2 5543   0.862   4.554   4.391  0.1278  0.4351 -0.2965
 1846TIP3    H1 5544   0.880   4.549   4.484  0.7247 -0.8126 -0.4583
 1846TIP3    H2 5545   0.923   4.493   4.351  0.3514  1.4584 -1.5844
 1847TIP3   OH2 5546   0.148   3.987   2.081  0.7133 -0.0860 -0.2615
 1847TIP3    H1 5547   0.196   3.911   2.047  0.6041  0.1256 -0.9119
 1847TIP3    H2 5548   0.073   3.995   2.022 -0.4540 -0.7555  1.0754
 1848TIP3   OH2 5549   0.125   5.827   2.845  0.0719 -0.3663  0.3454
 1848TIP3    H1 5550   0.044   5.878   2.839  1.5652  1.9527 -2.5431
 1848TIP3    H2 5551   0.105   5.746   2.797 -1.0729 -0.7369  1.3845
 1849TIP3   OH2 5552   5.441   1.189   4.741  0.9245  0.7009 -0.1532
 1849TIP3    H1 5553   5.482   1.188   4.827  1.7379 -1.6799 -0.4745
 1849TIP3    H2 5554   5.464   1.275   4.705 -0.2029  2.1251  2.2777
 1850TIP3   OH2 5555   6.155   0.946   1.304  0.5563  0.4804 -0.2237
 1850TIP3    H1 5556   6.205   0.970   1.382 -1.9093 -0.8916  1.9450
 1850TIP3    H2 5557   6.178   0.855   1.287 -1.8311 -0.5429  1.4968
 1851TIP3   OH2 5558   0.329   3.670   3.637  0.0605 -0.1473 -0.2693
 1851TIP3    H1 5559   0.301   3.579   3.647 -0.8395  0.0307 -1.1148
 1851TIP3    H2 5560   0.403   3.678   3.697 -1.2175 -0.8327  1.4986
 1852TIP3   OH2 5561   1.808   3.096   0.934 -0.2698  0.4509  0.6757
 1852TIP3    H1 5562   1.789   3.011   0.895  0.9945  1.0791 -1.5168
 1852TIP3    H2 5563   1.737   3.153   0.906  0.3510  0.7657 -0.3328
 1853TIP3   OH2 5564   0.856   0.750   2.667 -0.2450  1.1624 -0.4886
 1853TIP3    H1 5565   0.766   0.781   2.668 -0.2328  1.2339 -0.9691
 1853TIP3    H2 5566   0.849   0.656   2.652 -0.2427  1.1499 -0.4115
 1854TIP3   OH2 5567   1.308   3.872   1.686  0.2685 -0.5335 -0.3541
 1854TIP3    H1 5568   1.278   3.956   1.722 -1.5624 -1.1699 -0.2859
 1854TIP3    H2 5569   1.310   3.814   1.762  0.8284 -0.7318 -0.5228
 1855TIP3   OH2 5570   3.284   3.299   4.793 -0.7475 -0.0848 -0.5491
 1855TIP3    H1 5571   3.271   3.324   4.884 -0.6840  1.5722 -0.9674
 1855TIP3    H2 5572   3.196   3.278   4.761 -0.5698 -2.6915  0.3798
 1856TIP3   OH2 5573   5.737   2.048   2.353  0.4571  0.3099 -0.8038
 1856TIP3    H1 5574   5.662   1.999   2.319  0.8053 -0.1922 -0.8550
 1856TIP3    H2 5575   5.760   2.004   2.435  1.7867 -0.6414 -1.6483
 1857TIP3   OH2 5576   0.181   3.797   4.571  0.3219  0.3044  0.0905
 1857TIP3    H1 5577   0.108   3.763   4.520  1.1799 -1.1568 -0.2393
 1857TIP3    H2 5578   0.143   3.865   4.627 -1.3631 -0.7256  0.2471
 1858TIP3   OH2 5579   5.951   0.435   0.702 -0.3937  0.0334  0.2885
 1858TIP3    H1 5580   6.000   0.356   0.682 -1.7294 -0.3036 -2.0645
 1858TIP3    H2 5581   5.890   0.445   0.629 -0.6524  2.9573  0.7541
 1859TIP3   OH2 5582   2.947   0.939   0.369 -0.0561  0.1539 -0.5038
 1859TIP3    H1 5583   3.001   1.017   0.359 -0.2116  0.3541  0.1775
 1859TIP3    H2 5584   3.007   0.871   0.400 -0.3384  0.6082  1.1244
 1860TIP3   OH2 5585   1.848   5.417   3.770 -0.0926 -0.5676  0.5036
 1860TIP3    H1 5586   1.916   5.349   3.772  0.6349  0.1545  1.2912
 1860TIP3    H2 5587   1.896   5.499   3.788 -0.6790  0.4076 -1.9374
 1861TIP3   OH2 5588   4.913   1.944   4.775 -0.1174  0.2607 -0.1332
 1861TIP3    H1 5589   4.959   1.864   4.747 -2.9615 -2.2240  1.6088
 1861TIP3    H2 5590   4.937   1.953   4.867 -2.2603 -0.5878  0.5707
 1862TIP3   OH2 5591   1.697   4.424   4.913  0.0458  0.0219  0.4660
 1862TIP3    H1 5592   1.611   4.447   4.947  0.5990  0.5084  1.5869
 1862TIP3    H2 5593   1.695   4.452   4.821 -0.9531  0.0916  0.4992
 1863TIP3   OH2 5594   0.252   5.683   4.534  0.2761  0.3313  0.4565
 1863TIP3    H1 5595   0.164   5.717   4.521  0.1947  0.9189  2.2663
 1863TIP3    H2 5596   0.281   5.656   4.446 -0.4874  3.0437 -0.7526
 1864TIP3   OH2 5597   0.618   5.831   5.100 -0.1658  0.3230 -0.5972
 1864TIP3    H1 5598   0.531   5.840   5.061 -1.4161 -0.0315  1.8758
 1864TIP3    H2 5599   0.651   5.920   5.105 -0.7597  0.5624 -0.7808
 1865TIP3   OH2 5600   1.500   1.942   1.660  0.7943  0.0409  0.1822
 1865TIP3    H1 5601   1.524   1.881   1.730  0.4136 -0.8550 -0.4439
 1865TIP3    H2 5602   1.533   1.901   1.581 -0.7074 -0.0720 -0.4240
 1866TIP3   OH2 5603   0.386   1.687   2.480  0.0904 -0.0770  0.8640
 1866TIP3    H1 5604   0.333   1.627   2.533 -0.3816  0.3273  0.8589
 1866TIP3    H2 5605   0.377   1.772   2.524  0.1064  0.1567  0.4246
 1867TIP3   OH2 5606   2.588   2.842   3.375 -0.2072 -0.5182  0.3614
 1867TIP3    H1 5607   2.593   2.803   3.462  1.0505  0.2038  0.6186
 1867TIP3    H2 5608   2.622   2.774   3.317  1.0114 -0.2151  0.6943
 1868TIP3   OH2 5609   1.374   3.056   5.143 -0.5410 -0.3026  0.5283
 1868TIP3    H1 5610   1.332   3.002   5.076 -0.3144  2.6717 -2.2528
 1868TIP3    H2 5611   1.302   3.088   5.197 -1.4144  1.1122 -1.3804
 1869TIP3   OH2 5612   5.754   1.409   1.512  0.2082  0.0012  0.3070
 1869TIP3    H1 5613   5.834   1.404   1.564 -0.1926 -0.6367  0.8786
 1869TIP3    H2 5614   5.685   1.427   1.575 -0.1516  0.2129 -0.1385
 1870TIP3   OH2 5615   6.247   3.965   1.933 -0.3309 -0.1807  0.5403
 1870TIP3    H1 5616   6.193   4.035   1.897 -0.1043  0.9678  2.2769
 1870TIP3    H2 5617   6.186   3.911   1.983 -0.4197 -0.9601 -0.3848
 1871TIP3   OH2 5618   0.359   1.054   4.846  0.4218  0.0445  0.1903
 1871TIP3    H1 5619   0.436   1.003   4.822 -0.0247  0.0218 -1.2588
 1871TIP3    H2 5620   0.389   1.145   4.842  0.0551  0.1201 -1.7526
 1872TIP3   OH2 5621   4.559   1.105   4.201 -0.1923 -0.1941 -0.4822
 1872TIP3    H1 5622   4.486   1.153   4.240 -0.4539 -0.1656 -1.0097
 1872TIP3    H2 5623   4.637   1.148   4.238 -0.4319  0.2463 -0.4758
 1873TIP3   OH2 5624   1.504   2.995   1.106 -0.1163  0.5730 -0.2383
 1873TIP3    H1 5625   1.566   3.057   1.145 -0.0692 -0.8864  2.1949
 1873TIP3    H2 5626   1.560   2.930   1.064 -0.0129  0.0083  0.7502
 1874TIP3   OH2 5627   4.046   0.885   2.589 -0.0914  0.2493 -0.2376
 1874TIP3    H1 5628   4.115   0.952   2.579  0.2749  0.0058  0.5520
 1874TIP3    H2 5629   4.081   0.808   2.544  0.4949 -0.1025  0.7831
 1875TIP3   OH2 5630   5.983   3.636   5.129  0.1591  0.5500  0.7800
 1875TIP3    H1 5631   5.944   3.682   5.055  1.2348  2.4824  1.3453
 1875TIP3    H2 5632   5.976   3.544   5.106 -0.8361  1.0270 -1.0476
 1876TIP3   OH2 5633   5.799   1.819   5.155  0.1848  0.5670  0.7424
 1876TIP3    H1 5634   5.830   1.909   5.160  4.1605 -0.4961 -0.7648
 1876TIP3    H2 5635   5.771   1.807   5.064  1.6675 -0.1766  0.3485
 1877TIP3   OH2 5636   5.936   3.191   3.105  0.1911  0.2367 -0.0390
 1877TIP3    H1 5637   5.876   3.213   3.177  0.3879 -0.2615  0.2804
 1877TIP3    H2 5638   5.927   3.264   3.044 -0.0898  0.5950  0.4197
 1878TIP3   OH2 5639   3.687   4.533   2.354 -0.1544  0.0476 -0.2379
 1878TIP3    H1 5640   3.603   4.524   2.308 -0.8893 -0.5980  1.1834
 1878TIP3    H2 5641   3.664   4.535   2.446  1.4199 -0.3142  0.1909
 1879TIP3   OH2 5642   1.272   1.595   3.305  0.5490  0.4613  0.4972
 1879TIP3    H1 5643   1.253   1.628   3.392  2.0153 -0.1236  1.0692
 1879TIP3    H2 5644   1.358   1.552   3.313 -0.0142 -1.0423 -0.8299
 1880TIP3   OH2 5645   5.336   1.497   3.339  0.1231 -0.1625 -0.1066
 1880TIP3    H1 5646   5.267   1.486   3.405  0.0807  0.0527 -0.1147
 1880TIP3    H2 5647   5.398   1.426   3.357 -0.1856 -0.4605 -0.2072
 1881TIP3   OH2 5648   0.497   0.490   1.763  0.1546  0.1909 -0.4358
 1881TIP3    H1 5649   0.585   0.468   1.732  0.2419  1.6283 -1.3035
 1881TIP3    H2 5650   0.500   0.475   1.858  0.8910 -1.1031 -0.6388
 1882TIP3   OH2 5651   1.103   1.280   3.442 -0.4601 -0.3943  0.3593
 1882TIP3    H1 5652   1.132   1.266   3.351 -0.5497 -1.2249  0.4505
 1882TIP3    H2 5653   1.177   1.249   3.495 -0.1655  0.6408  0.5809
 1883TIP3   OH2 5654   2.904   3.306   0.794  0.3741  0.3773  0.1869
 1883TIP3    H1 5655   2.851   3.380   0.823  1.5678  1.1280  0.5317
 1883TIP3    H2 5656   2.945   3.273   0.875 -0.3805 -0.8658  0.0884
 1884TIP3   OH2 5657   6.110   2.606   3.660  0.4930  1.0510 -0.1130
 1884TIP3    H1 5658   6.185   2.659   3.685  1.8085 -1.3718  1.4049
 1884TIP3    H2 5659   6.079   2.568   3.742  0.2743 -1.3130 -1.2092
 1885TIP3   OH2 5660   1.077   1.695   0.250 -0.4247  0.4681  0.0764
 1885TIP3    H1 5661   1.083   1.706   0.345  0.2468  0.9004 -0.0081
 1885TIP3    H2 5662   1.168   1.704   0.219 -0.5429 -0.3075 -0.5364
 1886TIP3   OH2 5663   3.601   3.649   4.816  0.2253 -0.0052  0.1894
 1886TIP3    H1 5664   3.529   3.677   4.873  0.6112 -0.7673  1.0802
 1886TIP3    H2 5665   3.670   3.713   4.831 -0.6160  1.3768 -1.4980
 1887TIP3   OH2 5666   1.580   3.710   0.707 -0.0176 -0.6307 -0.1078
 1887TIP3    H1 5667   1.648   3.716   0.640  0.9191 -0.8629  0.7868
 1887TIP3    H2 5668   1.500   3.689   0.659  0.7982 -1.6328 -1.0647
 1888TIP3   OH2 5669   1.564   0.333   0.289  0.3451 -0.2394 -0.0228
 1888TIP3    H1 5670   1.585   0.359   0.200 -0.2165  1.5257  0.3212
 1888TIP3    H2 5671   1.570   0.414   0.340 -1.1204 -0.8402  1.1984
 1889TIP3   OH2 5672   4.151   3.194   1.859  0.3866  0.3647  0.3781
 1889TIP3    H1 5673   4.109   3.194   1.773  1.9924 -0.5835 -0.4578
 1889TIP3    H2 5674   4.083   3.163   1.918 -0.5022  0.1761 -0.6966
 1890TIP3   OH2 5675   2.525   5.533   0.083 -0.6002  0.6228 -0.4032
 1890TIP3    H1 5676   2.460   5.516   0.151  0.3558  1.0277  0.6431
 1890TIP3    H2 5677   2.515   5.460   0.022 -3.1443  1.5180 -1.1896
 1891TIP3   OH2 5678   2.444   1.452   0.283  0.1965  0.2791  0.0489
 1891TIP3    H1 5679   2.386   1.524   0.304  0.0050  0.0804  0.2088
 1891TIP3    H2 5680   2.439   1.394   0.359 -2.9570 -2.0684 -1.6788
 1892TIP3   OH2 5681   6.037   0.466   4.192 -0.4645  0.2406  0.1208
 1892TIP3    H1 5682   6.083   0.394   4.235  0.0103  0.7255  0.4257
 1892TIP3    H2 5683   6.008   0.429   4.108 -0.7457 -0.4817  0.5309
 1893TIP3   OH2 5684   6.234   4.814   3.811  0.3028 -0.2321  0.3995
 1893TIP3    H1 5685   6.249   4.893   3.759  1.3757 -0.2195  0.7042
 1893TIP3    H2 5686   6.319   4.770   3.813  0.3201 -0.1823  2.2346
 1894TIP3   OH2 5687   1.352   5.352   1.228 -0.5159 -0.1181  0.1846
 1894TIP3    H1 5688   1.351   5.369   1.322  2.1470 -1.4324  0.5673
 1894TIP3    H2 5689   1.330   5.259   1.220  1.3476 -0.5778 -0.2072
 1895TIP3   OH2 5690   4.927   0.776   3.346  0.9378 -0.1798 -0.1108
 1895TIP3    H1 5691   4.879   0.700   3.380 -2.0383  1.1879 -0.8506
 1895TIP3    H2 5692   5.019   0.755   3.360  0.1281 -2.3755  2.8998
 1896TIP3   OH2 5693   4.165   0.263   4.204 -0.5560 -0.2769 -0.5754
 1896TIP3    H1 5694   4.236   0.274   4.141 -0.3359  0.1711 -0.2612
 1896TIP3    H2 5695   4.178   0.176   4.240 -0.1492 -0.1924 -0.5065
 1897TIP3   OH2 5696   3.011   0.588   2.740 -0.4850  0.0769 -0.1545
 1897TIP3    H1 5697   2.917   0.594   2.758 -0.7538 -0.2915 -1.3551
 1897TIP3    H2 5698   3.022   0.504   2.695  0.1501  0.8644 -1.5559
 1898TIP3   OH2 5699   4.810   3.492   1.298 -0.0060  0.4481  0.0420
 1898TIP3    H1 5700   4.744   3.472   1.364 -0.9206 -0.0652 -0.9953
 1898TIP3    H2 5701   4.760   3.524   1.223  0.7794 -1.0736 -1.2055
 1899TIP3   OH2 5702   6.137   5.941   0.819 -0.3644  0.5438 -0.1529
 1899TIP3    H1 5703   6.157   5.852   0.790  1.0366  0.6895  0.3007
 1899TIP3    H2 5704   6.081   5.929   0.896  0.5176  0.0153  0.4238
 1900TIP3   OH2 5705   3.541   3.372   4.744 -0.2367  0.1419  0.3782
 1900TIP3    H1 5706   3.565   3.465   4.749 -0.2928  0.1999 -0.3409
 1900TIP3    H2 5707   3.446   3.372   4.752 -0.1063 -0.0028  2.1526
 1901TIP3   OH2 5708   4.358   1.032   3.828  0.4718  0.3432 -0.8949
 1901TIP3    H1 5709   4.363   1.042   3.733  2.1027  1.1833 -0.7608
 1901TIP3    H2 5710   4.419   1.097   3.862  1.4939 -1.3322  0.6333
 1902TIP3   OH2 5711   1.482   4.784   4.902 -0.2157 -0.0842  0.2187
 1902TIP3    H1 5712   1.393   4.794   4.869 -0.7875  1.4669  1.9986
 1902TIP3    H2 5713   1.526   4.866   4.877  1.3481 -1.5744 -2.2477
 1903TIP3   OH2 5714   1.612   2.334   3.487  0.2599 -0.1890  0.9035
 1903TIP3    H1 5715   1.522   2.365   3.492 -0.1504 -1.2233  0.0754
 1903TIP3    H2 5716   1.647   2.349   3.575 -1.1615 -1.0805  1.6540
 1904TIP3   OH2 5717   1.291   5.924   5.098 -0.7322  0.1375 -0.7790
 1904TIP3    H1 5718   1.294   5.839   5.055 -1.0874 -1.1122  1.5499
 1904TIP3    H2 5719   1.198   5.940   5.115 -0.6400  0.8496 -0.8895
 1905TIP3   OH2 5720   5.530   4.458   2.128  0.2683  0.6610 -0.4407
 1905TIP3    H1 5721   5.483   4.467   2.045 -0.2217 -1.5574 -0.4707
 1905TIP3    H2 5722   5.487   4.521   2.186 -1.4512  0.1330 -1.0523
 1906TIP3   OH2 5723   3.612   0.998   2.187 -0.1386 -0.4478  0.5329
 1906TIP3    H1 5724   3.561   0.935   2.137  2.9892 -0.8170 -2.5110
 1906TIP3    H2 5725   3.686   0.948   2.221  1.1054  1.0713  0.1527
 1907TIP3   OH2 5726   5.811   4.975   3.515  0.3679  0.4894 -0.1285
 1907TIP3    H1 5727   5.898   5.014   3.514  0.9183 -0.6159 -2.5190
 1907TIP3    H2 5728   5.755   5.043   3.475  0.2858  0.8453  0.5756
 1908TIP3   OH2 5729   3.071   2.640   0.076  0.1260  0.3519 -0.7800
 1908TIP3    H1 5730   3.048   2.703   0.144 -1.9169 -0.7822 -0.3256
 1908TIP3    H2 5731   3.036   2.677  -0.004  0.8320  0.7846 -0.8949
 1909TIP3   OH2 5732   1.143   2.283   0.399 -0.1909 -0.2093 -0.2862
 1909TIP3    H1 5733   1.153   2.214   0.466  0.2360 -0.7577 -0.9029
 1909TIP3    H2 5734   1.133   2.235   0.317 -1.5617  0.4535 -0.5229
 1910TIP3   OH2 5735   2.769   5.654   0.190 -0.0887 -0.2056  0.5095
 1910TIP3    H1 5736   2.804   5.565   0.183 -1.0730 -0.5607 -0.1451
 1910TIP3    H2 5737   2.683   5.650   0.147 -0.5933  0.8177  1.3577
 1911TIP3   OH2 5738   5.432   0.993   2.462 -0.1080  0.1049 -0.1301
 1911TIP3    H1 5739   5.516   0.957   2.491  0.2692 -0.6269 -2.0039
 1911TIP3    H2 5740   5.451   1.032   2.377 -1.6231  0.0956 -0.4960
 1912TIP3   OH2 5741   5.265   5.192   2.982  0.2774  0.2915 -0.3027
 1912TIP3    H1 5742   5.337   5.132   3.002 -0.3054 -0.7466 -1.2027
 1912TIP3    H2 5743   5.186   5.143   3.004 -0.1916  0.9383 -0.5191
 1913TIP3   OH2 5744   5.709   1.116   3.448 -0.3668 -0.0701  0.9099
 1913TIP3    H1 5745   5.790   1.167   3.457  0.1078 -0.8646  1.2581
 1913TIP3    H2 5746   5.730   1.032   3.488 -0.8666 -0.8355 -0.3750
 1914TIP3   OH2 5747   0.615   3.153   4.435 -0.6225  0.4339 -0.0166
 1914TIP3    H1 5748   0.615   3.063   4.466 -0.7129  0.7845  1.0663
 1914TIP3    H2 5749   0.703   3.185   4.455 -0.4515  0.4593 -0.7953
 1915TIP3   OH2 5750   6.067   0.445   3.382  0.6401 -0.1260  0.0820
 1915TIP3    H1 5751   6.054   0.530   3.340  0.9608 -0.4325 -0.6511
 1915TIP3    H2 5752   6.015   0.450   3.462 -1.7001 -0.2768 -1.3416
 1916TIP3   OH2 5753   2.541   2.569   2.374  0.1370  0.7629  0.2278
 1916TIP3    H1 5754   2.584   2.485   2.388  1.3851  1.3908  0.3202
 1916TIP3    H2 5755   2.449   2.547   2.360  0.6786 -0.7619 -1.3775
 1917TIP3   OH2 5756   2.386   2.251   4.644  0.4732 -0.0746  0.3977
 1917TIP3    H1 5757   2.455   2.285   4.588  1.1811  0.0486  1.3176
 1917TIP3    H2 5758   2.335   2.193   4.588 -0.1564  1.6836 -0.9548
 1918TIP3   OH2 5759   6.034   1.300   4.344 -0.1826 -0.2457  0.2747
 1918TIP3    H1 5760   6.027   1.261   4.432  1.2705  3.8839  2.5125
 1918TIP3    H2 5761   5.963   1.365   4.342  0.0825  0.0158 -1.4613
 1919TIP3   OH2 5762   1.046   4.764   3.918 -0.0156  0.4963  0.0170
 1919TIP3    H1 5763   1.018   4.688   3.867  1.0477 -1.5683  2.3193
 1919TIP3    H2 5764   0.975   4.779   3.980  1.6601 -1.7992  2.7450
 1920TIP3   OH2 5765   0.614   0.653   4.991  0.0784  0.0245 -0.2108
 1920TIP3    H1 5766   0.710   0.653   4.990  0.1304  1.0613  1.1349
 1920TIP3    H2 5767   0.590   0.741   5.019 -1.2667 -0.3159 -0.2056
 1921TIP3   OH2 5768   0.832   2.659   4.272  0.6778 -0.1989 -0.4662
 1921TIP3    H1 5769   0.827   2.649   4.367 -0.6947  0.5648 -0.4358
 1921TIP3    H2 5770   0.765   2.600   4.238  0.6226  0.1187 -0.9136
 1922TIP3   OH2 5771   1.821   3.072   4.346 -0.2002  0.3747  0.2570
 1922TIP3    H1 5772   1.866   3.093   4.265 -0.5225 -0.5870 -0.1977
 1922TIP3    H2 5773   1.756   3.005   4.321 -0.5511  0.3210  1.2338
 1923TIP3   OH2 5774   2.223   1.409   0.093  0.6634  0.2491  0.2743
 1923TIP3    H1 5775   2.279   1.471   0.046 -0.7800  1.6245  0.2567
 1923TIP3    H2 5776   2.278   1.375   0.164  2.2995 -0.4459 -1.2495
 1924TIP3   OH2 5777   5.140   2.727   2.945 -0.0168  0.3990 -0.1939
 1924TIP3    H1 5778   5.185   2.784   3.008 -1.2805  0.8778  0.3100
 1924TIP3    H2 5779   5.097   2.661   2.999  0.7551 -0.5597 -0.7263
 1925TIP3   OH2 5780   0.856   4.669   2.557 -0.7829 -0.3445  0.3486
 1925TIP3    H1 5781   0.845   4.724   2.479 -0.6090  0.1802  0.6919
 1925TIP3    H2 5782   0.948   4.681   2.582  0.0269 -2.7780 -1.0548
 1926TIP3   OH2 5783   2.669   3.498   3.811  0.1314 -0.2971 -0.1123
 1926TIP3    H1 5784   2.753   3.453   3.801 -0.9293 -2.2246 -1.0256
 1926TIP3    H2 5785   2.614   3.434   3.857 -0.8779  0.8983  0.3962
 1927TIP3   OH2 5786   3.087   3.202   0.976  0.1258 -0.0691 -0.5723
 1927TIP3    H1 5787   3.133   3.149   0.911  0.5194 -0.2694 -0.1435
 1927TIP3    H2 5788   3.157   3.242   1.028 -0.1237  1.9721 -1.7178
 1928TIP3   OH2 5789   5.662   3.232   0.163  0.8102  0.1264  0.0722
 1928TIP3    H1 5790   5.711   3.281   0.230 -0.5279  2.8950 -0.8239
 1928TIP3    H2 5791   5.659   3.291   0.088 -1.2561 -1.2059 -0.9674
 1929TIP3   OH2 5792   2.717   2.736   5.015 -0.6632 -0.8730  0.0869
 1929TIP3    H1 5793   2.637   2.788   5.006 -1.3514 -1.8922  0.0077
 1929TIP3    H2 5794   2.775   2.769   4.947 -0.3330  1.0234  1.2250
 1930TIP3   OH2 5795   5.769   1.307   0.813  0.3698 -0.2294  0.4517
 1930TIP3    H1 5796   5.812   1.363   0.877  1.4491  0.6522 -0.9769
 1930TIP3    H2 5797   5.798   1.219   0.834 -0.2264 -0.1100  1.8638
 1931TIP3   OH2 5798   2.316   2.542   1.729 -0.0845 -0.2330  0.4151
 1931TIP3    H1 5799   2.228   2.550   1.691 -0.4666  1.3894  1.5250
 1931TIP3    H2 5800   2.307   2.474   1.796 -0.7234  0.4425  1.0398
 1932TIP3   OH2 5801   5.333   2.665   2.019 -0.2051 -0.6252  0.4775
 1932TIP3    H1 5802   5.362   2.734   1.959 -1.7408 -1.4543 -1.3123
 1932TIP3    H2 5803   5.360   2.583   1.978 -0.8387 -1.2110  1.1774
 1933TIP3   OH2 5804   2.575   5.125   3.643 -0.2274  0.7769 -0.0146
 1933TIP3    H1 5805   2.655   5.093   3.601 -2.1529 -2.7595 -1.4652
 1933TIP3    H2 5806   2.529   5.172   3.574 -0.6519  0.2811 -0.0777
 1934TIP3   OH2 5807   1.522   3.862   3.428 -0.0017  0.0308 -0.1124
 1934TIP3    H1 5808   1.445   3.868   3.371  0.6362  1.8900 -0.8835
 1934TIP3    H2 5809   1.486   3.863   3.517 -0.9535 -1.5742 -0.4422
 1935TIP3   OH2 5810   4.064   0.308   0.314 -0.3167  0.1319  0.4672
 1935TIP3    H1 5811   4.131   0.376   0.315  0.3794 -0.3349 -3.0819
 1935TIP3    H2 5812   4.111   0.229   0.285 -1.5901 -1.3506  2.1943
 1936TIP3   OH2 5813   2.936   3.710   0.368 -0.4535 -0.6019  0.3580
 1936TIP3    H1 5814   2.973   3.712   0.457 -0.9045  1.0761  0.5374
 1936TIP3    H2 5815   3.004   3.667   0.315  0.1874 -0.8546  1.3482
 1937TIP3   OH2 5816   4.534   1.806   2.789  0.3661  0.4204  0.2183
 1937TIP3    H1 5817   4.546   1.772   2.700 -1.5968  1.2330 -0.4031
 1937TIP3    H2 5818   4.463   1.870   2.781  0.4918  0.8880  2.2932
 1938TIP3   OH2 5819   0.575   2.111   5.141 -0.2504 -0.0625 -0.0439
 1938TIP3    H1 5820   0.629   2.053   5.087  0.0456  0.7386 -0.6311
 1938TIP3    H2 5821   0.504   2.138   5.083  0.6893  1.7072 -0.4164
 1939TIP3   OH2 5822   5.278   3.800   1.148  0.6812  0.1900 -0.2106
 1939TIP3    H1 5823   5.265   3.779   1.056  1.5901 -0.0434 -0.3007
 1939TIP3    H2 5824   5.345   3.869   1.148 -0.9951  1.8798  0.1770
 1940TIP3   OH2 5825   0.648   1.938   4.634 -0.1299  0.1014 -0.6179
 1940TIP3    H1 5826   0.728   1.887   4.643  0.2226  0.8082  0.4998
 1940TIP3    H2 5827   0.596   1.915   4.712 -1.0989 -0.4820 -1.4140
 1941TIP3   OH2 5828   4.198   4.977   2.044 -0.0572  0.1600 -0.2801
 1941TIP3    H1 5829   4.238   4.974   1.957 -0.3302  0.8254 -0.4395
 1941TIP3    H2 5830   4.161   4.890   2.058  0.4758 -0.1156 -0.5969
 1942TIP3   OH2 5831   0.918   4.121   1.175  0.0222  0.2331 -0.0711
 1942TIP3    H1 5832   0.945   4.156   1.090 -1.5337 -0.0325 -0.7194
 1942TIP3    H2 5833   0.956   4.181   1.239 -0.7338  1.8445 -1.0596
 1943TIP3   OH2 5834   3.864   2.208   1.413  0.2525 -0.8164  0.3701
 1943TIP3    H1 5835   3.936   2.268   1.394  0.9538 -1.6250  0.3850
 1943TIP3    H2 5836   3.795   2.264   1.448  0.9048 -0.0304  0.4444
 1944TIP3   OH2 5837   5.920   4.215   2.065 -0.3096  0.1305 -0.3989
 1944TIP3    H1 5838   5.893   4.179   2.149 -1.2204  0.3069 -0.6025
 1944TIP3    H2 5839   5.905   4.309   2.073  1.4460  0.4220 -0.0968
 1945TIP3   OH2 5840   2.262   5.453   0.435 -0.0773 -0.2136  0.0522
 1945TIP3    H1 5841   2.270   5.391   0.507  0.3139  0.3896  0.5410
 1945TIP3    H2 5842   2.316   5.528   0.461 -2.5093  1.4490  0.6901
 1946TIP3   OH2 5843   1.529   4.761   2.294 -0.4342 -0.0927 -0.6567
 1946TIP3    H1 5844   1.479   4.679   2.287 -1.6856  0.5410  0.4023
 1946TIP3    H2 5845   1.594   4.755   2.225 -1.0383 -1.6200 -1.1393
 1947TIP3   OH2 5846   3.955   5.554   4.768  0.0059 -0.2271 -0.0288
 1947TIP3    H1 5847   3.963   5.621   4.836 -2.7844  0.0635  0.1573
 1947TIP3    H2 5848   3.955   5.471   4.816 -0.2866 -0.1199  0.1603
 1948TIP3   OH2 5849   6.082   3.826   2.108  0.3713  0.5696  0.0827
 1948TIP3    H1 5850   5.988   3.838   2.123  0.2093  1.2643 -1.3256
 1948TIP3    H2 5851   6.124   3.858   2.188 -0.5892  0.2569  0.7234
 1949TIP3   OH2 5852   2.746   5.140   4.954 -0.5063 -0.6074 -0.0895
 1949TIP3    H1 5853   2.799   5.063   4.978  2.7630  1.3125 -0.4841
 1949TIP3    H2 5854   2.739   5.191   5.034 -1.3406 -0.5608 -0.1823
 1950TIP3   OH2 5855   4.386   3.993   4.642  0.1157  0.4751 -0.1600
 1950TIP3    H1 5856   4.425   4.063   4.695 -0.4996 -0.5009  1.7041
 1950TIP3    H2 5857   4.298   3.983   4.677  0.5211 -1.8964  0.3723
 1951TIP3   OH2 5858   3.704   4.803   3.050  0.6758  0.3757 -0.2372
 1951TIP3    H1 5859   3.639   4.848   3.104  1.7665  1.0680  0.5438
 1951TIP3    H2 5860   3.729   4.726   3.101  1.0528  0.5515 -0.1470
 1952TIP3   OH2 5861   2.166   5.087   3.137  0.5629  0.8488 -0.0160
 1952TIP3    H1 5862   2.168   5.069   3.231 -1.3504 -0.7546 -0.2010
 1952TIP3    H2 5863   2.231   5.028   3.099  1.8360  1.9926  0.3269
 1953TIP3   OH2 5864   3.695   1.464   3.927 -0.2595 -0.2627 -0.5986
 1953TIP3    H1 5865   3.764   1.521   3.892 -2.4243  2.9973  0.0640
 1953TIP3    H2 5866   3.634   1.453   3.854  0.0043 -1.6029 -0.6376
 1954TIP3   OH2 5867   1.746   4.270   0.991  0.4601  0.1519 -0.4005
 1954TIP3    H1 5868   1.758   4.190   1.042  1.9776  1.2133  1.0500
 1954TIP3    H2 5869   1.679   4.320   1.039  1.2004  0.7320  0.0674
 1955TIP3   OH2 5870   5.001   5.421   1.004  0.6036  0.4754  0.2586
 1955TIP3    H1 5871   4.977   5.467   1.085 -1.5891 -2.3512  1.4240
 1955TIP3    H2 5872   4.919   5.417   0.954  1.2228 -0.3277 -0.7284
 1956TIP3   OH2 5873   1.608   5.239   0.199 -0.3474  0.4876  0.1467
 1956TIP3    H1 5874   1.583   5.213   0.287  1.2059 -2.6161 -0.1733
 1956TIP3    H2 5875   1.643   5.328   0.208 -0.9070  0.5242  2.4688
 1957TIP3   OH2 5876   4.473   1.519   4.647 -0.2562  0.3203 -0.0921
 1957TIP3    H1 5877   4.565   1.523   4.675 -0.1570 -1.0429 -0.1345
 1957TIP3    H2 5878   4.450   1.610   4.627  0.5114  0.9584  1.6908
 1958TIP3   OH2 5879   5.008   2.427   1.754  0.1152 -0.0715 -0.0469
 1958TIP3    H1 5880   4.917   2.399   1.765 -0.6686  1.8514 -0.9615
 1958TIP3    H2 5881   5.007   2.520   1.779  1.6568  0.1859 -0.8283
 1959TIP3   OH2 5882   2.151   3.818   1.800  0.2550  0.3764 -0.7390
 1959TIP3    H1 5883   2.240   3.850   1.784 -0.2466  1.8938 -0.7060
 1959TIP3    H2 5884   2.117   3.876   1.869 -0.4935 -0.6930 -0.1833
 1960TIP3   OH2 5885   1.726   1.751   2.119 -0.0340  0.2269 -0.4110
 1960TIP3    H1 5886   1.804   1.721   2.073  0.5658  0.6684  0.2859
 1960TIP3    H2 5887   1.697   1.675   2.170 -1.2988 -0.5839 -2.2406
 1961TIP3   OH2 5888   1.781   2.291   2.207  0.3627  0.3776 -0.2290
 1961TIP3    H1 5889   1.817   2.362   2.155  1.0882  0.0683 -0.1578
 1961TIP3    H2 5890   1.717   2.249   2.150  1.7597 -0.5039 -1.2127
 1962TIP3   OH2 5891   3.274   2.283   0.273  0.2929  0.0916 -0.4441
 1962TIP3    H1 5892   3.221   2.269   0.195 -1.5360  0.2715  0.7090
 1962TIP3    H2 5893   3.361   2.305   0.240 -0.5646  0.6858 -2.4112
 1963TIP3   OH2 5894   3.986   5.115   3.636 -0.3048 -0.0958  0.4033
 1963TIP3    H1 5895   3.928   5.062   3.691  1.8214 -1.4204  1.5100
 1963TIP3    H2 5896   4.012   5.057   3.565 -2.1533  1.2633 -1.5066
 1964TIP3   OH2 5897   2.256   5.430   0.168 -0.2869  0.0263 -0.3273
 1964TIP3    H1 5898   2.275   5.422   0.261  1.4893 -0.3658 -0.6878
 1964TIP3    H2 5899   2.240   5.523   0.154 -3.2774 -0.2068  0.7877
 1965TIP3   OH2 5900   4.989   4.364   3.240  0.4351 -0.2365  0.0653
 1965TIP3    H1 5901   4.990   4.457   3.219  0.9654  0.0003  1.0773
 1965TIP3    H2 5902   5.081   4.339   3.244  0.3244 -0.5542  0.8304
 1966TIP3   OH2 5903   6.229   1.016   4.037  0.3931  0.6443 -0.4419
 1966TIP3    H1 5904   6.301   1.013   4.100 -0.9838 -0.0500  1.1833
 1966TIP3    H2 5905   6.215   1.109   4.022  0.7829  0.8273  0.2568
 1967TIP3   OH2 5906   2.430   0.783   3.949 -0.2305 -0.2861 -0.1408
 1967TIP3    H1 5907   2.443   0.816   3.860 -0.2960 -0.6943 -0.3023
 1967TIP3    H2 5908   2.517   0.791   3.990 -0.3410  0.4926 -0.0361
 1968TIP3   OH2 5909   4.276   4.315   1.035 -0.2336  0.1202  0.0238
 1968TIP3    H1 5910   4.316   4.393   1.073  0.4981  0.2757 -1.0112
 1968TIP3    H2 5911   4.322   4.242   1.074 -0.6005  0.2137  0.6438
 1969TIP3   OH2 5912   3.899   4.489   4.232  0.0597 -0.2928 -0.2926
 1969TIP3    H1 5913   3.891   4.526   4.144  0.8392  0.0349 -0.2302
 1969TIP3    H2 5914   3.912   4.565   4.288  1.8080 -0.6423 -0.1748
 1970TIP3   OH2 5915   0.455   5.762   3.173  0.3827 -0.3219 -0.1656
 1970TIP3    H1 5916   0.433   5.817   3.248 -0.2895  1.7552 -1.8047
 1970TIP3    H2 5917   0.541   5.725   3.195 -0.2615 -0.6070  2.0459
 1971TIP3   OH2 5918   3.072   4.609   3.254  0.2472 -0.1622  0.1456
 1971TIP3    H1 5919   3.046   4.586   3.164  1.2072 -0.4787 -0.0569
 1971TIP3    H2 5920   3.001   4.575   3.308  0.7098 -1.9660 -0.3047
 1972TIP3   OH2 5921   3.249   3.581   4.619 -0.4607 -0.6368 -0.2526
 1972TIP3    H1 5922   3.321   3.572   4.558 -0.2063 -2.4055  0.2363
 1972TIP3    H2 5923   3.252   3.672   4.648 -0.0590  0.0025 -2.1768
 1973TIP3   OH2 5924   4.285   2.103   1.274 -0.4749 -0.4084 -0.3760
 1973TIP3    H1 5925   4.248   2.166   1.213  1.6705  1.7614  0.3897
 1973TIP3    H2 5926   4.322   2.035   1.218  0.0099  0.6857 -1.4467
 1974TIP3   OH2 5927   2.581   3.132   0.081 -0.0065 -0.0650 -0.6913
 1974TIP3    H1 5928   2.611   3.059   0.026  0.5644 -0.2561 -0.1341
 1974TIP3    H2 5929   2.620   3.115   0.167 -0.8785  0.2437 -0.2283
 1975TIP3   OH2 5930   1.781   1.224   3.332 -0.2788  0.0114  0.3124
 1975TIP3    H1 5931   1.801   1.288   3.400 -0.8514  0.5224  0.0073
 1975TIP3    H2 5932   1.793   1.139   3.375 -0.3631  0.3268  0.9756
 1976TIP3   OH2 5933   0.172   4.123   2.322 -0.0256  0.5482 -0.4193
 1976TIP3    H1 5934   0.185   4.105   2.228  0.2578 -2.3865  0.0822
 1976TIP3    H2 5935   0.208   4.046   2.366 -2.8927  0.3887  1.9631
 1977TIP3   OH2 5936   3.920   0.381   1.123  0.3864  0.1864  0.3359
 1977TIP3    H1 5937   3.939   0.310   1.184  1.0476 -0.8688 -1.0238
 1977TIP3    H2 5938   3.958   0.459   1.163  0.2229 -0.3373  1.5561
 1978TIP3   OH2 5939   3.181   0.731   2.179  0.2303  0.1375  0.0792
 1978TIP3    H1 5940   3.266   0.722   2.223  0.1500 -2.2005 -0.1082
 1978TIP3    H2 5941   3.181   0.661   2.113 -2.3978 -0.8997  1.0340
 1979TIP3   OH2 5942   3.539   0.876   0.197 -0.0291  0.5685 -0.0391
 1979TIP3    H1 5943   3.511   0.794   0.157  0.5621  0.5649 -0.4585
 1979TIP3    H2 5944   3.630   0.886   0.169  0.4239  0.5317  1.3519
 1980TIP3   OH2 5945   3.391   1.968   0.154 -0.3653 -0.2972 -0.3386
 1980TIP3    H1 5946   3.383   1.881   0.193  0.1992 -1.0176 -1.7510
 1980TIP3    H2 5947   3.302   1.989   0.124 -0.0940 -1.5084 -2.1868
 1981TIP3   OH2 5948   3.109   4.001   0.922  0.0406 -0.5895 -0.1864
 1981TIP3    H1 5949   3.125   4.040   0.836 -0.3211 -0.8279 -0.3613
 1981TIP3    H2 5950   3.047   4.060   0.964 -1.0563 -1.3341 -0.7209
 1982TIP3   OH2 5951   3.835   4.138   2.377  0.1777  0.1400 -0.2205
 1982TIP3    H1 5952   3.843   4.044   2.391  0.3096  0.1012 -0.5534
 1982TIP3    H2 5953   3.745   4.159   2.403  0.5685  0.1600  1.1785
 1983TIP3   OH2 5954   5.323   5.861   3.070 -0.2013  0.0796  0.5853
 1983TIP3    H1 5955   5.325   5.887   3.162  0.8195  0.4143  0.4845
 1983TIP3    H2 5956   5.233   5.835   3.054 -0.0861 -1.3649  2.0438
 1984TIP3   OH2 5957   4.252   0.364   0.734 -0.2648  0.3427  0.2719
 1984TIP3    H1 5958   4.257   0.403   0.647  0.4858  0.6201  0.4353
 1984TIP3    H2 5959   4.223   0.437   0.790 -2.8705 -0.3308 -0.0554
 1985TIP3   OH2 5960   2.438   4.630   4.332 -0.0399  0.4046  0.7845
 1985TIP3    H1 5961   2.475   4.652   4.417  0.2299  0.2924  0.7003
 1985TIP3    H2 5962   2.496   4.674   4.269 -0.4047  0.7251  0.6682
 1986TIP3   OH2 5963   5.450   4.077   4.082  0.4129  0.3728  0.2761
 1986TIP3    H1 5964   5.418   4.088   4.172 -0.5955 -0.3149  0.0255
 1986TIP3    H2 5965   5.381   4.115   4.027  0.2625 -0.6425 -0.2593
 1987TIP3   OH2 5966   0.372   3.210   2.343 -0.4269  0.1280 -0.4740
 1987TIP3    H1 5967   0.352   3.134   2.398  2.7726 -1.0722 -0.7441
 1987TIP3    H2 5968   0.381   3.283   2.405  1.2423 -0.8041  0.4769
 1988TIP3   OH2 5969   2.402   5.596   2.067 -0.5580  0.0226  0.0404
 1988TIP3    H1 5970   2.326   5.651   2.087 -0.6343 -0.5887  1.5612
 1988TIP3    H2 5971   2.381   5.511   2.105  0.6123 -0.3476 -0.0971
 1989TIP3   OH2 5972   0.860   4.188   3.725 -0.2398  0.0767  0.4835
 1989TIP3    H1 5973   0.873   4.143   3.641  0.6108 -0.8396  1.0806
 1989TIP3    H2 5974   0.900   4.129   3.789  2.9875  2.6667  1.0928
 1990TIP3   OH2 5975   5.757   2.379   3.154  0.3237 -0.2989 -0.2169
 1990TIP3    H1 5976   5.662   2.389   3.154  0.2596 -0.8405  0.1815
 1990TIP3    H2 5977   5.789   2.446   3.214  0.0594 -1.1379  0.9038
 1991TIP3   OH2 5978   3.305   0.009   2.916 -0.3950 -0.6602 -0.9347
 1991TIP3    H1 5979   3.369  -0.060   2.931  0.3826 -0.5731 -3.3604
 1991TIP3    H2 5980   3.328   0.078   2.978  0.9186 -1.2519 -0.7339
 1992TIP3   OH2 5981   4.590   0.626   5.112  0.5278  0.5573  0.6583
 1992TIP3    H1 5982   4.568   0.709   5.153 -2.7386  0.5573 -0.7283
 1992TIP3    H2 5983   4.550   0.560   5.169 -1.3643  0.3707 -0.7756
 1993TIP3   OH2 5984   3.842   4.730   4.550  0.4313  0.0778  0.3881
 1993TIP3    H1 5985   3.924   4.763   4.512  1.6872 -1.0376  1.9860
 1993TIP3    H2 5986   3.840   4.637   4.526  0.1245 -0.1249  1.1625
 1994TIP3   OH2 5987   6.092   1.784   2.541 -0.0171  0.3724 -0.2484
 1994TIP3    H1 5988   6.056   1.706   2.499  0.6969 -0.6485  0.9790
 1994TIP3    H2 5989   6.142   1.751   2.615  1.3631  1.9189 -0.4277
 1995TIP3   OH2 5990   4.981   3.270   2.267  0.0704  0.1176 -0.2639
 1995TIP3    H1 5991   4.925   3.311   2.332 -0.9384 -2.0823  0.3384
 1995TIP3    H2 5992   4.977   3.328   2.191 -1.1962  1.1671  0.5754
 1996TIP3   OH2 5993   4.955   1.354   3.306 -0.1447  0.5209  0.3044
 1996TIP3    H1 5994   5.027   1.342   3.245 -2.7131 -1.7981 -2.6603
 1996TIP3    H2 5995   4.917   1.439   3.283  0.7624  1.0922  0.8933
 1997TIP3   OH2 5996   3.273   1.273   1.160 -0.1553  0.4439 -0.1681
 1997TIP3    H1 5997   3.300   1.349   1.109  1.5237  0.1294  0.1939
 1997TIP3    H2 5998   3.282   1.199   1.099 -0.4803  0.3701 -0.1274
 1998TIP3   OH2 5999   0.871   2.076   3.446  0.1566 -0.2887  0.5034
 1998TIP3    H1 6000   0.950   2.122   3.421 -0.6222  0.9783  0.3022
 1998TIP3    H2 6001   0.809   2.094   3.375  0.2823 -2.9835 -0.4282
 1999TIP3   OH2 6002   1.829   1.106   4.056 -0.1239  0.3429  0.4656
 1999TIP3    H1 6003   1.887   1.106   4.132 -0.3950 -0.8357  0.7013
 1999TIP3    H2 6004   1.741   1.099   4.093 -0.4292  1.8940  0.1029
 2000TIP3   OH2 6005   3.128   0.198   2.228  0.8100  0.1157  0.3775
 2000TIP3    H1 6006   3.180   0.231   2.154  0.0919 -1.5512 -0.9429
 2000TIP3    H2 6007   3.152   0.106   2.235 -0.7053 -0.2717  0.8412
 2001TIP3   OH2 6008   3.469   1.513   0.824 -0.4975  0.3142 -0.1239
 2001TIP3    H1 6009   3.391   1.460   0.807 -0.7052 -0.0826  1.8847
 2001TIP3    H2 6010   3.458   1.545   0.913  1.1091  1.2098 -0.2070
 2002TIP3   OH2 6011   1.632   3.785   4.522  0.2142  0.3850 -0.0143
 2002TIP3    H1 6012   1.684   3.865   4.521  1.4348 -0.3330  1.2059
 2002TIP3    H2 6013   1.657   3.742   4.604 -2.1899 -0.1154  0.5165
 2003TIP3   OH2 6014   5.702   0.454   3.311  0.0049  0.5562 -0.5766
 2003TIP3    H1 6015   5.755   0.374   3.311 -0.8731 -0.0603 -1.5139
 2003TIP3    H2 6016   5.763   0.524   3.290  1.0484  0.3550  1.5360
 2004TIP3   OH2 6017   2.158   2.538   1.137  0.1457 -0.0836  0.2417
 2004TIP3    H1 6018   2.136   2.445   1.127 -0.5190 -0.3625  3.2310
 2004TIP3    H2 6019   2.101   2.582   1.074 -1.3636 -1.5609  0.4735
 2005TIP3   OH2 6020   3.835   4.728   2.223 -0.3884 -0.2755 -0.3660
 2005TIP3    H1 6021   3.798   4.653   2.270 -2.1867 -0.1379 -1.4811
 2005TIP3    H2 6022   3.762   4.763   2.172  1.0628  0.6263 -1.9313
 2006TIP3   OH2 6023   2.662   1.487   1.283  0.2148 -0.1753 -0.0245
 2006TIP3    H1 6024   2.715   1.514   1.208 -0.8036 -0.0054 -0.7008
 2006TIP3    H2 6025   2.594   1.431   1.245  0.0106 -0.5382  0.8527
 2007TIP3   OH2 6026   5.925   5.473   4.498 -0.3419  0.0425 -0.0899
 2007TIP3    H1 6027   5.867   5.485   4.422  0.2161 -0.6642 -0.6356
 2007TIP3    H2 6028   5.948   5.381   4.497 -1.3896 -0.2868  1.7427
 2008TIP3   OH2 6029   2.564   4.418   0.367 -0.0706 -0.2883  0.3162
 2008TIP3    H1 6030   2.613   4.342   0.400  0.7606  0.8181  1.7825
 2008TIP3    H2 6031   2.550   4.400   0.274  1.4602 -1.5366  0.2864
 2009TIP3   OH2 6032   5.763   5.515   0.617  0.4557 -0.2852 -1.0906
 2009TIP3    H1 6033   5.791   5.432   0.577  0.4362 -2.0028  2.1292
 2009TIP3    H2 6034   5.679   5.495   0.658  0.5753  1.2333  0.0017
 2010TIP3   OH2 6035   2.303   4.102   2.369  0.0282  0.4025  0.0663
 2010TIP3    H1 6036   2.306   4.050   2.289 -1.5469  1.2537 -0.6043
 2010TIP3    H2 6037   2.241   4.055   2.425 -0.5311  0.9376 -0.0940
 2011TIP3   OH2 6038   2.586   1.489   1.843  0.4195 -0.1362 -0.5398
 2011TIP3    H1 6039   2.566   1.468   1.935 -1.0153  2.0893 -0.2572
 2011TIP3    H2 6040   2.599   1.404   1.801  0.4903 -1.2406  1.5789
 2012TIP3   OH2 6041   1.267   1.715   3.598 -0.0856  0.3249  0.0199
 2012TIP3    H1 6042   1.287   1.788   3.657 -1.3008  1.3820 -0.8284
 2012TIP3    H2 6043   1.196   1.668   3.641 -0.3944  0.5926 -0.1977
 2013TIP3   OH2 6044   2.353   5.875   1.883 -0.5315 -0.2557 -0.4627
 2013TIP3    H1 6045   2.400   5.943   1.931 -0.6654  0.2755 -1.0828
 2013TIP3    H2 6046   2.416   5.843   1.819 -0.5929 -0.4547 -0.4245
 2014TIP3   OH2 6047   2.905   1.107   4.008  0.4840  0.1430  0.3686
 2014TIP3    H1 6048   2.924   1.200   3.999  0.4860  0.1178  0.1030
 2014TIP3    H2 6049   2.810   1.101   4.002  0.5386  0.0433 -0.4045
 2015TIP3   OH2 6050   3.875   0.560   3.857  0.3053 -0.6414 -0.0589
 2015TIP3    H1 6051   3.821   0.579   3.933  0.0285  1.2234 -0.6660
 2015TIP3    H2 6052   3.957   0.525   3.893  0.0695 -0.0755  1.0672
 2016TIP3   OH2 6053   6.117   2.739   1.752 -0.2101 -0.5124 -0.0290
 2016TIP3    H1 6054   6.063   2.806   1.712  0.9334  0.1844 -0.4551
 2016TIP3    H2 6055   6.057   2.689   1.807 -0.7457  2.2523  2.1263
 2017TIP3   OH2 6056   3.659   3.899   2.305 -1.0157  0.0997  0.0938
 2017TIP3    H1 6057   3.667   3.845   2.226  0.2301  0.5747 -0.1208
 2017TIP3    H2 6058   3.655   3.989   2.273 -0.2465  0.3144  0.5750
 2018TIP3   OH2 6059   3.921   1.382   2.897  0.1709 -0.2672  0.4108
 2018TIP3    H1 6060   3.828   1.398   2.881  0.5527  1.6686 -0.0957
 2018TIP3    H2 6061   3.957   1.360   2.811  0.8760  2.9882 -0.2379
 2019TIP3   OH2 6062   5.219   2.672   0.527 -0.1559 -0.7264  0.3553
 2019TIP3    H1 6063   5.267   2.750   0.553 -1.0309 -0.3053  0.7347
 2019TIP3    H2 6064   5.278   2.599   0.548  1.0540 -0.1470 -0.8739
 2020TIP3   OH2 6065   1.935   3.318   3.186  0.2830 -0.9062 -0.4094
 2020TIP3    H1 6066   1.972   3.386   3.242  1.4571 -1.7587 -0.1093
 2020TIP3    H2 6067   1.863   3.282   3.238  0.7677 -1.0613  0.1737
 2021TIP3   OH2 6068   5.656   1.245   4.416 -0.8539  0.8764  0.2642
 2021TIP3    H1 6069   5.601   1.183   4.367 -0.2207 -1.0400  1.8363
 2021TIP3    H2 6070   5.686   1.195   4.491  3.5020  1.5905 -0.7581
 2022TIP3   OH2 6071   4.227   5.757   2.516 -0.3181  0.2640  0.2083
 2022TIP3    H1 6072   4.203   5.670   2.549 -1.3399  0.2575 -0.5068
 2022TIP3    H2 6073   4.157   5.814   2.547 -2.1843 -0.0024 -3.1252
 2023TIP3   OH2 6074   5.521   5.503   2.373 -0.0945  0.9663 -0.3325
 2023TIP3    H1 6075   5.603   5.548   2.394  0.4041 -0.1246  0.1161
 2023TIP3    H2 6076   5.494   5.542   2.289  1.9596 -0.0591 -1.5551
 2024TIP3   OH2 6077   0.358   2.338   4.171  0.2216  0.1771  0.1029
 2024TIP3    H1 6078   0.315   2.325   4.086  2.0334  2.9289 -1.4291
 2024TIP3    H2 6079   0.442   2.293   4.162  0.3736  0.3873  0.4495
 2025TIP3   OH2 6080   4.805   5.802   4.844 -0.6692 -0.4735  0.2471
 2025TIP3    H1 6081   4.844   5.880   4.803  0.1999 -1.3914 -0.7152
 2025TIP3    H2 6082   4.768   5.835   4.926 -0.1610  0.9205 -0.0460
 2026TIP3   OH2 6083   2.678   5.475   4.128  0.0017  0.5282  0.3836
 2026TIP3    H1 6084   2.718   5.561   4.134 -1.3509  1.1124  1.5152
 2026TIP3    H2 6085   2.627   5.465   4.209  0.3465 -1.4546  0.4227
 2027TIP3   OH2 6086   0.359   0.752   1.417  0.0837 -0.2047 -0.1476
 2027TIP3    H1 6087   0.398   0.776   1.333  0.3927  1.6293  0.4789
 2027TIP3    H2 6088   0.392   0.818   1.478  0.2965 -1.8182  1.5420
 2028TIP3   OH2 6089   4.830   1.883   2.751  0.2632  0.0324  0.1723
 2028TIP3    H1 6090   4.751   1.831   2.734  0.8631 -0.7057 -0.4523
 2028TIP3    H2 6091   4.888   1.824   2.799  0.7809  0.2646 -0.1525
 2029TIP3   OH2 6092   0.048   1.094   0.388  0.6834  0.4805 -0.4210
 2029TIP3    H1 6093   0.137   1.129   0.390  0.8900 -0.0338 -0.5162
 2029TIP3    H2 6094   0.017   1.102   0.478  1.8792 -1.9788  0.2865
 2030TIP3   OH2 6095   3.054   1.395   4.494  0.4987 -0.2877 -0.1553
 2030TIP3    H1 6096   3.060   1.489   4.512 -0.0902 -0.3534  0.4454
 2030TIP3    H2 6097   3.135   1.359   4.529 -0.2264 -0.2822  1.6636
 2031TIP3   OH2 6098   4.849   5.615   3.446 -0.2879  0.5156 -0.3176
 2031TIP3    H1 6099   4.791   5.592   3.374 -0.2860  2.2438 -0.9100
 2031TIP3    H2 6100   4.934   5.578   3.421 -0.6581 -0.3056 -0.3940
 2032TIP3   OH2 6101   2.514   5.089   0.158 -0.0095 -0.3404 -0.2555
 2032TIP3    H1 6102   2.596   5.059   0.119  0.9727  1.8780 -0.0269
 2032TIP3    H2 6103   2.507   5.180   0.131 -1.4155  0.0721  1.3605
 2033TIP3   OH2 6104   0.863   1.175   0.836 -0.4266 -0.0624  0.3496
 2033TIP3    H1 6105   0.909   1.244   0.788 -1.3071 -0.5468 -1.2887
 2033TIP3    H2 6106   0.865   1.204   0.927  0.1418  1.5867 -0.1363
 2034TIP3   OH2 6107   0.466   4.523   1.604 -0.5007 -0.0820  0.0072
 2034TIP3    H1 6108   0.491   4.513   1.512  3.8762  0.9787  0.8815
 2034TIP3    H2 6109   0.399   4.456   1.618 -0.8774 -0.7003 -3.7221
 2035TIP3   OH2 6110   6.023   0.736   3.680  0.1866  0.1936 -0.6137
 2035TIP3    H1 6111   6.056   0.802   3.619  2.8676 -1.1272 -0.7078
 2035TIP3    H2 6112   6.057   0.762   3.765  3.3858 -2.1873 -0.9917
 2036TIP3   OH2 6113   3.164   3.947   3.170  0.0195 -0.9210  0.0456
 2036TIP3    H1 6114   3.143   3.893   3.094  0.0044 -0.2871 -0.4132
 2036TIP3    H2 6115   3.088   3.939   3.228  0.2138 -1.7448  0.1933
 2037TIP3   OH2 6116   1.065   0.413   3.426 -0.5487  0.3092  0.1839
 2037TIP3    H1 6117   0.975   0.392   3.452 -0.9735  1.3938 -0.3262
 2037TIP3    H2 6118   1.085   0.350   3.357 -1.0614  0.3061  0.0313
 2038TIP3   OH2 6119   2.105   0.118   1.417 -0.2373  0.5711 -0.1897
 2038TIP3    H1 6120   2.137   0.091   1.503 -0.9493  0.4140  0.0305
 2038TIP3    H2 6121   2.019   0.078   1.410  0.2810 -0.3922 -1.4611
 2039TIP3   OH2 6122   2.138   3.531   1.704  0.0520 -0.4280 -0.7907
 2039TIP3    H1 6123   2.202   3.506   1.638  1.3619  0.4053  0.1336
 2039TIP3    H2 6124   2.137   3.627   1.702  1.0460 -0.3221  1.2084
 2040TIP3   OH2 6125   3.125   4.308   0.932  0.2212 -0.0714  0.1646
 2040TIP3    H1 6126   3.207   4.265   0.910  0.0906 -0.3749  0.2756
 2040TIP3    H2 6127   3.137   4.398   0.902  0.0396 -0.4757 -1.2048
 2041TIP3   OH2 6128   0.289   3.513   3.960  0.2070 -0.2837  0.3850
 2041TIP3    H1 6129   0.335   3.573   3.901 -0.3379 -2.0616 -1.9695
 2041TIP3    H2 6130   0.359   3.462   4.001  0.5030 -1.3844 -1.4064
 2042TIP3   OH2 6131   5.345   1.810   0.239  1.0136 -0.6383 -0.5211
 2042TIP3    H1 6132   5.424   1.760   0.218  0.5135 -0.7646 -2.2573
 2042TIP3    H2 6133   5.308   1.832   0.154 -0.9780 -0.8164  0.2646
 2043TIP3   OH2 6134   0.473   4.618   3.046  0.1816  0.4362  0.2923
 2043TIP3    H1 6135   0.532   4.651   3.114  1.2373 -1.0591  0.1484
 2043TIP3    H2 6136   0.393   4.594   3.092 -0.0433  1.7607  0.6105
 2044TIP3   OH2 6137   6.000   3.923   0.784 -0.4229  0.9523  0.1865
 2044TIP3    H1 6138   5.999   4.011   0.749  1.1302 -0.0766 -2.7388
 2044TIP3    H2 6139   6.086   3.888   0.761 -1.8385 -2.1348 -1.0015
 2045TIP3   OH2 6140   2.573   0.700   4.727  0.4846  0.1302 -0.5395
 2045TIP3    H1 6141   2.498   0.745   4.687  1.8663  1.4808 -1.7828
 2045TIP3    H2 6142   2.615   0.767   4.781  1.5131 -0.1961 -0.9070
 2046TIP3   OH2 6143   0.308   4.585   5.123 -0.2176 -0.6418  0.5740
 2046TIP3    H1 6144   0.343   4.611   5.038  0.5256 -0.1379  1.0245
 2046TIP3    H2 6145   0.268   4.500   5.107 -0.8699 -0.1601 -0.4698
 2047TIP3   OH2 6146   4.797   3.822   2.855  0.4540  0.0291  0.0828
 2047TIP3    H1 6147   4.816   3.860   2.769  1.8764 -0.9254 -0.0674
 2047TIP3    H2 6148   4.878   3.833   2.904 -0.4895  0.9867  1.5050
 2048TIP3   OH2 6149   2.633   0.875   5.143  1.1075  0.6872 -0.2934
 2048TIP3    H1 6150   2.625   0.876   5.239  2.3067  1.5217 -0.1762
 2048TIP3    H2 6151   2.555   0.922   5.113  1.0359  0.9781  0.3145
 2049TIP3   OH2 6152   6.196   4.757   3.509  0.7649  0.7082 -0.1726
 2049TIP3    H1 6153   6.160   4.723   3.590 -2.3531  1.5272 -1.0860
 2049TIP3    H2 6154   6.198   4.682   3.450 -0.1140  0.8012 -0.3200
 2050TIP3   OH2 6155   2.745   1.938   0.673 -0.1164 -0.0943 -0.1815
 2050TIP3    H1 6156   2.775   1.859   0.628  1.1638  0.8922 -1.1152
 2050TIP3    H2 6157   2.794   1.938   0.756  1.1267  0.5300 -0.8861
 2051TIP3   OH2 6158   1.314   4.203   2.755 -0.0215 -0.5178  0.4362
 2051TIP3    H1 6159   1.342   4.224   2.843 -1.2708  0.9792  0.5209
 2051TIP3    H2 6160   1.270   4.118   2.763  0.4754 -0.7103  1.1188
 2052TIP3   OH2 6161   3.020   2.001   4.050  0.1719 -0.6775 -0.1509
 2052TIP3    H1 6162   3.077   1.928   4.076  1.0568  0.5237  1.4634
 2052TIP3    H2 6163   2.960   2.012   4.123  0.6131  0.7385  0.0254
 2053TIP3   OH2 6164   5.196   2.816   3.261  0.4595 -0.1574  0.1590
 2053TIP3    H1 6165   5.140   2.739   3.275  0.4136 -0.1054  0.2675
 2053TIP3    H2 6166   5.134   2.885   3.235  0.3066  0.2350  1.5058
 2054TIP3   OH2 6167   1.274   5.128   1.693 -0.1573 -0.0544  0.3683
 2054TIP3    H1 6168   1.313   5.062   1.751  1.5063  0.4061 -0.1648
 2054TIP3    H2 6169   1.273   5.086   1.607  0.3885  0.3974  0.1334
 2055TIP3   OH2 6170   4.667   0.971   0.720 -0.8152  0.3862  0.2687
 2055TIP3    H1 6171   4.743   1.022   0.691 -0.9158  1.5605  1.9127
 2055TIP3    H2 6172   4.644   1.010   0.804 -1.2140 -2.0835  1.3697
 2056TIP3   OH2 6173   4.862   0.576   2.025 -1.0124 -0.1158  0.0834
 2056TIP3    H1 6174   4.788   0.618   2.067 -0.5865  1.4542 -0.6843
 2056TIP3    H2 6175   4.854   0.483   2.049 -2.6954  0.1750  0.7364
 2057TIP3   OH2 6176   2.183   1.119   2.041  0.1658 -0.1239  0.2978
 2057TIP3    H1 6177   2.175   1.025   2.058  2.2193  0.0282  2.9095
 2057TIP3    H2 6178   2.254   1.147   2.100  0.8874  2.7320 -1.7327
 2058TIP3   OH2 6179   6.131   0.778   2.048  0.0625  0.0691 -0.2925
 2058TIP3    H1 6180   6.190   0.840   2.089 -0.0492  0.5522 -0.8489
 2058TIP3    H2 6181   6.187   0.726   1.991 -0.0673  0.6452 -0.9564
 2059TIP3   OH2 6182   2.017   3.122   3.600  0.4427  0.1473  0.6294
 2059TIP3    H1 6183   2.027   3.082   3.514  0.2204 -1.9069  1.4957
 2059TIP3    H2 6184   1.922   3.124   3.615  0.4635  0.8382  0.6645
 2060TIP3   OH2 6185   1.153   2.466   3.865 -0.5911  0.1936 -0.0377
 2060TIP3    H1 6186   1.176   2.550   3.826  1.8303  0.9359  2.6063
 2060TIP3    H2 6187   1.110   2.489   3.948 -0.5737 -1.1906  0.3807
 2061TIP3   OH2 6188   0.810   5.424   2.410 -0.3145 -0.4920  0.3260
 2061TIP3    H1 6189   0.822   5.463   2.497 -0.2056 -0.0516  0.1188
 2061TIP3    H2 6190   0.747   5.354   2.423 -1.5159  0.5722  0.4923
 2062TIP3   OH2 6191   6.139   1.194   4.839  0.2844 -0.4725 -0.4461
 2062TIP3    H1 6192   6.115   1.223   4.927 -0.3965 -0.8686 -0.4967
 2062TIP3    H2 6193   6.190   1.114   4.853  1.4967  0.2795 -0.3488
 2063TIP3   OH2 6194   1.089   1.987   0.924  0.1304 -0.1226  0.6727
 2063TIP3    H1 6195   0.998   2.016   0.921 -0.3667 -1.5939  0.5614
 2063TIP3    H2 6196   1.123   2.003   0.836  0.1243  0.8328  0.8349
 2064TIP3   OH2 6197   3.405   3.808   2.871  0.0201 -0.2489 -0.1604
 2064TIP3    H1 6198   3.415   3.845   2.784  0.7214  1.2141  0.5104
 2064TIP3    H2 6199   3.391   3.883   2.928  1.8405 -0.9163  1.2995
 2065TIP3   OH2 6200   1.072   1.840   3.374  0.3658 -0.2229 -0.8186
 2065TIP3    H1 6201   1.153   1.863   3.419 -0.5300  2.0368 -0.1832
 2065TIP3    H2 6202   1.009   1.822   3.445 -0.0838 -0.4011 -1.2539
 2066TIP3   OH2 6203   5.257   4.685   0.566  0.2846 -0.4654 -0.2997
 2066TIP3    H1 6204   5.339   4.646   0.597 -0.1197 -0.7772  0.4041
 2066TIP3    H2 6205   5.196   4.612   0.561  0.2469 -0.3602 -1.5543
 2067TIP3   OH2 6206   0.611   4.356   3.620 -0.2335 -0.2961 -0.1405
 2067TIP3    H1 6207   0.540   4.413   3.589 -2.4623 -1.6265  2.1075
 2067TIP3    H2 6208   0.676   4.416   3.657 -1.1812  0.8913 -0.3329
 2068TIP3   OH2 6209   3.535   3.977   4.769  0.2579 -0.2842  0.1207
 2068TIP3    H1 6210   3.510   3.961   4.678 -0.3726 -0.1156  0.2565
 2068TIP3    H2 6211   3.474   4.045   4.798 -0.2059 -1.0410  0.9612
 2069TIP3   OH2 6212   0.431   1.334   3.391 -0.1885 -0.1777 -0.1914
 2069TIP3    H1 6213   0.504   1.379   3.432 -1.3291  0.0633  1.6963
 2069TIP3    H2 6214   0.417   1.381   3.308  1.1459  0.3734 -0.1226
 2070TIP3   OH2 6215   1.774   5.987   1.054  0.5354 -0.3396 -0.5765
 2070TIP3    H1 6216   1.831   6.022   0.985 -1.4312  1.5778 -1.3225
 2070TIP3    H2 6217   1.737   5.908   1.016  0.2841  0.1280 -1.3352
 2071TIP3   OH2 6218   1.914   0.643   2.404 -0.5927 -0.1991  0.2117
 2071TIP3    H1 6219   1.972   0.623   2.330 -0.5717 -0.4543  0.2965
 2071TIP3    H2 6220   1.829   0.607   2.379 -1.0597  1.2662 -0.4645
 2072TIP3   OH2 6221   2.961   1.428   0.373  0.0097 -0.4601  0.1789
 2072TIP3    H1 6222   3.046   1.397   0.341  1.2402 -0.4370  3.1227
 2072TIP3    H2 6223   2.964   1.523   0.361  0.1445 -0.5119 -0.2199
 2073TIP3   OH2 6224   4.299   2.982   1.794  0.0014 -0.5333  0.2350
 2073TIP3    H1 6225   4.233   3.049   1.814  0.2512 -0.7639  2.0016
 2073TIP3    H2 6226   4.381   3.031   1.789  0.0370 -0.5660  0.4865
 2074TIP3   OH2 6227   0.493   3.178   4.860 -0.7642  0.4159 -0.6866
 2074TIP3    H1 6228   0.525   3.192   4.949 -1.2222  0.0197 -0.4521
 2074TIP3    H2 6229   0.570   3.187   4.804 -0.0150 -1.5431 -0.0410
 2075TIP3   OH2 6230   0.937   1.589   0.008  0.4051  0.5271 -0.1768
 2075TIP3    H1 6231   0.976   1.607   0.094  0.3373 -0.9714  0.2042
 2075TIP3    H2 6232   0.912   1.497   0.013  0.0674  0.5208 -1.6916
 2076TIP3   OH2 6233   0.499   1.661   4.829 -0.3586  0.3740  0.2073
 2076TIP3    H1 6234   0.502   1.676   4.923 -2.3802  1.8252  0.0873
 2076TIP3    H2 6235   0.489   1.748   4.790 -0.0814 -0.2437 -1.3391
 2077TIP3   OH2 6236   3.427   4.718   2.784 -0.6949  0.2366  0.0135
 2077TIP3    H1 6237   3.405   4.802   2.825  0.0266  1.6781 -2.3516
 2077TIP3    H2 6238   3.507   4.689   2.830  0.1708  1.8513 -0.4101
 2078TIP3   OH2 6239   0.256   4.933   3.051  0.3367 -0.0769  0.0136
 2078TIP3    H1 6240   0.189   4.998   3.032 -0.0029 -0.6920 -0.9467
 2078TIP3    H2 6241   0.338   4.983   3.050  0.0199  0.4502 -0.0910
 2079TIP3   OH2 6242   2.650   1.996   2.543  0.1119  0.8512  0.2843
 2079TIP3    H1 6243   2.710   2.018   2.471  0.6681 -1.9169 -0.1818
 2079TIP3    H2 6244   2.701   2.013   2.622  1.3318 -0.8182 -0.0980
 2080TIP3   OH2 6245   3.594   2.194   2.231 -0.2326  0.0203  0.3232
 2080TIP3    H1 6246   3.649   2.149   2.295 -1.6129 -0.1612  1.4288
 2080TIP3    H2 6247   3.645   2.194   2.151  0.6278 -1.7368  0.8347
 2081TIP3   OH2 6248   1.039   2.307   1.256 -0.3000  0.0560  0.4827
 2081TIP3    H1 6249   0.980   2.371   1.216 -2.6357 -2.1898  0.0944
 2081TIP3    H2 6250   1.101   2.285   1.187 -0.1880  1.0268  0.2600
 2082TIP3   OH2 6251   3.299   5.527   4.306  0.0165 -0.5416 -0.2555
 2082TIP3    H1 6252   3.356   5.576   4.366 -0.5330  0.1791 -0.3097
 2082TIP3    H2 6253   3.220   5.580   4.299 -1.1459 -2.0634  0.6893
 2083TIP3   OH2 6254   1.391   5.628   3.299  0.4184  0.7439 -0.2148
 2083TIP3    H1 6255   1.425   5.618   3.388 -0.1804  1.4989  0.1155
 2083TIP3    H2 6256   1.306   5.585   3.300  0.7221  0.1210 -0.6318
 2084TIP3   OH2 6257   4.647   4.783   1.783 -0.1728 -0.4814  0.3400
 2084TIP3    H1 6258   4.582   4.800   1.851 -1.5791  4.4740 -1.8098
 2084TIP3    H2 6259   4.728   4.820   1.817  0.1070 -1.4057  0.7149
 2085TIP3   OH2 6260   5.850   2.663   1.132 -0.9007 -0.2652 -0.2829
 2085TIP3    H1 6261   5.905   2.703   1.199 -0.5329 -0.3285 -0.5444
 2085TIP3    H2 6262   5.800   2.736   1.096  0.2030  0.0728 -1.1746
 2086TIP3   OH2 6263   5.941   0.219   0.263  0.0194 -0.0126 -0.9059
 2086TIP3    H1 6264   5.978   0.236   0.350  1.0240 -3.4384 -0.5022
 2086TIP3    H2 6265   5.940   0.305   0.220  0.9703  1.5404  1.9021
 2087TIP3   OH2 6266   4.660   2.737   4.392  0.1793 -0.1710 -0.7234
 2087TIP3    H1 6267   4.742   2.725   4.440 -0.9030  0.2855  1.3816
 2087TIP3    H2 6268   4.623   2.817   4.429 -0.9129 -0.0100 -2.0952
 2088TIP3   OH2 6269   0.204   5.956   2.221 -0.5423  0.3102 -0.0800
 2088TIP3    H1 6270   0.172   6.032   2.173  0.5083  0.0450 -1.2493
 2088TIP3    H2 6271   0.183   5.881   2.166 -0.2264 -0.0962  0.3427
 2089TIP3   OH2 6272   2.230   2.037   0.077  0.5808 -0.1239 -0.3091
 2089TIP3    H1 6273   2.247   2.060  -0.014 -2.9386 -0.4686 -1.1807
 2089TIP3    H2 6274   2.187   2.114   0.114 -0.9446 -1.1139  0.0697
 2090TIP3   OH2 6275   2.825   3.788   4.419  0.3674 -0.0119  0.0958
 2090TIP3    H1 6276   2.885   3.841   4.471 -1.0744  1.5234  0.2665
 2090TIP3    H2 6277   2.829   3.701   4.459  0.5272  0.7134  1.7439
 2091TIP3   OH2 6278   5.399   4.977   3.445  0.2573  0.1630  0.7344
 2091TIP3    H1 6279   5.382   4.930   3.527 -1.8318 -1.0880 -0.3441
 2091TIP3    H2 6280   5.314   5.012   3.419  1.0333  1.2074 -0.5195
 2092TIP3   OH2 6281   3.456   4.195   1.158 -0.0385 -0.0998 -0.1906
 2092TIP3    H1 6282   3.476   4.193   1.252 -1.9553 -1.1970  0.2449
 2092TIP3    H2 6283   3.391   4.126   1.146  2.2982 -2.0876 -2.9028
 2093TIP3   OH2 6284   0.314   1.252   1.173 -0.1175 -0.0047 -0.8205
 2093TIP3    H1 6285   0.255   1.183   1.146 -0.2352  0.6275 -2.2805
 2093TIP3    H2 6286   0.318   1.312   1.098 -0.2259  1.7115  0.4721
 2094TIP3   OH2 6287   3.802   5.217   2.447  0.3093 -0.5397  0.5259
 2094TIP3    H1 6288   3.726   5.163   2.425 -0.8999  1.1868  0.2578
 2094TIP3    H2 6289   3.877   5.160   2.431 -0.9287 -2.9498  2.5999
 2095TIP3   OH2 6290   4.906   5.325   3.136  0.5038 -0.3074  0.3762
 2095TIP3    H1 6291   4.892   5.417   3.160  0.3850 -0.3029  0.2899
 2095TIP3    H2 6292   4.922   5.327   3.042 -0.3936 -0.4668  0.2164
 2096TIP3   OH2 6293   4.286   5.227   2.132 -0.6466  0.0266 -0.7729
 2096TIP3    H1 6294   4.245   5.257   2.213 -0.5017 -0.6197 -0.4518
 2096TIP3    H2 6295   4.248   5.141   2.117  1.5573 -1.2381  0.2998
 2097TIP3   OH2 6296   4.388   0.502   1.519 -0.0005 -0.9239  0.0514
 2097TIP3    H1 6297   4.347   0.469   1.439  0.3406  1.1620 -1.0428
 2097TIP3    H2 6298   4.479   0.472   1.513  0.3559  0.2725 -1.0308
 2098TIP3   OH2 6299   4.332   0.960   3.558  0.7676 -0.8393 -0.0404
 2098TIP3    H1 6300   4.321   0.868   3.582 -1.7077  0.0422  2.8598
 2098TIP3    H2 6301   4.264   0.976   3.493 -0.9828 -0.4543  1.7761
 2099TIP3   OH2 6302   4.602   0.190   0.943  0.0817 -0.0802  0.3148
 2099TIP3    H1 6303   4.645   0.112   0.978  0.6874  0.0491 -0.1182
 2099TIP3    H2 6304   4.672   0.254   0.934 -0.3384  0.3795  0.2763
 2100TIP3   OH2 6305   5.700   4.401   0.476  0.2066 -0.2566  0.3792
 2100TIP3    H1 6306   5.615   4.360   0.492  0.1118  0.6318  2.4639
 2100TIP3    H2 6307   5.737   4.414   0.563  1.4115  1.5982 -0.3545
 2101TIP3   OH2 6308   3.372   2.230   4.668 -0.2067 -0.7150 -0.7818
 2101TIP3    H1 6309   3.301   2.181   4.708 -0.4039  0.5610  0.4627
 2101TIP3    H2 6310   3.448   2.172   4.676 -0.7016 -1.3414 -0.5204
 2102TIP3   OH2 6311   0.967   1.834   2.546 -0.0215 -0.4661 -0.7766
 2102TIP3    H1 6312   0.894   1.893   2.566  0.4052 -0.2248  0.1279
 2102TIP3    H2 6313   0.936   1.782   2.472 -1.3520 -0.7943 -0.0278
 2103TIP3   OH2 6314   4.211   5.280   2.874 -0.3362  0.3700  0.1424
 2103TIP3    H1 6315   4.304   5.255   2.873 -0.4816 -0.1687 -0.0332
 2103TIP3    H2 6316   4.169   5.217   2.816 -0.4589  1.9958 -1.6417
 2104TIP3   OH2 6317   2.717   2.615   2.763  0.3881 -0.5968 -0.5220
 2104TIP3    H1 6318   2.801   2.660   2.759 -0.0576  0.2437 -0.7360
 2104TIP3    H2 6319   2.677   2.646   2.844  0.2688 -0.9645 -0.4381
 2105TIP3   OH2 6320   1.374   2.880   0.341  0.3043 -0.1267  0.2763
 2105TIP3    H1 6321   1.422   2.917   0.415  1.6665 -3.2628  1.1311
 2105TIP3    H2 6322   1.441   2.856   0.277 -0.6501  0.3719 -0.9538
 2106TIP3   OH2 6323   1.248   5.620   1.195  0.1998 -0.0902 -0.5709
 2106TIP3    H1 6324   1.238   5.526   1.208  1.0210 -0.0600  0.4067
 2106TIP3    H2 6325   1.267   5.630   1.101 -1.0137 -0.7802 -0.9035
 2107TIP3   OH2 6326   1.749   1.273   2.029  0.5340 -0.0379  0.1277
 2107TIP3    H1 6327   1.824   1.272   2.088  0.4724  0.3525  0.2137
 2107TIP3    H2 6328   1.770   1.341   1.964  0.0855  0.3509  0.3800
 2108TIP3   OH2 6329   1.106   3.654   0.674  0.2749  0.1060  0.2416
 2108TIP3    H1 6330   1.186   3.605   0.690 -0.1979 -0.4605  0.9787
 2108TIP3    H2 6331   1.087   3.641   0.581  1.0898  0.3333  0.0408
 2109TIP3   OH2 6332   3.576   5.871   0.636  0.0213 -0.6077  0.1117
 2109TIP3    H1 6333   3.600   5.917   0.556  1.0284 -2.2422 -0.5824
 2109TIP3    H2 6334   3.482   5.889   0.647  0.1299  0.6003 -0.7716
 2110TIP3   OH2 6335   2.085   3.506   4.105 -0.0479 -0.3713 -0.0329
 2110TIP3    H1 6336   2.130   3.522   4.188 -0.6908 -0.3772  0.3245
 2110TIP3    H2 6337   2.064   3.594   4.072 -2.3496 -0.3562  1.2504
 2111TIP3   OH2 6338   3.045   5.071   1.513  0.1459 -0.4882  0.4439
 2111TIP3    H1 6339   3.055   4.992   1.566  2.2338 -0.9102 -0.4743
 2111TIP3    H2 6340   2.964   5.111   1.545  0.3273 -1.6931  2.6273
 2112TIP3   OH2 6341   1.315   5.044   1.452 -0.0832 -0.5633 -0.6096
 2112TIP3    H1 6342   1.235   5.029   1.402 -1.7403  0.1645  1.6680
 2112TIP3    H2 6343   1.379   4.983   1.413 -1.7308 -1.2455 -2.4234
 2113TIP3   OH2 6344   2.969   5.613   4.387  0.4973  0.0752 -0.6809
 2113TIP3    H1 6345   2.884   5.625   4.345 -0.6365 -0.4139  1.3351
 2113TIP3    H2 6346   3.019   5.691   4.362 -0.9894  0.9994 -0.9003
 2114TIP3   OH2 6347   4.296   3.272   1.554 -0.9149  0.7949 -0.2194
 2114TIP3    H1 6348   4.383   3.310   1.557 -1.0641  1.2849 -1.6442
 2114TIP3    H2 6349   4.240   3.334   1.602 -0.7077  1.1059 -0.3810
 2115TIP3   OH2 6350   2.697   5.526   3.679  0.6069  0.1492 -0.6407
 2115TIP3    H1 6351   2.626   5.551   3.738  0.1600  0.0866 -1.1442
 2115TIP3    H2 6352   2.765   5.490   3.736 -0.0596 -0.4607 -0.2160
 2116TIP3   OH2 6353   6.024   1.309   3.044 -0.1904 -0.0850 -0.7031
 2116TIP3    H1 6354   5.953   1.294   3.105  1.3573 -0.8587  0.9963
 2116TIP3    H2 6355   6.077   1.229   3.047  2.0180  1.3009 -0.1078
 2117TIP3   OH2 6356   1.203   2.816   2.846  0.0536 -0.4009  0.9187
 2117TIP3    H1 6357   1.200   2.861   2.761 -1.4006 -0.7778  0.7540
 2117TIP3    H2 6358   1.168   2.729   2.829  0.3186 -0.6910  1.7975
 2118TIP3   OH2 6359   6.262   3.677   2.346 -0.1389  0.1925 -0.4138
 2118TIP3    H1 6360   6.192   3.628   2.304 -1.3357  0.2780  1.3516
 2118TIP3    H2 6361   6.343   3.636   2.315 -1.0265 -1.3484 -0.7878
 2119TIP3   OH2 6362   1.808   3.693   2.090  0.1812 -0.1086  0.1312
 2119TIP3    H1 6363   1.761   3.750   2.029  0.6412  0.4040  0.2537
 2119TIP3    H2 6364   1.895   3.682   2.051  1.1790  1.8581  1.6424
 2120TIP3   OH2 6365   4.544   3.715   3.976 -0.3175  0.1903  0.1700
 2120TIP3    H1 6366   4.556   3.729   4.070  1.0355  0.5332 -0.0324
 2120TIP3    H2 6367   4.608   3.647   3.953 -1.7872 -1.1218 -0.2215
 2121TIP3   OH2 6368   3.608   2.560   2.103  0.0963  0.0774 -0.8095
 2121TIP3    H1 6369   3.629   2.595   2.017 -0.1692  1.8465 -0.2020
 2121TIP3    H2 6370   3.519   2.526   2.095 -1.1695  3.0461 -0.5242
 2122TIP3   OH2 6371   5.817   1.083   0.443  0.2510  0.1472 -0.3470
 2122TIP3    H1 6372   5.774   1.013   0.492  2.2811 -0.3632  0.8005
 2122TIP3    H2 6373   5.748   1.147   0.427 -1.5564 -1.8497 -0.9910
 2123TIP3   OH2 6374   0.545   0.714   3.544  0.3448 -0.1187  0.0696
 2123TIP3    H1 6375   0.511   0.741   3.458 -1.3560 -0.2759  0.6459
 2123TIP3    H2 6376   0.583   0.794   3.581  3.0820 -0.5014 -1.6386
 2124TIP3   OH2 6377   1.132   2.884   0.050  0.2633  0.0062  0.2025
 2124TIP3    H1 6378   1.148   2.945  -0.023 -2.1310  1.5545  0.8498
 2124TIP3    H2 6379   1.199   2.905   0.114  2.8211 -1.8133 -1.6810
 2125TIP3   OH2 6380   5.893   4.582   0.380 -0.1089 -0.8261 -0.1489
 2125TIP3    H1 6381   5.854   4.497   0.402  0.5482 -0.8011  1.2417
 2125TIP3    H2 6382   5.844   4.646   0.432 -0.0933 -0.4540 -0.5880
 2126TIP3   OH2 6383   6.347   0.661   2.875  0.0011  0.5102 -0.0490
 2126TIP3    H1 6384   6.265   0.687   2.832 -1.0523  1.0371  2.1580
 2126TIP3    H2 6385   6.408   0.732   2.856  0.2520 -0.2282 -2.3280
 2127TIP3   OH2 6386   4.292   5.505   3.775 -0.2668  0.2425  0.3807
 2127TIP3    H1 6387   4.288   5.473   3.685 -0.5733 -1.1513  0.8637
 2127TIP3    H2 6388   4.231   5.578   3.777 -0.7860 -0.1521 -0.3846
 2128TIP3   OH2 6389   0.828   1.472   3.422  0.0198  0.0463  0.2882
 2128TIP3    H1 6390   0.825   1.478   3.518  0.8969 -1.4961  0.4369
 2128TIP3    H2 6391   0.921   1.466   3.401 -0.2246 -1.8736 -0.4623
 2129TIP3   OH2 6392   5.144   0.435   5.006 -0.1920 -0.0342 -0.0430
 2129TIP3    H1 6393   5.115   0.356   4.960 -0.9283 -0.0399  0.4132
 2129TIP3    H2 6394   5.072   0.456   5.066  0.0506  0.9061 -0.0586
 2130TIP3   OH2 6395   6.157   4.547   0.654 -0.5586 -0.2005 -0.4343
 2130TIP3    H1 6396   6.089   4.583   0.597 -0.7322 -0.3794 -0.3421
 2130TIP3    H2 6397   6.113   4.536   0.738 -1.4162 -3.4627 -1.1805
 2131TIP3   OH2 6398   4.174   4.112   2.717 -0.0243  0.0617 -0.5044
 2131TIP3    H1 6399   4.218   4.092   2.635  0.6977  2.3603 -0.7379
 2131TIP3    H2 6400   4.117   4.186   2.696  2.1397  2.5049  1.5319
 2132TIP3   OH2 6401   2.381   3.554   1.126  0.1209  0.2246  0.5118
 2132TIP3    H1 6402   2.391   3.529   1.035  2.4506  0.2980  0.6857
 2132TIP3    H2 6403   2.343   3.642   1.123 -1.0492 -0.2975 -0.3203
 2133TIP3   OH2 6404   1.302   1.672   4.443 -0.3445  0.0022 -0.5194
 2133TIP3    H1 6405   1.270   1.708   4.360  0.2435 -0.1051 -0.7944
 2133TIP3    H2 6406   1.380   1.724   4.463 -0.4720  0.0188 -0.0331
 2134TIP3   OH2 6407   0.827   2.923   3.314 -0.5793 -1.0661  0.0237
 2134TIP3    H1 6408   0.852   2.957   3.400  0.6321 -2.6056  0.3160
 2134TIP3    H2 6409   0.905   2.878   3.282 -2.3968 -4.8518  0.3376
 2135TIP3   OH2 6410   1.487   2.301   0.577 -0.5657 -0.4346 -0.0870
 2135TIP3    H1 6411   1.436   2.232   0.535 -0.5795 -0.1997 -0.4629
 2135TIP3    H2 6412   1.533   2.344   0.505 -0.2152 -0.3343  0.1960
 2136TIP3   OH2 6413   4.742   1.708   1.524 -0.1546 -0.1453  0.0165
 2136TIP3    H1 6414   4.820   1.655   1.540  0.2352  0.9279  2.0822
 2136TIP3    H2 6415   4.773   1.781   1.471  0.3509  0.4406  1.0871
 2137TIP3   OH2 6416   2.666   0.411   4.199  0.4181 -0.0907  0.1286
 2137TIP3    H1 6417   2.741   0.451   4.154 -0.2711 -0.3637 -1.3222
 2137TIP3    H2 6418   2.662   0.322   4.165 -0.4376 -0.1500  0.3537
 2138TIP3   OH2 6419   2.684   0.834   2.336 -0.5228 -0.3493 -0.1863
 2138TIP3    H1 6420   2.624   0.762   2.357 -2.9537  1.3772 -0.7695
 2138TIP3    H2 6421   2.663   0.857   2.245  2.5915 -1.0183 -1.1966
 2139TIP3   OH2 6422   3.532   0.534   2.040 -0.4505 -0.1143 -0.6132
 2139TIP3    H1 6423   3.531   0.527   1.945 -1.5615  1.8457 -0.8048
 2139TIP3    H2 6424   3.537   0.628   2.058  2.5672 -0.4954  1.3343
 2140TIP3   OH2 6425   3.453   3.460   1.733  0.2148 -0.2113  0.3623
 2140TIP3    H1 6426   3.490   3.539   1.771  0.1783  0.3928 -0.8210
 2140TIP3    H2 6427   3.529   3.409   1.705  0.2387 -0.6054  1.1414
 2141TIP3   OH2 6428   6.050   2.731   4.181 -0.1623 -0.2844 -0.0061
 2141TIP3    H1 6429   6.076   2.816   4.216  1.4992 -0.6747 -0.1982
 2141TIP3    H2 6430   6.087   2.668   4.242 -0.0885 -0.9049 -0.6884
 2142TIP3   OH2 6431   2.287   5.875   3.806 -0.2817  0.1652 -0.0853
 2142TIP3    H1 6432   2.367   5.846   3.761  0.2567  0.1852  0.8309
 2142TIP3    H2 6433   2.299   5.845   3.896 -1.5900 -0.3704 -0.0692
 2143TIP3   OH2 6434   5.325   5.708   3.530 -0.0217 -0.7180 -0.2302
 2143TIP3    H1 6435   5.270   5.632   3.511 -3.1791  1.2136  0.3338
 2143TIP3    H2 6436   5.352   5.696   3.621 -2.0549 -0.3827  0.4727
 2144TIP3   OH2 6437   2.356   5.042   0.835  0.1051  0.1847 -0.2580
 2144TIP3    H1 6438   2.313   4.981   0.775  0.9451 -1.1327  0.4057
 2144TIP3    H2 6439   2.286   5.081   0.886 -0.4064 -0.9081 -0.1051
 2145TIP3   OH2 6440   4.452   3.256   2.951 -0.0758 -0.2203  0.2139
 2145TIP3    H1 6441   4.370   3.300   2.929 -0.1288 -0.5084 -0.1916
 2145TIP3    H2 6442   4.473   3.286   3.039 -0.5379 -0.0253  0.2608
 2146TIP3   OH2 6443   5.094   3.078   5.158 -0.0715 -0.1316 -0.2799
 2146TIP3    H1 6444   5.071   3.170   5.147 -0.1014 -0.1363 -0.2543
 2146TIP3    H2 6445   5.060   3.035   5.079 -0.5430 -0.2147 -0.0301
 2147TIP3   OH2 6446   3.759   3.186   1.021 -0.2802  0.1260 -0.5364
 2147TIP3    H1 6447   3.710   3.256   0.979  0.3836  0.2504 -1.1253
 2147TIP3    H2 6448   3.693   3.123   1.050 -0.9693  1.4702  0.9173
 2148TIP3   OH2 6449   4.156   2.296   1.065  0.5415 -0.4091  0.1175
 2148TIP3    H1 6450   4.067   2.315   1.092  1.2431  0.5654  1.9447
 2148TIP3    H2 6451   4.203   2.378   1.077  1.5279 -0.6563 -1.6539
 2149TIP3   OH2 6452   0.692   0.821   1.493 -0.4861  0.3914  0.3722
 2149TIP3    H1 6453   0.630   0.884   1.531 -1.2551  0.0492 -0.2906
 2149TIP3    H2 6454   0.637   0.762   1.442  0.2170 -0.8963  1.0693
 2150TIP3   OH2 6455   2.930   3.515   1.916 -0.4813 -0.3394 -0.9137
 2150TIP3    H1 6456   2.903   3.606   1.928 -0.2183 -0.5598  2.1496
 2150TIP3    H2 6457   3.024   3.521   1.898 -0.0312  0.0135  1.2340
 2151TIP3   OH2 6458   2.505   2.123   1.124  0.0452 -0.5698  0.7126
 2151TIP3    H1 6459   2.451   2.130   1.203  0.4008 -0.0866  0.9171
 2151TIP3    H2 6460   2.463   2.183   1.061 -0.1414 -0.8284  0.5906
 2152TIP3   OH2 6461   2.949   3.432   5.070 -0.3012  0.4774  0.1463
 2152TIP3    H1 6462   2.881   3.393   5.126 -1.7065  1.0176 -1.1083
 2152TIP3    H2 6463   2.911   3.430   4.982  2.0765 -0.8843 -0.9403
 2153TIP3   OH2 6464   3.788   2.446   2.891 -0.4453  0.1519  0.0749
 2153TIP3    H1 6465   3.718   2.509   2.907  0.3171  1.4021 -1.2599
 2153TIP3    H2 6466   3.834   2.479   2.813  2.3278  0.0259  1.5076
 2154TIP3   OH2 6467   0.681   1.205   3.564  0.5331 -0.5093 -0.0455
 2154TIP3    H1 6468   0.652   1.287   3.603 -1.3507 -1.7872  1.4544
 2154TIP3    H2 6469   0.776   1.212   3.559  0.4961  1.3025  1.0546
 2155TIP3   OH2 6470   2.875   0.450   1.187  0.3887  0.0139  0.2309
 2155TIP3    H1 6471   2.806   0.513   1.164  0.3455  0.7040  2.0158
 2155TIP3    H2 6472   2.834   0.394   1.253  1.5239  0.4859  1.3806
 2156TIP3   OH2 6473   5.725   4.432   0.181  0.5753  0.0365  0.5172
 2156TIP3    H1 6474   5.733   4.527   0.170 -2.2571  0.6877  2.8302
 2156TIP3    H2 6475   5.711   4.420   0.275  0.8260 -2.6928  0.2745
 2157TIP3   OH2 6476   2.202   2.032   2.352 -0.0894 -0.0583  0.3419
 2157TIP3    H1 6477   2.145   2.106   2.374 -0.7121 -0.1813 -0.7845
 2157TIP3    H2 6478   2.287   2.072   2.333 -1.2649  0.8873 -3.7688
 2158TIP3   OH2 6479   2.108   0.075   0.281  0.0322  1.0527 -0.2758
 2158TIP3    H1 6480   2.118   0.136   0.208 -1.0387  1.5354 -0.0531
 2158TIP3    H2 6481   2.054   0.004   0.246  0.1815  0.8846 -0.1687
 2159TIP3   OH2 6482   2.850   3.302   3.764 -0.1633 -0.5283 -0.0153
 2159TIP3    H1 6483   2.935   3.301   3.719 -0.2739  0.2481 -0.2475
 2159TIP3    H2 6484   2.797   3.239   3.716  0.3817 -1.2868  0.3459
 2160TIP3   OH2 6485  -0.003   1.562   4.190 -0.2759  0.1643  0.1039
 2160TIP3    H1 6486   0.004   1.470   4.165  1.0535  0.4187 -0.5236
 2160TIP3    H2 6487   0.086   1.588   4.214 -0.7689  1.0874  1.0312
 2161TIP3   OH2 6488   3.000   5.984   4.787  0.0363  0.2830 -0.1918
 2161TIP3    H1 6489   2.926   5.929   4.814 -0.0784  0.5539  0.0472
 2161TIP3    H2 6490   3.076   5.942   4.827  0.1240 -0.4707 -1.1181
 2162TIP3   OH2 6491   3.442   0.939   1.466 -0.3459  0.0395 -0.1664
 2162TIP3    H1 6492   3.508   1.008   1.477 -1.0633  0.6994  0.0866
 2162TIP3    H2 6493   3.380   0.954   1.537  0.8309 -2.4548  1.5641
 2163TIP3   OH2 6494   0.492   5.851   2.914  0.4411 -0.1847  0.0983
 2163TIP3    H1 6495   0.471   5.944   2.919  0.7295 -0.1134  0.0008
 2163TIP3    H2 6496   0.489   5.821   3.005  1.1329  0.0972  0.2153
 2164TIP3   OH2 6497   1.734   0.781   0.198  0.3887  0.0292 -0.2702
 2164TIP3    H1 6498   1.810   0.804   0.145  0.7123 -0.1533  0.1061
 2164TIP3    H2 6499   1.688   0.714   0.148 -0.4138  1.2652 -1.2560
 2165TIP3   OH2 6500   1.914   2.736   0.628 -0.3027  0.0706  0.3751
 2165TIP3    H1 6501   1.952   2.808   0.678 -0.4468  0.1220  0.4114
 2165TIP3    H2 6502   1.963   2.659   0.656  1.7303  0.5293 -1.6538
 2166TIP3   OH2 6503   6.021   2.783   1.301  0.0196  0.2313  0.4347
 2166TIP3    H1 6504   5.997   2.820   1.386 -0.3344  0.9970  0.0161
 2166TIP3    H2 6505   6.104   2.825   1.280 -1.0054  1.8480 -0.6348
 2167TIP3   OH2 6506   6.261   0.745   4.793 -0.0918 -0.2898 -0.1576
 2167TIP3    H1 6507   6.247   0.681   4.862 -0.9276 -0.7076 -0.7079
 2167TIP3    H2 6508   6.238   0.829   4.833 -0.4595 -0.5145  0.1018
 2168TIP3   OH2 6509   4.010   4.666   2.495 -0.4111  0.3091  0.1270
 2168TIP3    H1 6510   3.966   4.612   2.429 -1.2336  1.0421  0.0551
 2168TIP3    H2 6511   3.953   4.742   2.506 -0.0210  0.4585  1.2993
 2169TIP3   OH2 6512   3.053   5.202   4.357  0.4073  0.1295 -0.0673
 2169TIP3    H1 6513   2.964   5.236   4.356  0.5278  0.4424 -1.4282
 2169TIP3    H2 6514   3.091   5.229   4.274  2.2062  1.0839  1.0042
 2170TIP3   OH2 6515   0.213   5.572   0.239  0.3378 -0.0671 -0.2950
 2170TIP3    H1 6516   0.160   5.588   0.161  0.6580  1.1747 -0.2716
 2170TIP3    H2 6517   0.218   5.657   0.283  2.2191 -0.1554 -0.2319
 2171TIP3   OH2 6518   3.896   4.802   0.155  0.1830 -0.2180  0.6648
 2171TIP3    H1 6519   3.841   4.736   0.114  2.4525 -1.7249 -0.1134
 2171TIP3    H2 6520   3.956   4.830   0.085  0.9485  0.7582  1.6815
 2172TIP3   OH2 6521   0.383   0.807   5.126  0.1142  0.0901  0.1171
 2172TIP3    H1 6522   0.299   0.803   5.082 -0.5134  0.5805  1.2346
 2172TIP3    H2 6523   0.400   0.718   5.155 -0.8754  0.2954  1.4097
 2173TIP3   OH2 6524   4.572   2.638   2.471  0.1954 -0.2479  0.0924
 2173TIP3    H1 6525   4.604   2.623   2.382 -0.9057 -2.5269 -0.0160
 2173TIP3    H2 6526   4.645   2.677   2.517  1.3006 -0.4027 -1.4490
 2174TIP3   OH2 6527   1.307   3.014   3.733  0.1978 -0.2622 -0.5540
 2174TIP3    H1 6528   1.232   3.073   3.728 -0.6238 -1.1099  1.0957
 2174TIP3    H2 6529   1.383   3.072   3.726 -0.5702  1.0879  1.3122
 2175TIP3   OH2 6530   0.954   0.030   3.640 -0.4037 -0.7045 -0.4273
 2175TIP3    H1 6531   0.907   0.100   3.594  2.1190  1.3260 -0.1824
 2175TIP3    H2 6532   0.966  -0.038   3.574 -1.1558 -0.0051 -1.3207
 2176TIP3   OH2 6533   0.616   5.603   1.937 -0.4116 -0.1703  0.3321
 2176TIP3    H1 6534   0.616   5.681   1.882 -0.8685  0.3608  1.0542
 2176TIP3    H2 6535   0.702   5.604   1.980 -0.2646 -0.2848  0.0415
 2177TIP3   OH2 6536   1.585   0.117   2.944 -0.6153  0.1701  0.3013
 2177TIP3    H1 6537   1.605   0.072   3.026  1.1775 -0.0716 -0.2426
 2177TIP3    H2 6538   1.536   0.052   2.893  1.9981 -1.3137 -0.5013
 2178TIP3   OH2 6539   1.822   2.606   1.788  0.3776 -0.0974 -0.0765
 2178TIP3    H1 6540   1.816   2.702   1.784 -0.6638 -0.0971  1.0523
 2178TIP3    H2 6541   1.733   2.576   1.770  0.3566 -0.7932  1.1345
 2179TIP3   OH2 6542   1.522   1.564   3.648 -0.2334 -0.0531 -0.2250
 2179TIP3    H1 6543   1.594   1.620   3.618  0.1695  1.3669  2.9868
 2179TIP3    H2 6544   1.446   1.622   3.647 -0.5571 -0.4756 -0.1336
 2180TIP3   OH2 6545   4.882   5.895   2.191 -0.2229 -0.2008 -0.0029
 2180TIP3    H1 6546   4.845   5.983   2.196  1.9147  0.6924  1.3901
 2180TIP3    H2 6547   4.827   5.843   2.249 -1.0402  0.3941 -0.2275
 2181TIP3   OH2 6548   5.212   5.344   3.819  0.3838 -0.0910  0.7042
 2181TIP3    H1 6549   5.137   5.315   3.871  1.2243 -3.1379  0.4410
 2181TIP3    H2 6550   5.254   5.413   3.871 -1.5926  0.4648  1.6371
 2182TIP3   OH2 6551   3.459   3.233   5.127  0.3088 -0.3246  0.3825
 2182TIP3    H1 6552   3.431   3.146   5.097 -0.5580 -0.2183  0.8391
 2182TIP3    H2 6553   3.390   3.292   5.096  1.3173  0.3441 -0.6661
 2183TIP3   OH2 6554   1.588   2.572   4.777  0.2720  0.1379  0.3817
 2183TIP3    H1 6555   1.605   2.532   4.692  2.1555 -0.0200  0.8016
 2183TIP3    H2 6556   1.557   2.499   4.832 -0.1602  0.0828  0.0743
 2184TIP3   OH2 6557   4.485   4.001   1.658 -0.1014  0.0726 -0.0863
 2184TIP3    H1 6558   4.449   3.976   1.743 -0.5553 -0.3585 -0.4035
 2184TIP3    H2 6559   4.409   4.021   1.604  0.2041  0.8288 -0.2454
 2185TIP3   OH2 6560   3.124   3.358   3.007  0.2480  0.0182  0.8182
 2185TIP3    H1 6561   3.110   3.263   3.004 -0.4282  0.1337 -1.1592
 2185TIP3    H2 6562   3.041   3.393   3.038  0.5130 -0.0301  1.5927
 2186TIP3   OH2 6563   2.977   4.477   0.536 -0.0873 -0.2477 -0.0554
 2186TIP3    H1 6564   3.012   4.391   0.514 -0.5647 -0.2483 -0.8512
 2186TIP3    H2 6565   2.915   4.461   0.607 -2.5229 -1.0475 -2.2327
 2187TIP3   OH2 6566   2.147   5.359   4.327  0.1939  0.4128  0.5780
 2187TIP3    H1 6567   2.190   5.294   4.383 -0.5281  0.4373  1.1659
 2187TIP3    H2 6568   2.170   5.332   4.238  2.3275  1.0563  0.8784
 2188TIP3   OH2 6569   6.085   0.991   1.826  0.0980 -0.0722  0.1495
 2188TIP3    H1 6570   5.998   0.951   1.823  0.2272 -0.3210 -0.6825
 2188TIP3    H2 6571   6.146   0.917   1.820  0.3775  0.0725  1.1098
 2189TIP3   OH2 6572   1.147   5.329   2.532  0.3735  0.3217  0.0354
 2189TIP3    H1 6573   1.222   5.297   2.582 -1.0367 -4.0093 -0.2670
 2189TIP3    H2 6574   1.071   5.306   2.586 -0.9198  1.0808 -1.3946
 2190TIP3   OH2 6575   6.323   5.749   4.449  0.1655 -0.5243  0.1053
 2190TIP3    H1 6576   6.232   5.745   4.480  0.0196 -0.7207 -0.3457
 2190TIP3    H2 6577   6.316   5.740   4.354  0.6451 -0.3489  0.0532
 2191TIP3   OH2 6578   5.714   5.555   3.088 -0.1775  0.1117 -0.2120
 2191TIP3    H1 6579   5.800   5.588   3.115  0.5866 -1.2216 -0.8995
 2191TIP3    H2 6580   5.719   5.550   2.993 -1.7025  1.7415 -0.4312
 2192TIP3   OH2 6581   3.725   3.585   1.614  0.2370 -0.6208 -0.7253
 2192TIP3    H1 6582   3.652   3.616   1.669  0.9432 -0.9728  0.4529
 2192TIP3    H2 6583   3.796   3.647   1.632  0.4855 -0.7575 -1.2304
 2193TIP3   OH2 6584   1.036   4.367   0.160 -0.9169  0.2156 -0.2185
 2193TIP3    H1 6585   0.941   4.368   0.159 -0.9835 -1.6480 -1.8723
 2193TIP3    H2 6586   1.060   4.275   0.157  1.0145  0.5020  2.6428
 2194TIP3   OH2 6587   1.600   4.481   0.798  0.5630  0.6018 -0.0807
 2194TIP3    H1 6588   1.566   4.393   0.813  0.1542  0.8491  0.4724
 2194TIP3    H2 6589   1.694   4.474   0.813  0.4668  0.3622  0.4063
 2195TIP3   OH2 6590   1.309   0.616   4.289 -0.3397 -0.2194  0.0550
 2195TIP3    H1 6591   1.317   0.711   4.282  1.2088 -0.4594 -2.5122
 2195TIP3    H2 6592   1.303   0.600   4.383  0.2177  2.3391  0.6112
 2196TIP3   OH2 6593   6.177   0.313   3.085 -0.3753 -0.4894  0.1191
 2196TIP3    H1 6594   6.090   0.335   3.053 -0.0205 -0.2321 -0.7178
 2196TIP3    H2 6595   6.182   0.352   3.172 -0.0733  2.1283 -0.9713
 2197TIP3   OH2 6596   0.423   0.874   4.266  0.5644 -0.0551 -0.2049
 2197TIP3    H1 6597   0.503   0.926   4.261  0.7601 -0.1055  1.6649
 2197TIP3    H2 6598   0.357   0.934   4.301  0.3529 -0.5819  0.3293
 2198TIP3   OH2 6599   3.597   4.395   4.783 -0.2241 -0.3809  0.4029
 2198TIP3    H1 6600   3.555   4.471   4.821  2.2370  1.4750 -0.3546
 2198TIP3    H2 6601   3.645   4.354   4.855 -1.0981 -0.9207  0.6902
 2199TIP3   OH2 6602   3.827   0.154   5.076  0.0638  0.2460 -0.1971
 2199TIP3    H1 6603   3.879   0.147   4.995 -1.8895 -0.6040 -1.4635
 2199TIP3    H2 6604   3.745   0.108   5.055 -0.9294  0.9445  1.9353
 2200TIP3   OH2 6605   0.294   3.099   2.657 -0.1473  0.2736  0.1043
 2200TIP3    H1 6606   0.284   3.019   2.709  0.4728  0.5545  0.6628
 2200TIP3    H2 6607   0.219   3.097   2.597 -1.0670  0.0954  1.2056
 2201TIP3   OH2 6608   0.335   5.184   3.811 -0.1329  0.2254  0.3377
 2201TIP3    H1 6609   0.421   5.221   3.788  0.6079 -1.9663 -0.7110
 2201TIP3    H2 6610   0.311   5.132   3.735 -1.3663 -0.9655  1.5049
 2202TIP3   OH2 6611   5.488   0.527   2.169 -0.1427 -0.6244  0.2732
 2202TIP3    H1 6612   5.398   0.541   2.138 -0.2156 -1.1254  0.2517
 2202TIP3    H2 6613   5.543   0.553   2.095 -0.1859  1.5524  0.9370
 2203TIP3   OH2 6614   1.815   3.942   4.033 -0.1227 -0.0126  0.2885
 2203TIP3    H1 6615   1.727   3.958   4.067 -0.5216 -0.3881 -0.5461
 2203TIP3    H2 6616   1.838   3.856   4.067  1.0252  1.1436  2.7127
 2204TIP3   OH2 6617   0.375   0.016   2.311  0.4012  0.2047 -0.2113
 2204TIP3    H1 6618   0.318   0.058   2.375  0.5549  0.8590 -0.5039
 2204TIP3    H2 6619   0.415  -0.057   2.359 -2.4796 -1.8331 -0.6192
 2205TIP3   OH2 6620   1.361   5.442   0.047 -0.0946 -0.1356  0.7438
 2205TIP3    H1 6621   1.375   5.376  -0.021  3.0661  2.9729 -2.0234
 2205TIP3    H2 6622   1.304   5.507   0.006  0.1847  0.8272  1.8288
 2206TIP3   OH2 6623   3.080   5.414   4.579 -0.7160 -0.1302 -0.5279
 2206TIP3    H1 6624   3.062   5.494   4.531  0.9746  0.3140 -0.4577
 2206TIP3    H2 6625   3.038   5.345   4.528  1.2622  0.2765 -2.8523
 2207TIP3   OH2 6626   2.324   2.844   5.148 -0.0023 -0.1752  0.3931
 2207TIP3    H1 6627   2.389   2.856   5.080  0.9706 -0.0738  1.3127
 2207TIP3    H2 6628   2.260   2.783   5.110  0.4879 -0.0800 -0.6111
 2208TIP3   OH2 6629   2.924   0.066   3.858  0.1666  0.0585 -0.1486
 2208TIP3    H1 6630   2.832   0.073   3.885  0.3122  0.6358  0.1992
 2208TIP3    H2 6631   2.921   0.066   3.762 -0.0242  2.7082 -0.2094
 2209TIP3   OH2 6632   3.932   2.108   1.811 -0.1712  0.6536  0.1730
 2209TIP3    H1 6633   4.021   2.074   1.821 -0.4491 -0.1361  0.0787
 2209TIP3    H2 6634   3.894   2.054   1.741 -1.2552 -0.1497  1.3437
 2210TIP3   OH2 6635   2.885   5.858   0.749 -0.1697  0.1322 -0.3387
 2210TIP3    H1 6636   2.888   5.941   0.798  0.4157  0.6243 -1.1788
 2210TIP3    H2 6637   2.944   5.872   0.675  0.9255 -1.4929  0.1771
 2211TIP3   OH2 6638   4.935   1.494   4.913 -0.3127  0.2501 -0.2482
 2211TIP3    H1 6639   4.965   1.435   4.845 -0.6419  0.4055 -0.5290
 2211TIP3    H2 6640   5.015   1.532   4.949 -0.0965 -0.4321 -0.0043
 2212TIP3   OH2 6641   4.280   2.897   3.945 -0.3531 -0.5991  0.5114
 2212TIP3    H1 6642   4.355   2.863   3.896  0.5295 -1.5862  2.4287
 2212TIP3    H2 6643   4.279   2.845   4.026 -1.3595  1.3509  1.8161
 2213TIP3   OH2 6644   0.706   4.483   2.673  0.0036 -0.7508  0.7157
 2213TIP3    H1 6645   0.759   4.560   2.650 -4.2056  2.3959  0.2557
 2213TIP3    H2 6646   0.728   4.466   2.764  0.8222  1.3080  0.9676
 2214TIP3   OH2 6647   4.987   1.792   4.028 -0.5835  0.4619  0.1877
 2214TIP3    H1 6648   4.975   1.697   4.035  0.5504  0.3507  0.9379
 2214TIP3    H2 6649   4.914   1.829   4.077 -1.2357 -0.0137 -0.4084
 2215TIP3   OH2 6650   2.889   0.728   1.393  0.3727 -0.1849 -0.4534
 2215TIP3    H1 6651   2.925   0.808   1.431  0.0309 -0.4363  0.4248
 2215TIP3    H2 6652   2.906   0.736   1.299 -0.2203  1.2197 -0.4669
 2216TIP3   OH2 6653   5.099   2.029   3.799 -0.1430 -0.0394  0.3683
 2216TIP3    H1 6654   5.090   2.050   3.706 -0.1941  0.4467  0.4833
 2216TIP3    H2 6655   5.009   2.030   3.833  0.0722  2.9988  1.1178
 2217TIP3   OH2 6656   3.946   5.928   0.523  0.0173 -0.4460  0.0659
 2217TIP3    H1 6657   4.037   5.903   0.538  0.3115  0.6361  0.1676
 2217TIP3    H2 6658   3.895   5.854   0.557  0.8483 -1.0176  0.0997
 2218TIP3   OH2 6659   2.035   3.997   1.986  0.0356 -0.5977 -0.0164
 2218TIP3    H1 6660   1.948   4.001   2.025  0.4093 -0.6286  0.8364
 2218TIP3    H2 6661   2.093   3.975   2.058  0.8523  0.1054 -0.4352
 2219TIP3   OH2 6662   5.853   0.875   1.519 -0.8514 -0.3761 -0.0907
 2219TIP3    H1 6663   5.901   0.957   1.521 -0.2777 -0.7069 -0.0588
 2219TIP3    H2 6664   5.763   0.900   1.500 -0.3239  0.1018 -2.1737
 2220TIP3   OH2 6665   2.747   5.779   3.528  0.3618  0.5659  0.3044
 2220TIP3    H1 6666   2.753   5.688   3.556 -1.6530  0.7712  1.6106
 2220TIP3    H2 6667   2.812   5.825   3.582 -0.3538  0.2507  1.4781
 2221TIP3   OH2 6668   1.469   3.263   4.385 -1.0488  0.6071  0.1201
 2221TIP3    H1 6669   1.531   3.302   4.447 -0.2259 -0.1848 -0.1734
 2221TIP3    H2 6670   1.461   3.172   4.415  0.4684 -0.1921 -1.7370
 2222TIP3   OH2 6671   6.277   3.250   4.278  0.1812 -0.0348  0.6277
 2222TIP3    H1 6672   6.340   3.292   4.337  0.4785 -1.9043  1.7641
 2222TIP3    H2 6673   6.192   3.263   4.321 -0.0231  1.1391 -0.0963
 2223TIP3   OH2 6674   3.873   1.853   3.825  0.2011 -0.1435 -0.2261
 2223TIP3    H1 6675   3.794   1.866   3.879  0.7912 -0.9939  0.8807
 2223TIP3    H2 6676   3.840   1.845   3.736 -0.7751  1.8057 -0.1113
 2224TIP3   OH2 6677   2.986   2.063   2.757  0.1768 -0.6698  0.3381
 2224TIP3    H1 6678   3.047   2.110   2.814  1.2779  0.1528 -1.4384
 2224TIP3    H2 6679   3.027   2.066   2.671 -1.9899 -0.8392 -0.7591
 2225TIP3   OH2 6680   0.946   1.455   1.603  0.1864 -0.5827 -0.1159
 2225TIP3    H1 6681   0.966   1.464   1.696  1.4450 -1.2931 -0.3005
 2225TIP3    H2 6682   0.996   1.378   1.574 -1.1863 -1.1436 -1.1027
 2226TIP3   OH2 6683   5.515   3.723   3.322 -0.5463  0.1772 -0.2260
 2226TIP3    H1 6684   5.604   3.757   3.310  0.3564 -1.4872  1.2417
 2226TIP3    H2 6685   5.519   3.633   3.290 -1.3512 -0.2945  0.9247
 2227TIP3   OH2 6686   4.978   2.803   3.887  0.3803 -0.0214 -0.1219
 2227TIP3    H1 6687   5.021   2.868   3.944  0.8040 -0.0442 -0.4091
 2227TIP3    H2 6688   5.027   2.807   3.805 -0.0887 -0.1492 -0.4109
 2228TIP3   OH2 6689   4.479   3.231   4.949  0.2115 -0.4414  0.3597
 2228TIP3    H1 6690   4.446   3.241   4.860  2.3699  2.1101 -0.2419
 2228TIP3    H2 6691   4.505   3.139   4.954  0.3534 -0.5618 -1.7547
 2229TIP3   OH2 6692   6.185   5.677   0.209 -0.8415  0.2712 -0.3605
 2229TIP3    H1 6693   6.128   5.729   0.152  0.3665 -0.0619 -1.9549
 2229TIP3    H2 6694   6.260   5.655   0.154 -0.8419 -2.3230  0.5523
 2230TIP3   OH2 6695   4.301   3.584   1.321  0.6008  1.0265 -0.4370
 2230TIP3    H1 6696   4.364   3.526   1.278  1.1782  0.8034  0.6822
 2230TIP3    H2 6697   4.329   3.587   1.412  0.5859  3.1039 -0.4680
 2231TIP3   OH2 6698   1.377   2.319   0.830  0.5274 -0.5403 -0.8050
 2231TIP3    H1 6699   1.406   2.327   0.739 -0.1174 -0.4634 -1.0077
 2231TIP3    H2 6700   1.422   2.391   0.876  0.9699 -0.6699 -1.0247
 2232TIP3   OH2 6701   4.948   1.316   4.679  0.3332 -0.1691 -0.2583
 2232TIP3    H1 6702   4.898   1.344   4.603 -1.1670  0.3246  0.8699
 2232TIP3    H2 6703   5.037   1.303   4.645 -0.4545 -0.7393 -2.2386
 2233TIP3   OH2 6704   5.184   5.630   2.849  0.1270 -0.6609 -0.4239
 2233TIP3    H1 6705   5.244   5.594   2.783  1.2683  0.3748  0.0104
 2233TIP3    H2 6706   5.175   5.722   2.825 -1.9449 -0.9550 -0.9327
 2234TIP3   OH2 6707   4.443   2.488   2.977 -0.3608  0.0997  0.4025
 2234TIP3    H1 6708   4.434   2.551   2.905  0.4479  0.0871  0.2811
 2234TIP3    H2 6709   4.457   2.404   2.934 -0.1502  0.0461  0.5778
 2235TIP3   OH2 6710   3.946   1.378   0.878 -0.0152  0.9532  0.3570
 2235TIP3    H1 6711   3.869   1.382   0.821  0.1847  1.0818  0.0951
 2235TIP3    H2 6712   3.920   1.426   0.957  0.2044  2.0549 -0.2189
 2236TIP3   OH2 6713   0.436   3.159   0.313  0.4855  0.6283  0.5188
 2236TIP3    H1 6714   0.528   3.182   0.308  0.3341  0.9793 -1.0495
 2236TIP3    H2 6715   0.435   3.064   0.329  1.1475  0.2189 -1.6554
 2237TIP3   OH2 6716   0.025   5.632   2.684 -0.0738 -0.5908  0.3398
 2237TIP3    H1 6717  -0.040   5.646   2.614 -0.4590 -0.0076  0.8030
 2237TIP3    H2 6718   0.101   5.595   2.639 -0.3513 -0.3061 -0.3820
 2238TIP3   OH2 6719   4.586   4.061   3.280 -0.7234  0.5924 -0.1111
 2238TIP3    H1 6720   4.558   4.102   3.361  0.5071  1.2624  0.0053
 2238TIP3    H2 6721   4.505   4.042   3.232 -1.4861 -0.2370  1.4496
 2239TIP3   OH2 6722   5.790   0.151   3.910  0.3693 -0.4195 -0.7606
 2239TIP3    H1 6723   5.741   0.104   3.977 -0.1392 -2.2460 -2.3357
 2239TIP3    H2 6724   5.882   0.133   3.929  0.2492 -0.5487 -0.3071
 2240TIP3   OH2 6725   5.249   5.246   4.484  0.4753  0.8449  0.1397
 2240TIP3    H1 6726   5.282   5.254   4.574  2.2838  1.4083 -0.5490
 2240TIP3    H2 6727   5.178   5.181   4.491  1.3477  0.0054  1.7832
 2241TIP3   OH2 6728   2.824   0.646   1.919  0.0250  0.2975  0.3981
 2241TIP3    H1 6729   2.886   0.691   1.976 -0.5716  2.3941 -0.5311
 2241TIP3    H2 6730   2.805   0.708   1.849 -2.1066 -0.7836 -0.0670
 2242TIP3   OH2 6731   4.923   4.847   4.032  0.4447  0.1324  0.7495
 2242TIP3    H1 6732   4.869   4.769   4.022  0.9396 -0.0158 -1.3502
 2242TIP3    H2 6733   4.861   4.919   4.043 -0.2751 -0.0416 -1.5446
 2243TIP3   OH2 6734   3.194   5.291   4.145 -0.2354 -0.6392  0.3757
 2243TIP3    H1 6735   3.219   5.383   4.137 -0.9549 -0.5311 -0.8951
 2243TIP3    H2 6736   3.257   5.244   4.091 -1.9252 -0.4836 -1.8927
 2244TIP3   OH2 6737   0.488   4.777   3.478  0.2274  0.2668 -0.4162
 2244TIP3    H1 6738   0.466   4.703   3.534  0.3756 -0.3376 -1.1281
 2244TIP3    H2 6739   0.560   4.822   3.523 -0.9297  0.9368  0.8126
 2245TIP3   OH2 6740   1.689   3.202   2.427 -0.1294 -0.0048 -0.2204
 2245TIP3    H1 6741   1.646   3.124   2.462  0.3201 -0.7039 -1.1883
 2245TIP3    H2 6742   1.746   3.170   2.358  2.1964  0.8470  1.1792
 2246TIP3   OH2 6743   1.198   1.105   0.206  0.3094 -0.3064  0.1678
 2246TIP3    H1 6744   1.230   1.174   0.148 -0.1573 -0.0156  0.2538
 2246TIP3    H2 6745   1.174   1.033   0.148 -2.5476  0.8857 -0.2718
 2247TIP3   OH2 6746   3.025   5.248   3.809 -0.3738  0.0403 -0.4988
 2247TIP3    H1 6747   3.116   5.263   3.836 -0.4577 -1.1486  0.5063
 2247TIP3    H2 6748   2.975   5.317   3.851 -0.1215 -0.1525  0.1165
 2248TIP3   OH2 6749   4.641   2.781   3.120 -0.0170  0.5023  0.0522
 2248TIP3    H1 6750   4.658   2.866   3.160 -0.1178  1.3726 -1.6526
 2248TIP3    H2 6751   4.550   2.787   3.090  0.0944 -0.0522 -0.4156
 2249TIP3   OH2 6752   1.655   2.331   4.878  0.6804  0.3285  0.0266
 2249TIP3    H1 6753   1.586   2.300   4.819  0.6276 -0.9685  0.7229
 2249TIP3    H2 6754   1.658   2.264   4.947  1.8478  0.9722  0.6162
 2250TIP3   OH2 6755   0.366   2.749   2.616  0.0368 -0.2406  0.0370
 2250TIP3    H1 6756   0.376   2.833   2.571  0.6485  0.4729  1.4234
 2250TIP3    H2 6757   0.334   2.689   2.549  2.0288  0.4597 -1.6627
 2251TIP3   OH2 6758   3.778   3.913   3.510 -0.1487  0.3370  0.1077
 2251TIP3    H1 6759   3.821   3.901   3.426 -4.4824 -0.3417 -2.2836
 2251TIP3    H2 6760   3.760   4.007   3.515 -0.1659  0.3316  0.1569
 2252TIP3   OH2 6761   5.939   1.664   2.783 -0.2472 -0.1131 -0.1632
 2252TIP3    H1 6762   5.945   1.605   2.858 -0.1676  0.6236  0.4140
 2252TIP3    H2 6763   5.930   1.751   2.821  1.0366  0.4103 -0.9973
 2253TIP3   OH2 6764   5.054   2.591   2.164  0.2331  0.4527  0.0669
 2253TIP3    H1 6765   5.097   2.602   2.079 -0.3651  0.1786 -0.2749
 2253TIP3    H2 6766   5.116   2.540   2.216  1.3164  2.0071  0.3525
 2254TIP3   OH2 6767   4.690   3.125   0.269  0.3254 -0.1214  0.3121
 2254TIP3    H1 6768   4.735   3.163   0.344  1.8564 -0.2301 -0.5096
 2254TIP3    H2 6769   4.710   3.185   0.197 -1.4724  0.2145  0.0533
 2255TIP3   OH2 6770   1.739   1.236   0.119 -0.3015  0.6226  0.4611
 2255TIP3    H1 6771   1.834   1.243   0.129  0.0273 -2.0166  0.0124
 2255TIP3    H2 6772   1.711   1.179   0.191 -1.4081  0.6408  0.0731
 2256TIP3   OH2 6773   1.997   3.094   1.385 -0.1132 -0.2518  0.2332
 2256TIP3    H1 6774   1.946   3.165   1.346 -0.9684 -1.4355 -0.8837
 2256TIP3    H2 6775   2.072   3.138   1.425  1.9367  1.0489 -4.3006
 2257TIP3   OH2 6776   0.292   5.779   1.983 -0.4277 -0.2323 -0.3599
 2257TIP3    H1 6777   0.334   5.712   2.037 -0.0538  1.2741  1.3185
 2257TIP3    H2 6778   0.361   5.843   1.966 -1.1611  0.5595 -0.4773
 2258TIP3   OH2 6779   0.104   3.798   5.069  0.0406 -0.2885 -0.3411
 2258TIP3    H1 6780   0.013   3.772   5.085  0.4155 -0.4713  1.7148
 2258TIP3    H2 6781   0.153   3.759   5.141  2.0585 -1.6509 -2.3065
 2259TIP3   OH2 6782   2.876   2.696   4.149  0.2513 -0.3753  0.7370
 2259TIP3    H1 6783   2.871   2.605   4.121  1.1574 -0.6548  1.4504
 2259TIP3    H2 6784   2.970   2.715   4.153  0.0967  1.3964 -1.9239
 2260TIP3   OH2 6785   3.509   3.886   3.521  0.8741  0.1331 -0.1179
 2260TIP3    H1 6786   3.489   3.870   3.429  1.5259  1.3140 -0.4843
 2260TIP3    H2 6787   3.605   3.883   3.526  0.8078 -0.9931  0.7364
 2261TIP3   OH2 6788   1.818   3.591   2.535 -0.3024 -0.0171  0.8564
 2261TIP3    H1 6789   1.836   3.498   2.547 -0.6246 -0.2690 -0.4431
 2261TIP3    H2 6790   1.889   3.623   2.480 -0.0750  0.5594  1.4792
 2262TIP3   OH2 6791   2.404   0.533   3.513 -0.8545  1.0510  0.1157
 2262TIP3    H1 6792   2.456   0.605   3.548 -1.0100  0.8828  0.6971
 2262TIP3    H2 6793   2.352   0.502   3.587  0.4763 -0.7902  0.3368
 2263TIP3   OH2 6794   5.782   2.522   4.280 -0.6157 -0.0865  0.3195
 2263TIP3    H1 6795   5.853   2.495   4.222  0.2291  0.6356  0.9771
 2263TIP3    H2 6796   5.790   2.618   4.284 -1.5315 -0.0101  0.5341
 2264TIP3   OH2 6797   2.342   2.644   1.347 -0.6759 -0.5961  0.6985
 2264TIP3    H1 6798   2.295   2.612   1.270 -1.6630  0.1317  0.9825
 2264TIP3    H2 6799   2.283   2.707   1.387  1.0495  1.3820  0.3208
 2265TIP3   OH2 6800   5.229   3.289   0.550 -0.1517  0.0768  0.0124
 2265TIP3    H1 6801   5.303   3.237   0.520 -0.6061  0.0741 -1.1739
 2265TIP3    H2 6802   5.193   3.327   0.470 -2.8190 -1.7651  0.1866
 2266TIP3   OH2 6803   1.136   0.839   2.223  0.1195  0.6007  0.1013
 2266TIP3    H1 6804   1.138   0.803   2.311 -0.9827 -0.8491 -0.4266
 2266TIP3    H2 6805   1.183   0.922   2.230  0.8479  0.0902  1.8424
 2267TIP3   OH2 6806   5.958   2.949   2.218  0.9629  0.1993  0.3920
 2267TIP3    H1 6807   5.910   2.999   2.284  2.9954 -1.2260  3.1865
 2267TIP3    H2 6808   5.895   2.884   2.187  0.3089 -0.0870  2.1638
 2268TIP3   OH2 6809   5.090   4.761   0.961 -0.1438  0.3122 -0.2263
 2268TIP3    H1 6810   5.040   4.788   1.038 -1.0443 -0.7132 -0.4350
 2268TIP3    H2 6811   5.135   4.841   0.933 -2.1045  1.4368 -0.3630
 2269TIP3   OH2 6812   6.101   5.228   0.652  0.0543 -0.1342  0.7369
 2269TIP3    H1 6813   6.140   5.313   0.671 -0.7680  0.2492  0.7338
 2269TIP3    H2 6814   6.013   5.248   0.620  0.5735 -0.8679 -1.3044
 2270TIP3   OH2 6815   2.607   5.172   4.071 -0.4019 -0.1622  0.4114
 2270TIP3    H1 6816   2.610   5.267   4.065 -1.0172 -0.1346  0.4535
 2270TIP3    H2 6817   2.661   5.142   3.998  0.3572  0.2145  0.8080
 2271TIP3   OH2 6818   4.555   2.224   3.090 -0.0283 -0.2827  0.0276
 2271TIP3    H1 6819   4.608   2.231   3.170 -0.3014 -0.5780  0.2372
 2271TIP3    H2 6820   4.545   2.129   3.076  0.4685 -0.2430 -0.6570
 2272TIP3   OH2 6821   3.956   0.195   3.777  0.3221 -0.7859  0.1368
 2272TIP3    H1 6822   3.892   0.266   3.777 -2.9662 -3.4885 -0.6096
 2272TIP3    H2 6823   3.969   0.175   3.870 -0.4534 -0.6228  0.2906
 2273TIP3   OH2 6824   1.382   5.142   3.067  1.1183 -0.0434  0.0939
 2273TIP3    H1 6825   1.426   5.077   3.122  0.8119 -0.6996 -0.4138
 2273TIP3    H2 6826   1.289   5.122   3.077  1.0559 -0.1477 -0.6191
 2274TIP3   OH2 6827   0.258   5.872   0.544  0.1252 -0.0088  0.1854
 2274TIP3    H1 6828   0.218   5.842   0.625 -0.5084  0.2218 -0.0316
 2274TIP3    H2 6829   0.276   5.965   0.559 -0.3543  0.1290 -0.0722
 2275TIP3   OH2 6830   0.167   2.321   2.493 -0.7924 -0.2663 -0.2202
 2275TIP3    H1 6831   0.260   2.312   2.475 -0.9918  0.2638 -1.7240
 2275TIP3    H2 6832   0.155   2.286   2.581  0.4840 -2.2453 -0.7848
 2276TIP3   OH2 6833   0.254   0.565   4.607 -0.3629  0.7574  0.2105
 2276TIP3    H1 6834   0.263   0.592   4.515 -2.5626  0.4865 -0.1432
 2276TIP3    H2 6835   0.332   0.601   4.650  0.4771  1.3160 -1.6565
 2277TIP3   OH2 6836   4.496   4.822   1.495  0.0954 -0.2762 -0.0537
 2277TIP3    H1 6837   4.515   4.907   1.532  1.9784  0.0851 -1.6832
 2277TIP3    H2 6838   4.554   4.761   1.540  0.8984 -0.1726 -0.9132
 2278TIP3   OH2 6839   0.157   4.697   1.457  0.7351  0.4652 -0.3596
 2278TIP3    H1 6840   0.195   4.688   1.545  0.5012 -0.3100 -0.3295
 2278TIP3    H2 6841   0.229   4.727   1.403  1.0877  0.1938 -0.0503
 2279TIP3   OH2 6842   5.822   1.443   4.702 -0.1338 -0.3038 -0.5260
 2279TIP3    H1 6843   5.814   1.449   4.797  1.8776 -1.4266 -0.2350
 2279TIP3    H2 6844   5.815   1.533   4.672 -0.2178  0.1315  0.7449
 2280TIP3   OH2 6845   2.785   0.883   4.277  0.1841 -0.1701 -0.1368
 2280TIP3    H1 6846   2.794   0.974   4.303 -0.8638  0.2328 -1.1024
 2280TIP3    H2 6847   2.766   0.836   4.358  0.1481  0.5636  0.2837
 2281TIP3   OH2 6848   4.155   5.370   2.349 -0.0262  0.5303  0.1131
 2281TIP3    H1 6849   4.186   5.416   2.427 -0.7151 -0.2442  0.8688
 2281TIP3    H2 6850   4.066   5.344   2.370 -0.0546 -0.1290 -0.7495
 2282TIP3   OH2 6851   0.209   3.289   2.846 -0.5382  0.1177  0.2973
 2282TIP3    H1 6852   0.122   3.303   2.809 -0.2625  0.1920 -0.3410
 2282TIP3    H2 6853   0.258   3.244   2.776  0.3490  1.3196  0.1028
 2283TIP3   OH2 6854   3.870   2.913   4.076  0.2392  0.3261 -0.8108
 2283TIP3    H1 6855   3.886   2.906   4.170 -0.1872  1.1898 -0.6644
 2283TIP3    H2 6856   3.823   2.833   4.054 -1.9309  1.2351  0.2211
 2284TIP3   OH2 6857   3.511   4.796   2.386 -0.1545 -0.2282 -0.1881
 2284TIP3    H1 6858   3.500   4.736   2.459 -1.7170  1.3673  0.9819
 2284TIP3    H2 6859   3.485   4.882   2.421 -0.3435  0.7115 -2.4269
 2285TIP3   OH2 6860   4.428   3.967   4.381 -0.0061  0.2968  0.5136
 2285TIP3    H1 6861   4.416   4.059   4.354  0.4802  0.1213 -0.3612
 2285TIP3    H2 6862   4.403   3.966   4.473  0.8121  1.4903  0.7737
 2286TIP3   OH2 6863   0.255   4.677   1.710 -0.6371 -0.0497  0.5664
 2286TIP3    H1 6864   0.295   4.764   1.719  1.6939 -1.1724  2.4226
 2286TIP3    H2 6865   0.329   4.619   1.689 -1.9586 -1.7274  0.3454
 2287TIP3   OH2 6866   4.747   2.156   4.154 -0.3285 -1.0838  0.2576
 2287TIP3    H1 6867   4.693   2.220   4.201  1.3579  0.4189  0.2293
 2287TIP3    H2 6868   4.684   2.088   4.127 -1.7120 -0.9177  2.7272
 2288TIP3   OH2 6869   0.911   5.892   1.207  0.2652 -0.3301 -0.1180
 2288TIP3    H1 6870   0.819   5.873   1.224  0.1948 -0.7920 -0.9550
 2288TIP3    H2 6871   0.959   5.840   1.271 -0.0225 -0.9559 -0.4063
 2289TIP3   OH2 6872   2.267   1.624   4.646 -0.5063 -0.2020  0.0527
 2289TIP3    H1 6873   2.317   1.695   4.606  0.7812 -1.5143 -0.7474
 2289TIP3    H2 6874   2.197   1.606   4.583  0.4682 -1.0733 -0.8213
 2290TIP3   OH2 6875   6.142   0.311   0.429  0.0853 -0.2488  0.3102
 2290TIP3    H1 6876   6.202   0.384   0.412  0.5190 -0.0481  2.4671
 2290TIP3    H2 6877   6.196   0.232   0.420 -0.0212 -0.2369 -0.5096
 2291TIP3   OH2 6878   1.249   3.966   1.058  0.3337 -0.2443 -0.0411
 2291TIP3    H1 6879   1.340   3.947   1.034  0.1093 -0.0471 -1.1318
 2291TIP3    H2 6880   1.255   4.031   1.127  1.0358 -1.0964  0.7256
 2292TIP3   OH2 6881   2.053   1.118   4.789  0.0595  0.3448  0.0275
 2292TIP3    H1 6882   2.107   1.189   4.754  2.3890 -1.2813  0.1147
 2292TIP3    H2 6883   2.111   1.069   4.846 -1.0464 -2.3877 -1.0112
 2293TIP3   OH2 6884   4.999   0.233   4.819  0.3700  0.0309 -0.1439
 2293TIP3    H1 6885   4.920   0.185   4.841 -0.3873  1.2145 -0.2098
 2293TIP3    H2 6886   5.064   0.164   4.802 -0.3450 -0.9461  0.8937
 2294TIP3   OH2 6887   1.065   2.981   4.916  0.1847  0.0246  0.3751
 2294TIP3    H1 6888   1.014   2.900   4.910  1.5518 -0.8412 -0.2717
 2294TIP3    H2 6889   1.151   2.952   4.948  1.6639  0.7148 -2.5810
 2295TIP3   OH2 6890   2.300   3.421   0.597  0.0399  0.0567 -0.2330
 2295TIP3    H1 6891   2.251   3.369   0.661  1.0514  1.5238  1.8525
 2295TIP3    H2 6892   2.233   3.461   0.541 -0.9882 -0.1299  0.8414
 2296TIP3   OH2 6893   0.477   0.421   3.604  0.3571 -0.2480 -0.1663
 2296TIP3    H1 6894   0.532   0.442   3.679  0.8102  0.8951 -0.7938
 2296TIP3    H2 6895   0.476   0.501   3.551 -0.3953 -0.8477 -1.1050
 2297TIP3   OH2 6896   6.167   5.088   1.298  0.4877  0.4829 -0.2714
 2297TIP3    H1 6897   6.204   5.052   1.378  0.8818  0.6338 -0.3779
 2297TIP3    H2 6898   6.201   5.178   1.295 -0.0614  0.6931 -0.2676
 2298TIP3   OH2 6899   5.516   1.578   2.058  0.0729  0.0756 -0.1176
 2298TIP3    H1 6900   5.453   1.625   2.113 -0.4881 -0.1470 -0.5562
 2298TIP3    H2 6901   5.462   1.535   1.992  0.7193  0.1342 -0.6897
 2299TIP3   OH2 6902   0.406   3.333   4.413 -0.0929 -0.3790 -0.2415
 2299TIP3    H1 6903   0.413   3.333   4.317  0.0810 -0.3765 -0.2290
 2299TIP3    H2 6904   0.475   3.273   4.442 -0.7977 -1.1653 -0.1635
 2300TIP3   OH2 6905   0.767   2.134   1.214  0.4497 -0.1946 -0.1622
 2300TIP3    H1 6906   0.837   2.071   1.233  1.0079  0.3505 -0.3687
 2300TIP3    H2 6907   0.765   2.191   1.291 -0.7837 -1.0971  0.5019
 2301TIP3   OH2 6908   2.087   1.276   3.077 -0.2743 -0.0332  0.4173
 2301TIP3    H1 6909   2.115   1.207   3.137  0.3399 -0.1655 -0.0075
 2301TIP3    H2 6910   2.128   1.253   2.993  0.3431  1.0963  0.3838
 2302TIP3   OH2 6911   3.860   2.214   2.408  0.3267  0.0772  0.5879
 2302TIP3    H1 6912   3.845   2.126   2.373  0.2911  0.6672 -0.9797
 2302TIP3    H2 6913   3.955   2.224   2.409  0.3245  0.1130  0.4929
 2303TIP3   OH2 6914   3.661   0.082   1.729 -0.5971  0.3265  1.0099
 2303TIP3    H1 6915   3.686   0.162   1.774 -1.8720  1.7472 -0.6499
 2303TIP3    H2 6916   3.734   0.062   1.671 -1.6836  2.4283 -1.2278
 2304TIP3   OH2 6917   5.254   5.320   1.067 -0.0649  0.1986 -0.3807
 2304TIP3    H1 6918   5.196   5.395   1.056  0.8381  1.3907  2.2208
 2304TIP3    H2 6919   5.312   5.323   0.991 -1.0357  1.1740 -1.1151
 2305TIP3   OH2 6920   1.725   4.895   1.184  0.4723 -0.3059 -0.2391
 2305TIP3    H1 6921   1.726   4.980   1.139  1.7179  0.1872  0.6505
 2305TIP3    H2 6922   1.707   4.832   1.114 -1.0641  0.7222 -0.8133
 2306TIP3   OH2 6923   5.449   3.737   1.766 -0.1828  0.1530  0.0944
 2306TIP3    H1 6924   5.389   3.710   1.697 -1.7464  1.3906  0.8848
 2306TIP3    H2 6925   5.529   3.764   1.721 -1.6676  2.3614 -1.4295
 2307TIP3   OH2 6926   1.827   2.377   0.520 -0.0548 -0.0008  0.0954
 2307TIP3    H1 6927   1.815   2.446   0.455 -1.5311  0.4450  0.7855
 2307TIP3    H2 6928   1.880   2.418   0.589  0.1553  0.0300 -0.0834
 2308TIP3   OH2 6929   6.127   2.353   4.953 -0.3553  0.0460  0.5268
 2308TIP3    H1 6930   6.218   2.383   4.959 -0.0607 -0.6775 -0.1837
 2308TIP3    H2 6931   6.109   2.350   4.859 -1.4218  1.0606  0.6739
 2309TIP3   OH2 6932   2.343   1.057   0.457  0.0859  0.3949 -0.1891
 2309TIP3    H1 6933   2.409   1.008   0.505  0.4780  0.5564 -0.5630
 2309TIP3    H2 6934   2.283   0.990   0.423 -0.8649  0.3430  1.4903
 2310TIP3   OH2 6935   5.168   5.912   2.757  0.4830 -0.4831  0.9404
 2310TIP3    H1 6936   5.102   5.910   2.826 -2.1744  2.2963 -1.2409
 2310TIP3    H2 6937   5.171   6.004   2.729  3.1992 -1.0360 -1.0245
 2311TIP3   OH2 6938   1.795   0.647   4.657  0.1111  0.4557  0.7436
 2311TIP3    H1 6939   1.812   0.642   4.563 -1.7008 -2.6952  0.4437
 2311TIP3    H2 6940   1.792   0.741   4.676  0.3401  1.1922 -2.3649
 2312TIP3   OH2 6941   3.519   4.520   1.322 -0.2079  0.1057  0.5502
 2312TIP3    H1 6942   3.464   4.481   1.389 -0.6564 -1.5232 -0.7087
 2312TIP3    H2 6943   3.605   4.479   1.333  0.3044  1.3387  1.3833
 2313TIP3   OH2 6944   2.754   0.381   0.494  0.1320  0.6039 -0.5664
 2313TIP3    H1 6945   2.767   0.298   0.541  0.6855  0.8765 -0.2148
 2313TIP3    H2 6946   2.722   0.356   0.408  1.4622 -0.0577 -0.8932
 2314TIP3   OH2 6947   3.814   0.702   5.125  0.3638  0.1735  0.2727
 2314TIP3    H1 6948   3.873   0.731   5.056  1.3692 -1.2710  0.4728
 2314TIP3    H2 6949   3.826   0.607   5.128 -0.5329  0.0738  1.6489
 2315TIP3   OH2 6950   3.203   5.398   0.508  0.0670  0.3159  0.1544
 2315TIP3    H1 6951   3.288   5.374   0.472  0.6260  1.4894  0.6562
 2315TIP3    H2 6952   3.215   5.398   0.603 -0.7977 -0.5737  0.2846
 2316TIP3   OH2 6953   0.543   4.428   0.186  0.4495 -0.1638 -0.2554
 2316TIP3    H1 6954   0.505   4.483   0.254 -1.6613 -1.0919 -0.6064
 2316TIP3    H2 6955   0.531   4.478   0.105 -0.0536 -0.4684 -0.3705
 2317TIP3   OH2 6956   1.960   2.984   1.995  0.1909  0.1995 -0.3995
 2317TIP3    H1 6957   1.993   3.071   2.018  1.5832  0.0573 -1.6754
 2317TIP3    H2 6958   2.037   2.927   1.998 -0.7440 -1.0907  0.7327
 2318TIP3   OH2 6959   4.057   2.067   3.097 -0.0320  0.4206 -0.1793
 2318TIP3    H1 6960   4.029   2.157   3.080  0.7955  0.8244  0.4947
 2318TIP3    H2 6961   3.978   2.014   3.086 -0.2952  1.0837 -1.6865
 2319TIP3   OH2 6962   2.823   1.183   1.370 -0.6288  0.3747  0.1166
 2319TIP3    H1 6963   2.814   1.211   1.279 -1.7618 -0.0312  0.0872
 2319TIP3    H2 6964   2.820   1.265   1.420  1.8332  0.7815 -0.2735
 2320TIP3   OH2 6965   0.004   3.130   0.274  0.3028 -0.3012  0.0826
 2320TIP3    H1 6966   0.016   3.174   0.190 -0.0960 -0.0222  0.1728
 2320TIP3    H2 6967   0.023   3.038   0.255  1.0348 -0.1164 -0.1246
 2321TIP3   OH2 6968   4.427   2.783   3.341  0.1571  0.0517 -0.0369
 2321TIP3    H1 6969   4.431   2.849   3.410  3.1547  0.4345 -0.4604
 2321TIP3    H2 6970   4.362   2.817   3.279 -0.4940  1.1098  1.1714
 2322TIP3   OH2 6971   2.171   0.611   3.948  0.3602  0.4749  0.0654
 2322TIP3    H1 6972   2.250   0.630   3.999  1.3258 -0.6990 -0.9297
 2322TIP3    H2 6973   2.121   0.550   4.002 -0.9999  2.8283  1.6659
 2323TIP3   OH2 6974   2.089   4.525   1.365 -0.3387  0.0311 -0.0901
 2323TIP3    H1 6975   2.098   4.432   1.344 -0.2757 -0.3733  1.5451
 2323TIP3    H2 6976   2.073   4.527   1.459  0.7674  1.7404  0.1143
 2324TIP3   OH2 6977   1.443   0.697   5.116 -0.4177 -0.1769  0.0063
 2324TIP3    H1 6978   1.471   0.758   5.048 -0.7630 -1.7559 -1.6306
 2324TIP3    H2 6979   1.355   0.726   5.139 -0.8893 -0.4918 -1.3250
 2325TIP3   OH2 6980   1.235   5.090   5.150  0.1332  0.4317 -0.3181
 2325TIP3    H1 6981   1.157   5.129   5.111 -0.2081 -0.8815 -1.0002
 2325TIP3    H2 6982   1.289   5.064   5.075  0.0331 -0.9973  0.0643
 2326TIP3   OH2 6983   0.416   4.626   0.346 -0.1919 -0.2915  0.7218
 2326TIP3    H1 6984   0.350   4.611   0.414 -0.4110  1.9545  1.0649
 2326TIP3    H2 6985   0.491   4.662   0.394 -0.4118  1.4901 -0.1879
 2327TIP3   OH2 6986   1.792   0.411   4.262  0.3987 -0.1937 -0.7657
 2327TIP3    H1 6987   1.819   0.489   4.310 -0.0265 -0.2330 -0.4490
 2327TIP3    H2 6988   1.700   0.427   4.242  0.3163 -0.5993 -0.7228
 2328TIP3   OH2 6989   2.930   5.682   2.243 -0.1079  0.7326  0.1742
 2328TIP3    H1 6990   2.864   5.742   2.210  0.4358  1.4309  0.3336
 2328TIP3    H2 6991   2.999   5.683   2.177 -1.2332 -1.8133 -1.2073
 2329TIP3   OH2 6992   0.453   2.169   3.175  0.1994 -0.4121 -0.1182
 2329TIP3    H1 6993   0.393   2.242   3.160  0.1819 -0.5144 -0.5601
 2329TIP3    H2 6994   0.480   2.141   3.088  0.7694 -0.4701  0.0712
 2330TIP3   OH2 6995   0.996   2.736   3.498 -0.5432  0.2806 -0.1592
 2330TIP3    H1 6996   1.015   2.762   3.588 -0.0975 -1.1722  0.1881
 2330TIP3    H2 6997   0.903   2.713   3.499 -0.7431  1.0304 -0.2856
 2331TIP3   OH2 6998   2.033   3.894   4.253 -0.2857 -0.7234  0.0932
 2331TIP3    H1 6999   2.112   3.934   4.217  0.5010  0.6675  3.0604
 2331TIP3    H2 7000   2.039   3.802   4.226  0.5415  0.0207 -2.5549
 2332TIP3   OH2 7001   1.313   2.945   1.294  0.1484 -0.3595  0.2720
 2332TIP3    H1 7002   1.397   2.933   1.250  0.0481 -0.2003  0.0363
 2332TIP3    H2 7003   1.253   2.975   1.225 -0.6043 -2.3546 -0.0143
 2333TIP3   OH2 7004   1.293   1.686   1.138  0.0172 -0.4751 -0.0032
 2333TIP3    H1 7005   1.379   1.645   1.124 -0.2116 -0.9681  0.0186
 2333TIP3    H2 7006   1.309   1.780   1.126  0.4409 -0.6156 -0.5758
 2334TIP3   OH2 7007   5.414   3.545   2.822  0.7511 -0.1151 -0.5505
 2334TIP3    H1 7008   5.400   3.578   2.911  2.1437 -0.8734 -0.0287
 2334TIP3    H2 7009   5.326   3.520   2.792  0.1048  1.1704  0.1761
 2335TIP3   OH2 7010   5.719   3.784   1.657  0.1320  0.1553 -0.3681
 2335TIP3    H1 7011   5.768   3.818   1.582 -0.9168  0.1769 -1.0732
 2335TIP3    H2 7012   5.749   3.836   1.731  1.6919 -0.3295 -0.6371
 2336TIP3   OH2 7013   5.816   1.240   1.267  0.0810  0.4049 -0.3401
 2336TIP3    H1 7014   5.754   1.312   1.251 -0.6892 -0.1174  0.2446
 2336TIP3    H2 7015   5.794   1.207   1.354  0.3407 -0.6177 -0.6428
 2337TIP3   OH2 7016   4.308   1.860   1.751  0.2934  0.3097  0.2717
 2337TIP3    H1 7017   4.259   1.924   1.700 -1.3251  0.3962  1.8622
 2337TIP3    H2 7018   4.274   1.775   1.723 -1.4562  0.3933  1.9344
 2338TIP3   OH2 7019   5.709   2.744   2.239 -0.2670  0.2295 -0.0726
 2338TIP3    H1 7020   5.692   2.738   2.333 -1.0591  0.5578 -0.1848
 2338TIP3    H2 7021   5.653   2.816   2.209 -0.6071 -0.3755 -0.9319
 2339TIP3   OH2 7022   1.220   5.149   4.699  0.5274  0.5187  0.2442
 2339TIP3    H1 7023   1.266   5.103   4.629  0.5906  0.6190  0.2191
 2339TIP3    H2 7024   1.188   5.229   4.658  2.1946  1.5227  0.7678
 2340TIP3   OH2 7025   0.045   4.516   2.617 -0.1581 -0.3708 -0.2047
 2340TIP3    H1 7026   0.051   4.433   2.570 -1.0653  0.1996 -1.3836
 2340TIP3    H2 7027  -0.048   4.539   2.614 -0.2321 -0.2298  1.7751
 2341TIP3   OH2 7028   3.693   4.382   3.070 -0.0723  0.2835 -0.5131
 2341TIP3    H1 7029   3.739   4.429   3.140 -0.6323 -0.2552  0.2473
 2341TIP3    H2 7030   3.640   4.317   3.117  0.0335 -0.5254 -1.4834
 2342TIP3   OH2 7031   2.526   0.770   1.544 -0.2541 -0.4834  0.2217
 2342TIP3    H1 7032   2.550   0.861   1.528  1.0407 -1.0937 -1.5759
 2342TIP3    H2 7033   2.453   0.754   1.484 -1.1632 -0.3819  1.2625
 2343TIP3   OH2 7034   1.244   4.024   3.073  0.2592  0.2999  0.3340
 2343TIP3    H1 7035   1.177   3.974   3.028  1.4281 -0.7893 -0.2628
 2343TIP3    H2 7036   1.323   4.013   3.019  1.5781 -0.6284  2.3354
 2344TIP3   OH2 7037   3.764   0.339   1.484  0.1386  0.0626 -0.2976
 2344TIP3    H1 7038   3.808   0.267   1.439 -0.4250 -0.3916 -0.1349
 2344TIP3    H2 7039   3.814   0.416   1.459  0.2338 -0.2680 -1.1694
 2345TIP3   OH2 7040   3.987   3.290   2.249 -0.1770 -0.3332  0.2117
 2345TIP3    H1 7041   3.911   3.298   2.191 -1.3271 -1.9246  1.4116
 2345TIP3    H2 7042   3.972   3.354   2.318 -0.5674 -0.8107  0.5756
 2346TIP3   OH2 7043   0.579   5.085   3.571 -0.1918 -0.3379 -0.0261
 2346TIP3    H1 7044   0.595   5.174   3.602 -0.0616 -0.1618 -0.5776
 2346TIP3    H2 7045   0.662   5.059   3.531  0.0769 -1.0728  0.9782
 2347TIP3   OH2 7046   4.062   5.126   2.725  0.1247 -0.0223 -0.2432
 2347TIP3    H1 7047   4.115   5.111   2.647  2.5150 -1.1352  1.4395
 2347TIP3    H2 7048   4.050   5.038   2.763 -0.1473  0.5651  1.1080
 2348TIP3   OH2 7049   2.979   1.182   2.689  0.0752 -0.0430 -0.0298
 2348TIP3    H1 7050   2.963   1.089   2.702 -0.7865  0.2423  1.1946
 2348TIP3    H2 7051   2.925   1.206   2.613 -1.4466 -0.1304  0.9761
 2349TIP3   OH2 7052   1.257   1.330   0.045  0.7154  0.5362 -0.2689
 2349TIP3    H1 7053   1.328   1.333  -0.018  2.0638 -0.7298  1.1010
 2349TIP3    H2 7054   1.250   1.419   0.078 -0.0223  1.2229 -2.1452
 2350TIP3   OH2 7055   0.517   2.168   4.443 -0.4275 -0.7301 -0.3065
 2350TIP3    H1 7056   0.523   2.091   4.500 -1.0653  0.4672  1.4498
 2350TIP3    H2 7057   0.537   2.242   4.499  0.6617  0.3980 -2.0759
 2351TIP3   OH2 7058   4.980   3.854   0.337 -0.3039  0.4407  0.8466
 2351TIP3    H1 7059   4.922   3.925   0.311 -0.5970  0.1081  0.5939
 2351TIP3    H2 7060   4.938   3.815   0.413 -0.9684 -0.4935  0.0072
 2352TIP3   OH2 7061   3.749   3.158   4.790 -0.4699  0.7044 -0.7419
 2352TIP3    H1 7062   3.666   3.114   4.810  0.1578  0.3793  1.3700
 2352TIP3    H2 7063   3.739   3.187   4.699 -3.2838  1.5241 -0.2738
 2353TIP3   OH2 7064   5.612   0.405   0.249  0.5089 -0.3371  0.8427
 2353TIP3    H1 7065   5.589   0.386   0.158 -1.3023  0.2406  1.1349
 2353TIP3    H2 7066   5.586   0.326   0.297 -0.0991 -0.0113  1.0638
 2354TIP3   OH2 7067   0.070   5.732   4.857  0.4081  0.7654 -0.4780
 2354TIP3    H1 7068   0.036   5.643   4.854  1.9857  0.1443 -0.8665
 2354TIP3    H2 7069   0.164   5.722   4.868  0.6670  2.3788 -0.8810
 2355TIP3   OH2 7070   4.345   4.533   1.246 -0.2240  0.5152  0.3319
 2355TIP3    H1 7071   4.435   4.563   1.246  0.0747 -0.3376 -0.6969
 2355TIP3    H2 7072   4.338   4.475   1.323  0.8337 -1.4231 -0.9476
 2356TIP3   OH2 7073   2.689   5.432   1.843 -0.3155  0.2655 -0.6287
 2356TIP3    H1 7074   2.742   5.398   1.771 -0.1604 -0.1784 -0.3136
 2356TIP3    H2 7075   2.705   5.526   1.843  0.1764  0.1867 -0.7763
 2357TIP3   OH2 7076   1.805   4.987   3.063 -0.3805  0.0573 -0.2563
 2357TIP3    H1 7077   1.870   4.962   3.129 -0.3107 -2.1696 -1.0765
 2357TIP3    H2 7078   1.844   5.062   3.018  1.2986 -0.7637 -0.2334
 2358TIP3   OH2 7079   0.396   5.745   2.664 -0.0617  0.4094 -0.1054
 2358TIP3    H1 7080   0.406   5.740   2.759 -0.9681  0.3193 -0.0051
 2358TIP3    H2 7081   0.373   5.656   2.638 -1.2798  0.7477 -0.2175
 2359TIP3   OH2 7082   2.021   2.532   2.253  0.0695  0.1358 -0.0656
 2359TIP3    H1 7083   1.998   2.608   2.306 -0.7254 -0.6075  0.6982
 2359TIP3    H2 7084   1.963   2.537   2.177 -0.5461 -0.1254  0.3790
 2360TIP3   OH2 7085   1.143   1.810   2.281 -0.1625  0.4634  0.4552
 2360TIP3    H1 7086   1.060   1.762   2.273 -0.6501  0.9262  2.2795
 2360TIP3    H2 7087   1.151   1.829   2.374  0.3475  3.2960 -0.0634
 2361TIP3   OH2 7088   1.007   5.716   3.815 -0.3687  0.5541 -0.4347
 2361TIP3    H1 7089   1.100   5.710   3.791  0.2344 -0.5867  1.9443
 2361TIP3    H2 7090   0.996   5.652   3.885 -2.3587  2.4332  1.0980
 2362TIP3   OH2 7091   5.744   1.999   1.147 -0.5216  0.4975 -0.5212
 2362TIP3    H1 7092   5.721   2.082   1.188 -1.0806  0.0183  0.1521
 2362TIP3    H2 7093   5.786   1.949   1.216 -1.2710 -0.2375 -0.5826
 2363TIP3   OH2 7094   0.636   5.942   2.618 -0.6124 -0.4909 -0.0042
 2363TIP3    H1 7095   0.693   5.866   2.607 -1.0752 -0.9226  0.5226
 2363TIP3    H2 7096   0.686   6.000   2.676 -0.3403 -0.4755 -0.2510
 2364TIP3   OH2 7097   2.308   2.233   3.414 -0.1803  0.3508  0.2208
 2364TIP3    H1 7098   2.228   2.260   3.458 -0.2101  1.2692 -0.3893
 2364TIP3    H2 7099   2.280   2.205   3.327  0.3598  2.5382 -0.7111
 2365TIP3   OH2 7100   4.594   3.902   5.106 -0.1624  0.0082 -0.6097
 2365TIP3    H1 7101   4.652   3.857   5.167 -0.8130 -1.6435 -1.1263
 2365TIP3    H2 7102   4.586   3.991   5.140 -0.4761 -0.8311  1.6922
 2366TIP3   OH2 7103   2.244   0.675   0.084 -0.6439 -0.1440 -0.5628
 2366TIP3    H1 7104   2.224   0.750   0.140 -2.9962 -0.4551 -0.8959
 2366TIP3    H2 7105   2.336   0.655   0.104 -0.1430  2.3288  0.0662
 2367TIP3   OH2 7106   5.055   0.650   4.281 -1.0106  0.3228  0.2432
 2367TIP3    H1 7107   4.975   0.636   4.332 -1.7714 -1.1951 -1.2813
 2367TIP3    H2 7108   5.110   0.574   4.302 -1.6414 -0.7275 -1.6765
 2368TIP3   OH2 7109   5.876   1.461   1.051 -0.2671  0.4368  0.6470
 2368TIP3    H1 7110   5.858   1.510   1.132 -0.6815  1.5212 -0.0710
 2368TIP3    H2 7111   5.904   1.375   1.081 -2.0149  0.2571  1.9313
 2369TIP3   OH2 7112   2.965   1.612   1.429 -0.3589  0.6557  0.1517
 2369TIP3    H1 7113   2.964   1.559   1.349  2.4220  0.9127 -0.1304
 2369TIP3    H2 7114   2.967   1.549   1.500 -0.1114  0.4160 -0.0702
 2370TIP3   OH2 7115   2.048   4.023   2.487  0.2898 -0.5365  0.1497
 2370TIP3    H1 7116   1.985   4.030   2.559  2.4728 -0.5688  2.2273
 2370TIP3    H2 7117   1.999   3.984   2.415 -2.0992 -0.2423  1.5100
 2371TIP3   OH2 7118   2.485   2.138   3.581  0.0079  0.0892  0.5422
 2371TIP3    H1 7119   2.457   2.194   3.509  0.9862  1.2874  1.0599
 2371TIP3    H2 7120   2.408   2.083   3.600 -0.3730 -0.0207 -1.1572
 2372TIP3   OH2 7121   5.117   4.007   4.811  0.7096 -0.1017  0.1216
 2372TIP3    H1 7122   5.066   4.057   4.874  2.4796  0.9190  0.8000
 2372TIP3    H2 7123   5.067   3.926   4.798 -0.7984  0.6338  1.1169
 2373TIP3   OH2 7124   5.576   2.518   1.143  0.4891  0.1507 -0.2812
 2373TIP3    H1 7125   5.648   2.467   1.106 -1.6732 -3.4397 -0.0242
 2373TIP3    H2 7126   5.567   2.487   1.233 -0.9531  0.9862 -0.0944
 2374TIP3   OH2 7127   0.385   4.750   1.313 -0.0782  0.2148  0.5010
 2374TIP3    H1 7128   0.413   4.702   1.235 -0.0304  1.7609 -0.4542
 2374TIP3    H2 7129   0.403   4.842   1.294 -1.1601  0.7557  1.8643
 2375TIP3   OH2 7130   0.753   0.444   2.747  0.3758 -0.6313 -0.4183
 2375TIP3    H1 7131   0.771   0.470   2.837 -0.6517  1.0259 -0.6328
 2375TIP3    H2 7132   0.837   0.454   2.701  0.3979  0.7452 -0.1076
 2376TIP3   OH2 7133   1.908   1.945   0.754  0.2657 -0.0126  0.0742
 2376TIP3    H1 7134   1.929   1.898   0.673 -1.3463 -1.0611  0.2108
 2376TIP3    H2 7135   1.829   1.995   0.733  0.9222  1.2088  0.4712
 2377TIP3   OH2 7136   2.410   5.481   2.538 -0.3428  0.7318  0.7230
 2377TIP3    H1 7137   2.433   5.553   2.596  1.1661  1.0197 -0.1735
 2377TIP3    H2 7138   2.471   5.489   2.464  0.1371 -1.6417  0.7551
 2378TIP3   OH2 7139   5.445   4.045   3.736 -0.6708  0.6076  0.0637
 2378TIP3    H1 7140   5.498   4.050   3.657 -0.7809 -0.6627 -0.1129
 2378TIP3    H2 7141   5.367   4.097   3.717 -0.5486  0.5713 -0.5365
 2379TIP3   OH2 7142   0.476   0.976   2.410 -0.0550 -0.0404  0.4893
 2379TIP3    H1 7143   0.518   1.006   2.330 -0.6253 -1.3116 -0.3025
 2379TIP3    H2 7144   0.385   1.001   2.400 -0.5729 -2.0558 -0.2438
 2380TIP3   OH2 7145   1.679   4.771   2.520  0.3716 -0.2947  0.1882
 2380TIP3    H1 7146   1.654   4.858   2.551  0.6849 -0.4685  0.9491
 2380TIP3    H2 7147   1.632   4.761   2.438 -0.5897  0.1345  0.6650
 2381TIP3   OH2 7148   4.393   2.347   0.095  0.4738  0.0821  0.1492
 2381TIP3    H1 7149   4.332   2.421   0.085 -0.2475 -0.4923  0.2165
 2381TIP3    H2 7150   4.473   2.376   0.050 -0.5831  0.0092 -1.9137
 2382TIP3   OH2 7151   5.979   0.293   1.066 -0.1685  0.3925 -0.3617
 2382TIP3    H1 7152   6.039   0.342   1.011  0.3548  2.3237  1.8017
 2382TIP3    H2 7153   6.022   0.288   1.152 -1.7443 -0.8748  0.4217
 2383TIP3   OH2 7154   1.918   2.416   1.960 -0.0398 -0.0544  0.1415
 2383TIP3    H1 7155   1.901   2.332   1.918 -0.3656 -0.1724  0.4987
 2383TIP3    H2 7156   1.883   2.481   1.900  0.0935 -0.1811 -0.0740
 2384TIP3   OH2 7157   3.334   1.368   1.913  0.3408 -0.1669  0.0577
 2384TIP3    H1 7158   3.262   1.305   1.909  0.5714 -0.6199  1.9932
 2384TIP3    H2 7159   3.412   1.314   1.927  0.6593  0.4850  0.8563
 2385TIP3   OH2 7160   1.193   1.601   4.861  0.0515 -0.6016 -0.3984
 2385TIP3    H1 7161   1.121   1.538   4.855 -0.3850 -0.1050 -0.5200
 2385TIP3    H2 7162   1.157   1.681   4.821 -0.2795  0.4931  1.9314
 2386TIP3   OH2 7163   5.054   2.352   3.468  0.4589  0.0273  0.6811
 2386TIP3    H1 7164   4.970   2.343   3.424 -0.0465  1.6942  1.2542
 2386TIP3    H2 7165   5.065   2.268   3.515 -1.4622  0.2081  1.5600
 2387TIP3   OH2 7166   4.300   5.601   4.717  0.3673 -0.1706 -0.2143
 2387TIP3    H1 7167   4.280   5.689   4.750  0.4013  0.0798 -0.8541
 2387TIP3    H2 7168   4.393   5.588   4.737  0.4292  0.0450 -0.3608
 2388TIP3   OH2 7169   4.923   0.333   2.126 -0.3421 -0.0612 -0.3761
 2388TIP3    H1 7170   4.970   0.305   2.205 -1.8231 -0.6799  0.3068
 2388TIP3    H2 7171   4.941   0.264   2.062 -1.0210 -0.7480  0.1595
 2389TIP3   OH2 7172   4.454   2.980   3.084  0.2942 -0.2002  0.1134
 2389TIP3    H1 7173   4.380   3.030   3.118  0.1224 -0.9968  0.9499
 2389TIP3    H2 7174   4.523   2.991   3.150 -0.2387 -2.2351  1.0767
 2390TIP3   OH2 7175   2.165   1.019   3.386  0.1321  0.2080 -0.0667
 2390TIP3    H1 7176   2.096   1.012   3.321  0.6405 -0.5337 -0.5388
 2390TIP3    H2 7177   2.222   1.089   3.353 -2.0937  3.2492  1.9755
 2391TIP3   OH2 7178   6.228   5.455   4.603  0.5641 -0.3031  0.1073
 2391TIP3    H1 7179   6.212   5.391   4.673  0.1229 -0.8788 -0.5105
 2391TIP3    H2 7180   6.242   5.538   4.649  2.6595 -1.0794  1.0244
 2392TIP3   OH2 7181   5.878   5.149   2.659 -0.3709 -0.1824  0.1804
 2392TIP3    H1 7182   5.841   5.237   2.651 -2.4197 -1.0841 -1.3071
 2392TIP3    H2 7183   5.953   5.149   2.599 -0.4303  0.5066  0.0965
 2393TIP3   OH2 7184   2.335   2.504   4.782 -0.1233 -0.4362  0.4585
 2393TIP3    H1 7185   2.245   2.528   4.763  0.5225  1.4313 -0.5296
 2393TIP3    H2 7186   2.355   2.435   4.719 -0.5220 -0.0545 -0.0966
 2394TIP3   OH2 7187   0.946   4.106   2.195  0.0213  0.5116  0.0226
 2394TIP3    H1 7188   0.857   4.071   2.202 -0.0471  0.8661  1.3083
 2394TIP3    H2 7189   0.934   4.201   2.198  0.4229  0.5603  0.0743
 2395TIP3   OH2 7190   5.693   1.131   3.008 -0.4146 -0.1218  0.4186
 2395TIP3    H1 7191   5.665   1.060   3.066 -0.5948  0.3623  0.9291
 2395TIP3    H2 7192   5.647   1.114   2.926 -1.9894  0.4899  1.1388
 2396TIP3   OH2 7193   3.715   1.550   3.096  0.6538  0.2720 -0.0219
 2396TIP3    H1 7194   3.685   1.485   3.160  0.4726  0.0851 -0.2963
 2396TIP3    H2 7195   3.705   1.507   3.011 -0.8094  1.1581 -0.3274
 2397TIP3   OH2 7196   0.757   2.940   0.147 -0.1094  0.6226  0.1816
 2397TIP3    H1 7197   0.768   3.008   0.213  1.7894 -0.3096  0.8848
 2397TIP3    H2 7198   0.809   2.970   0.072  0.3164  0.2115  0.3050
 2398TIP3   OH2 7199   5.927   0.291   5.037 -0.1201  0.7304  0.0112
 2398TIP3    H1 7200   5.891   0.216   4.989 -0.0545  0.2475  0.7015
 2398TIP3    H2 7201   5.897   0.368   4.987 -2.1051  0.3517  0.5278
 2399TIP3   OH2 7202   0.974   4.942   2.728  0.6077 -0.5147 -0.0891
 2399TIP3    H1 7203   1.052   4.889   2.739  1.1356 -0.5593 -3.1936
 2399TIP3    H2 7204   0.927   4.903   2.654 -0.4359  1.6338 -0.6794
 2400TIP3   OH2 7205   3.859   4.114   3.292 -0.2810  0.0995  0.1983
 2400TIP3    H1 7206   3.932   4.088   3.237  0.3653  0.1586  1.0071
 2400TIP3    H2 7207   3.783   4.111   3.234  0.3158 -0.2146 -0.5877
 2401TIP3   OH2 7208   3.730   1.329   4.167  0.1805 -0.1621 -0.5199
 2401TIP3    H1 7209   3.724   1.378   4.085  2.2090 -0.5483 -0.9525
 2401TIP3    H2 7210   3.759   1.392   4.232 -1.8459  0.2457  0.0618
 2402TIP3   OH2 7211   1.347   2.578   2.877 -0.2769  0.6051  0.3544
 2402TIP3    H1 7212   1.395   2.635   2.818  2.0867  1.4019  2.7969
 2402TIP3    H2 7213   1.340   2.628   2.959 -3.1250 -0.5171  0.9245
 2403TIP3   OH2 7214   0.522   4.244   3.335  0.3466 -0.0980 -0.3868
 2403TIP3    H1 7215   0.500   4.311   3.401  0.8933 -0.2153 -0.0777
 2403TIP3    H2 7216   0.485   4.163   3.370 -1.6963  0.2826 -1.5068
 2404TIP3   OH2 7217   3.883   4.860   1.928 -0.5460  0.3813 -0.6808
 2404TIP3    H1 7218   3.802   4.861   1.979  1.4635  1.5784  2.8071
 2404TIP3    H2 7219   3.920   4.773   1.943  0.8171  1.2529  1.4191
 2405TIP3   OH2 7220   1.191   3.309   4.384 -0.5609  0.5617 -0.0791
 2405TIP3    H1 7221   1.287   3.302   4.390 -0.4947  1.7528  0.5845
 2405TIP3    H2 7222   1.162   3.307   4.475 -1.2694 -0.7823 -0.3121
 2406TIP3   OH2 7223   2.057   2.946   0.746  0.0177 -0.6541 -0.4888
 2406TIP3    H1 7224   2.086   3.006   0.815 -2.2792 -0.4621  0.3925
 2406TIP3    H2 7225   2.076   2.992   0.664 -3.0825  2.1655  0.1505
 2407TIP3   OH2 7226   1.727   0.686   5.106 -0.2215 -0.0660 -0.6478
 2407TIP3    H1 7227   1.647   0.738   5.097  0.1944  0.7652  0.2659
 2407TIP3    H2 7228   1.744   0.685   5.200  0.8145 -0.2646 -0.8260
 2408TIP3   OH2 7229   3.678   2.713   3.374 -0.4619 -0.2736 -0.3396
 2408TIP3    H1 7230   3.682   2.736   3.282 -0.0903 -1.2177 -0.5666
 2408TIP3    H2 7231   3.585   2.702   3.393 -0.5239 -0.2879 -0.6517
 2409TIP3   OH2 7232   0.855   1.630   4.496  0.2917  0.4410  0.0191
 2409TIP3    H1 7233   0.765   1.603   4.514  0.3455  0.2751  0.0397
 2409TIP3    H2 7234   0.908   1.568   4.545  0.4245  0.3742 -0.2126
 2410TIP3   OH2 7235   2.676   5.325   1.393 -0.5762  0.0165 -0.0664
 2410TIP3    H1 7236   2.710   5.266   1.326  1.0703  1.6775 -0.8036
 2410TIP3    H2 7237   2.584   5.302   1.401 -0.5621 -0.9928 -2.1072
 2411TIP3   OH2 7238   2.020   3.347   4.340  0.1619 -0.3325  0.4175
 2411TIP3    H1 7239   1.993   3.330   4.250  0.0397  1.6958  0.0145
 2411TIP3    H2 7240   2.104   3.302   4.349  1.5318  1.6110 -1.6380
 2412TIP3   OH2 7241   4.611   3.283   2.005 -0.7989 -0.1050  0.3629
 2412TIP3    H1 7242   4.597   3.229   2.083  0.7989  1.7752  2.0630
 2412TIP3    H2 7243   4.704   3.303   2.006  0.1540 -2.9718 -4.1855
 2413TIP3   OH2 7244   2.986   2.663   2.287  0.6008 -0.3559 -0.0535
 2413TIP3    H1 7245   3.070   2.620   2.301  0.2084 -1.4163 -0.8295
 2413TIP3    H2 7246   2.954   2.685   2.374  0.3878 -2.4978  0.4456
 2414TIP3   OH2 7247   2.374   2.723   4.350  0.1636  0.0328 -0.3052
 2414TIP3    H1 7248   2.346   2.725   4.258  3.8566  0.1164 -1.5932
 2414TIP3    H2 7249   2.456   2.772   4.351 -0.0734  0.5732  3.2200
 2415TIP3   OH2 7250   0.808   5.782   1.534  0.1112  0.1245 -0.1906
 2415TIP3    H1 7251   0.896   5.805   1.503  0.9567  0.8286  2.4549
 2415TIP3    H2 7252   0.751   5.851   1.499  0.4394 -0.7129 -2.4939
 2416TIP3   OH2 7253   2.913   2.802   2.824 -0.2343 -0.5521  0.1873
 2416TIP3    H1 7254   2.931   2.894   2.804 -0.2022 -0.2634  1.4020
 2416TIP3    H2 7255   2.999   2.761   2.828 -0.2778 -0.7434 -0.8250
 2417TIP3   OH2 7256   3.743   4.344   1.352 -0.3183  0.2950 -0.2580
 2417TIP3    H1 7257   3.828   4.384   1.334  0.9781 -2.0089  0.2737
 2417TIP3    H2 7258   3.739   4.269   1.292 -2.0389  0.4069 -0.3306
 2418TIP3   OH2 7259   3.501   5.002   0.790  0.0782  0.1236 -0.6903
 2418TIP3    H1 7260   3.511   4.954   0.872  0.3112 -0.5297 -1.0863
 2418TIP3    H2 7261   3.430   5.064   0.806  1.2402  1.1990  0.5444
 2419TIP3   OH2 7262   5.755   4.040   3.296  0.7849  0.3257  0.3401
 2419TIP3    H1 7263   5.749   3.946   3.276 -0.4715 -0.0987  2.3802
 2419TIP3    H2 7264   5.847   4.054   3.317  0.8170 -0.6777  0.9463
 2420TIP3   OH2 7265   1.156   4.787   3.208 -0.1973  0.2021  0.2015
 2420TIP3    H1 7266   1.123   4.702   3.180  0.3836  0.1825 -0.4436
 2420TIP3    H2 7267   1.158   4.840   3.129  2.4236 -0.1705 -0.0842
 2421TIP3   OH2 7268   1.420   1.109   1.239 -0.1203 -0.4071  0.2614
 2421TIP3    H1 7269   1.449   1.116   1.330  1.1144  0.2305 -0.1516
 2421TIP3    H2 7270   1.408   1.199   1.210 -0.3544 -0.5989 -0.2503
 2422TIP3   OH2 7271   1.557   2.950   2.417 -0.0480  0.2726  0.5216
 2422TIP3    H1 7272   1.590   2.871   2.375  1.6104  0.8508  0.6552
 2422TIP3    H2 7273   1.483   2.977   2.363 -0.2029 -0.9661  0.0741
 2423TIP3   OH2 7274   3.437   0.241   3.061  0.1429  0.2715 -0.1300
 2423TIP3    H1 7275   3.442   0.214   3.153 -0.9951 -2.1409 -0.7136
 2423TIP3    H2 7276   3.521   0.217   3.024  0.9363  2.0427  0.4239
 2424TIP3   OH2 7277   0.348   2.455   3.767  0.5588  0.7389 -0.2316
 2424TIP3    H1 7278   0.279   2.431   3.829  0.6017 -0.1344 -0.5107
 2424TIP3    H2 7279   0.419   2.489   3.822  0.5850 -0.0043  0.2013
 2425TIP3   OH2 7280   0.864   1.607   1.168  0.2229 -0.4955  1.0364
 2425TIP3    H1 7281   0.947   1.569   1.196  0.7439  0.3059  0.6197
 2425TIP3    H2 7282   0.870   1.699   1.192 -0.0256 -0.1546 -0.1217
 2426TIP3   OH2 7283   3.174   0.965   3.872  0.7611  0.1424 -0.0319
 2426TIP3    H1 7284   3.224   0.898   3.826 -0.9594 -0.5045 -1.0384
 2426TIP3    H2 7285   3.233   0.995   3.942  2.6002 -0.4297 -1.2629
 2427TIP3   OH2 7286   0.770   2.706   2.491  0.0134  0.0106 -0.1259
 2427TIP3    H1 7287   0.765   2.644   2.564 -1.2897  1.2359  0.8837
 2427TIP3    H2 7288   0.777   2.792   2.532  0.4374  0.6509 -1.4768
 2428TIP3   OH2 7289   0.691   4.881   2.456  0.3241  0.6269  0.8091
 2428TIP3    H1 7290   0.641   4.801   2.471 -0.1210  1.0463  1.6718
 2428TIP3    H2 7291   0.715   4.878   2.364  0.0462 -0.3476  0.7595
 2429TIP3   OH2 7292   6.267   2.192   1.159 -0.5294  0.0063  0.2596
 2429TIP3    H1 7293   6.337   2.220   1.218  1.3575  0.2828 -1.9764
 2429TIP3    H2 7294   6.302   2.114   1.116 -0.7475  1.2509 -2.3323
 2430TIP3   OH2 7295   4.760   5.109   0.640 -0.2494 -0.0687 -0.0694
 2430TIP3    H1 7296   4.817   5.054   0.694 -0.7015 -0.6930 -0.2097
 2430TIP3    H2 7297   4.689   5.134   0.698  0.8138  1.8469  0.5116
 2431TIP3   OH2 7298   5.360   1.384   4.406 -0.3656 -0.3550  0.1211
 2431TIP3    H1 7299   5.347   1.467   4.360 -1.4662 -0.1647  0.7456
 2431TIP3    H2 7300   5.435   1.400   4.464 -2.2745  1.1662  2.3332
 2432TIP3   OH2 7301   3.369   1.683   3.576  0.5887 -0.2802  0.6926
 2432TIP3    H1 7302   3.287   1.733   3.577  1.0230  0.5062  3.1415
 2432TIP3    H2 7303   3.438   1.749   3.575  1.2308 -0.9310 -0.3486
 2433TIP3   OH2 7304   4.625   5.139   3.390  0.3963 -0.1061  0.4394
 2433TIP3    H1 7305   4.646   5.046   3.393 -0.3476 -0.3174 -0.4180
 2433TIP3    H2 7306   4.566   5.153   3.463  1.9429  0.0956  1.6956
 2434TIP3   OH2 7307   1.654   0.537   2.407  0.1062  0.1660 -0.4122
 2434TIP3    H1 7308   1.613   0.580   2.331 -1.6183 -3.0981 -1.5068
 2434TIP3    H2 7309   1.589   0.544   2.477 -0.2392 -0.7134 -0.6357
 2435TIP3   OH2 7310   5.470   2.141   2.360  0.4151  0.9180  0.0701
 2435TIP3    H1 7311   5.470   2.076   2.290  0.2172  1.4343 -0.4192
 2435TIP3    H2 7312   5.490   2.091   2.439 -1.6993 -0.1052  0.0367
 2436TIP3   OH2 7313   1.099   5.564   0.854 -0.9032 -0.3048 -0.3241
 2436TIP3    H1 7314   1.017   5.543   0.810  0.4308 -1.7383 -2.3257
 2436TIP3    H2 7315   1.122   5.651   0.822 -1.5063  0.0104  0.0786
 2437TIP3   OH2 7316   1.911   5.387   1.653  0.1959 -0.4569 -0.1970
 2437TIP3    H1 7317   1.972   5.422   1.588 -0.0516  1.0293  0.3299
 2437TIP3    H2 7318   1.959   5.316   1.695  1.5922  0.6446  0.1728
 2438TIP3   OH2 7319   0.704   4.996   0.819 -0.4599  0.6786  0.0814
 2438TIP3    H1 7320   0.622   4.957   0.849 -0.8403 -0.0181 -1.7418
 2438TIP3    H2 7321   0.684   5.029   0.731  1.3764 -0.1183 -0.6774
 2439TIP3   OH2 7322   6.058   0.698   2.821 -0.4791  0.1710  0.0330
 2439TIP3    H1 7323   5.976   0.742   2.845 -1.5423 -2.2938  1.2867
 2439TIP3    H2 7324   6.053   0.688   2.726 -0.8290  1.4918 -0.1062
 2440TIP3   OH2 7325   3.101   2.274   4.147  0.2496  0.0606  0.1073
 2440TIP3    H1 7326   3.186   2.291   4.106 -0.1621 -0.1576 -0.8599
 2440TIP3    H2 7327   3.084   2.181   4.130 -0.2068  0.1150  0.2453
 2441TIP3   OH2 7328   4.933   1.023   4.533  0.1457 -0.3502 -0.9049
 2441TIP3    H1 7329   4.947   0.938   4.574 -1.1909 -0.1038  0.1288
 2441TIP3    H2 7330   4.991   1.083   4.580 -0.3172 -0.3418 -0.3361
 2442TIP3   OH2 7331   1.747   3.336   4.847  0.1247 -0.2208 -0.0112
 2442TIP3    H1 7332   1.834   3.376   4.841  0.4326 -0.7463  0.7817
 2442TIP3    H2 7333   1.764   3.243   4.862 -0.4548  0.0934  3.6466
 2443TIP3   OH2 7334   5.171   4.621   3.755 -0.3752  0.1135 -0.4303
 2443TIP3    H1 7335   5.195   4.624   3.848  0.2162  0.9152 -0.5926
 2443TIP3    H2 7336   5.126   4.705   3.740 -1.2252 -0.3781 -0.6743
 2444TIP3   OH2 7337   4.165   0.656   2.455  0.7246  0.0689 -0.7338
 2444TIP3    H1 7338   4.140   0.582   2.510 -2.1456 -1.0986 -3.2594
 2444TIP3    H2 7339   4.240   0.624   2.405  2.4415  0.6359  1.3592
 2445TIP3   OH2 7340   6.165   3.364   3.505  0.3233 -0.2312  0.0077
 2445TIP3    H1 7341   6.126   3.277   3.505  0.2985 -0.2195  0.1308
 2445TIP3    H2 7342   6.105   3.418   3.556 -1.5581  0.6975 -2.9148
 2446TIP3   OH2 7343   0.926   3.632   2.503 -0.6193 -0.2351  0.1265
 2446TIP3    H1 7344   0.885   3.550   2.475 -0.9872  0.1004 -0.3406
 2446TIP3    H2 7345   0.862   3.700   2.479  0.6011  0.3947 -1.5432
 2447TIP3   OH2 7346   2.122   2.130   1.428  0.3596 -0.3986  0.8813
 2447TIP3    H1 7347   2.099   2.065   1.362  1.8865 -1.2740  1.1580
 2447TIP3    H2 7348   2.217   2.124   1.435  0.3658  0.6914  2.1348
 2448TIP3   OH2 7349   3.105   4.226   3.509 -0.1462  0.1153 -0.0918
 2448TIP3    H1 7350   3.035   4.252   3.449 -0.4824 -1.0071 -0.2041
 2448TIP3    H2 7351   3.070   4.151   3.557 -0.0238  1.2159  1.8162
 2449TIP3   OH2 7352   2.707   4.128   3.043  0.5505 -0.0673  0.2255
 2449TIP3    H1 7353   2.684   4.152   3.132  0.2946 -0.0788  0.1646
 2449TIP3    H2 7354   2.623   4.122   2.998  0.5956 -1.1892  0.2724
 2450TIP3   OH2 7355   6.271   3.068   0.822  0.4449 -0.5443 -0.2046
 2450TIP3    H1 7356   6.191   3.030   0.857 -0.2082  0.7056 -0.2894
 2450TIP3    H2 7357   6.270   3.045   0.729  0.7140 -1.3892 -0.0094
 2451TIP3   OH2 7358   3.326   3.159   3.749 -0.3937 -0.3030  0.2143
 2451TIP3    H1 7359   3.407   3.111   3.732  1.4865  2.1827  1.5414
 2451TIP3    H2 7360   3.307   3.141   3.841 -2.1627 -1.9007 -0.4038
 2452TIP3   OH2 7361   0.123   0.368   1.708 -0.3621 -0.2432 -0.0742
 2452TIP3    H1 7362   0.044   0.314   1.715 -1.1009  0.4502 -2.2648
 2452TIP3    H2 7363   0.193   0.306   1.690 -0.2940 -0.8900  2.1013
 2453TIP3   OH2 7364   1.041   2.178   2.322  0.3194 -0.0073  0.0119
 2453TIP3    H1 7365   1.029   2.272   2.312  0.3816 -0.1585 -1.6223
 2453TIP3    H2 7366   1.133   2.168   2.347  1.1595  0.2240 -2.7474
 2454TIP3   OH2 7367   3.262   0.762   3.734 -0.0232 -0.1755  0.1859
 2454TIP3    H1 7368   3.273   0.677   3.777  0.8061 -0.6807 -0.9801
 2454TIP3    H2 7369   3.204   0.744   3.659 -1.1410  0.6154  0.8170
 2455TIP3   OH2 7370   4.831   3.640   0.668  0.1035  0.5209 -0.3628
 2455TIP3    H1 7371   4.773   3.571   0.701  0.7211  0.9559  1.8230
 2455TIP3    H2 7372   4.855   3.611   0.580  0.9690 -2.5088  0.7516
 2456TIP3   OH2 7373   3.862   1.059   0.370  0.1576  0.1246 -0.3070
 2456TIP3    H1 7374   3.948   1.084   0.406  0.5024 -1.0473 -0.2685
 2456TIP3    H2 7375   3.835   1.135   0.319  0.7235  0.9307  0.5418
 2457TIP3   OH2 7376   0.373   4.220   0.760  0.3063  0.4922 -0.1876
 2457TIP3    H1 7377   0.348   4.167   0.684 -0.6500 -0.0215  0.4696
 2457TIP3    H2 7378   0.415   4.158   0.819 -0.6892  0.4883  0.5271
 2458TIP3   OH2 7379   3.641   5.720   3.845 -0.6737 -0.2573 -0.1001
 2458TIP3    H1 7380   3.617   5.790   3.784 -2.1723  0.6427  1.4290
 2458TIP3    H2 7381   3.655   5.643   3.790 -1.5177  0.6209 -1.6100
 2459TIP3   OH2 7382   4.771   2.900   1.637  0.5094 -0.0882 -0.6393
 2459TIP3    H1 7383   4.685   2.881   1.599  0.8064  0.0354 -1.3809
 2459TIP3    H2 7384   4.834   2.876   1.569  0.9807  2.0400 -1.0415
 2460TIP3   OH2 7385   5.343   5.225   2.229 -0.3205  0.4893  0.2923
 2460TIP3    H1 7386   5.397   5.269   2.163  0.6256  2.3090  2.1822
 2460TIP3    H2 7387   5.271   5.286   2.245 -1.6434 -0.8271 -0.4156
 2461TIP3   OH2 7388   1.776   4.140   2.953 -0.6510  0.4356 -0.2609
 2461TIP3    H1 7389   1.826   4.065   2.985  0.0569  1.6017  1.5356
 2461TIP3    H2 7390   1.809   4.155   2.865  0.3561 -0.3718 -0.0364
 2462TIP3   OH2 7391   0.361   2.328   5.101 -0.4155 -0.1467 -0.0794
 2462TIP3    H1 7392   0.406   2.360   5.023  0.6119 -0.3328  0.4165
 2462TIP3    H2 7393   0.274   2.302   5.070 -0.3222  0.5826 -0.9892
 2463TIP3   OH2 7394   5.097   0.032   5.084 -0.2440  0.1884 -0.0304
 2463TIP3    H1 7395   5.159  -0.034   5.052 -1.1620  0.1434 -1.8384
 2463TIP3    H2 7396   5.142   0.116   5.071 -0.1123  0.0812 -0.2767
 2464TIP3   OH2 7397   3.750   0.626   4.114 -0.1661 -0.3690 -0.2562
 2464TIP3    H1 7398   3.666   0.582   4.127  0.4905 -2.1929 -1.7333
 2464TIP3    H2 7399   3.773   0.659   4.200 -1.9081 -0.7303  0.3945
 2465TIP3   OH2 7400   4.769   3.529   2.747 -0.0484 -0.6857  0.2193
 2465TIP3    H1 7401   4.751   3.623   2.747 -1.1545 -0.8710  1.4253
 2465TIP3    H2 7402   4.746   3.500   2.659  1.0519  0.2840 -0.4243
 2466TIP3   OH2 7403   3.084   3.140   2.012 -0.8928  0.2494 -0.3732
 2466TIP3    H1 7404   3.032   3.070   2.053 -0.5521 -0.3148 -0.8836
 2466TIP3    H2 7405   3.018   3.197   1.972 -1.1396 -1.0287 -1.9251
 2467TIP3   OH2 7406   0.161   1.076   4.192 -0.5228 -0.1562 -0.3947
 2467TIP3    H1 7407   0.122   1.164   4.185  0.6634  0.3078 -1.5573
 2467TIP3    H2 7408   0.112   1.034   4.263 -2.6087  0.6520 -1.2872
 2468TIP3   OH2 7409   5.827   1.480   4.357 -0.0388  0.5921  0.0764
 2468TIP3    H1 7410   5.812   1.546   4.425  0.3704  1.8747 -1.0193
 2468TIP3    H2 7411   5.749   1.424   4.360 -1.0791  1.9628  0.1512
 2469TIP3   OH2 7412   6.323   3.505   0.105 -0.5517 -0.2282 -0.1814
 2469TIP3    H1 7413   6.324   3.571   0.036 -1.8131 -0.3857 -0.3883
 2469TIP3    H2 7414   6.314   3.422   0.058  0.5907 -0.5129  0.0926
 2470TIP3   OH2 7415   1.624   2.364   2.563  0.2291 -0.2632 -0.0877
 2470TIP3    H1 7416   1.706   2.317   2.546 -0.7853 -1.5100 -1.8762
 2470TIP3    H2 7417   1.641   2.453   2.532  1.2495 -0.2120  0.5842
 2471TIP3   OH2 7418   3.546   5.956   0.903 -0.1825 -0.0256  0.3894
 2471TIP3    H1 7419   3.585   5.962   0.816 -0.8669 -1.2400 -0.0304
 2471TIP3    H2 7420   3.475   6.019   0.903 -0.1660 -0.0082  0.0717
 2472TIP3   OH2 7421   1.159   3.398   0.241  0.1279 -0.1038  0.1630
 2472TIP3    H1 7422   1.141   3.304   0.247  1.4789 -0.5759 -2.1049
 2472TIP3    H2 7423   1.250   3.407   0.268  0.0330  0.5502  0.2722
 2473TIP3   OH2 7424   2.041   0.433   3.376  0.2189  0.7809  0.0918
 2473TIP3    H1 7425   2.109   0.454   3.313  1.6895  0.3670  1.4553
 2473TIP3    H2 7426   2.002   0.352   3.344 -0.1859  1.4401 -1.1169
 2474TIP3   OH2 7427   1.641   5.552   4.402 -0.5222 -0.1161  0.4668
 2474TIP3    H1 7428   1.597   5.467   4.411  0.5626 -1.0407 -2.1419
 2474TIP3    H2 7429   1.735   5.531   4.404 -0.2267  1.0649  0.0479
 2475TIP3   OH2 7430   1.028   5.303   0.128  0.4139  0.0527 -0.5344
 2475TIP3    H1 7431   1.084   5.227   0.143  0.2337 -0.2856 -1.4827
 2475TIP3    H2 7432   1.052   5.333   0.040 -1.3687 -0.5315 -1.2581
 2476TIP3   OH2 7433   2.718   0.555   2.520  0.5717 -0.0754  0.6016
 2476TIP3    H1 7434   2.792   0.608   2.492  0.6765 -0.2478  0.5535
 2476TIP3    H2 7435   2.656   0.559   2.447  0.6524 -0.1593  0.5290
 2477TIP3   OH2 7436   5.210   0.896   1.930  0.1372  0.0882  0.4093
 2477TIP3    H1 7437   5.250   0.830   1.872  0.3676  0.4699  0.1321
 2477TIP3    H2 7438   5.130   0.921   1.885 -0.5013 -0.7790  1.0325
 2478TIP3   OH2 7439   1.500   0.278   4.491  0.0336  0.5233 -0.0239
 2478TIP3    H1 7440   1.575   0.277   4.550  0.8947  2.6083 -0.9769
 2478TIP3    H2 7441   1.436   0.335   4.533 -0.5060 -0.2529  0.2088
 2479TIP3   OH2 7442   2.706   0.347   0.190  0.0994 -0.0504 -0.4539
 2479TIP3    H1 7443   2.686   0.329   0.098 -0.0214 -1.4423 -0.1714
 2479TIP3    H2 7444   2.746   0.434   0.188  0.1865 -0.0871 -1.8370
 2480TIP3   OH2 7445   2.162   3.811   0.338  0.2840  0.3209 -0.3395
 2480TIP3    H1 7446   2.127   3.874   0.401 -1.7344  0.1191 -1.1780
 2480TIP3    H2 7447   2.256   3.812   0.353  0.1136  2.1131  0.9708
 2481TIP3   OH2 7448   1.703   2.357   3.916  0.4394 -0.2681  0.1435
 2481TIP3    H1 7449   1.733   2.425   3.977  1.8190 -1.6401  1.0728
 2481TIP3    H2 7450   1.611   2.379   3.899  1.0470  2.2514 -0.2385
 2482TIP3   OH2 7451   0.479   1.030   1.480  0.0526  0.1382 -0.0088
 2482TIP3    H1 7452   0.475   0.984   1.396  0.9299  0.3776 -0.1990
 2482TIP3    H2 7453   0.567   1.068   1.482  0.4699 -0.8431  1.5423
 2483TIP3   OH2 7454   3.410   4.973   5.050 -0.2457 -0.8318  0.0108
 2483TIP3    H1 7455   3.419   4.910   5.121  0.7874 -0.0041  0.6423
 2483TIP3    H2 7456   3.315   4.981   5.036 -0.7769  1.6102  3.7286
 2484TIP3   OH2 7457   6.280   0.089   2.629  0.4911 -0.3382  0.5580
 2484TIP3    H1 7458   6.280   0.147   2.705 -1.2344  1.5118 -0.7523
 2484TIP3    H2 7459   6.199   0.039   2.636  0.4811 -0.3894  0.1252
 2485TIP3   OH2 7460   4.909   3.017   1.986  0.2459 -0.3015 -0.0335
 2485TIP3    H1 7461   4.814   3.006   1.986  0.0301  0.6163  2.8108
 2485TIP3    H2 7462   4.935   2.998   2.076  2.3954  2.1202 -0.0184
 2486TIP3   OH2 7463   3.154   1.968   4.491 -0.6480  0.2440  0.0339
 2486TIP3    H1 7464   3.170   2.000   4.580  0.9568  0.0505 -0.1436
 2486TIP3    H2 7465   3.160   2.047   4.436  2.2532 -0.0971 -0.2863
 2487TIP3   OH2 7466   5.443   2.905   1.899 -0.4446 -0.3588  0.0884
 2487TIP3    H1 7467   5.429   2.879   1.807  0.7680  0.2164 -0.2790
 2487TIP3    H2 7468   5.415   2.997   1.902 -0.5053 -0.3849  0.3008
 2488TIP3   OH2 7469   3.511   2.528   2.532 -0.2145  0.7729  0.0549
 2488TIP3    H1 7470   3.586   2.469   2.540 -1.3350 -1.2421 -2.7144
 2488TIP3    H2 7471   3.538   2.595   2.470 -0.3117  0.7211 -0.0446
 2489TIP3   OH2 7472   3.811   0.027   3.636 -0.1780  0.0867 -0.3552
 2489TIP3    H1 7473   3.881  -0.008   3.580 -0.5028 -0.0123 -0.7107
 2489TIP3    H2 7474   3.850   0.102   3.681  0.4420 -0.5561  0.1917
 2490TIP3   OH2 7475   0.623   0.354   1.994 -0.4442 -0.1971  0.1706
 2490TIP3    H1 7476   0.632   0.271   2.040  2.0938  1.1887  2.4827
 2490TIP3    H2 7477   0.543   0.393   2.031 -1.0899 -1.1523 -0.1959
 2491TIP3   OH2 7478   1.725   1.920   2.464 -0.5538 -0.3321  0.2528
 2491TIP3    H1 7479   1.754   1.993   2.519  1.9069 -0.3595 -0.9051
 2491TIP3    H2 7480   1.789   1.851   2.479 -2.7472 -2.3139  1.2080
 2492TIP3   OH2 7481   5.665   3.873   4.811 -0.1117  0.5031  0.8144
 2492TIP3    H1 7482   5.646   3.794   4.861 -1.7190  0.6398  0.4583
 2492TIP3    H2 7483   5.666   3.943   4.876  0.2451  0.3459  0.9820
 2493TIP3   OH2 7484   2.034   0.449   4.113 -0.7520 -0.2271  0.2783
 2493TIP3    H1 7485   2.072   0.423   4.197 -1.1426  0.3006  0.6259
 2493TIP3    H2 7486   1.942   0.467   4.133 -0.5823  1.0741 -0.0148
 2494TIP3   OH2 7487   4.185   0.066   1.020 -0.6814  0.2400  0.0666
 2494TIP3    H1 7488   4.266   0.019   1.001 -0.6006  0.3647  0.0976
 2494TIP3    H2 7489   4.199   0.106   1.106 -1.4836 -1.2772  0.9377
 2495TIP3   OH2 7490   4.625   0.057   3.459 -0.2882  0.5707  0.6151
 2495TIP3    H1 7491   4.571   0.048   3.380  0.6164  0.5331 -0.0156
 2495TIP3    H2 7492   4.582  -0.000   3.523 -0.7580  0.2117  0.0028
 2496TIP3   OH2 7493   4.575   0.014   4.692  0.0468 -0.4071  0.0126
 2496TIP3    H1 7494   4.585   0.109   4.698  1.5225 -0.2973 -2.5461
 2496TIP3    H2 7495   4.558  -0.014   4.782 -1.5684  2.3529  0.7004
 2497TIP3   OH2 7496   4.143   3.400   2.615 -0.4739  0.3497 -0.6322
 2497TIP3    H1 7497   4.101   3.341   2.553 -1.5443  2.4427 -1.9975
 2497TIP3    H2 7498   4.089   3.478   2.614  1.7769  2.0125 -0.1393
 2498TIP3   OH2 7499   2.039   3.386   3.467 -0.5612  0.5552  0.1672
 2498TIP3    H1 7500   2.059   3.305   3.514 -0.1899  0.6665  0.2083
 2498TIP3    H2 7501   2.111   3.395   3.405 -0.5492  0.9066  0.2305
 2499TIP3   OH2 7502   2.312   5.253   0.629  0.2964 -0.4006  0.2581
 2499TIP3    H1 7503   2.401   5.225   0.652  0.5063  0.3854  0.4213
 2499TIP3    H2 7504   2.256   5.190   0.673  0.7603 -0.5536  0.6468
 2500TIP3   OH2 7505   3.734   3.460   1.172  0.5370 -0.2109 -0.0482
 2500TIP3    H1 7506   3.662   3.421   1.123  1.7665 -2.6020 -0.1374
 2500TIP3    H2 7507   3.786   3.506   1.107  0.1225 -0.1253 -0.3185
 2501TIP3   OH2 7508   1.164   4.770   4.443  1.2567 -0.0287  0.3575
 2501TIP3    H1 7509   1.197   4.840   4.387 -0.0103  0.5542  0.3136
 2501TIP3    H2 7510   1.077   4.799   4.470  1.2047 -1.0266  1.3458
 2502TIP3   OH2 7511   1.477   2.802   3.598 -0.2976 -0.1615  0.1175
 2502TIP3    H1 7512   1.492   2.813   3.692 -0.9531 -0.2851  0.2378
 2502TIP3    H2 7513   1.528   2.872   3.558  1.4101 -1.1575  0.4486
 2503TIP3   OH2 7514   0.451   0.562   2.039  0.7421 -0.3657 -0.0036
 2503TIP3    H1 7515   0.378   0.601   1.992 -1.0786 -0.8105  2.2446
 2503TIP3    H2 7516   0.481   0.630   2.099  2.1849 -0.2199 -0.8223
 2504TIP3   OH2 7517   3.812   1.571   3.419  0.1112  0.0736 -0.2912
 2504TIP3    H1 7518   3.865   1.504   3.376 -0.6553  1.0268 -2.9134
 2504TIP3    H2 7519   3.874   1.641   3.438  0.5808 -0.6224  0.8055
 2505TIP3   OH2 7520   1.097   4.919   2.979 -0.0519  0.3262  0.1221
 2505TIP3    H1 7521   1.071   5.000   2.935  0.2309 -0.8108 -2.3207
 2505TIP3    H2 7522   1.186   4.903   2.948 -0.3211 -1.2247  0.0783
 2506TIP3   OH2 7523   2.641   4.672   4.511 -0.2541 -0.7908 -0.0472
 2506TIP3    H1 7524   2.726   4.672   4.466 -1.4499  1.2062 -2.5785
 2506TIP3    H2 7525   2.664   4.675   4.604  2.4659 -0.0613 -0.6241
 2507TIP3   OH2 7526   1.311   0.859   3.693 -0.1515  0.3522 -0.3076
 2507TIP3    H1 7527   1.343   0.822   3.611  0.9263  1.1610 -0.2771
 2507TIP3    H2 7528   1.237   0.803   3.718  0.4948 -0.8565 -1.0154
 2508TIP3   OH2 7529   2.893   4.726   4.344  0.3772  0.6695 -0.4178
 2508TIP3    H1 7530   2.918   4.791   4.279  4.1874 -1.4580 -1.3404
 2508TIP3    H2 7531   2.837   4.664   4.297  2.4646 -0.4225 -1.5874
 2509TIP3   OH2 7532   5.295   2.053   4.308 -0.0719  0.2348 -0.9356
 2509TIP3    H1 7533   5.390   2.058   4.301  0.1470 -0.6393  0.8599
 2509TIP3    H2 7534   5.274   1.962   4.284 -0.0746 -0.5039  1.5398
 2510TIP3   OH2 7535   2.688   0.757   0.331  0.2419 -0.1492 -0.2035
 2510TIP3    H1 7536   2.615   0.751   0.392  0.7328 -0.9092  0.3163
 2510TIP3    H2 7537   2.763   0.782   0.385  0.3141  0.9372 -0.7825
 2511TIP3   OH2 7538   4.549   1.669   2.199 -0.1741  0.1752 -0.2048
 2511TIP3    H1 7539   4.561   1.594   2.258 -0.1077  0.8737  0.6988
 2511TIP3    H2 7540   4.494   1.635   2.128 -0.3812 -0.6576  0.3324
 2512TIP3   OH2 7541   3.941   3.554   3.383  0.1656 -0.3321 -0.3039
 2512TIP3    H1 7542   3.909   3.489   3.321 -0.9265  1.2103 -1.4272
 2512TIP3    H2 7543   3.911   3.522   3.468  0.0704 -1.5358 -0.7735
 2513TIP3   OH2 7544   3.370   0.415   1.267  0.7756 -0.1734 -0.3724
 2513TIP3    H1 7545   3.369   0.508   1.286  1.5498 -0.0027 -1.0874
 2513TIP3    H2 7546   3.280   0.394   1.241  0.3317  0.1192  0.8643
 2514TIP3   OH2 7547   4.900   2.674   0.128 -0.1902  0.5170  0.4840
 2514TIP3    H1 7548   4.970   2.724   0.170 -0.3936  2.3493 -1.2054
 2514TIP3    H2 7549   4.865   2.733   0.061 -1.2851 -1.4742 -0.8163
 2515TIP3   OH2 7550   3.944   4.233  -0.008 -0.0874 -0.2034 -0.1325
 2515TIP3    H1 7551   3.990   4.161  -0.051 -0.7584 -1.6881  1.5087
 2515TIP3    H2 7552   3.998   4.254   0.068 -1.0093 -0.4637  0.6009
 2516TIP3   OH2 7553   2.116   0.847   4.827 -0.0773 -0.1781  0.1526
 2516TIP3    H1 7554   2.079   0.781   4.887 -0.8621  0.0045 -0.1208
 2516TIP3    H2 7555   2.040   0.883   4.781 -0.0222  2.8786  2.1974
 2517TIP3   OH2 7556   3.484   1.559   0.256 -0.1516 -0.1100 -0.3253
 2517TIP3    H1 7557   3.536   1.566   0.336  1.4782  0.0322 -1.3486
 2517TIP3    H2 7558   3.498   1.642   0.210  0.9423 -1.0831 -1.8762
 2518TIP3   OH2 7559   2.863   2.028   4.264 -0.2968 -0.2318 -0.1053
 2518TIP3    H1 7560   2.791   2.002   4.322 -0.3709 -1.7628 -0.8405
 2518TIP3    H2 7561   2.914   2.090   4.316 -1.3822 -0.1587  0.9194
 2519TIP3   OH2 7562   3.157   1.682   4.527  0.3190 -0.4767 -0.1112
 2519TIP3    H1 7563   3.229   1.700   4.465 -0.9520  0.7184 -1.3081
 2519TIP3    H2 7564   3.120   1.768   4.546 -0.4838 -1.0292  0.9088
 2520TIP3   OH2 7565   4.279   4.238   1.725  0.8446  0.1531  0.3035
 2520TIP3    H1 7566   4.249   4.327   1.709 -2.3050 -0.6737  1.0042
 2520TIP3    H2 7567   4.323   4.242   1.810  0.1013  0.9104  0.6631
 2521TIP3   OH2 7568   4.937   0.522   2.994 -0.2285 -0.0384  0.2756
 2521TIP3    H1 7569   5.005   0.476   2.945 -0.0261 -0.2385  0.7293
 2521TIP3    H2 7570   4.983   0.557   3.071 -1.0628 -2.4252  2.0004
 2522TIP3   OH2 7571   3.146   5.349   1.046  0.0854  0.0335 -0.2637
 2522TIP3    H1 7572   3.093   5.343   1.126 -0.6687 -0.0165 -0.7549
 2522TIP3    H2 7573   3.235   5.326   1.074  0.6950  3.7375  1.3629
 2523TIP3   OH2 7574   3.257   3.767   2.076 -0.0284 -0.0841 -0.1344
 2523TIP3    H1 7575   3.228   3.679   2.097  0.3674  0.1512  1.5517
 2523TIP3    H2 7576   3.193   3.800   2.013 -0.1118 -1.5881 -0.8707
 2524TIP3   OH2 7577   4.293   3.861   2.789 -0.1961 -0.6296  0.4711
 2524TIP3    H1 7578   4.269   3.953   2.778 -0.4374 -0.2715  3.2289
 2524TIP3    H2 7579   4.248   3.816   2.718 -1.0568  1.2367 -0.2315
 2525TIP3   OH2 7580   3.976   5.097   1.840 -0.1741 -0.2990 -0.0898
 2525TIP3    H1 7581   4.069   5.080   1.823  0.2622  0.8322  0.9867
 2525TIP3    H2 7582   3.942   5.016   1.876  1.4618  0.4195  3.4863
 2526TIP3   OH2 7583   1.057   2.396   2.687 -0.1232 -1.0652  0.2765
 2526TIP3    H1 7584   1.067   2.383   2.592  0.4578  0.2241  0.1430
 2526TIP3    H2 7585   1.110   2.326   2.726  0.2264 -1.1696 -0.3660
 2527TIP3   OH2 7586   5.010   4.371   2.432 -0.2202  0.1796  0.2122
 2527TIP3    H1 7587   4.949   4.422   2.484  0.0450  1.8850 -1.0593
 2527TIP3    H2 7588   5.010   4.413   2.346 -0.8013 -2.6105 -1.3073
 2528TIP3   OH2 7589   2.573   0.550   1.708 -0.1583  0.5045 -0.1709
 2528TIP3    H1 7590   2.595   0.615   1.643  0.6102  0.2024 -0.2180
 2528TIP3    H2 7591   2.618   0.470   1.680 -0.1611  0.2560  0.4936
 2529TIP3   OH2 7592   3.635   5.394   1.620  0.0776 -0.3479 -0.2395
 2529TIP3    H1 7593   3.687   5.314   1.628  0.0240 -0.2863  0.9040
 2529TIP3    H2 7594   3.676   5.455   1.681 -0.3250  0.2643 -0.5697
 2530TIP3   OH2 7595   3.483   5.840   4.861  0.3086  0.2642  0.1814
 2530TIP3    H1 7596   3.489   5.881   4.775 -2.3693  1.1884  0.3330
 2530TIP3    H2 7597   3.486   5.746   4.844  0.0425  0.4474 -0.9035
 2531TIP3   OH2 7598   2.833   2.515   5.120 -0.0447  0.3991  0.0950
 2531TIP3    H1 7599   2.804   2.603   5.097  0.5936  0.3376 -1.0200
 2531TIP3    H2 7600   2.928   2.521   5.127  0.1137 -0.4014 -1.0231
 2532TIP3   OH2 7601   3.298   2.888   3.578  0.3583  0.6214  0.0930
 2532TIP3    H1 7602   3.298   2.966   3.634  1.1938  0.0445  0.9197
 2532TIP3    H2 7603   3.280   2.816   3.638  1.9819 -0.0879 -0.2416
 2533TIP3   OH2 7604   1.536   4.800   0.970 -0.2004  0.1736  0.2962
 2533TIP3    H1 7605   1.508   4.716   1.006  0.3449 -0.9662 -1.7952
 2533TIP3    H2 7606   1.524   4.791   0.875  1.7620  1.7345 -0.1650
 2534TIP3   OH2 7607   5.589   5.185   2.354 -0.1865  0.4221 -0.5125
 2534TIP3    H1 7608   5.505   5.177   2.308 -0.2868 -0.2747 -0.2280
 2534TIP3    H2 7609   5.630   5.262   2.316 -1.0940  0.9554 -0.4317
 2535TIP3   OH2 7610   3.318   4.664   0.434 -0.1759  0.1019  0.3838
 2535TIP3    H1 7611   3.388   4.631   0.490 -1.9452 -2.1895  1.3891
 2535TIP3    H2 7612   3.296   4.749   0.471  0.8477  0.0586  1.1467
 2536TIP3   OH2 7613   0.008   5.993   4.578 -0.5232 -0.4663 -0.0574
 2536TIP3    H1 7614   0.067   6.024   4.647 -0.4712  2.5046 -1.2706
 2536TIP3    H2 7615   0.033   5.902   4.564  0.8307 -0.5659  2.4083
 2537TIP3   OH2 7616   0.874   3.625   4.339 -0.2868  0.2728 -0.1673
 2537TIP3    H1 7617   0.797   3.659   4.384  0.4190  1.8965 -0.1014
 2537TIP3    H2 7618   0.940   3.613   4.408  0.8003  2.7762 -0.6699
 2538TIP3   OH2 7619   1.856   2.522   1.172  0.7942  0.3027 -0.2139
 2538TIP3    H1 7620   1.771   2.557   1.198 -0.6155 -0.3756 -3.4867
 2538TIP3    H2 7621   1.920   2.579   1.215 -1.3492  2.9686 -0.3595
 2539TIP3   OH2 7622   0.203   4.819   2.077  0.1247  0.3624 -0.1348
 2539TIP3    H1 7623   0.241   4.782   2.157 -2.9506 -1.0327  0.8586
 2539TIP3    H2 7624   0.170   4.743   2.030  2.0825  1.1326 -2.9697
 2540TIP3   OH2 7625   5.617   1.534   1.685 -0.0364  0.3284 -0.2231
 2540TIP3    H1 7626   5.666   1.540   1.767  0.4168  0.5467 -0.5000
 2540TIP3    H2 7627   5.535   1.491   1.708  0.6162 -0.7908  0.1206
 2541TIP3   OH2 7628   4.346   5.475   3.339 -0.2697  0.1703 -0.2688
 2541TIP3    H1 7629   4.416   5.440   3.285  0.3077 -0.7365  1.0323
 2541TIP3    H2 7630   4.311   5.400   3.386 -0.7150  0.9428  0.6767
 2542TIP3   OH2 7631   5.507   5.207   0.601 -0.1864  0.2838 -0.1212
 2542TIP3    H1 7632   5.534   5.128   0.554 -0.9182  0.2799 -0.5367
 2542TIP3    H2 7633   5.515   5.278   0.538  0.8936  0.6320  0.3763
 2543TIP3   OH2 7634   3.793   5.718   0.633  0.2138 -0.3418 -0.6784
 2543TIP3    H1 7635   3.710   5.761   0.654  0.7514  0.5689 -0.3553
 2543TIP3    H2 7636   3.821   5.679   0.716  0.6662  0.3534 -0.4887
 2544TIP3   OH2 7637   0.060   5.067   1.068 -0.2827  0.4176  0.1293
 2544TIP3    H1 7638   0.058   5.154   1.108 -0.0148 -0.3160  1.8200
 2544TIP3    H2 7639  -0.012   5.068   1.005 -0.9887  1.4990  0.9214
 2545TIP3   OH2 7640   3.308   2.572   0.328 -0.2912 -0.5353  0.3553
 2545TIP3    H1 7641   3.343   2.517   0.258 -0.6911 -1.1120  0.6040
 2545TIP3    H2 7642   3.243   2.627   0.285  0.7968  0.4500 -0.0857
 2546TIP3   OH2 7643   5.595   0.185   0.393 -0.0377  0.0303  0.5051
 2546TIP3    H1 7644   5.679   0.140   0.380 -1.0437 -1.2599 -2.1838
 2546TIP3    H2 7645   5.533   0.114   0.408 -1.2382  0.6509 -1.2376
 2547TIP3   OH2 7646   1.116   2.918   0.408 -0.3629  0.5675 -0.3256
 2547TIP3    H1 7647   1.084   2.834   0.441 -1.4697  0.8554 -0.6153
 2547TIP3    H2 7648   1.209   2.903   0.391 -1.0642 -1.4776 -3.0243
 2548TIP3   OH2 7649   0.055   0.600   1.611 -0.0946 -0.0695  0.1920
 2548TIP3    H1 7650   0.087   0.512   1.629 -0.4626 -0.2457  0.0088
 2548TIP3    H2 7651  -0.025   0.607   1.663 -0.4044 -0.0726 -0.2723
 2549TIP3   OH2 7652   1.602   1.686   4.136  0.0358  0.0079  0.0904
 2549TIP3    H1 7653   1.637   1.770   4.105  1.1642 -0.6569 -0.4892
 2549TIP3    H2 7654   1.568   1.705   4.223  1.2558  0.8534  0.4112
 2550TIP3   OH2 7655   2.770   2.846   0.783  0.1929 -0.3686 -0.7741
 2550TIP3    H1 7656   2.865   2.833   0.784  0.3163  0.4033  0.9696
 2550TIP3    H2 7657   2.758   2.938   0.759 -0.2062 -0.7572 -2.2016
 2551TIP3   OH2 7658   2.321   0.331   1.654  0.3336 -0.2145 -0.0344
 2551TIP3    H1 7659   2.259   0.398   1.682 -0.0071 -1.3439  2.0475
 2551TIP3    H2 7660   2.406   0.375   1.657  0.0355  0.3391  0.5881
 2552TIP3   OH2 7661   5.667   5.870   3.806 -0.0446 -0.0014  0.0419
 2552TIP3    H1 7662   5.705   5.934   3.746 -0.4088  0.5279  0.3653
 2552TIP3    H2 7663   5.735   5.804   3.817  0.4563  0.4882 -0.0709
 2553TIP3   OH2 7664   5.123   5.631   2.321 -0.1974 -0.2160  0.4314
 2553TIP3    H1 7665   5.140   5.725   2.321 -0.6024 -0.1372  0.2686
 2553TIP3    H2 7666   5.110   5.609   2.413  0.1024 -0.1538  0.4903
 2554TIP3   OH2 7667   1.096   0.536   4.929  0.1156 -0.2654  0.5358
 2554TIP3    H1 7668   1.048   0.464   4.969  0.5324 -0.4607  0.6908
 2554TIP3    H2 7669   1.059   0.615   4.970  0.2173 -0.4379  0.9650
 2555TIP3   OH2 7670   3.239   5.894   3.774 -0.3871  0.0700 -0.1945
 2555TIP3    H1 7671   3.320   5.936   3.747 -0.8488  2.1784  1.4835
 2555TIP3    H2 7672   3.261   5.847   3.854 -0.2350 -1.7830 -1.2499
 2556TIP3   OH2 7673   1.122   1.469   1.219 -0.4526  0.1827  1.0104
 2556TIP3    H1 7674   1.174   1.550   1.225  1.2592 -0.5462 -2.0589
 2556TIP3    H2 7675   1.181   1.400   1.249 -1.5191 -0.1494  2.4901
 2557TIP3   OH2 7676   2.786   1.418   0.861 -0.0149  0.0411  0.0488
 2557TIP3    H1 7677   2.837   1.401   0.782  0.1344  1.9720 -0.3325
 2557TIP3    H2 7678   2.696   1.396   0.837 -0.0298  0.9556 -0.8182
 2558TIP3   OH2 7679   1.583   2.960   4.252  0.1129 -0.4594 -0.1896
 2558TIP3    H1 7680   1.524   2.885   4.261  0.0660 -0.6093 -1.5100
 2558TIP3    H2 7681   1.540   3.016   4.188  0.7294  0.1088 -0.1091
 2559TIP3   OH2 7682   5.459   4.461   1.073  0.1598  0.0069 -0.3256
 2559TIP3    H1 7683   5.502   4.407   1.007  1.9036 -1.2369  1.7028
 2559TIP3    H2 7684   5.523   4.529   1.095 -0.6299  0.7707 -0.3095
 2560TIP3   OH2 7685   6.184   2.159   0.693 -0.4231  0.6260 -0.1683
 2560TIP3    H1 7686   6.203   2.217   0.767  1.4124 -1.6442  1.2761
 2560TIP3    H2 7687   6.113   2.102   0.725  0.4407 -0.4263 -0.0798
 2561TIP3   OH2 7688   4.313   0.906   2.872 -0.2771  0.2926 -0.2247
 2561TIP3    H1 7689   4.249   0.856   2.924 -0.1651  0.0545 -0.3155
 2561TIP3    H2 7690   4.383   0.843   2.853 -0.0066  0.5579 -0.1124
 2562TIP3   OH2 7691   4.980   0.380   0.413 -0.6491 -0.1166 -0.4725
 2562TIP3    H1 7692   5.065   0.411   0.445 -1.4533  1.0572  0.6184
 2562TIP3    H2 7693   4.983   0.285   0.426 -0.4953  0.1585  2.1585
 2563TIP3   OH2 7694   2.264   2.681   3.342  0.3279 -0.4300 -0.2755
 2563TIP3    H1 7695   2.269   2.764   3.390  1.4889 -0.3080 -0.5807
 2563TIP3    H2 7696   2.336   2.628   3.378 -0.2182 -1.1982 -0.2939
 2564TIP3   OH2 7697   1.981   1.290   1.721 -0.1469 -0.4244  0.1329
 2564TIP3    H1 7698   2.020   1.230   1.785 -0.9314  1.4918  2.5835
 2564TIP3    H2 7699   1.923   1.234   1.669 -0.2461 -1.9655  1.7685
 2565TIP3   OH2 7700   0.018   4.072   2.630 -0.0503  1.1598 -0.3440
 2565TIP3    H1 7701   0.084   4.117   2.579  0.9620 -0.1444 -0.2210
 2565TIP3    H2 7702  -0.046   4.140   2.652 -0.1657  1.8972 -2.7104
 2566TIP3   OH2 7703   4.603   0.648   2.060 -0.5709 -0.2243 -0.0216
 2566TIP3    H1 7704   4.520   0.681   2.096  0.3633  1.6410  0.5782
 2566TIP3    H2 7705   4.589   0.554   2.050 -1.8655 -0.4043  2.5918
 2567TIP3   OH2 7706   3.924   3.802   4.665 -0.1465 -0.0588  0.1973
 2567TIP3    H1 7707   3.947   3.790   4.573  0.9645  4.0631 -0.3035
 2567TIP3    H2 7708   4.003   3.775   4.713  1.7661  3.2415 -0.6972
 2568TIP3   OH2 7709   2.536   5.297   4.623 -0.3784 -0.1830  0.1404
 2568TIP3    H1 7710   2.477   5.314   4.697 -1.1075 -1.9796  0.0266
 2568TIP3    H2 7711   2.588   5.222   4.651  0.5166  0.1665 -0.5338
 2569TIP3   OH2 7712   4.279   3.075   0.209  0.0227 -0.5499 -0.7789
 2569TIP3    H1 7713   4.342   3.011   0.243  0.2930  0.5244  0.8870
 2569TIP3    H2 7714   4.198   3.057   0.257  0.5509  1.3231  1.0102
 2570TIP3   OH2 7715   4.639   2.934   1.861 -0.1129  0.6824  0.0238
 2570TIP3    H1 7716   4.703   2.923   1.791  0.3259 -1.2469  0.6896
 2570TIP3    H2 7717   4.581   3.004   1.830  0.1385 -0.0423 -2.1946
 2571TIP3   OH2 7718   4.641   0.185   2.267  0.4267  0.0932 -0.8599
 2571TIP3    H1 7719   4.660   0.268   2.311 -1.8653  0.4562 -0.4574
 2571TIP3    H2 7720   4.702   0.123   2.307 -0.4226  0.7705  1.6695
 2572TIP3   OH2 7721   3.154   5.747   2.081  0.3000 -0.0564 -0.1437
 2572TIP3    H1 7722   3.127   5.812   2.016  2.6667  1.0445 -0.1119
 2572TIP3    H2 7723   3.215   5.690   2.034  1.7658  0.5399  0.9638
 2573TIP3   OH2 7724   0.769   1.928   5.028 -0.1161 -0.2910 -0.1292
 2573TIP3    H1 7725   0.758   1.860   5.094  1.1287 -0.5100 -0.1333
 2573TIP3    H2 7726   0.824   1.888   4.961  0.2111  0.5581 -0.3735
 2574TIP3   OH2 7727   5.890   5.604   1.184 -0.2935  0.1976 -0.0796
 2574TIP3    H1 7728   5.899   5.544   1.110 -0.4944  1.0408 -0.8160
 2574TIP3    H2 7729   5.965   5.663   1.177  0.2019 -0.2900  0.9542
 2575TIP3   OH2 7730   1.434   3.095   3.029  0.2708 -0.3328  0.2220
 2575TIP3    H1 7731   1.488   3.088   2.951  0.0971 -1.4163  0.1830
 2575TIP3    H2 7732   1.440   3.009   3.070  1.7056  0.6711  2.3025
 2576TIP3   OH2 7733   4.646   3.973   1.256 -0.0495 -0.0559  0.3631
 2576TIP3    H1 7734   4.555   4.001   1.255  0.0204  0.2214  1.1575
 2576TIP3    H2 7735   4.652   3.907   1.186 -0.8209  0.0252  0.2179
 2577TIP3   OH2 7736   2.124   2.393   4.253  0.0853 -0.1762 -0.2282
 2577TIP3    H1 7737   2.045   2.339   4.264 -0.2098  0.1704 -0.5817
 2577TIP3    H2 7738   2.090   2.482   4.246  0.5394  0.0097 -0.0655
 2578TIP3   OH2 7739   2.063   0.326   2.898  0.5871  0.3920 -0.5030
 2578TIP3    H1 7740   2.069   0.373   2.814 -1.3981  1.0968 -0.3010
 2578TIP3    H2 7741   1.976   0.348   2.931  0.0636 -2.4701  0.2214
 2579TIP3   OH2 7742   4.528   0.587   0.441  0.0227  0.5350  0.1143
 2579TIP3    H1 7743   4.580   0.536   0.503 -1.3213 -2.9067 -1.3091
 2579TIP3    H2 7744   4.449   0.612   0.490 -0.7499 -1.6227  0.0868
 2580TIP3   OH2 7745   4.144   5.236   1.481  0.2072 -0.1024  0.1435
 2580TIP3    H1 7746   4.058   5.221   1.522  0.6754 -0.9815  0.8280
 2580TIP3    H2 7747   4.201   5.169   1.519  1.7259  1.7486  1.2487
 2581TIP3   OH2 7748   1.553   2.588   2.021 -0.0187  0.1282  0.1068
 2581TIP3    H1 7749   1.637   2.624   2.050  0.1588 -0.4989  0.4080
 2581TIP3    H2 7750   1.575   2.500   1.990 -0.6017 -0.1235  0.4004
 2582TIP3   OH2 7751   5.297   5.492   0.662  0.1165 -0.3722 -0.0181
 2582TIP3    H1 7752   5.350   5.426   0.705  1.8394  0.8392 -0.1522
 2582TIP3    H2 7753   5.238   5.443   0.605  0.9027 -1.7962  0.3534
 2583TIP3   OH2 7754   1.840   2.070   0.032 -0.0550 -0.0870 -0.1815
 2583TIP3    H1 7755   1.812   2.079   0.123 -0.6025 -1.0066 -0.2465
 2583TIP3    H2 7756   1.909   2.135   0.022  0.3754 -0.3256  1.0359
 2584TIP3   OH2 7757   0.639   3.464   1.571  0.1762  0.2020 -0.5157
 2584TIP3    H1 7758   0.616   3.515   1.493 -1.6080 -1.0067 -0.8347
 2584TIP3    H2 7759   0.665   3.379   1.537  0.6055  0.0595  0.1563
 2585TIP3   OH2 7760   3.227   2.172   1.739  0.5021  0.3160  0.1469
 2585TIP3    H1 7761   3.258   2.208   1.656 -0.6744  0.8923 -0.0601
 2585TIP3    H2 7762   3.304   2.173   1.796  1.0509  0.9541 -0.5878
 2586TIP3   OH2 7763   5.559   0.269   2.156 -0.0069  0.3744  0.4968
 2586TIP3    H1 7764   5.554   0.359   2.123 -0.4978 -0.5494 -2.2398
 2586TIP3    H2 7765   5.472   0.233   2.140  0.2264 -0.6466  1.4182
 2587TIP3   OH2 7766   0.746   0.598   0.610  0.0379  0.4987  0.5713
 2587TIP3    H1 7767   0.698   0.522   0.575 -2.5178  1.5763  1.5292
 2587TIP3    H2 7768   0.796   0.631   0.535 -1.9484  0.2058 -0.9697
 2588TIP3   OH2 7769   1.773   2.879   1.774  0.0109  0.0193  0.1115
 2588TIP3    H1 7770   1.840   2.926   1.825  0.4887  0.7588 -1.1388
 2588TIP3    H2 7771   1.690   2.907   1.812  0.3887 -0.7598  1.5642
 2589TIP3   OH2 7772   2.065   3.692   2.040  0.7401 -0.2824  0.4277
 2589TIP3    H1 7773   2.118   3.687   1.961 -1.2856  2.1780 -1.2717
 2589TIP3    H2 7774   2.115   3.748   2.099  0.4154  1.5157 -0.9120
 2590TIP3   OH2 7775   2.837   3.295   3.031 -0.1662  0.2766 -0.5565
 2590TIP3    H1 7776   2.791   3.377   3.048  1.0814  0.7426  0.7272
 2590TIP3    H2 7777   2.793   3.231   3.087 -0.5176  0.2693 -0.8352
 2591TIP3   OH2 7778   0.942   3.327   1.831 -0.1827 -0.0913  0.2982
 2591TIP3    H1 7779   0.885   3.400   1.805 -0.5012 -0.2625  0.4974
 2591TIP3    H2 7780   0.894   3.249   1.802  0.6912 -0.1857 -0.9449
 2592TIP3   OH2 7781   3.107   5.224   3.554 -0.2873 -0.6787  0.5025
 2592TIP3    H1 7782   3.184   5.280   3.561 -0.8069  0.2098 -0.5721
 2592TIP3    H2 7783   3.075   5.216   3.643 -0.4613  1.1235  0.6327
 2593TIP3   OH2 7784   3.203   4.441   3.684  0.0669  0.6040 -0.2254
 2593TIP3    H1 7785   3.122   4.421   3.638 -2.2317  3.4097  2.1809
 2593TIP3    H2 7786   3.223   4.361   3.734 -1.5397  0.0498 -0.4344
 2594TIP3   OH2 7787   1.159   5.076   0.193  0.0530  0.3500 -0.2624
 2594TIP3    H1 7788   1.201   5.009   0.139  0.2204  0.2742 -0.0379
 2594TIP3    H2 7789   1.165   5.042   0.282 -0.3037  0.4334 -0.2056
 2595TIP3   OH2 7790   4.706   0.335   3.214 -0.3187 -0.2047  0.1164
 2595TIP3    H1 7791   4.766   0.275   3.170  0.0349 -0.1164  0.4734
 2595TIP3    H2 7792   4.619   0.297   3.200 -0.2534 -0.0019 -0.9478
 2596TIP3   OH2 7793   5.474   5.604   3.195  0.1883 -0.3404  0.4325
 2596TIP3    H1 7794   5.554   5.587   3.144 -0.3646 -1.5234 -0.0760
 2596TIP3    H2 7795   5.505   5.654   3.271  1.1240  0.9331 -0.7277
 2597TIP3   OH2 7796   3.692   3.913   2.849 -0.4226  0.2928 -0.3784
 2597TIP3    H1 7797   3.788   3.912   2.852 -0.4081  0.2817 -0.7214
 2597TIP3    H2 7798   3.671   3.892   2.757 -0.7745 -1.0775 -0.0133
 2598TIP3   OH2 7799   0.412   3.563   2.291  0.2691  0.0204 -0.4187
 2598TIP3    H1 7800   0.408   3.570   2.386 -0.6893 -1.9710 -0.2625
 2598TIP3    H2 7801   0.322   3.551   2.263  0.6145 -0.2672 -1.4778
 2599TIP3   OH2 7802   4.056   4.345   3.422 -0.6453 -0.1531 -0.0038
 2599TIP3    H1 7803   4.129   4.296   3.385 -1.2677  1.0064 -3.0788
 2599TIP3    H2 7804   3.979   4.312   3.376 -1.1612  3.0340 -1.7243
 2600TIP3   OH2 7805   1.330   4.109   1.302  0.3588  0.0859 -0.5836
 2600TIP3    H1 7806   1.257   4.118   1.363  1.4798  0.0737  0.7829
 2600TIP3    H2 7807   1.373   4.027   1.327  2.2150  1.2289  0.1810
 2601TIP3   OH2 7808   1.773   2.508   0.902 -0.3232 -0.2560  0.1687
 2601TIP3    H1 7809   1.805   2.508   0.992  1.3521  0.9441 -0.3624
 2601TIP3    H2 7810   1.853   2.518   0.849 -1.4076  0.6265 -1.3705
 2602TIP3   OH2 7811   1.702   5.436   5.168 -0.0662 -0.1375  0.0433
 2602TIP3    H1 7812   1.681   5.524   5.199  2.0333  0.7456 -0.8412
 2602TIP3    H2 7813   1.618   5.396   5.150 -1.0587  2.2604 -1.0401
 2603TIP3   OH2 7814   4.973   4.508   4.366 -0.1489 -0.2597 -0.0077
 2603TIP3    H1 7815   4.946   4.586   4.416  1.3331  0.6726 -0.5910
 2603TIP3    H2 7816   4.958   4.435   4.426 -1.6782  0.4424  0.5255
 2604TIP3   OH2 7817   5.907   3.595   0.351  0.1299  0.7107 -0.2479
 2604TIP3    H1 7818   5.972   3.664   0.337  0.6555  0.2903  0.1063
 2604TIP3    H2 7819   5.827   3.629   0.310  0.9197  0.6382 -1.9252
 2605TIP3   OH2 7820   0.254   0.674   0.519 -0.6137 -0.1736  0.9004
 2605TIP3    H1 7821   0.338   0.675   0.473 -0.0488 -1.7722  1.8259
 2605TIP3    H2 7822   0.188   0.683   0.449  0.2070 -2.4416 -0.2725
 2606TIP3   OH2 7823   4.042   3.040   2.860 -0.1749  0.0683  0.0226
 2606TIP3    H1 7824   3.981   3.011   2.792 -0.3918 -2.6743  1.2492
 2606TIP3    H2 7825   4.105   2.969   2.868  1.4810  1.5453  0.8328
 2607TIP3   OH2 7826   5.739   3.663   1.140 -0.5696 -0.0601 -0.0384
 2607TIP3    H1 7827   5.760   3.756   1.139 -0.9766  0.0373 -1.3879
 2607TIP3    H2 7828   5.823   3.619   1.153 -0.3792  0.4910  0.6219
 2608TIP3   OH2 7829   3.331   5.062   1.218 -0.0571  0.4894 -0.9370
 2608TIP3    H1 7830   3.348   5.156   1.208 -2.5058  0.9445 -1.4484
 2608TIP3    H2 7831   3.237   5.052   1.199  0.0668 -2.0259 -0.5914
 2609TIP3   OH2 7832   0.226   1.863   1.340  0.4032  0.2973  0.1817
 2609TIP3    H1 7833   0.258   1.952   1.352 -0.4976  0.9919 -2.1003
 2609TIP3    H2 7834   0.305   1.810   1.328  0.9017  0.9144  0.6880
 2610TIP3   OH2 7835   1.953   3.874   3.816  0.1178 -0.4081  0.3390
 2610TIP3    H1 7836   1.909   3.942   3.868  1.0270  0.2778  0.2417
 2610TIP3    H2 7837   1.882   3.825   3.776 -0.5661  0.6624  0.1929
 2611TIP3   OH2 7838   3.926   1.824   4.243  0.3521  0.1395 -0.2734
 2611TIP3    H1 7839   3.854   1.885   4.225  0.4764  0.9711  1.7108
 2611TIP3    H2 7840   4.005   1.873   4.219  0.3235 -0.5641 -1.9181
 2612TIP3   OH2 7841   0.514   1.089   3.243  0.3007 -0.6909 -0.4227
 2612TIP3    H1 7842   0.595   1.054   3.280  0.1898 -0.2078  0.2939
 2612TIP3    H2 7843   0.493   1.165   3.297  1.0841  1.1361 -2.5325
 2613TIP3   OH2 7844   2.651   4.160   0.430 -0.0997  0.0301 -0.1066
 2613TIP3    H1 7845   2.689   4.140   0.344 -1.9057  0.5457 -1.0812
 2613TIP3    H2 7846   2.716   4.129   0.493  0.9197 -1.1076 -1.6432
 2614TIP3   OH2 7847   2.677   2.596   3.276 -0.1116  0.2859 -0.3142
 2614TIP3    H1 7848   2.604   2.536   3.263  0.2513 -0.3356  0.4232
 2614TIP3    H2 7849   2.736   2.549   3.335  1.7871 -0.0322 -2.3355
 2615TIP3   OH2 7850   0.344   5.728   4.797 -0.4536 -1.1959 -0.7311
 2615TIP3    H1 7851   0.292   5.733   4.717 -1.3196 -1.2936 -0.1887
 2615TIP3    H2 7852   0.424   5.681   4.771  1.0036  1.9399 -2.3984
 2616TIP3   OH2 7853   1.599   3.418   0.606 -0.3129 -0.1518  0.3074
 2616TIP3    H1 7854   1.621   3.361   0.532  1.6915  1.6171 -0.5499
 2616TIP3    H2 7855   1.663   3.395   0.673  0.0985  0.6343  0.1916
 2617TIP3   OH2 7856   2.855   5.079   3.576  0.4980  0.2188  0.0237
 2617TIP3    H1 7857   2.925   5.142   3.592  0.7140 -0.0715  0.2302
 2617TIP3    H2 7858   2.876   5.040   3.491  1.0679 -0.4953  0.4849
 2618TIP3   OH2 7859   0.973   5.856   2.843 -0.2049 -0.1940 -0.6892
 2618TIP3    H1 7860   1.055   5.903   2.855 -0.3049  0.7325 -3.0559
 2618TIP3    H2 7861   0.998   5.763   2.842  0.5103 -0.0285  0.4287
 2619TIP3   OH2 7862   3.346   1.417   4.744 -0.8824 -0.3910 -0.0839
 2619TIP3    H1 7863   3.285   1.484   4.775 -0.7580 -0.2815 -0.0754
 2619TIP3    H2 7864   3.429   1.463   4.735 -1.2671  0.0020 -2.1487
 2620TIP3   OH2 7865   0.094   3.054   2.479  0.1563 -0.2410  0.0936
 2620TIP3    H1 7866   0.008   3.091   2.497 -0.3716 -1.6094  0.5506
 2620TIP3    H2 7867   0.099   3.049   2.384  0.3114  1.1070  0.0163
 2621TIP3   OH2 7868   6.340   2.394   3.997  0.3018 -0.4355 -0.4024
 2621TIP3    H1 7869   6.319   2.450   4.071 -1.7481 -1.0958 -0.4042
 2621TIP3    H2 7870   6.362   2.455   3.926 -0.8721  0.3485 -0.1191
 2622TIP3   OH2 7871   3.727   3.144   2.532  0.3864  0.3286  0.4448
 2622TIP3    H1 7872   3.655   3.156   2.470 -0.8654  0.0831  1.7951
 2622TIP3    H2 7873   3.684   3.134   2.617  1.9169 -1.8091  1.0388
 2623TIP3   OH2 7874   2.911   3.463   1.444 -0.0611  0.5489  0.7695
 2623TIP3    H1 7875   2.831   3.413   1.462 -0.3184  0.5457 -0.3413
 2623TIP3    H2 7876   2.902   3.542   1.498 -0.4046  0.1561  1.3040
 2624TIP3   OH2 7877   5.462   0.777   3.876 -0.0573 -0.0830  0.0941
 2624TIP3    H1 7878   5.548   0.738   3.894  0.5512  0.7139 -0.9246
 2624TIP3    H2 7879   5.431   0.807   3.961 -0.8550 -3.2338  1.0810
 2625TIP3   OH2 7880   3.189   4.615   4.194  0.2277 -0.3665  0.0784
 2625TIP3    H1 7881   3.151   4.698   4.224 -1.0910 -1.6737  2.2746
 2625TIP3    H2 7882   3.183   4.619   4.099  0.7157  2.2622  0.0833
 2626TIP3   OH2 7883   6.267   3.696   4.752  0.0288  0.3793  0.5857
 2626TIP3    H1 7884   6.295   3.625   4.809  0.2643  0.3356  0.4199
 2626TIP3    H2 7885   6.199   3.658   4.697  0.3549  0.1975  0.3010
 2627TIP3   OH2 7886   3.789   5.492   2.742  0.4638 -0.3088 -0.5159
 2627TIP3    H1 7887   3.804   5.415   2.797 -0.5305  0.1982  0.4990
 2627TIP3    H2 7888   3.695   5.491   2.723  0.3665  0.8111 -0.2124
 2628TIP3   OH2 7889   0.220   2.921   2.865  0.1885  0.6633  0.9955
 2628TIP3    H1 7890   0.302   2.920   2.914 -0.2598  0.6787  1.7574
 2628TIP3    H2 7891   0.154   2.950   2.928 -0.5260 -0.0096  0.5745
 2629TIP3   OH2 7892   1.290   3.457   4.909  0.4766  0.4260  0.2039
 2629TIP3    H1 7893   1.262   3.382   4.857  0.0196  0.7319  0.0094
 2629TIP3    H2 7894   1.373   3.484   4.869 -0.1674  1.0323 -0.7506
 2630TIP3   OH2 7895   3.060   5.579   3.473  0.1448 -0.1619 -0.3401
 2630TIP3    H1 7896   3.014   5.645   3.524  0.1985 -0.4755  0.1247
 2630TIP3    H2 7897   3.028   5.590   3.383  2.1420  2.2874 -0.8447
 2631TIP3   OH2 7898   4.161   3.770   2.550 -0.2062 -0.7997  0.0924
 2631TIP3    H1 7899   4.190   3.704   2.487 -2.1602 -2.2845  0.6117
 2631TIP3    H2 7900   4.067   3.754   2.559  0.0192 -0.9682  3.6705
 2632TIP3   OH2 7901   6.128   0.827   1.608  0.4068 -0.1687  0.2779
 2632TIP3    H1 7902   6.063   0.895   1.589  0.0198  0.0141  2.0953
 2632TIP3    H2 7903   6.121   0.766   1.534 -0.2534  0.9986 -0.6673
 2633TIP3   OH2 7904   2.658   5.039   0.449 -0.0035  0.1473 -0.0412
 2633TIP3    H1 7905   2.674   5.092   0.370 -2.9204  1.0234 -0.1648
 2633TIP3    H2 7906   2.700   5.088   0.519 -0.7605  1.5062 -0.4946
 2634TIP3   OH2 7907   0.261   4.269   3.223 -0.7961 -0.0398 -0.2578
 2634TIP3    H1 7908   0.251   4.212   3.146 -0.3166  2.0364 -1.9466
 2634TIP3    H2 7909   0.353   4.261   3.246 -0.3909  1.0451 -1.3760
 2635TIP3   OH2 7910   6.207   2.662   0.480  0.0027 -0.1720 -0.2356
 2635TIP3    H1 7911   6.173   2.622   0.560 -3.0932  0.3068 -1.1761
 2635TIP3    H2 7912   6.222   2.589   0.421  0.0961 -0.3651  0.0233
 2636TIP3   OH2 7913   0.268   0.885   0.715  0.1319 -0.4603  0.0300
 2636TIP3    H1 7914   0.176   0.889   0.741 -0.0633 -0.2623 -0.6592
 2636TIP3    H2 7915   0.266   0.866   0.621  0.7318  1.4609 -0.4337
 2637TIP3   OH2 7916   1.957   1.724   4.727  0.1032  0.7069  0.3640
 2637TIP3    H1 7917   1.932   1.633   4.709  0.0689  0.9401 -0.8747
 2637TIP3    H2 7918   1.939   1.770   4.645  0.8833  1.6722  0.7190
 2638TIP3   OH2 7919   0.791   4.604   3.703  0.2560 -0.2074 -0.4766
 2638TIP3    H1 7920   0.809   4.690   3.667 -0.8716  0.9951  1.6060
 2638TIP3    H2 7921   0.731   4.621   3.776 -0.0812 -2.7733 -0.0641
 2639TIP3   OH2 7922   5.262   5.406   3.501 -0.3520 -0.8408 -0.2088
 2639TIP3    H1 7923   5.356   5.410   3.482 -0.1968  1.3401  0.7817
 2639TIP3    H2 7924   5.257   5.390   3.595 -1.0233 -1.8080 -0.3880
 2640TIP3   OH2 7925   4.401   5.858   5.114 -0.4104  0.3402 -0.1377
 2640TIP3    H1 7926   4.387   5.765   5.099  0.3157 -0.2476  2.3674
 2640TIP3    H2 7927   4.314   5.892   5.135 -0.6906  0.2880 -1.1350
 2641TIP3   OH2 7928   1.057   3.155   2.127  0.4975  0.1803  0.0426
 2641TIP3    H1 7929   1.081   3.154   2.220  0.5561 -2.1810  0.0643
 2641TIP3    H2 7930   1.138   3.133   2.082 -0.3350 -2.5821 -0.2508
 2642TIP3   OH2 7931   3.279   1.931   1.548  0.4593  0.4977 -0.5522
 2642TIP3    H1 7932   3.216   1.981   1.496 -0.0236 -0.5295 -0.9906
 2642TIP3    H2 7933   3.363   1.974   1.534  0.4050  0.0554 -2.4767
 2643TIP3   OH2 7934   5.999   5.235   3.495  0.4739 -0.4261  0.5003
 2643TIP3    H1 7935   5.927   5.285   3.455 -0.1850 -1.8663 -0.1815
 2643TIP3    H2 7936   6.074   5.250   3.437  0.4232  0.1707  0.5831
 2644TIP3   OH2 7937   3.069   5.898   0.207 -0.2009  0.7606  0.4854
 2644TIP3    H1 7938   3.035   5.855   0.286  0.6371  0.5821  0.7590
 2644TIP3    H2 7939   3.059   5.991   0.225 -2.3824  0.7209 -0.2679
 2645TIP3   OH2 7940   3.957   0.887   4.973  0.3819  0.4129  0.5488
 2645TIP3    H1 7941   3.882   0.944   4.990  0.6369  0.5563  1.2266
 2645TIP3    H2 7942   4.017   0.942   4.922  0.1472  0.3852  0.2390
 2646TIP3   OH2 7943   4.326   4.645   1.790  0.0272 -0.2582 -0.0349
 2646TIP3    H1 7944   4.246   4.612   1.832  0.5579 -0.5589  0.7676
 2646TIP3    H2 7945   4.396   4.590   1.825  0.6569  0.3357 -0.3323
 2647TIP3   OH2 7946   3.087   5.041   4.588 -0.0403  0.2522  0.0893
 2647TIP3    H1 7947   3.179   5.014   4.585 -0.1306 -0.0221 -1.7244
 2647TIP3    H2 7948   3.068   5.071   4.499 -1.4685  1.1873  0.6616
 2648TIP3   OH2 7949   0.979   2.169   4.560  0.1540  0.6541 -0.2714
 2648TIP3    H1 7950   1.040   2.239   4.584  0.0898  0.6258 -0.0214
 2648TIP3    H2 7951   0.916   2.167   4.631  0.2160  0.2709 -0.2237
 2649TIP3   OH2 7952   5.213   1.461   0.063  0.0262 -0.2164  0.0977
 2649TIP3    H1 7953   5.236   1.504   0.145  1.3707 -0.6636 -0.0212
 2649TIP3    H2 7954   5.190   1.371   0.088 -1.4602  0.1607  0.1874
 2650TIP3   OH2 7955   1.418   1.374   1.115  0.2030  0.4251  0.0208
 2650TIP3    H1 7956   1.350   1.405   1.055  0.2349  0.4603  0.0026
 2650TIP3    H2 7957   1.487   1.439   1.108 -0.4196  1.2427  1.2400
 2651TIP3   OH2 7958   5.480   1.149   2.832  0.0582  0.0041 -0.3813
 2651TIP3    H1 7959   5.509   1.134   2.742  2.0473 -0.5360  0.2994
 2651TIP3    H2 7960   5.385   1.149   2.826 -0.0838  4.1984 -3.2046
 2652TIP3   OH2 7961   0.417   2.285   0.775  0.1416 -0.4190 -0.0335
 2652TIP3    H1 7962   0.339   2.232   0.790 -1.4249  1.5666 -0.6496
 2652TIP3    H2 7963   0.458   2.246   0.698  0.7697 -2.5419  1.3248
 2653TIP3   OH2 7964   2.549   0.188   2.541  0.0999  0.4293  0.2863
 2653TIP3    H1 7965   2.629   0.240   2.540 -0.9494  2.1958 -1.6270
 2653TIP3    H2 7966   2.501   0.218   2.618 -0.0182  1.5703 -0.2163
 2654TIP3   OH2 7967   3.769   0.565   2.532  0.3345 -0.2591 -0.3612
 2654TIP3    H1 7968   3.743   0.653   2.561 -1.1716 -0.4593 -0.9669
 2654TIP3    H2 7969   3.864   0.563   2.542  0.3990  1.4360 -0.3236
 2655TIP3   OH2 7970   4.752   2.340   1.854 -0.5246 -0.3747 -0.3230
 2655TIP3    H1 7971   4.777   2.290   1.932 -0.4478  0.5634  0.2702
 2655TIP3    H2 7972   4.719   2.423   1.888  1.7575  1.0440 -1.3210
 2656TIP3   OH2 7973   0.493   1.250   3.778  0.0275 -0.2569 -0.1100
 2656TIP3    H1 7974   0.435   1.277   3.850  0.0451  2.5872 -1.0553
 2656TIP3    H2 7975   0.436   1.246   3.701  0.9045  2.1663 -0.9677
 2657TIP3   OH2 7976   3.315   3.774  -0.016  0.3358 -0.1381  0.2893
 2657TIP3    H1 7977   3.288   3.721   0.060 -0.3736  2.9900  2.4354
 2657TIP3    H2 7978   3.241   3.833  -0.031  1.0093  0.1993 -2.0406
 2658TIP3   OH2 7979   5.177   0.078   0.984 -0.0614  0.6533 -0.1514
 2658TIP3    H1 7980   5.117   0.125   0.926 -1.0147 -0.3936 -0.0522
 2658TIP3    H2 7981   5.181   0.132   1.063  0.4824  1.5909 -0.7939
 2659TIP3   OH2 7982   0.111   1.811   4.423  0.3888  0.0213 -0.7369
 2659TIP3    H1 7983   0.091   1.803   4.330 -0.1756  0.7075 -0.6860
 2659TIP3    H2 7984   0.103   1.722   4.457 -2.1270  0.1066 -0.8518
 2660TIP3   OH2 7985   3.281   5.447   1.704  0.1929 -0.8667  0.0783
 2660TIP3    H1 7986   3.259   5.384   1.635  0.4685 -1.2262  0.3219
 2660TIP3    H2 7987   3.200   5.497   1.717  0.6516  0.5066 -1.8541
 2661TIP3   OH2 7988   5.928   0.132   4.637 -0.1783  0.7512 -0.2547
 2661TIP3    H1 7989   5.948   0.053   4.587  0.5928  2.1604 -2.2620
 2661TIP3    H2 7990   6.012   0.159   4.674 -0.0520  1.6901 -1.2007
 2662TIP3   OH2 7991   3.593   3.131   1.825  0.1768 -0.2887  0.1905
 2662TIP3    H1 7992   3.553   3.177   1.751  0.5752 -0.7436 -0.3170
 2662TIP3    H2 7993   3.527   3.136   1.894 -0.9120 -1.2734 -0.7136
 2663TIP3   OH2 7994   5.872   0.426   1.813  0.0806 -0.5279 -0.2547
 2663TIP3    H1 7995   5.866   0.488   1.740 -0.3448 -0.1334  0.1146
 2663TIP3    H2 7996   5.797   0.446   1.868  0.1488 -1.1254  0.0665
 2664TIP3   OH2 7997   4.125   2.940   0.820  0.7558  0.0311 -0.1259
 2664TIP3    H1 7998   4.158   2.886   0.749  2.1249 -0.5484  0.8934
 2664TIP3    H2 7999   4.072   3.007   0.777 -0.4941 -1.7240 -1.4707
 2665TIP3   OH2 8000   6.210   4.349   0.970 -0.5972 -0.2135 -0.1536
 2665TIP3    H1 8001   6.263   4.428   0.956  0.7007 -1.0251  0.0553
 2665TIP3    H2 8002   6.218   4.300   0.888 -1.0683 -0.3155 -0.1388
 2666TIP3   OH2 8003   0.273   1.787   0.883  0.4897 -0.2597 -0.3763
 2666TIP3    H1 8004   0.340   1.855   0.869  2.5744 -2.4963 -2.0160
 2666TIP3    H2 8005   0.289   1.756   0.972  0.6830  0.1763 -0.2515
 2667TIP3   OH2 8006   6.330   2.686   4.572 -0.3271 -0.5264  0.4501
 2667TIP3    H1 8007   6.299   2.774   4.594  1.2035  0.4010 -0.9016
 2667TIP3    H2 8008   6.262   2.650   4.515  0.2174  0.8312 -1.1329
 2668TIP3   OH2 8009   3.382   3.307   2.262 -0.2252  0.2010 -0.1484
 2668TIP3    H1 8010   3.453   3.361   2.227  0.5553  0.5883  1.8789
 2668TIP3    H2 8011   3.349   3.258   2.187  2.4464 -0.2856 -1.1025
 2669TIP3   OH2 8012   4.067   0.020   3.524  0.7633 -0.0307  0.1187
 2669TIP3    H1 8013   4.154  -0.005   3.554  0.5953  3.0370  3.8449
 2669TIP3    H2 8014   4.065   0.115   3.532 -2.7067  0.0746 -0.5625
 2670TIP3   OH2 8015   0.432   3.073   0.021 -0.2030  0.0885  0.5111
 2670TIP3    H1 8016   0.520   3.077  -0.017 -0.8609 -0.8706 -1.2488
 2670TIP3    H2 8017   0.446   3.048   0.112  1.3365 -0.3484  0.1847
 2671TIP3   OH2 8018   6.273   2.753   0.956  0.5192 -0.0877  0.1469
 2671TIP3    H1 8019   6.243   2.826   1.010 -3.7691 -0.0435 -1.8786
 2671TIP3    H2 8020   6.225   2.677   0.989  2.8092 -1.5187  0.4446
 2672TIP3   OH2 8021   3.229   4.350   4.157 -0.2172  0.4341 -0.4270
 2672TIP3    H1 8022   3.234   4.326   4.249 -2.7221 -1.2543 -0.6073
 2672TIP3    H2 8023   3.225   4.446   4.157  1.4459  0.5425  1.0529
 2673TIP3   OH2 8024   0.814   0.331   0.881  0.1324 -0.3465 -0.0299
 2673TIP3    H1 8025   0.833   0.299   0.793  0.4539  2.1191 -0.9471
 2673TIP3    H2 8026   0.861   0.415   0.886  0.0239 -0.3681  2.4562
 2674TIP3   OH2 8027   4.211   2.503   0.788 -0.5314  0.0954  0.4172
 2674TIP3    H1 8028   4.170   2.417   0.786 -0.7573  0.1021  2.5122
 2674TIP3    H2 8029   4.271   2.499   0.862  1.1548  1.0324 -0.8312
 2675TIP3   OH2 8030   5.359   1.839   1.548  0.8999 -0.0010 -0.3489
 2675TIP3    H1 8031   5.382   1.835   1.455  0.0348  3.7518 -0.8740
 2675TIP3    H2 8032   5.432   1.886   1.589  0.6096 -0.3694  0.6168
 2676TIP3   OH2 8033   1.819   3.659   4.060 -0.1913 -0.2966 -0.6913
 2676TIP3    H1 8034   1.794   3.664   3.968  0.2469 -1.1745 -0.8713
 2676TIP3    H2 8035   1.844   3.567   4.073 -0.2648 -0.1855  0.3050
 2677TIP3   OH2 8036   1.860   3.520   1.502 -0.3059  0.0175 -0.6890
 2677TIP3    H1 8037   1.915   3.598   1.513 -0.0346 -0.1554 -0.7946
 2677TIP3    H2 8038   1.810   3.513   1.583 -0.0063  0.0501 -0.5009
 2678TIP3   OH2 8039   0.031   5.825   3.122 -0.6808 -0.4370 -0.0321
 2678TIP3    H1 8040   0.057   5.808   3.031 -1.6625  0.9822 -0.6026
 2678TIP3    H2 8041   0.002   5.740   3.154 -0.0797 -1.0132 -0.9475
 2679TIP3   OH2 8042   5.610   4.264   3.164 -0.5463  0.2488  0.0441
 2679TIP3    H1 8043   5.636   4.323   3.235  0.3131  0.6272 -0.5665
 2679TIP3    H2 8044   5.649   4.180   3.188 -2.2580 -0.2594  1.2096
 2680TIP3   OH2 8045   1.518   1.763   2.410 -0.2182  0.2344  0.2252
 2680TIP3    H1 8046   1.598   1.810   2.433 -1.2554  2.5576 -0.6022
 2680TIP3    H2 8047   1.525   1.680   2.457  2.9522  0.0436 -0.3341
 2681TIP3   OH2 8048   4.717   5.704   4.138 -0.0736 -0.3029  0.3962
 2681TIP3    H1 8049   4.637   5.727   4.090 -0.2279  0.2822  0.9236
 2681TIP3    H2 8050   4.783   5.694   4.070 -0.1457  1.1184  0.0731
 2682TIP3   OH2 8051   4.890   2.793   4.805  0.2627  0.1943  0.2098
 2682TIP3    H1 8052   4.858   2.736   4.875  1.1557 -0.3913  0.1605
 2682TIP3    H2 8053   4.963   2.744   4.767 -0.0972  0.5792 -1.0132
 2683TIP3   OH2 8054   1.054   4.263   4.992 -0.0512  0.0172 -0.0869
 2683TIP3    H1 8055   1.067   4.354   4.964 -0.4433  0.5427  1.3468
 2683TIP3    H2 8056   1.142   4.225   4.992 -0.0117  0.0254 -1.8034
 2684TIP3   OH2 8057   3.991   0.199   4.888 -0.8137  0.2788  0.6550
 2684TIP3    H1 8058   3.993   0.191   4.793 -0.9890  0.4704  0.6357
 2684TIP3    H2 8059   4.059   0.263   4.908 -0.4287 -0.1429  0.6971
 2685TIP3   OH2 8060   0.788   5.789   0.790  0.5532 -0.1967 -0.3078
 2685TIP3    H1 8061   0.837   5.871   0.798 -0.2843  0.3157 -0.1901
 2685TIP3    H2 8062   0.724   5.793   0.862 -0.0354 -0.5640 -0.8016
 2686TIP3   OH2 8063   0.244   1.346   2.218  0.1264  0.2641  0.2370
 2686TIP3    H1 8064   0.325   1.396   2.203 -0.7845  1.7900  0.1410
 2686TIP3    H2 8065   0.175   1.401   2.180 -0.9502 -1.0636  0.2000
 2687TIP3   OH2 8066   4.577   2.984   5.002  0.6380  0.2422 -0.2248
 2687TIP3    H1 8067   4.561   2.905   4.951 -2.9151  0.3376  0.4690
 2687TIP3    H2 8068   4.632   2.955   5.075  1.5999 -0.9500 -1.3828
 2688TIP3   OH2 8069   3.270   3.094   3.357 -0.0290  0.4423 -0.0589
 2688TIP3    H1 8070   3.284   3.023   3.420  0.6121  0.4566 -0.1820
 2688TIP3    H2 8071   3.178   3.086   3.332 -0.3286  0.5188  0.9833
 2689TIP3   OH2 8072   4.208   2.740   4.572 -0.2081  0.3239 -0.2902
 2689TIP3    H1 8073   4.258   2.703   4.499 -0.1780  0.6161 -0.4175
 2689TIP3    H2 8074   4.236   2.689   4.648  3.4050  3.0805  0.4710
 2690TIP3   OH2 8075   0.258   4.491   4.650  0.2821  0.0670 -0.3694
 2690TIP3    H1 8076   0.220   4.506   4.737 -0.9111  0.1049 -0.8834
 2690TIP3    H2 8077   0.339   4.443   4.668 -0.4058 -0.7506  0.7108
 2691TIP3   OH2 8078   1.564   2.697   5.067 -0.4973  0.0132  0.4771
 2691TIP3    H1 8079   1.475   2.731   5.073  0.1181  1.4432  4.7696
 2691TIP3    H2 8080   1.555   2.603   5.087 -1.1228 -0.2327 -0.8221
 2692TIP3   OH2 8081   3.842   2.579   2.644 -0.4907  0.1315  0.0581
 2692TIP3    H1 8082   3.936   2.577   2.627 -0.0339 -0.9447  2.2471
 2692TIP3    H2 8083   3.805   2.517   2.582 -0.0556  1.9174 -2.0769
 2693TIP3   OH2 8084   0.662   3.303   3.446 -0.1396 -0.3461  0.5689
 2693TIP3    H1 8085   0.671   3.386   3.493 -0.7951 -1.3306  2.5065
 2693TIP3    H2 8086   0.578   3.268   3.473 -0.8750 -0.6800 -1.8905
 2694TIP3   OH2 8087   4.131   1.826   3.935 -0.2345 -0.0194  0.1133
 2694TIP3    H1 8088   4.130   1.865   4.022 -3.1730 -2.0301  1.1312
 2694TIP3    H2 8089   4.055   1.865   3.890  0.1492 -0.3812 -0.8852
 2695TIP3   OH2 8090   2.730   5.994   4.636 -0.9444  0.0645  0.0187
 2695TIP3    H1 8091   2.645   5.993   4.680 -1.1757 -2.4098 -0.3101
 2695TIP3    H2 8092   2.763   5.905   4.648  1.1759  0.7047 -0.7022
 2696TIP3   OH2 8093   0.859   1.786   4.759 -0.3630 -0.0787  0.2998
 2696TIP3    H1 8094   0.842   1.694   4.779 -0.4143  0.2403  1.8683
 2696TIP3    H2 8095   0.941   1.786   4.711 -0.1140 -0.9115  0.7142
 2697TIP3   OH2 8096   3.304   4.041   2.096  0.3091  0.2309  0.2167
 2697TIP3    H1 8097   3.239   4.064   2.030  0.9004 -1.2923 -0.9754
 2697TIP3    H2 8098   3.293   3.946   2.108  1.3020  0.2048  1.1063
 2698TIP3   OH2 8099   0.541   1.685   0.661  0.3786 -0.3223  0.3807
 2698TIP3    H1 8100   0.541   1.634   0.741  1.3316 -0.7571  0.1162
 2698TIP3    H2 8101   0.631   1.680   0.629 -0.2386 -1.1689 -1.3490
 2699TIP3   OH2 8102   2.997   0.911   2.682 -0.2382 -0.3698  0.0477
 2699TIP3    H1 8103   2.980   0.820   2.655  0.1362  0.0701 -1.8225
 2699TIP3    H2 8104   3.084   0.931   2.646 -0.1923  0.6549  0.6812
 2700TIP3   OH2 8105   4.556   1.058   0.999  0.0866  0.3510 -0.5132
 2700TIP3    H1 8106   4.514   1.002   1.065  0.1011 -0.2073 -0.9737
 2700TIP3    H2 8107   4.484   1.085   0.942  0.2866 -0.3406 -1.1100
 2701TIP3   OH2 8108   3.924   2.315   3.082 -0.4875 -0.0992  0.2090
 2701TIP3    H1 8109   3.953   2.388   3.136  0.1504 -0.7394  0.7595
 2701TIP3    H2 8110   3.874   2.355   3.011 -0.4790  0.8320  0.7183
 2702TIP3   OH2 8111   1.381   5.799   2.918 -0.2065 -0.0322 -0.2106
 2702TIP3    H1 8112   1.449   5.740   2.950 -1.7148 -0.9947  1.3503
 2702TIP3    H2 8113   1.339   5.751   2.846 -0.8775 -0.5384  0.5032
 2703TIP3   OH2 8114   3.571   2.088   0.871  0.1473  0.6806 -0.4780
 2703TIP3    H1 8115   3.544   2.179   0.877  0.6634  0.8106 -0.1076
 2703TIP3    H2 8116   3.519   2.052   0.799 -0.1808  1.2183 -0.5114
 2704TIP3   OH2 8117   4.226   1.680   1.271 -0.0891  0.4020  0.5450
 2704TIP3    H1 8118   4.180   1.598   1.252 -2.4591  1.6253  0.5267
 2704TIP3    H2 8119   4.247   1.716   1.185  2.9500 -1.1298  0.5451
 2705TIP3   OH2 8120   1.449   2.057   2.069  0.0457  0.2102  0.7263
 2705TIP3    H1 8121   1.415   1.976   2.106  0.1135  0.5219  1.4725
 2705TIP3    H2 8122   1.519   2.084   2.128  0.6437  0.3346 -0.0218
 2706TIP3   OH2 8123   4.681   3.605   1.058  0.0215 -0.2469 -0.6480
 2706TIP3    H1 8124   4.753   3.616   0.996 -0.7736  0.1579 -1.5108
 2706TIP3    H2 8125   4.633   3.687   1.054 -0.7819 -0.6963 -0.4467
 2707TIP3   OH2 8126   6.109   2.024   4.775 -0.5123  0.2482  0.7655
 2707TIP3    H1 8127   6.071   2.031   4.863 -0.6310 -0.5064  0.7753
 2707TIP3    H2 8128   6.060   1.953   4.734 -0.8480  0.9722 -0.1155
 2708TIP3   OH2 8129   0.268   3.503   0.180 -0.3527  0.2429  0.4245
 2708TIP3    H1 8130   0.182   3.543   0.165 -0.8492 -1.0711 -0.3308
 2708TIP3    H2 8131   0.261   3.415   0.143  1.8143  0.6286 -1.0468
 2709TIP3   OH2 8132   3.346   5.736   1.344 -0.0389 -0.5975  0.1761
 2709TIP3    H1 8133   3.364   5.830   1.336  1.9017 -0.8239  1.3330
 2709TIP3    H2 8134   3.313   5.711   1.257  2.3818  0.5823 -1.1987
 2710TIP3   OH2 8135   0.799   5.093   2.977  0.5476  0.0344  0.2711
 2710TIP3    H1 8136   0.847   5.032   2.921  2.0765  0.9733  0.5199
 2710TIP3    H2 8137   0.725   5.122   2.923  1.1731 -0.1906 -0.7265
 2711TIP3   OH2 8138   4.787   3.808   1.438 -0.3695 -1.0773  0.0939
 2711TIP3    H1 8139   4.870   3.791   1.393  1.0951  0.3942  2.0766
 2711TIP3    H2 8140   4.739   3.866   1.379  1.1379  0.1248 -0.0091
 2712TIP3   OH2 8141   3.338   1.608   1.052  0.7549  0.2020  0.1507
 2712TIP3    H1 8142   3.355   1.701   1.037 -0.0895  0.2885 -0.2885
 2712TIP3    H2 8143   3.334   1.600   1.147 -0.7379  0.9223  0.1851
 2713TIP3   OH2 8144   4.450   5.712   2.978 -0.5959  0.2574 -0.0943
 2713TIP3    H1 8145   4.447   5.703   3.074 -1.2222 -0.4330 -0.1580
 2713TIP3    H2 8146   4.541   5.732   2.958 -0.5022  0.6232  0.6668
 2714TIP3   OH2 8147   0.232   0.245   3.792 -0.1422  0.6463 -0.0311
 2714TIP3    H1 8148   0.325   0.245   3.772 -0.2208 -0.1555 -0.4615
 2714TIP3    H2 8149   0.208   0.337   3.794  1.0114  0.9421  1.8840
 2715TIP3   OH2 8150   3.592   4.596   3.307  0.0971 -0.7210  0.8120
 2715TIP3    H1 8151   3.561   4.517   3.353 -0.1432 -0.0823  1.7658
 2715TIP3    H2 8152   3.686   4.583   3.298 -0.3365 -2.7518 -2.2255
 2716TIP3   OH2 8153   4.323   2.298   3.224 -0.3477 -0.2483  0.0215
 2716TIP3    H1 8154   4.374   2.351   3.285 -0.7842 -1.3870  1.3987
 2716TIP3    H2 8155   4.388   2.264   3.162  0.0015  1.4568 -0.6108
 2717TIP3   OH2 8156   2.834   4.367   4.394  0.1414  0.6154 -0.2194
 2717TIP3    H1 8157   2.858   4.324   4.312 -1.0616  1.9774 -1.3391
 2717TIP3    H2 8158   2.915   4.409   4.424  0.3939  0.8388 -1.1847
 2718TIP3   OH2 8159   3.249   0.207   2.516  0.1982 -0.5731  0.2481
 2718TIP3    H1 8160   3.311   0.280   2.525  1.6346 -1.7271  0.1993
 2718TIP3    H2 8161   3.207   0.221   2.431  0.0251  0.4927  0.4967
 2719TIP3   OH2 8162   3.791   2.069   5.190  0.2311 -0.0421  0.1279
 2719TIP3    H1 8163   3.742   2.144   5.223  1.5858  0.7819  0.3408
 2719TIP3    H2 8164   3.800   2.085   5.096  0.0666 -0.2059  0.0844
 2720TIP3   OH2 8165   5.284   5.048   4.176 -0.3914 -0.7822 -0.4520
 2720TIP3    H1 8166   5.280   5.097   4.258 -2.2001 -3.6732  1.3790
 2720TIP3    H2 8167   5.378   5.037   4.160  0.0114  0.7945  0.5972
 2721TIP3   OH2 8168   4.991   2.604   4.518  0.1270  0.2672 -0.1462
 2721TIP3    H1 8169   5.055   2.672   4.540 -0.2830  0.9636 -1.0601
 2721TIP3    H2 8170   5.019   2.571   4.433 -1.8504  2.0502 -1.5984
 2722TIP3   OH2 8171   0.691   0.936   4.233 -0.3841  0.2047  0.1062
 2722TIP3    H1 8172   0.730   0.849   4.222 -0.5303  0.2043 -0.4229
 2722TIP3    H2 8173   0.706   0.980   4.149  0.8113  1.1523  0.7788
 2723TIP3   OH2 8174   5.737   5.698   0.381 -0.4701 -0.3522  0.0976
 2723TIP3    H1 8175   5.695   5.703   0.467 -0.8798  0.2293 -0.1331
 2723TIP3    H2 8176   5.794   5.775   0.377 -0.3307 -0.4636 -0.0929
 2724TIP3   OH2 8177   3.260   0.143   0.749  0.4330 -0.2918  0.5912
 2724TIP3    H1 8178   3.269   0.145   0.845  2.2720 -2.0423  0.5356
 2724TIP3    H2 8179   3.324   0.206   0.717 -1.3193  1.5097  0.4938
 2725TIP3   OH2 8180   4.449   5.759   2.210  0.2556  0.4516  0.4261
 2725TIP3    H1 8181   4.524   5.741   2.153  0.4807  2.2167  0.1051
 2725TIP3    H2 8182   4.373   5.733   2.158  0.5513  0.2518  0.0867
 2726TIP3   OH2 8183   1.470   0.768   2.342 -0.4441  0.0011 -0.0638
 2726TIP3    H1 8184   1.416   0.696   2.310  1.1000 -0.8050 -0.9669
 2726TIP3    H2 8185   1.471   0.832   2.271  0.9543 -0.6644 -0.6832
 2727TIP3   OH2 8186   0.036   3.483   4.081 -0.0940 -0.6512  0.6476
 2727TIP3    H1 8187   0.126   3.470   4.050 -0.2138 -2.8754  1.0749
 2727TIP3    H2 8188  -0.011   3.405   4.052 -1.7478  0.1798  0.9882
 2728TIP3   OH2 8189   6.154   1.147   0.884  0.1583  0.7113 -0.7024
 2728TIP3    H1 8190   6.096   1.154   0.960  0.0420 -0.1239 -0.7020
 2728TIP3    H2 8191   6.095   1.125   0.812  0.5591 -1.0192 -0.5358
 2729TIP3   OH2 8192   2.316   2.029   3.220 -0.4647  0.8612  0.0990
 2729TIP3    H1 8193   2.360   1.944   3.216 -1.3588  0.4086 -0.5713
 2729TIP3    H2 8194   2.243   2.014   3.280 -0.3816  1.2796  0.3049
 2730TIP3   OH2 8195   4.781   3.443   1.613  0.3354 -0.3394  0.5832
 2730TIP3    H1 8196   4.798   3.362   1.660 -0.6406 -0.5549  0.5828
 2730TIP3    H2 8197   4.766   3.508   1.682 -1.9091 -0.8289  0.6208
 2731TIP3   OH2 8198   1.760   2.718   4.226  0.1491 -0.3204 -0.3217
 2731TIP3    H1 8199   1.727   2.793   4.276  1.7419  0.0232  0.2609
 2731TIP3    H2 8200   1.681   2.673   4.197 -0.8641 -0.0834  1.8243
 2732TIP3   OH2 8201   5.350   3.646   1.522  0.1590 -0.5331 -0.7848
 2732TIP3    H1 8202   5.425   3.660   1.464  1.4992 -0.7551  0.8282
 2732TIP3    H2 8203   5.278   3.624   1.463  1.3281 -0.2302 -2.3921
 2733TIP3   OH2 8204   1.291   0.456   4.532 -0.1592  0.2393  0.0132
 2733TIP3    H1 8205   1.224   0.474   4.598  0.0730 -0.2418  0.3857
 2733TIP3    H2 8206   1.251   0.392   4.474 -0.7598  1.4531 -0.9559
 2734TIP3   OH2 8207   2.002   4.718   3.844 -0.6916 -0.5026  0.7881
 2734TIP3    H1 8208   1.932   4.667   3.885  1.6496 -3.3743  1.5612
 2734TIP3    H2 8209   2.083   4.681   3.880  1.3005  1.4774 -1.3362
 2735TIP3   OH2 8210   4.226   1.175   2.547  0.4049 -0.5436  0.4082
 2735TIP3    H1 8211   4.258   1.200   2.460 -0.8809 -1.0773 -0.2397
 2735TIP3    H2 8212   4.286   1.218   2.608  0.2573  1.3499 -0.7186
 2736TIP3   OH2 8213   2.187   5.944   4.547  0.3427  0.3512  0.4127
 2736TIP3    H1 8214   2.276   5.932   4.581  0.5944 -1.1804 -0.7275
 2736TIP3    H2 8215   2.142   5.863   4.567 -0.7526  1.0154  0.7480
 2737TIP3   OH2 8216   1.604   3.089   2.825 -0.3069  0.3500  0.3855
 2737TIP3    H1 8217   1.635   3.020   2.766 -0.4008  1.5650 -1.1584
 2737TIP3    H2 8218   1.667   3.088   2.897  2.0011  1.0696 -1.4415
 2738TIP3   OH2 8219   4.916   2.244   2.320  0.0191 -0.1303  0.3942
 2738TIP3    H1 8220   4.922   2.207   2.232  0.4121 -1.4219  0.9429
 2738TIP3    H2 8221   5.004   2.275   2.340 -0.1936  0.6817  0.1389
 2739TIP3   OH2 8222   1.948   0.645   4.944 -0.6485 -0.2690 -0.2011
 2739TIP3    H1 8223   1.961   0.614   5.034 -1.5008 -0.0300  0.0133
 2739TIP3    H2 8224   1.855   0.667   4.940 -0.2142  1.7146 -0.4987
 2740TIP3   OH2 8225   0.319   0.681   3.785  0.2261 -0.0816  0.0609
 2740TIP3    H1 8226   0.344   0.758   3.836 -1.7214  0.5318  0.1492
 2740TIP3    H2 8227   0.323   0.711   3.694 -1.1151  0.3441  0.1212
 2741TIP3   OH2 8228   5.249   5.883   2.316  0.0088 -0.3930  0.4447
 2741TIP3    H1 8229   5.244   5.977   2.334 -1.0747 -0.4745  0.6330
 2741TIP3    H2 8230   5.302   5.876   2.237 -0.8749  0.4610 -0.2356
 2742TIP3   OH2 8231   0.331   2.283   0.222 -0.2379 -0.3987  0.1308
 2742TIP3    H1 8232   0.387   2.323   0.288  0.0379  0.7654 -0.7842
 2742TIP3    H2 8233   0.245   2.277   0.264  0.2436 -0.9481  1.0645
 2743TIP3   OH2 8234   0.876   4.754   2.041  0.3782  0.2297  0.1823
 2743TIP3    H1 8235   0.972   4.747   2.043  0.3752 -0.8401 -1.2797
 2743TIP3    H2 8236   0.850   4.698   1.967 -1.2263  2.0438 -0.7214
 2744TIP3   OH2 8237   5.846   3.939   1.479  0.9138  0.8738 -0.3716
 2744TIP3    H1 8238   5.930   3.982   1.494  1.7657 -1.2203  1.5533
 2744TIP3    H2 8239   5.855   3.897   1.393  1.9581  0.4929 -0.0924
 2745TIP3   OH2 8240   2.633   0.653   2.775  0.5721 -0.6583 -0.1490
 2745TIP3    H1 8241   2.660   0.602   2.699  2.2117 -0.0542 -0.0023
 2745TIP3    H2 8242   2.673   0.609   2.850  1.3716  0.3930  0.0535
 2746TIP3   OH2 8243   0.763   2.675   0.818 -0.1608  0.3512  0.2326
 2746TIP3    H1 8244   0.717   2.634   0.745 -1.0620  2.1021 -0.2098
 2746TIP3    H2 8245   0.825   2.735   0.777  0.3909  0.2457  0.8894
 2747TIP3   OH2 8246   4.754   4.842   5.089  0.0217  0.1812 -0.1193
 2747TIP3    H1 8247   4.821   4.903   5.059 -0.5352  1.2562  0.7323
 2747TIP3    H2 8248   4.694   4.834   5.015  0.9747 -0.6541 -0.8202
 2748TIP3   OH2 8249   2.217   0.767   0.480 -0.3955 -0.0963 -0.2572
 2748TIP3    H1 8250   2.174   0.681   0.477 -0.2207 -0.2382  0.9588
 2748TIP3    H2 8251   2.188   0.810   0.400  0.0961 -1.5536 -1.2666
 2749TIP3   OH2 8252   0.238   2.589   4.385 -0.1008  0.1614 -0.7355
 2749TIP3    H1 8253   0.299   2.539   4.332  0.3076  0.4650 -0.5563
 2749TIP3    H2 8254   0.291   2.657   4.426 -0.5526  0.4169 -0.5594
 2750TIP3   OH2 8255   1.248   1.206   2.987  0.2803 -0.2024 -0.1822
 2750TIP3    H1 8256   1.237   1.275   2.922 -0.1147 -1.2654 -1.2978
 2750TIP3    H2 8257   1.341   1.207   3.008  0.5348 -0.2322 -1.2522
 2751TIP3   OH2 8258   3.371   3.473   3.944 -0.1691 -0.3715  0.0872
 2751TIP3    H1 8259   3.321   3.423   3.879 -0.4541 -0.4475  0.3614
 2751TIP3    H2 8260   3.417   3.539   3.892  1.0562 -1.5576 -0.4195
 2752TIP3   OH2 8261   1.332   0.238   3.101 -0.3163 -0.1912 -0.4448
 2752TIP3    H1 8262   1.362   0.168   3.159 -0.8600 -0.6318 -0.6891
 2752TIP3    H2 8263   1.239   0.249   3.123 -1.1513 -1.9284 -2.7738
 2753TIP3   OH2 8264   1.941   4.327   3.051  0.2402 -0.1450  0.2486
 2753TIP3    H1 8265   1.899   4.241   3.041 -0.0506  0.1045 -0.6915
 2753TIP3    H2 8266   1.869   4.387   3.069  0.1517  0.3081 -1.5011
 2754TIP3   OH2 8267   2.175   0.216   1.179  0.6424  0.7367 -0.2282
 2754TIP3    H1 8268   2.152   0.169   1.259  1.3172 -0.9347 -0.9601
 2754TIP3    H2 8269   2.111   0.287   1.173 -2.7435 -2.0676 -0.8050
 2755TIP3   OH2 8270   4.429   1.680   0.975 -0.6482  0.2978  0.6533
 2755TIP3    H1 8271   4.361   1.720   0.923  1.4023  2.0889 -0.8179
 2755TIP3    H2 8272   4.412   1.586   0.969 -1.5635  0.5547 -1.7385
 2756TIP3   OH2 8273   1.590   5.941   4.567  0.1280  0.4251  0.0706
 2756TIP3    H1 8274   1.567   6.012   4.507  0.8562  1.0544  0.5266
 2756TIP3    H2 8275   1.516   5.938   4.629 -0.9637 -0.6794 -1.2077
 2757TIP3   OH2 8276   3.097   0.067   3.339  1.1502  0.1405 -0.6730
 2757TIP3    H1 8277   3.079   0.006   3.268 -0.2908 -0.6344  0.2907
 2757TIP3    H2 8278   3.190   0.089   3.330  1.8549 -2.5495 -0.8406
 2758TIP3   OH2 8279   5.799   5.608   2.448 -0.3090 -0.4335  0.1828
 2758TIP3    H1 8280   5.868   5.599   2.383 -0.5084 -2.8281  0.2277
 2758TIP3    H2 8281   5.812   5.535   2.508 -2.1439 -0.2286  0.9071
 2759TIP3   OH2 8282   3.216   1.911   3.209 -0.2705 -0.4103 -0.5635
 2759TIP3    H1 8283   3.290   1.958   3.248 -0.4811 -0.9838  0.5669
 2759TIP3    H2 8284   3.246   1.888   3.122  1.3134 -1.5766  0.2415
 2760TIP3   OH2 8285   2.849   1.448   2.909 -0.5723  0.1356 -0.1022
 2760TIP3    H1 8286   2.943   1.465   2.918 -0.3576  0.4466 -2.3471
 2760TIP3    H2 8287   2.823   1.411   2.993  1.1843  1.6369  1.1753
 2761TIP3   OH2 8288   4.781   1.538   5.124  0.2570 -0.5314 -0.0571
 2761TIP3    H1 8289   4.731   1.619   5.109  1.2250  0.2330  0.7125
 2761TIP3    H2 8290   4.837   1.530   5.047 -0.0516 -0.6408 -0.2736
 2762TIP3   OH2 8291   5.698   4.357   2.775 -0.0727 -0.0662 -0.0078
 2762TIP3    H1 8292   5.635   4.385   2.842 -2.5288  1.9688 -2.8858
 2762TIP3    H2 8293   5.772   4.416   2.786 -1.0354  1.1731  0.1203
 2763TIP3   OH2 8294   1.423   1.602   3.922  0.2304 -0.6997  0.1360
 2763TIP3    H1 8295   1.436   1.626   4.014  0.4801  1.3642 -0.4038
 2763TIP3    H2 8296   1.508   1.571   3.893  0.4574 -0.2210  0.2855
 2764TIP3   OH2 8297   2.874   2.880   4.823  0.5450 -0.2717 -0.1445
 2764TIP3    H1 8298   2.919   2.833   4.753 -2.2982 -0.7622 -1.7631
 2764TIP3    H2 8299   2.841   2.959   4.781  0.8651  0.6707  1.3031
 2765TIP3   OH2 8300   3.259   4.290   2.793  0.5229  0.4180 -0.3447
 2765TIP3    H1 8301   3.268   4.271   2.700 -2.6250  1.5996 -1.0313
 2765TIP3    H2 8302   3.311   4.370   2.806  1.2965  0.0292 -0.9833
 2766TIP3   OH2 8303   5.715   3.274   0.743 -0.9926 -0.2114  0.6101
 2766TIP3    H1 8304   5.769   3.324   0.804 -1.1025  1.4804 -0.5803
 2766TIP3    H2 8305   5.689   3.339   0.677 -0.7606 -1.9733 -1.3080
 2767TIP3   OH2 8306   3.902   3.925   3.983  0.1155  0.0681 -0.2173
 2767TIP3    H1 8307   3.822   3.932   4.036  0.3598  0.0229  0.1615
 2767TIP3    H2 8308   3.968   3.892   4.044  0.1029 -1.1634 -0.8348
 2768TIP3   OH2 8309   0.700   4.059   2.259 -0.4960  0.4104  0.2213
 2768TIP3    H1 8310   0.669   4.136   2.211 -0.3019  0.8464  0.7800
 2768TIP3    H2 8311   0.625   4.031   2.311 -0.5079  0.3400  0.1664
 2769TIP3   OH2 8312   0.664   1.629   4.046  0.0529  0.0715 -0.2756
 2769TIP3    H1 8313   0.640   1.692   3.978  1.5198 -0.4658 -1.3621
 2769TIP3    H2 8314   0.726   1.676   4.102 -2.1283  0.9353  1.5452
 2770TIP3   OH2 8315   2.690   4.054   2.098 -0.1191 -0.4870 -0.5259
 2770TIP3    H1 8316   2.664   4.120   2.162 -3.3209 -1.4050 -0.7044
 2770TIP3    H2 8317   2.734   4.103   2.029  1.6648  0.7763  1.3778
 2771TIP3   OH2 8318   6.103   5.027   2.460  0.1190 -0.3314 -0.5960
 2771TIP3    H1 8319   6.161   5.103   2.456 -0.6368  0.2772 -0.2183
 2771TIP3    H2 8320   6.158   4.954   2.432  1.2843  0.1084  0.4033
 2772TIP3   OH2 8321   6.173   1.052   0.068  0.0077 -0.1479  0.1065
 2772TIP3    H1 8322   6.167   1.143   0.097 -1.2563 -0.2700  0.2768
 2772TIP3    H2 8323   6.108   1.006   0.121  0.1123 -1.0158 -0.5098
 2773TIP3   OH2 8324   4.787   4.222   1.271 -0.7555 -0.5715 -0.5568
 2773TIP3    H1 8325   4.863   4.199   1.325  1.5604  1.3028 -2.7614
 2773TIP3    H2 8326   4.737   4.141   1.263  1.1794 -1.9756  0.7135
 2774TIP3   OH2 8327   0.235   2.642   4.898 -0.0196  0.2862  0.0500
 2774TIP3    H1 8328   0.143   2.620   4.882  0.2367 -1.5316  0.8171
 2774TIP3    H2 8329   0.233   2.704   4.971 -0.6723  1.3543 -0.8346
 2775TIP3   OH2 8330   1.938   3.656   4.420  0.0180 -0.5732 -0.0101
 2775TIP3    H1 8331   1.877   3.707   4.474  0.5207 -0.2739  0.2852
 2775TIP3    H2 8332   1.882   3.598   4.369 -0.9680  2.5463 -2.9284
 2776TIP3   OH2 8333   3.165   4.253   3.895 -0.8036  0.5540 -0.6364
 2776TIP3    H1 8334   3.178   4.313   3.969 -0.4508  0.1740 -0.3869
 2776TIP3    H2 8335   3.081   4.211   3.912  0.1063 -0.8955  0.5347
 2777TIP3   OH2 8336   4.425   5.558   1.739  0.1963 -0.3381 -0.3735
 2777TIP3    H1 8337   4.461   5.640   1.706  0.6823 -0.1666  0.5390
 2777TIP3    H2 8338   4.502   5.503   1.756 -0.1196 -0.9647 -0.9290
 2778TIP3   OH2 8339   3.332   5.694   0.435 -0.1113 -0.2551  0.4713
 2778TIP3    H1 8340   3.284   5.615   0.458  0.6788 -0.8860 -0.0320
 2778TIP3    H2 8341   3.423   5.666   0.427  0.1639  0.6869  0.2060
 2779TIP3   OH2 8342   0.631   3.327   0.902 -0.3865 -0.0797 -0.3455
 2779TIP3    H1 8343   0.561   3.356   0.843 -0.7559  0.5165  0.3686
 2779TIP3    H2 8344   0.647   3.403   0.959 -0.3296 -0.7787  0.5941
 2780TIP3   OH2 8345   2.316   0.089   1.796 -0.2594 -0.1014  0.1138
 2780TIP3    H1 8346   2.339   0.170   1.750  0.9588  0.0083  0.8750
 2780TIP3    H2 8347   2.399   0.058   1.832 -1.0582 -0.5586  1.6343
 2781TIP3   OH2 8348   4.900   5.102   3.326  0.1075 -0.5838  0.2232
 2781TIP3    H1 8349   4.821   5.087   3.378  0.9531  0.2419  1.8123
 2781TIP3    H2 8350   4.877   5.173   3.267 -0.5803 -0.8975  0.1007
 2782TIP3   OH2 8351   3.372   5.570   2.427 -0.1538  0.1738  0.8553
 2782TIP3    H1 8352   3.329   5.504   2.373  2.9323 -1.8240  0.5996
 2782TIP3    H2 8353   3.356   5.653   2.381 -0.1058 -1.0631 -1.5499
 2783TIP3   OH2 8354   1.126   4.392   1.608 -0.4387  0.1017 -0.2064
 2783TIP3    H1 8355   1.121   4.488   1.600 -0.1332  0.0199 -1.8950
 2783TIP3    H2 8356   1.068   4.370   1.681 -0.7074  1.5546  0.0454
 2784TIP3   OH2 8357   3.206   3.466   1.858  0.3133  0.1937  0.2868
 2784TIP3    H1 8358   3.294   3.454   1.824 -0.3717 -2.0752 -0.8625
 2784TIP3    H2 8359   3.148   3.438   1.787 -1.2879 -0.5712  1.8134
 2785TIP3   OH2 8360   4.973   5.217   2.417  0.7108 -0.6639  0.5948
 2785TIP3    H1 8361   5.005   5.248   2.332 -2.9649  2.5612  0.0966
 2785TIP3    H2 8362   5.020   5.270   2.481 -0.8409  1.4369  0.0939
 2786TIP3   OH2 8363   2.340   4.642   1.311  0.0591  0.6591 -0.1952
 2786TIP3    H1 8364   2.271   4.580   1.334  0.5281  0.0442 -0.4419
 2786TIP3    H2 8365   2.326   4.660   1.218  0.6144  0.0403 -0.4034
 2787TIP3   OH2 8366   3.177   1.057   0.960  0.0985  0.3359  0.3377
 2787TIP3    H1 8367   3.094   1.046   1.006  0.5982 -0.0102  1.1831
 2787TIP3    H2 8368   3.163   1.014   0.875 -0.5883  0.3144  0.4530
 2788TIP3   OH2 8369   5.525   0.591   0.533  0.1719 -0.6876 -0.5123
 2788TIP3    H1 8370   5.439   0.627   0.555 -0.1409 -1.5036 -0.3539
 2788TIP3    H2 8371   5.541   0.619   0.443 -0.4404 -0.8570 -0.6791
 2789TIP3   OH2 8372   1.319   2.136   1.562  0.2737 -0.0415 -0.1469
 2789TIP3    H1 8373   1.377   2.074   1.606  2.9097  2.3552  0.0810
 2789TIP3    H2 8374   1.257   2.163   1.630  1.9675  0.8631  1.1206
 2790TIP3   OH2 8375   2.228   4.073   3.747  0.3126 -0.7409  0.0467
 2790TIP3    H1 8376   2.216   4.084   3.652 -1.1683 -0.2651  0.2781
 2790TIP3    H2 8377   2.257   3.982   3.756  1.6250 -0.4584 -0.9423
 2791TIP3   OH2 8378   1.660   1.950   1.895  0.0999  0.7200 -0.0939
 2791TIP3    H1 8379   1.585   2.001   1.926  0.6988  1.1628  0.6955
 2791TIP3    H2 8380   1.666   1.877   1.957 -1.7751 -1.3700 -2.1727
 2792TIP3   OH2 8381   4.141   3.808   4.473 -0.4209 -0.3896 -1.0295
 2792TIP3    H1 8382   4.105   3.891   4.442 -1.9602 -0.5602  0.1777
 2792TIP3    H2 8383   4.222   3.796   4.423 -0.9820  1.0582 -2.3378
 2793TIP3   OH2 8384   5.474   3.650   4.689  0.1526 -0.2139 -0.5079
 2793TIP3    H1 8385   5.533   3.602   4.747 -1.1666 -1.1846  0.0922
 2793TIP3    H2 8386   5.505   3.741   4.692  1.4564 -0.6545 -0.0511
 2794TIP3   OH2 8387   2.359   4.119   0.399  0.3354 -0.0408  0.4540
 2794TIP3    H1 8388   2.411   4.134   0.320 -0.4684 -1.4575 -0.3816
 2794TIP3    H2 8389   2.420   4.075   0.459  1.0551  1.3767  0.7953
 2795TIP3   OH2 8390   1.031   3.123   4.685 -0.6132 -0.5099  0.4759
 2795TIP3    H1 8391   1.108   3.178   4.698 -1.1801 -0.0422  2.1919
 2795TIP3    H2 8392   1.031   3.064   4.760 -1.1332 -1.4960 -0.2834
 2796TIP3   OH2 8393   2.017   5.495   0.354 -0.0941 -0.0732 -0.1162
 2796TIP3    H1 8394   2.109   5.469   0.350 -0.5762 -1.9801 -0.2201
 2796TIP3    H2 8395   2.007   5.535   0.441  0.5478 -1.1556  0.4854
 2797TIP3   OH2 8396   2.641   3.364   2.525  0.3339 -0.1888 -0.3429
 2797TIP3    H1 8397   2.622   3.295   2.588  0.0148 -1.2112 -1.5091
 2797TIP3    H2 8398   2.732   3.348   2.500 -0.2508 -1.3378 -1.9192
 2798TIP3   OH2 8399   2.313   4.335   4.470  0.0582  0.0730 -0.1699
 2798TIP3    H1 8400   2.312   4.423   4.508  0.7912 -0.3225  0.8238
 2798TIP3    H2 8401   2.406   4.311   4.468 -0.0411 -0.2729 -1.4129
 2799TIP3   OH2 8402   3.389   0.744   4.714 -0.2079  0.4283 -0.1183
 2799TIP3    H1 8403   3.384   0.806   4.786  0.1698  0.3338 -0.0029
 2799TIP3    H2 8404   3.317   0.767   4.655  1.3011  2.5032 -1.2956
 2800TIP3   OH2 8405   6.274   4.946   1.495  0.2173 -0.3626  0.1377
 2800TIP3    H1 8406   6.195   4.904   1.527 -1.3753  1.8098 -0.7035
 2800TIP3    H2 8407   6.315   4.983   1.573  0.7678 -1.9870  0.6573
 2801TIP3   OH2 8408   2.452   2.490   3.458 -0.3432  0.0403 -0.3410
 2801TIP3    H1 8409   2.466   2.463   3.548  2.2317  0.0069 -0.6934
 2801TIP3    H2 8410   2.417   2.412   3.415  1.5780 -1.0294 -0.0636
 2802TIP3   OH2 8411   2.194   3.647   4.338  0.4175  0.0589 -0.2707
 2802TIP3    H1 8412   2.102   3.647   4.363  0.3462  0.9428 -0.5043
 2802TIP3    H2 8413   2.233   3.718   4.389  0.9154 -0.1222 -0.3866
 2803TIP3   OH2 8414   2.164   2.062   1.978 -0.6949  0.3535 -0.1593
 2803TIP3    H1 8415   2.070   2.046   1.977 -0.8513  0.9026 -2.6903
 2803TIP3    H2 8416   2.198   2.006   2.048 -2.6490 -1.5209 -0.6077
 2804TIP3   OH2 8417   1.271   0.609   3.901  0.2937 -0.5449  0.1479
 2804TIP3    H1 8418   1.248   0.571   3.817  0.0423 -0.3566  0.1305
 2804TIP3    H2 8419   1.268   0.536   3.963 -1.3100 -0.3497  0.3244
 2805TIP3   OH2 8420   5.787   4.429   0.728 -0.9956 -0.1528 -0.8640
 2805TIP3    H1 8421   5.866   4.445   0.780 -0.4892 -0.1281 -1.6343
 2805TIP3    H2 8422   5.728   4.501   0.752 -1.3911 -0.9844  0.8336
 2806TIP3   OH2 8423   3.555   1.495   1.399 -0.1161 -0.7105 -0.2874
 2806TIP3    H1 8424   3.589   1.551   1.469  0.4623 -1.1236 -0.2300
 2806TIP3    H2 8425   3.486   1.547   1.358 -0.1371 -0.2770  0.2832
 2807TIP3   OH2 8426   0.361   4.848   0.569 -0.2854  0.6284  0.0747
 2807TIP3    H1 8427   0.447   4.860   0.530 -0.2570  0.4578  0.0859
 2807TIP3    H2 8428   0.371   4.775   0.630 -0.9039 -0.7168 -1.3636
 2808TIP3   OH2 8429   5.701   4.675   0.867 -0.1897  0.1969 -0.1438
 2808TIP3    H1 8430   5.764   4.746   0.882  2.1503 -1.5216 -1.2033
 2808TIP3    H2 8431   5.656   4.665   0.950  2.2080  0.3680  1.2837
 2809TIP3   OH2 8432   0.429   5.395   3.360 -0.3527  0.3714  0.0655
 2809TIP3    H1 8433   0.486   5.377   3.434 -1.0809  0.3059  0.6164
 2809TIP3    H2 8434   0.484   5.377   3.283 -0.6027 -2.9392  0.5268
 2810TIP3   OH2 8435   6.272   2.918   0.526 -0.1267 -0.6653  0.4810
 2810TIP3    H1 8436   6.262   2.826   0.502 -0.2446 -0.6573  0.4969
 2810TIP3    H2 8437   6.271   2.965   0.442 -1.8504 -0.5159  0.5391
 2811TIP3   OH2 8438   5.506   0.344   1.779 -0.0781 -0.2796 -0.5082
 2811TIP3    H1 8439   5.557   0.264   1.765 -0.7106 -0.6280 -0.8622
 2811TIP3    H2 8440   5.417   0.321   1.752 -0.7895 -0.1724  1.5780
 2812TIP3   OH2 8441   3.098   2.107   2.228  0.1084  0.3414 -0.0796
 2812TIP3    H1 8442   3.176   2.121   2.282 -0.9639  0.7556  1.4397
 2812TIP3    H2 8443   3.105   2.017   2.198  0.3800 -0.1653  1.4150
 2813TIP3   OH2 8444   4.994   3.632   3.776 -0.4412  0.2576 -0.5620
 2813TIP3    H1 8445   5.073   3.617   3.828 -0.3891 -1.3418 -1.0557
 2813TIP3    H2 8446   4.944   3.696   3.827  1.2661  1.5301 -0.3801
 2814TIP3   OH2 8447   0.264   3.425   3.654  0.0876  0.0461 -0.5417
 2814TIP3    H1 8448   0.265   3.369   3.731 -0.4771  0.4576 -0.2295
 2814TIP3    H2 8449   0.285   3.367   3.581 -0.3352 -0.5315 -0.2042
 2815TIP3   OH2 8450   2.931   2.319   2.515 -0.0609 -0.0477 -0.3493
 2815TIP3    H1 8451   2.986   2.242   2.525 -3.3709 -2.8214 -1.7030
 2815TIP3    H2 8452   2.943   2.346   2.424  0.2523  0.3867 -0.1849
 2816TIP3   OH2 8453   5.191   0.788   2.766  0.4922 -0.7390  0.5876
 2816TIP3    H1 8454   5.208   0.824   2.853 -0.1616 -0.7104  0.7103
 2816TIP3    H2 8455   5.099   0.808   2.749  0.9602  0.5197 -0.7037
 2817TIP3   OH2 8456   3.455   5.073   3.439  0.1052  0.0015  0.6169
 2817TIP3    H1 8457   3.540   5.106   3.407  0.5368  0.7720  2.4258
 2817TIP3    H2 8458   3.391   5.116   3.383  0.8769 -0.4201 -0.6466
 2818TIP3   OH2 8459   3.600   4.771   1.715  0.0954 -0.3092  0.1167
 2818TIP3    H1 8460   3.567   4.802   1.630  1.8745 -0.9666 -0.8726
 2818TIP3    H2 8461   3.549   4.692   1.732 -2.2124  1.2654  1.0884
 2819TIP3   OH2 8462   6.330   3.498   4.950  0.4141  0.2681 -0.6904
 2819TIP3    H1 8463   6.353   3.406   4.965 -0.8109 -0.3239 -2.2267
 2819TIP3    H2 8464   6.301   3.529   5.036  2.4518 -0.2335  0.2521
 2820TIP3   OH2 8465   0.474   4.954   2.650  0.6805 -0.3605 -0.5298
 2820TIP3    H1 8466   0.425   4.875   2.673 -0.3681  0.5540  0.5539
 2820TIP3    H2 8467   0.544   4.924   2.593 -0.1205 -1.9672 -0.7139
 2821TIP3   OH2 8468   0.203   3.773   0.112  0.7769  0.6592  0.5280
 2821TIP3    H1 8469   0.180   3.864   0.129 -0.4954  0.2027  1.3391
 2821TIP3    H2 8470   0.240   3.741   0.194 -1.4633 -0.3422  1.2298
 2822TIP3   OH2 8471   5.836   5.562   0.155 -0.6690 -0.1593  0.3980
 2822TIP3    H1 8472   5.849   5.643   0.106  0.9640 -0.5865  0.0581
 2822TIP3    H2 8473   5.773   5.585   0.224 -1.9978  0.7794 -1.0749
 2823TIP3   OH2 8474   2.507   4.315   1.968 -0.3008 -0.4093 -0.1554
 2823TIP3    H1 8475   2.414   4.292   1.961 -0.2591 -0.7285  0.2878
 2823TIP3    H2 8476   2.529   4.299   2.060  0.0205  0.3254 -0.0967
 2824TIP3   OH2 8477   5.613   0.857   2.812 -0.3703 -0.2568 -0.1014
 2824TIP3    H1 8478   5.605   0.879   2.719 -0.5409  0.0578 -0.0162
 2824TIP3    H2 8479   5.533   0.808   2.832 -0.3625 -0.2715 -0.1079
 2825TIP3   OH2 8480   4.216   3.259   3.713  0.3629 -0.1072  0.1945
 2825TIP3    H1 8481   4.208   3.288   3.803  2.1703 -1.1263  0.7378
 2825TIP3    H2 8482   4.186   3.168   3.714 -1.3984  0.4340 -0.6464
 2826TIP3   OH2 8483   5.234   5.931   4.916  0.2333  0.0057  0.0048
 2826TIP3    H1 8484   5.265   5.947   4.827 -0.6241  0.6518 -0.1829
 2826TIP3    H2 8485   5.292   5.984   4.971  0.4370  0.0045 -0.2072
 2827TIP3   OH2 8486   2.527   3.362   4.007  0.5694  0.4095  0.4137
 2827TIP3    H1 8487   2.461   3.412   3.960 -1.6228 -1.3605  1.4111
 2827TIP3    H2 8488   2.553   3.418   4.080 -1.8106  0.2272  1.4990
 2828TIP3   OH2 8489   4.784   4.370   2.161 -0.4653 -0.4071  0.2549
 2828TIP3    H1 8490   4.785   4.466   2.162 -0.5441 -0.4113  0.8001
 2828TIP3    H2 8491   4.861   4.347   2.108 -0.9440 -0.0412 -0.6271
 2829TIP3   OH2 8492   0.816   0.544   2.982 -0.2350 -0.2009  0.4531
 2829TIP3    H1 8493   0.900   0.590   2.988 -0.5467  0.4773 -0.2155
 2829TIP3    H2 8494   0.751   0.610   3.007 -0.6205 -0.5465  0.3639
 2830TIP3   OH2 8495   4.028   3.904   2.068 -0.6516  0.0373  0.3800
 2830TIP3    H1 8496   4.005   3.812   2.058  0.1127  0.0241 -1.4502
 2830TIP3    H2 8497   3.947   3.951   2.048 -0.5872 -0.1949 -0.4637
 2831TIP3   OH2 8498   2.466   1.604   1.464 -0.2443  0.3729  0.4665
 2831TIP3    H1 8499   2.373   1.596   1.441 -0.1182  0.1821  0.0126
 2831TIP3    H2 8500   2.512   1.575   1.385  0.2297  3.0528 -0.3174
 2832TIP3   OH2 8501   5.470   4.775   4.059  0.2362  0.1656 -0.0143
 2832TIP3    H1 8502   5.455   4.859   4.017 -0.4585 -0.0049 -0.1062
 2832TIP3    H2 8503   5.407   4.716   4.019  0.5057 -0.3266  0.2762
 2833TIP3   OH2 8504   3.945   3.687   2.276  1.1374 -0.3682  0.3137
 2833TIP3    H1 8505   4.017   3.625   2.286  1.7887  0.2385 -0.5173
 2833TIP3    H2 8506   3.904   3.663   2.193  0.5999 -0.4856  0.6106
 2834TIP3   OH2 8507   5.175   1.077   2.435  0.2883 -0.4690  0.0491
 2834TIP3    H1 8508   5.252   1.023   2.449 -0.8911 -2.4364 -0.5852
 2834TIP3    H2 8509   5.178   1.102   2.343  0.7979  0.5291  0.3259
 2835TIP3   OH2 8510   6.305   4.279   1.363 -0.0708  0.0267  0.0509
 2835TIP3    H1 8511   6.315   4.337   1.438  2.6532  0.1188 -0.2791
 2835TIP3    H2 8512   6.369   4.210   1.377  0.4609 -0.0131 -2.1296
 2836TIP3   OH2 8513   0.350   4.679   0.844  0.0488  0.3744 -0.0978
 2836TIP3    H1 8514   0.320   4.597   0.805 -0.1303  0.7180 -0.6940
 2836TIP3    H2 8515   0.273   4.712   0.891 -0.2636  0.8147 -0.8945
 2837TIP3   OH2 8516   0.546   3.785   4.144  0.0112  0.0947  0.3484
 2837TIP3    H1 8517   0.465   3.817   4.183 -0.4041 -2.4687  1.7924
 2837TIP3    H2 8518   0.599   3.755   4.218  0.8701 -1.3124 -0.7763
 2838TIP3   OH2 8519   5.472   5.947   4.642  0.1266  0.3978  0.0920
 2838TIP3    H1 8520   5.379   5.968   4.639  0.0998  0.1533 -1.1537
 2838TIP3    H2 8521   5.492   5.915   4.554  0.8311 -1.8429  0.9843
 2839TIP3   OH2 8522   3.022   3.116   3.177 -0.8531  0.3129 -0.0481
 2839TIP3    H1 8523   3.053   3.078   3.095  1.0413 -3.1454  2.0506
 2839TIP3    H2 8524   2.931   3.086   3.184 -0.0891 -2.0315  0.4690
 2840TIP3   OH2 8525   5.004   2.494   0.386 -0.2703 -0.7728 -0.5553
 2840TIP3    H1 8526   5.011   2.432   0.314  1.8117  0.2288 -1.3138
 2840TIP3    H2 8527   5.024   2.579   0.346 -0.1948 -0.0309  0.9876
 2841TIP3   OH2 8528   0.760   3.865   2.509 -0.3269 -0.1728 -0.2741
 2841TIP3    H1 8529   0.680   3.887   2.461 -0.9221 -2.3726 -0.4152
 2841TIP3    H2 8530   0.818   3.940   2.495 -1.5427  0.5038 -2.0379
 2842TIP3   OH2 8531   6.097   5.965   1.389  0.5741  0.2889  0.2184
 2842TIP3    H1 8532   6.149   5.890   1.359  1.3481  1.2166 -0.8700
 2842TIP3    H2 8533   6.063   6.004   1.308 -0.8684  0.3881  0.8518
 2843TIP3   OH2 8534   3.706   4.309   5.048  0.5620  0.1724  0.3160
 2843TIP3    H1 8535   3.744   4.283   5.132 -1.1060  1.0282  1.3855
 2843TIP3    H2 8536   3.659   4.231   5.018 -0.2397  0.3651  1.0322
 2844TIP3   OH2 8537   5.586   4.146   4.928 -0.3371 -0.3868 -0.1997
 2844TIP3    H1 8538   5.590   4.242   4.924  0.5517 -0.4476 -2.1108
 2844TIP3    H2 8539   5.674   4.120   4.955  0.5038 -0.6839 -2.8873
 2845TIP3   OH2 8540   0.596   0.716   2.246 -0.3760  0.3751 -0.1681
 2845TIP3    H1 8541   0.626   0.662   2.320 -0.3799 -0.3618 -0.6918
 2845TIP3    H2 8542   0.633   0.802   2.262 -0.5405  0.2774  0.8021
 2846TIP3   OH2 8543   5.998   0.971   2.202  0.9663  0.1490  0.4693
 2846TIP3    H1 8544   5.964   1.007   2.120  0.1011  0.0156  0.7577
 2846TIP3    H2 8545   6.032   0.885   2.178 -1.9078 -1.1692  0.6983
 2847TIP3   OH2 8546   6.234   5.301   4.095 -0.4031  0.1176  0.6831
 2847TIP3    H1 8547   6.220   5.368   4.163  0.3836 -0.3358  1.3158
 2847TIP3    H2 8548   6.328   5.284   4.098 -0.2265  0.5830 -1.0237
 2848TIP3   OH2 8549   4.023   4.384   0.277  0.0225 -0.4512 -0.0986
 2848TIP3    H1 8550   4.033   4.468   0.324 -0.6564 -1.1163  1.2838
 2848TIP3    H2 8551   4.112   4.363   0.249  0.5805 -0.3334  1.4674
 2849TIP3   OH2 8552   6.215   4.061   0.416  0.3204  0.2633  0.5972
 2849TIP3    H1 8553   6.242   3.997   0.351  0.9803  1.5846 -0.4659
 2849TIP3    H2 8554   6.225   4.016   0.500 -1.9843 -2.0082 -0.2195
 2850TIP3   OH2 8555   4.700   0.706   3.618  0.5133  0.0873  0.0704
 2850TIP3    H1 8556   4.685   0.655   3.697 -1.9523  1.7391  0.7705
 2850TIP3    H2 8557   4.724   0.794   3.649 -0.1532  0.6745 -1.0045
 2851TIP3   OH2 8558   1.312   0.031   0.784 -0.0170  0.1667  0.3984
 2851TIP3    H1 8559   1.306   0.123   0.809 -0.6967 -0.1657  1.5359
 2851TIP3    H2 8560   1.344   0.032   0.694 -0.9572  1.5457  0.0596
 2852TIP3   OH2 8561   5.521   0.665   0.284 -0.0199 -0.4472 -0.1836
 2852TIP3    H1 8562   5.441   0.617   0.263 -0.2990  0.0408 -0.2743
 2852TIP3    H2 8563   5.589   0.623   0.231 -0.4553 -0.1080 -1.0361
 2853TIP3   OH2 8564   3.687   0.542   0.700 -0.0279 -0.1663 -0.2481
 2853TIP3    H1 8565   3.634   0.614   0.664 -0.4469 -0.2889  0.1212
 2853TIP3    H2 8566   3.632   0.465   0.690  0.3106 -0.3954 -0.3804
 2854TIP3   OH2 8567   0.912   5.302   3.132  0.4567 -0.4460  0.1783
 2854TIP3    H1 8568   0.882   5.243   3.063  0.5530  0.1165 -0.3482
 2854TIP3    H2 8569   1.002   5.276   3.148  0.5458 -0.3446 -0.1586
 2855TIP3   OH2 8570   2.448   0.888   2.632 -0.2002 -0.4512  0.1635
 2855TIP3    H1 8571   2.369   0.883   2.685  0.3371  0.0492  1.0424
 2855TIP3    H2 8572   2.520   0.890   2.696  0.4475  0.4946 -0.5611
 2856TIP3   OH2 8573   0.387   2.937   4.832  0.1566 -0.1798 -0.6829
 2856TIP3    H1 8574   0.444   2.886   4.889 -2.4169 -0.8891  1.4664
 2856TIP3    H2 8575   0.418   3.027   4.841  1.2243 -0.6036 -0.0017
 2857TIP3   OH2 8576   5.875   1.708   3.219 -0.2561  0.4718 -0.0978
 2857TIP3    H1 8577   5.887   1.703   3.313  0.4555 -0.6343 -0.2314
 2857TIP3    H2 8578   5.806   1.773   3.207 -1.0330 -0.0664  1.2309
 2858TIP3   OH2 8579   0.791   1.194   2.830  0.2104 -0.1953 -0.1021
 2858TIP3    H1 8580   0.698   1.202   2.810  0.3093  2.4973  0.0861
 2858TIP3    H2 8581   0.796   1.206   2.925  0.7027 -0.9015 -0.0372
 2859TIP3   OH2 8582   4.576   4.859   4.880 -0.3957  0.0077 -0.4820
 2859TIP3    H1 8583   4.541   4.779   4.840  1.2920 -1.1525  0.2364
 2859TIP3    H2 8584   4.619   4.905   4.808 -1.2471  0.2212 -0.8686
 2860TIP3   OH2 8585   6.220   0.251   4.317  0.4058  0.0058  0.4503
 2860TIP3    H1 8586   6.200   0.178   4.376 -0.3424  1.1503  1.6773
 2860TIP3    H2 8587   6.263   0.316   4.373 -1.4280  1.6406  0.0628
 2861TIP3   OH2 8588   3.857   4.528   3.235 -0.8084  0.4694 -0.0407
 2861TIP3    H1 8589   3.904   4.520   3.318 -2.3116 -1.6002  0.7028
 2861TIP3    H2 8590   3.915   4.580   3.179  1.7178 -0.8134  1.2238
 2862TIP3   OH2 8591   4.346   4.178   5.099 -0.2032  0.1332 -0.2716
 2862TIP3    H1 8592   4.366   4.258   5.148 -0.0106  0.5536 -1.0067
 2862TIP3    H2 8593   4.405   4.181   5.024 -1.9146  0.6179 -1.6785
 2863TIP3   OH2 8594   6.203   4.494   3.408  0.1365 -0.5515 -0.5888
 2863TIP3    H1 8595   6.111   4.483   3.384 -0.8928  0.2241  2.4933
 2863TIP3    H2 8596   6.227   4.412   3.450  0.2715 -0.1724  0.1053
 2864TIP3   OH2 8597   4.880   4.020   3.230  0.2207 -0.8432 -0.0453
 2864TIP3    H1 8598   4.896   4.084   3.299  0.6459  0.0592 -0.9488
 2864TIP3    H2 8599   4.790   4.035   3.203  0.9271  0.8852 -1.6936
 2865TIP3   OH2 8600   3.562   0.725   0.548  0.3489  0.1557 -0.2063
 2865TIP3    H1 8601   3.564   0.803   0.492  1.6274 -0.5953 -1.2662
 2865TIP3    H2 8602   3.530   0.655   0.491 -0.6331 -0.1454  0.6885
 2866TIP3   OH2 8603   4.174   0.752   1.928 -0.0445 -0.1087  0.9267
 2866TIP3    H1 8604   4.187   0.702   1.847  1.7175 -1.0440  1.7168
 2866TIP3    H2 8605   4.087   0.791   1.919  0.3471  0.3163 -1.6609
 2867TIP3   OH2 8606   5.218   2.606   4.020  0.0839  0.0051 -0.2312
 2867TIP3    H1 8607   5.170   2.560   3.950 -2.5919  1.0214  0.7929
 2867TIP3    H2 8608   5.272   2.539   4.060 -1.0264 -1.4250 -1.0214
 2868TIP3   OH2 8609   1.665   0.239   2.305  0.0640 -0.3055  0.0182
 2868TIP3    H1 8610   1.703   0.327   2.303 -1.1370  0.2270 -0.0229
 2868TIP3    H2 8611   1.741   0.181   2.316  0.7055  0.8567  2.5723
 2869TIP3   OH2 8612   5.850   4.949   5.087 -0.2088  0.5606  0.0668
 2869TIP3    H1 8613   5.942   4.968   5.103 -0.1487  2.7024 -2.1583
 2869TIP3    H2 8614   5.847   4.915   4.998 -1.5658  0.5866  0.0756
 2870TIP3   OH2 8615   4.389   1.373   0.410  0.0085 -0.2703 -0.4919
 2870TIP3    H1 8616   4.432   1.319   0.477 -0.7547 -0.4105 -0.0963
 2870TIP3    H2 8617   4.460   1.403   0.354  0.8254  0.8139  1.0693
 2871TIP3   OH2 8618   4.176   0.077   3.098  0.3069 -0.0774 -0.2924
 2871TIP3    H1 8619   4.167   0.010   3.165  0.7566  0.0592 -0.0924
 2871TIP3    H2 8620   4.168   0.160   3.146  2.5400  0.0693 -0.0763
 2872TIP3   OH2 8621   2.406   4.165   3.143  0.0281 -0.0100 -0.1443
 2872TIP3    H1 8622   2.473   4.156   3.210  0.0396 -0.7643 -0.2490
 2872TIP3    H2 8623   2.410   4.083   3.094 -0.3929  0.2849 -0.6867
 2873TIP3   OH2 8624   0.198   5.202   2.680 -0.0439 -0.1122  0.0661
 2873TIP3    H1 8625   0.274   5.178   2.628  1.4877 -0.7882  2.4476
 2873TIP3    H2 8626   0.127   5.147   2.647  0.8577 -0.5174 -1.2402
 2874TIP3   OH2 8627   5.306   2.413   5.063  0.2931 -0.1587 -0.0949
 2874TIP3    H1 8628   5.385   2.416   5.010 -0.5000 -2.9988 -1.6761
 2874TIP3    H2 8629   5.258   2.493   5.041  1.2406  0.0234 -1.6262
 2875TIP3   OH2 8630   2.728   3.504   4.879  0.2852  0.4614  0.2512
 2875TIP3    H1 8631   2.696   3.414   4.877 -0.4447  0.6460  2.0082
 2875TIP3    H2 8632   2.675   3.546   4.946  0.9296  2.0953 -0.2362
 2876TIP3   OH2 8633   4.311   4.401   0.307 -0.0676 -0.3935 -0.3009
 2876TIP3    H1 8634   4.398   4.365   0.323 -0.5565 -1.3039  0.3578
 2876TIP3    H2 8635   4.316   4.437   0.218  0.4901 -1.9555 -0.9278
 2877TIP3   OH2 8636   5.059   5.484   3.347 -0.0789  0.9671  0.5925
 2877TIP3    H1 8637   5.119   5.436   3.403 -0.2027 -0.2419 -0.2713
 2877TIP3    H2 8638   5.101   5.484   3.261 -2.1292 -1.6840 -0.5538
 2878TIP3   OH2 8639   4.338   0.310   1.042 -0.0066  0.1823  0.1030
 2878TIP3    H1 8640   4.289   0.352   0.971 -0.9234 -1.6253 -0.3840
 2878TIP3    H2 8641   4.422   0.286   1.001 -0.4510 -0.6629 -0.3445
 2879TIP3   OH2 8642   0.383   4.995   3.403 -0.2637 -0.2648  0.3511
 2879TIP3    H1 8643   0.428   5.021   3.483  0.1384 -2.0971  0.7618
 2879TIP3    H2 8644   0.405   4.903   3.392 -0.3159 -0.0602 -1.8788
 2880TIP3   OH2 8645   1.116   5.429   4.892  0.4794 -0.6475 -0.1950
 2880TIP3    H1 8646   1.096   5.479   4.971  0.0130  0.3574 -0.9230
 2880TIP3    H2 8647   1.143   5.343   4.924 -1.6465 -0.9361  0.9789
 2881TIP3   OH2 8648   1.988   0.726   2.645 -0.5786  0.1625  0.6383
 2881TIP3    H1 8649   1.945   0.700   2.564 -0.7145  0.7695  0.5095
 2881TIP3    H2 8650   2.051   0.656   2.663 -1.5822 -0.7056  0.8070
 2882TIP3   OH2 8651   0.735   5.321   1.209 -0.0059  0.7773 -0.0578
 2882TIP3    H1 8652   0.720   5.358   1.296  0.9027 -1.7374  1.2737
 2882TIP3    H2 8653   0.826   5.345   1.188  0.6985 -0.8491  0.9557
 2883TIP3   OH2 8654   1.649   0.145   3.979 -0.0523 -0.3013 -0.4592
 2883TIP3    H1 8655   1.624   0.116   4.067  0.3494  1.4082  0.2415
 2883TIP3    H2 8656   1.566   0.174   3.939  0.1469  1.5632  0.4024
 2884TIP3   OH2 8657   0.172   0.170   4.070 -0.1161  0.1368 -0.5174
 2884TIP3    H1 8658   0.220   0.168   3.988 -0.3576  1.0021 -0.6893
 2884TIP3    H2 8659   0.080   0.165   4.044 -0.1760 -0.0673 -0.2702
 2885TIP3   OH2 8660   0.145   5.642   1.053 -0.5837  0.0387  0.0477
 2885TIP3    H1 8661   0.139   5.730   1.089  0.0202  0.0043  0.2367
 2885TIP3    H2 8662   0.060   5.627   1.012 -1.1091  0.2835  1.0067
 2886TIP3   OH2 8663   4.548   5.158   0.126 -0.0822 -0.0505 -0.1449
 2886TIP3    H1 8664   4.497   5.226   0.084 -0.5033 -0.8840 -1.0225
 2886TIP3    H2 8665   4.525   5.078   0.079 -0.8063 -1.0851  1.8668
 2887TIP3   OH2 8666   4.601   4.821   4.449  0.8060  0.2702 -0.0114
 2887TIP3    H1 8667   4.659   4.807   4.523  1.9103 -0.9464 -1.0490
 2887TIP3    H2 8668   4.654   4.866   4.384  0.1160  0.5536 -0.3924
 2888TIP3   OH2 8669   5.766   5.275   0.141 -0.2175 -1.1269  0.1034
 2888TIP3    H1 8670   5.672   5.258   0.128  0.1966 -1.7829 -2.8369
 2888TIP3    H2 8671   5.776   5.367   0.117 -0.2417 -0.7553  1.4720
 2889TIP3   OH2 8672   1.656   0.725   0.798 -0.3394 -0.4077 -0.3724
 2889TIP3    H1 8673   1.604   0.660   0.750  0.2383 -0.8030 -0.4624
 2889TIP3    H2 8674   1.608   0.738   0.880 -1.2427  0.1449 -0.9726
 2890TIP3   OH2 8675   3.870  -0.020   4.229 -0.0139  0.3996  0.1447
 2890TIP3    H1 8676   3.875  -0.002   4.135  0.9415  0.2233  0.1494
 2890TIP3    H2 8677   3.839   0.063   4.268 -0.6211  0.4039 -0.3342
 2891TIP3   OH2 8678   3.584   5.424   2.314 -0.4030  0.3491 -0.8229
 2891TIP3    H1 8679   3.533   5.412   2.393  1.2183  1.3477  0.4401
 2891TIP3    H2 8680   3.612   5.336   2.289 -0.9315  0.0299 -0.3118
 2892TIP3   OH2 8681   0.712   3.349   3.784 -0.1778 -0.1734  0.4321
 2892TIP3    H1 8682   0.621   3.350   3.814 -1.3614  0.9672 -2.7766
 2892TIP3    H2 8683   0.734   3.442   3.776  1.5173 -0.4344  1.7279
 2893TIP3   OH2 8684   4.287   3.685   4.233  0.0642 -0.7823 -0.4487
 2893TIP3    H1 8685   4.290   3.603   4.184  1.5579 -1.3629  0.5424
 2893TIP3    H2 8686   4.378   3.710   4.244 -0.3522  0.9446 -0.5618
 2894TIP3   OH2 8687   3.228   0.978   2.295 -0.5166  0.4294 -0.1050
 2894TIP3    H1 8688   3.269   1.019   2.219 -1.2360  2.8149  0.7115
 2894TIP3    H2 8689   3.196   0.894   2.262  0.4482  0.7599 -2.0504
 2895TIP3   OH2 8690   1.870   0.868   1.567 -0.0142 -0.1896 -0.0545
 2895TIP3    H1 8691   1.848   0.791   1.515  0.3142 -1.0646  1.0621
 2895TIP3    H2 8692   1.961   0.887   1.545 -0.2412  0.1716 -0.6859
 2896TIP3   OH2 8693   4.387   3.765   3.555 -0.3343  0.1779  0.8632
 2896TIP3    H1 8694   4.297   3.787   3.579 -0.0486  2.0422  0.4143
 2896TIP3    H2 8695   4.435   3.770   3.638 -0.2092  1.8064  0.7270
 2897TIP3   OH2 8696   3.495   4.880   1.053 -0.2742 -0.4443 -0.1042
 2897TIP3    H1 8697   3.568   4.935   1.082  0.6242 -1.0441 -1.1358
 2897TIP3    H2 8698   3.426   4.895   1.118  0.6957  0.2866  0.7900
 2898TIP3   OH2 8699   1.366   4.798   3.420  0.4664  0.1179  0.2639
 2898TIP3    H1 8700   1.409   4.718   3.390 -0.4764  0.0079 -0.8591
 2898TIP3    H2 8701   1.302   4.819   3.351 -1.5126  0.0976  1.9814
 2899TIP3   OH2 8702   3.473   1.159   0.931  0.8414 -0.2288 -0.1978
 2899TIP3    H1 8703   3.470   1.123   0.843  0.7782  0.0029 -0.2921
 2899TIP3    H2 8704   3.495   1.085   0.988  1.1341 -0.3260 -0.4370
 2900TIP3   OH2 8705   2.957   3.041   3.626 -0.8061  0.3855 -0.6420
 2900TIP3    H1 8706   3.006   3.019   3.705 -2.5475 -1.1667  0.0987
 2900TIP3    H2 8707   2.984   3.130   3.604  2.5307 -0.4790 -0.5092
 2901TIP3   OH2 8708   0.529   0.180   3.516 -0.3458  0.4487 -0.6811
 2901TIP3    H1 8709   0.527   0.268   3.555  2.1882  0.2003  0.1769
 2901TIP3    H2 8710   0.507   0.121   3.589  0.7038  0.2295 -0.5223
 2902TIP3   OH2 8711   5.368   2.899   4.895  0.4846 -0.2504  0.4827
 2902TIP3    H1 8712   5.293   2.904   4.954 -2.0237 -0.0697 -2.4398
 2902TIP3    H2 8713   5.330   2.878   4.810  4.0431 -2.8430 -0.7363
 2903TIP3   OH2 8714   0.283   2.369   3.120  0.1576 -0.3116 -0.0560
 2903TIP3    H1 8715   0.226   2.420   3.062 -1.4956 -1.5456  0.3858
 2903TIP3    H2 8716   0.255   2.393   3.209  0.3896 -0.8328  0.1671
 2904TIP3   OH2 8717   3.386   1.704   1.325 -0.0820  0.2356 -0.1283
 2904TIP3    H1 8718   3.301   1.747   1.319 -0.5613 -0.4897  1.0263
 2904TIP3    H2 8719   3.448   1.775   1.342 -0.4351  0.7730 -1.0145
 2905TIP3   OH2 8720   0.933   2.792   1.284  0.1561  0.3404 -0.3095
 2905TIP3    H1 8721   0.986   2.819   1.359  0.5918 -2.5423  0.5295
 2905TIP3    H2 8722   0.847   2.830   1.301  0.6120  0.8812  0.9146
 2906TIP3   OH2 8723   0.033   1.226   3.806 -0.3277  0.3420  0.8805
 2906TIP3    H1 8724   0.008   1.199   3.718 -1.2192  1.0409  0.9036
 2906TIP3    H2 8725   0.076   1.149   3.843  2.4405  0.8459 -1.0431
 2907TIP3   OH2 8726   2.910   2.404   3.790  0.3064  0.4989 -0.8429
 2907TIP3    H1 8727   2.833   2.379   3.739  0.4821 -0.8664 -0.4997
 2907TIP3    H2 8728   2.878   2.407   3.881  1.0252 -2.1410 -0.4104
 2908TIP3   OH2 8729   4.957   2.133   4.307  0.3385 -0.3536 -0.2416
 2908TIP3    H1 8730   4.895   2.129   4.234  1.3415  2.1347 -1.3430
 2908TIP3    H2 8731   5.042   2.152   4.266  1.0987  0.2605  1.5057
 2909TIP3   OH2 8732   5.478   2.000   0.625  0.3815 -0.2299 -0.0345
 2909TIP3    H1 8733   5.492   2.094   0.614 -1.4408  0.1760  0.6328
 2909TIP3    H2 8734   5.504   1.983   0.716 -1.0755  0.0497  0.4575
 2910TIP3   OH2 8735   6.192   3.402   1.031 -0.7323  0.0940 -0.3798
 2910TIP3    H1 8736   6.139   3.390   0.953  0.3320  0.1707 -1.1377
 2910TIP3    H2 8737   6.277   3.432   0.998 -0.2704  0.1496  0.8053
 2911TIP3   OH2 8738   3.296   0.737   4.049 -0.0306 -0.1431  0.1782
 2911TIP3    H1 8739   3.255   0.677   3.987  0.8219 -0.9330  0.3534
 2911TIP3    H2 8740   3.379   0.762   4.007 -0.0297  0.3211  0.4405
 2912TIP3   OH2 8741   2.511   5.872   4.014 -0.5565  0.0875  0.3312
 2912TIP3    H1 8742   2.541   5.963   4.014 -1.7321  0.4914  0.6826
 2912TIP3    H2 8743   2.433   5.873   4.069 -2.0385 -0.6345 -1.6544
 2913TIP3   OH2 8744   0.185   4.738   2.524 -0.0052 -0.1676 -0.1053
 2913TIP3    H1 8745   0.173   4.747   2.618  0.5720  0.8432 -0.1193
 2913TIP3    H2 8746   0.145   4.654   2.503  0.5956 -0.7938  1.1655
 2914TIP3   OH2 8747   0.811   2.032   4.142 -0.4305  0.4328  0.3280
 2914TIP3    H1 8748   0.855   2.040   4.227  1.0495 -2.5179 -0.0260
 2914TIP3    H2 8749   0.882   2.029   4.078 -1.4925  1.8279 -0.9940
 2915TIP3   OH2 8750   2.075   2.251   0.173  0.0294  0.0937  0.3540
 2915TIP3    H1 8751   2.034   2.195   0.238 -2.4791 -0.6628 -1.7331
 2915TIP3    H2 8752   2.069   2.339   0.210 -2.0468 -0.2117  0.8525
 2916TIP3   OH2 8753   1.941   0.339   4.540 -0.6902  0.2362  0.2645
 2916TIP3    H1 8754   1.972   0.386   4.618  1.6759  3.4670 -2.3666
 2916TIP3    H2 8755   1.846   0.350   4.541 -0.6612  0.6721  2.3539
 2917TIP3   OH2 8756   3.703   5.524   2.043  0.3112 -0.1256 -0.3689
 2917TIP3    H1 8757   3.773   5.466   2.014 -1.0072 -2.9572  1.6522
 2917TIP3    H2 8758   3.667   5.561   1.963  1.5789 -1.6751 -1.7129
 2918TIP3   OH2 8759   0.467   5.049   3.163  0.2847 -0.5785 -0.0879
 2918TIP3    H1 8760   0.535   5.116   3.155 -0.3766  0.0874 -0.2375
 2918TIP3    H2 8761   0.472   5.019   3.254  1.1787 -0.9777 -0.2625
 2919TIP3   OH2 8762   5.602   0.996   3.223  0.4808 -0.0906  0.1327
 2919TIP3    H1 8763   5.599   0.901   3.238  2.8768 -0.3106 -0.3790
 2919TIP3    H2 8764   5.644   1.031   3.302 -2.0632  0.8574  1.1751
 2920TIP3   OH2 8765   4.606   5.824   4.613  0.7184 -0.0673 -0.2377
 2920TIP3    H1 8766   4.579   5.914   4.591 -2.4714 -0.8881 -0.2825
 2920TIP3    H2 8767   4.643   5.790   4.532  1.0709  0.9187 -0.5057
 2921TIP3   OH2 8768   0.945   3.786   1.306  0.4565 -0.3494 -0.2583
 2921TIP3    H1 8769   0.926   3.693   1.296 -1.0321 -0.2690  1.3597
 2921TIP3    H2 8770   0.999   3.808   1.230  1.9189 -2.7910 -0.0229
 2922TIP3   OH2 8771   1.352   0.774   3.418  0.0674  0.6858  0.1165
 2922TIP3    H1 8772   1.333   0.845   3.357 -0.4901 -0.6050 -1.2842
 2922TIP3    H2 8773   1.279   0.712   3.407  1.0421 -0.5900  0.5244
 2923TIP3   OH2 8774   0.148   5.373   3.432  0.3294 -0.8122  0.2670
 2923TIP3    H1 8775   0.136   5.302   3.370  0.6737 -0.0207 -0.7357
 2923TIP3    H2 8776   0.243   5.381   3.442  0.6100  2.1853 -2.9369
 2924TIP3   OH2 8777   4.417   4.798   0.124 -0.3183 -0.2456 -0.0072
 2924TIP3    H1 8778   4.444   4.857   0.054  1.4421 -1.8407 -0.7883
 2924TIP3    H2 8779   4.329   4.826   0.148 -0.1041  1.7218 -1.3293
 2925TIP3   OH2 8780   3.670   5.078   1.093 -0.3698  0.3561 -0.4795
 2925TIP3    H1 8781   3.756   5.101   1.128 -1.1587 -0.5923  2.3498
 2925TIP3    H2 8782   3.616   5.155   1.111 -0.6093  0.1559 -0.3460
 2926TIP3   OH2 8783   6.271   4.784   0.742  0.2407  0.4073 -0.1543
 2926TIP3    H1 8784   6.177   4.786   0.760 -0.3981  3.7072 -2.8305
 2926TIP3    H2 8785   6.287   4.697   0.706 -1.4642 -0.6818  1.5498
 2927TIP3   OH2 8786   1.223   4.942   4.235  0.1027 -0.1329 -0.3769
 2927TIP3    H1 8787   1.272   4.936   4.153  0.9588  2.1647 -0.0990
 2927TIP3    H2 8788   1.139   4.979   4.210 -0.1024 -0.5797 -0.3607
 2928TIP3   OH2 8789   5.298   1.746   2.921  0.3700 -0.1128 -0.1214
 2928TIP3    H1 8790   5.268   1.836   2.926  0.8016  0.0205  0.1424
 2928TIP3    H2 8791   5.252   1.701   2.993  3.1332  0.7961  2.4424
 2929TIP3   OH2 8792   0.245   1.954   4.611 -0.1089 -0.2675 -0.7364
 2929TIP3    H1 8793   0.177   1.906   4.563 -1.4457  0.7567  0.0626
 2929TIP3    H2 8794   0.211   2.043   4.616  2.3801  0.8819 -2.3619
 2930TIP3   OH2 8795   0.961   0.559   0.943 -0.2234 -0.1960 -0.3254
 2930TIP3    H1 8796   0.903   0.635   0.943  0.5053  0.3746 -1.1166
 2930TIP3    H2 8797   1.037   0.586   0.892  0.5760 -1.0585  0.3557
 2931TIP3   OH2 8798   1.137   5.340   2.858  0.0843  0.1628  0.0022
 2931TIP3    H1 8799   1.204   5.289   2.812 -0.7342 -0.2837 -0.7199
 2931TIP3    H2 8800   1.054   5.308   2.822 -0.4491  2.0235 -0.4889
 2932TIP3   OH2 8801   3.814   3.810   3.224  0.0746 -0.1867  0.3993
 2932TIP3    H1 8802   3.789   3.873   3.156 -1.4195  0.9575  1.9387
 2932TIP3    H2 8803   3.908   3.799   3.212  0.6412  3.2476  0.7568
 2933TIP3   OH2 8804   5.469   5.689   2.838 -0.4438  0.1726  0.1439
 2933TIP3    H1 8805   5.452   5.596   2.851 -2.1789  0.2446 -1.1637
 2933TIP3    H2 8806   5.518   5.694   2.756 -1.3367  0.4378 -0.3931
 2934TIP3   OH2 8807   5.258   1.289   2.601 -0.7063  0.5281  0.6377
 2934TIP3    H1 8808   5.269   1.200   2.568 -0.3124  0.4852  0.8749
 2934TIP3    H2 8809   5.180   1.322   2.556 -1.0748 -0.0649  0.8290
 2935TIP3   OH2 8810   1.594   3.789   1.204 -0.1877 -0.6899  0.0135
 2935TIP3    H1 8811   1.610   3.825   1.291  2.0337 -0.6762 -0.3406
 2935TIP3    H2 8812   1.674   3.741   1.183 -0.6808 -0.7267 -2.0096
 2936TIP3   OH2 8813   3.211   5.664   1.063  0.1549 -0.3362 -0.2008
 2936TIP3    H1 8814   3.212   5.570   1.076 -0.1596 -0.2042  0.8594
 2936TIP3    H2 8815   3.258   5.678   0.981  1.3312 -1.3114  0.2761
 2937TIP3   OH2 8816   5.753   1.811   3.843 -0.5339  0.2957 -0.1377
 2937TIP3    H1 8817   5.659   1.792   3.846 -0.3478 -0.6297  0.3435
 2937TIP3    H2 8818   5.765   1.863   3.764 -1.5340  0.8803  0.0880
 2938TIP3   OH2 8819   2.142   4.943   5.121 -0.3731 -0.4238 -0.4114
 2938TIP3    H1 8820   2.166   5.003   5.192 -0.5471 -0.4910 -0.2939
 2938TIP3    H2 8821   2.112   4.864   5.166  0.2550 -0.7564 -0.5734
 2939TIP3   OH2 8822   4.819   3.592   4.846 -0.1909  0.0218  0.1082
 2939TIP3    H1 8823   4.816   3.670   4.900  1.3812 -1.9411  3.3267
 2939TIP3    H2 8824   4.728   3.574   4.823 -0.8214  1.4103  1.4018
 2940TIP3   OH2 8825   0.656   4.859   0.222 -0.6574 -0.5193 -0.2858
 2940TIP3    H1 8826   0.582   4.915   0.197  0.7298  1.2690 -0.6357
 2940TIP3    H2 8827   0.733   4.913   0.203  0.6961 -1.7607  1.4292
 2941TIP3   OH2 8828   1.232   4.381   3.919  0.1746  0.0776  0.4057
 2941TIP3    H1 8829   1.242   4.349   3.830 -1.4854 -0.6033  0.4440
 2941TIP3    H2 8830   1.319   4.416   3.941  0.8096 -0.3935 -1.1963
 2942TIP3   OH2 8831   2.464   4.616   0.533 -0.1445 -0.4548  0.3251
 2942TIP3    H1 8832   2.459   4.697   0.482  0.4097  0.2660  1.3720
 2942TIP3    H2 8833   2.523   4.560   0.482 -1.3165 -0.6202 -0.9202
 2943TIP3   OH2 8834   5.984   2.674   3.103  0.0043  0.3863  0.2434
 2943TIP3    H1 8835   5.911   2.663   3.164 -0.3983  0.9807 -0.1181
 2943TIP3    H2 8836   6.012   2.765   3.115  0.5902  0.2067  0.2713
 2944TIP3   OH2 8837   4.996   1.746   2.935  0.1330  0.3212 -0.0598
 2944TIP3    H1 8838   5.013   1.683   3.005 -0.6178 -0.7032 -0.7541
 2944TIP3    H2 8839   4.929   1.804   2.969 -0.0410 -0.0095  0.1664
 2945TIP3   OH2 8840   1.049   2.721   2.431  0.2721 -0.9028 -0.2116
 2945TIP3    H1 8841   0.959   2.702   2.456  0.7352 -1.0947  1.4585
 2945TIP3    H2 8842   1.071   2.800   2.479  1.4316 -1.6545  0.5624
 2946TIP3   OH2 8843   5.777   3.447   2.091  0.0389 -0.1996  0.5490
 2946TIP3    H1 8844   5.717   3.481   2.024  1.5538  0.7988 -0.3592
 2946TIP3    H2 8845   5.807   3.364   2.057  0.0826 -0.1393  0.4407
 2947TIP3   OH2 8846   2.848   0.151   1.146 -0.3769  0.2654  0.4747
 2947TIP3    H1 8847   2.904   0.075   1.132  0.3050  0.2301  2.8972
 2947TIP3    H2 8848   2.873   0.213   1.077  1.1328 -0.5788  0.2163
 2948TIP3   OH2 8849   4.558   2.526   3.245  0.5035 -0.9418 -0.0184
 2948TIP3    H1 8850   4.649   2.516   3.216  0.4045 -1.3105 -0.2032
 2948TIP3    H2 8851   4.506   2.513   3.166  0.3207  0.1086 -0.0868
 2949TIP3   OH2 8852   3.937   1.881   2.789 -0.1966 -0.1817 -0.2574
 2949TIP3    H1 8853   3.993   1.811   2.822 -1.1628 -0.4077  0.9637
 2949TIP3    H2 8854   3.997   1.954   2.774  0.7405 -1.0778 -1.0674
 2950TIP3   OH2 8855   2.314   5.261   2.700 -0.0992  0.0431  0.1132
 2950TIP3    H1 8856   2.290   5.349   2.671  0.1721 -0.1360 -0.6877
 2950TIP3    H2 8857   2.361   5.224   2.625 -0.9366 -1.0803  0.1327
 2951TIP3   OH2 8858   4.915   5.681   3.922  0.7231  0.2192  0.1512
 2951TIP3    H1 8859   4.985   5.744   3.908 -0.1221  1.2960  0.6193
 2951TIP3    H2 8860   4.869   5.675   3.838  1.6362 -0.8612 -0.3019
 2952TIP3   OH2 8861   2.837   3.763   4.124  0.0358 -0.7459  0.3139
 2952TIP3    H1 8862   2.769   3.812   4.170  0.0385 -1.6410  1.2895
 2952TIP3    H2 8863   2.912   3.763   4.183  0.8220  0.0028 -0.6395
 2953TIP3   OH2 8864   5.440   4.342   2.501  0.1043 -0.1228 -0.1916
 2953TIP3    H1 8865   5.405   4.394   2.573  0.4687  0.3259 -0.3363
 2953TIP3    H2 8866   5.534   4.338   2.517  0.0423 -1.0760  0.0354
 2954TIP3   OH2 8867   4.366   2.247   0.601  0.0015  0.3537 -0.3172
 2954TIP3    H1 8868   4.393   2.250   0.692  1.6424 -0.0961 -0.7529
 2954TIP3    H2 8869   4.362   2.339   0.574  1.6837  0.4579 -0.3517
 2955TIP3   OH2 8870   0.407   1.873   3.852  0.2419 -0.5276  0.1866
 2955TIP3    H1 8871   0.499   1.861   3.878  0.9827  0.3398 -1.8457
 2955TIP3    H2 8872   0.363   1.899   3.933  1.9510 -0.1840  1.0614
 2956TIP3   OH2 8873   3.026   3.306   3.365 -0.1392  0.2507 -0.3681
 2956TIP3    H1 8874   3.014   3.387   3.317  0.3112  0.6437  0.1685
 2956TIP3    H2 8875   3.022   3.237   3.299 -0.8598  0.6848 -0.7768
 2957TIP3   OH2 8876   1.320   3.010   4.518 -0.1087  0.5605  0.2836
 2957TIP3    H1 8877   1.336   2.949   4.591 -0.4664 -0.5895 -0.5579
 2957TIP3    H2 8878   1.312   2.953   4.442 -0.6282  1.6781 -0.5162
 2958TIP3   OH2 8879   4.526   4.395   1.420 -0.6469  0.0301 -0.4095
 2958TIP3    H1 8880   4.537   4.483   1.457  0.0796  0.0441 -0.6437
 2958TIP3    H2 8881   4.602   4.346   1.452 -1.2489 -0.6306  0.0402
 2959TIP3   OH2 8882   5.278   2.174   3.509 -1.2394  0.0277  0.4974
 2959TIP3    H1 8883   5.367   2.173   3.543 -1.1106  0.6418  0.1869
 2959TIP3    H2 8884   5.287   2.143   3.419 -1.7250 -2.7301  1.2938
 2960TIP3   OH2 8885   2.255   0.785   2.177 -0.0327 -0.0702 -0.4636
 2960TIP3    H1 8886   2.273   0.699   2.139 -1.8564 -0.8045  0.2562
 2960TIP3    H2 8887   2.171   0.811   2.139 -0.8923  0.0931  1.4376
 2961TIP3   OH2 8888   0.326   4.736   2.306 -0.3784 -0.1003 -0.0331
 2961TIP3    H1 8889   0.258   4.748   2.373 -0.0264 -1.5224  0.6177
 2961TIP3    H2 8890   0.408   4.734   2.355  0.0502  0.4985 -0.7028
 2962TIP3   OH2 8891   4.738   2.680   2.884  0.0188  0.0117  0.2713
 2962TIP3    H1 8892   4.648   2.650   2.873 -0.2540 -0.5495  3.3100
 2962TIP3    H2 8893   4.736   2.737   2.960  2.0632  0.9227 -0.2844
 2963TIP3   OH2 8894   2.396   5.618   1.423  0.3144 -0.0047  0.0128
 2963TIP3    H1 8895   2.342   5.570   1.361  1.4646  0.1029 -1.1110
 2963TIP3    H2 8896   2.355   5.603   1.508 -3.1291  2.3474 -1.0509
 2964TIP3   OH2 8897   1.207   0.645   0.820  0.6403 -0.3179 -0.1052
 2964TIP3    H1 8898   1.261   0.666   0.896 -0.5852  0.9252  0.4709
 2964TIP3    H2 8899   1.233   0.708   0.753  0.6867 -0.4536 -0.2163
 2965TIP3   OH2 8900   3.060   3.738   3.587 -0.1249  0.6436  0.2835
 2965TIP3    H1 8901   3.111   3.670   3.542  0.1644  1.0342  0.0114
 2965TIP3    H2 8902   3.116   3.816   3.583 -0.2728  0.7894  0.9695
 2966TIP3   OH2 8903   0.192   4.892   4.527  0.4223 -0.5456  0.3116
 2966TIP3    H1 8904   0.169   4.956   4.460  1.3686 -2.2607 -1.7680
 2966TIP3    H2 8905   0.232   4.944   4.597  2.2919  1.0660 -1.7978
 2967TIP3   OH2 8906   0.841   0.263   3.062  0.1500 -0.0774 -0.1940
 2967TIP3    H1 8907   0.800   0.228   2.983  2.3064  0.6374 -1.7303
 2967TIP3    H2 8908   0.819   0.356   3.062  0.2438 -0.0544 -0.0131
 2968TIP3   OH2 8909   5.692   3.399   3.893  1.0834  0.1900  0.1878
 2968TIP3    H1 8910   5.752   3.348   3.949  2.5073  1.7815  0.2022
 2968TIP3    H2 8911   5.689   3.349   3.811  1.5549 -0.4997  0.5725
 2969TIP3   OH2 8912   2.261   1.269   1.281 -0.0601 -0.4978 -0.2081
 2969TIP3    H1 8913   2.220   1.354   1.299  1.6986  0.2704  0.3701
 2969TIP3    H2 8914   2.348   1.291   1.248  0.6092 -2.0797  0.4206
 2970TIP3   OH2 8915   4.534   0.735   2.859  0.0950  0.3895  0.2267
 2970TIP3    H1 8916   4.620   0.727   2.901  0.1882  0.5346  0.0660
 2970TIP3    H2 8917   4.492   0.650   2.874 -0.3368  0.8171  1.6332
 2971TIP3   OH2 8918   2.761   1.638   4.294  0.5361 -0.1941  0.1555
 2971TIP3    H1 8919   2.687   1.680   4.251  0.1223 -1.4786 -0.4435
 2971TIP3    H2 8920   2.793   1.703   4.357 -0.1457  0.9369 -0.6415
 2972TIP3   OH2 8921   5.004   3.769   2.552  0.6597 -0.0139 -0.1031
 2972TIP3    H1 8922   5.032   3.793   2.463  1.0743  1.9158  0.4952
 2972TIP3    H2 8923   4.934   3.831   2.572  0.3773 -0.6136  0.8144
 2973TIP3   OH2 8924   4.723   0.482   0.617 -0.5966  0.5006 -0.0930
 2973TIP3    H1 8925   4.739   0.447   0.704 -1.2028 -0.8706 -0.4972
 2973TIP3    H2 8926   4.790   0.441   0.562 -2.0355 -1.0459 -0.7970
 2974TIP3   OH2 8927   2.947   1.312   4.850  0.4652  0.5173  0.0721
 2974TIP3    H1 8928   3.023   1.343   4.898 -0.3631  1.2921  0.9283
 2974TIP3    H2 8929   2.969   1.326   4.757  1.2143  1.0604  0.3230
 2975TIP3   OH2 8930   0.350   1.580   0.507 -0.2123 -0.2225 -0.1688
 2975TIP3    H1 8931   0.332   1.642   0.437  1.9263  0.0505 -0.5397
 2975TIP3    H2 8932   0.428   1.614   0.550  0.3726 -2.0656  0.3255
 2976TIP3   OH2 8933   1.451   1.463   0.694  0.2793 -0.0374  0.3896
 2976TIP3    H1 8934   1.453   1.558   0.705 -0.6844 -0.1028  1.2951
 2976TIP3    H2 8935   1.391   1.432   0.761  0.3649 -1.2714 -0.0676
 2977TIP3   OH2 8936   0.842   1.715   0.678  0.3004  0.5811 -0.6121
 2977TIP3    H1 8937   0.936   1.730   0.662  0.1241 -0.0401 -2.4281
 2977TIP3    H2 8938   0.822   1.634   0.631 -0.7035 -0.5369  1.5983
 2978TIP3   OH2 8939   1.931   4.436   3.680  0.1545  0.1274  0.1851
 2978TIP3    H1 8940   1.935   4.340   3.681  0.7208  0.0990 -1.5432
 2978TIP3    H2 8941   1.914   4.460   3.771  2.2212 -1.5157  1.0852
 2979TIP3   OH2 8942   0.642   3.567   3.509  0.0769  0.3106  0.4251
 2979TIP3    H1 8943   0.574   3.593   3.446 -0.6060 -1.2670  0.4727
 2979TIP3    H2 8944   0.722   3.610   3.476 -0.4427  0.2221 -1.0400
 2980TIP3   OH2 8945   4.990   0.287   3.788  0.2565 -0.6892  0.0259
 2980TIP3    H1 8946   4.911   0.253   3.746 -0.1435 -1.2051  1.1520
 2980TIP3    H2 8947   5.048   0.311   3.716 -0.7718 -0.6778 -0.8126
 2981TIP3   OH2 8948   5.463   5.612   0.271  0.9776  0.3155 -0.2665
 2981TIP3    H1 8949   5.543   5.655   0.300  1.8775 -0.3119 -1.6899
 2981TIP3    H2 8950   5.428   5.670   0.203 -0.5661  1.2822  1.2636
 2982TIP3   OH2 8951   1.194   1.327   5.049  0.1245 -0.2511  0.3207
 2982TIP3    H1 8952   1.144   1.366   5.121  0.8840 -1.4443  1.5367
 2982TIP3    H2 8953   1.231   1.403   5.003 -0.4116  0.5479  1.1551
 2983TIP3   OH2 8954   5.442   1.325   1.454 -0.2476 -0.2529 -0.3864
 2983TIP3    H1 8955   5.506   1.357   1.391  2.9830 -0.5262  2.4234
 2983TIP3    H2 8956   5.401   1.404   1.490 -0.5918  0.0089 -1.3377
 2984TIP3   OH2 8957   5.625   1.735   2.840  0.0495  0.8622 -0.1524
 2984TIP3    H1 8958   5.547   1.685   2.863  0.4669  0.7661  1.1077
 2984TIP3    H2 8959   5.698   1.677   2.862  0.4952  1.0235 -1.1464
 2985TIP3   OH2 8960   4.075   3.452   1.673 -0.2948 -0.1924  0.0275
 2985TIP3    H1 8961   4.020   3.480   1.599  0.3204 -0.1927 -0.4449
 2985TIP3    H2 8962   4.067   3.357   1.675 -2.1820 -0.0492  1.4704
 2986TIP3   OH2 8963   5.195   1.006   1.642  0.1231  0.4071  0.3039
 2986TIP3    H1 8964   5.161   0.991   1.553  0.4224  2.2184 -0.1573
 2986TIP3    H2 8965   5.117   1.003   1.697 -0.1603 -0.0551 -0.1055
 2987TIP3   OH2 8966   5.002   3.815   1.230 -0.3006 -0.5039 -0.4421
 2987TIP3    H1 8967   5.063   3.883   1.202 -0.9597 -0.2342 -1.2660
 2987TIP3    H2 8968   5.058   3.740   1.251  0.5678  0.6547  1.7503
 2988TIP3   OH2 8969   2.046   4.962   3.913  0.2214 -1.0031  0.1849
 2988TIP3    H1 8970   2.042   4.874   3.873  1.8918 -0.2900 -1.7348
 2988TIP3    H2 8971   2.126   4.962   3.964  0.7489 -0.3192 -0.6155
 2989TIP3   OH2 8972   3.871   3.380   2.500 -0.2629 -0.0014 -0.4856
 2989TIP3    H1 8973   3.859   3.455   2.559  0.3114  0.8489 -1.4215
 2989TIP3    H2 8974   3.827   3.308   2.544  2.1125 -0.0030  2.1687
 2990TIP3   OH2 8975   0.881   5.024   0.517 -0.1079  0.5454  0.3513
 2990TIP3    H1 8976   0.799   5.053   0.556 -2.1361 -2.0082 -1.6506
 2990TIP3    H2 8977   0.870   5.039   0.423  0.6629 -1.9289 -0.2240
 2991TIP3   OH2 8978   0.682   5.427   0.513 -0.1577  0.2667 -0.1437
 2991TIP3    H1 8979   0.603   5.478   0.494 -0.0554 -0.1755 -1.9540
 2991TIP3    H2 8980   0.661   5.379   0.593 -1.6620  0.2999 -0.4918
 2992TIP3   OH2 8981   4.672   4.212   2.351  0.4388 -0.3633 -0.0557
 2992TIP3    H1 8982   4.731   4.258   2.291  0.9603  0.3704  0.9795
 2992TIP3    H2 8983   4.585   4.223   2.312  0.2613  3.0497  0.9515
 2993TIP3   OH2 8984   2.989   0.415   4.658  0.3538 -0.1378 -0.8046
 2993TIP3    H1 8985   3.014   0.507   4.655 -0.5526  0.1277 -0.4048
 2993TIP3    H2 8986   3.055   0.374   4.715  0.9572  0.1818 -1.2562
 2994TIP3   OH2 8987   3.835   1.089   1.278 -0.1184  0.1628 -0.3157
 2994TIP3    H1 8988   3.808   1.164   1.331 -1.4119 -0.9162  0.6071
 2994TIP3    H2 8989   3.907   1.123   1.225 -0.2184  1.8720  0.5543
 2995TIP3   OH2 8990   3.628   0.992   1.107 -0.3181 -0.3606 -0.4865
 2995TIP3    H1 8991   3.695   1.043   1.152 -1.4334  1.5113 -0.8551
 2995TIP3    H2 8992   3.617   0.914   1.162  0.2374  0.5823  1.0362
 2996TIP3   OH2 8993   3.383   4.224   4.849 -0.7184  0.0431  0.1386
 2996TIP3    H1 8994   3.447   4.278   4.802 -2.1710  1.7687  0.0124
 2996TIP3    H2 8995   3.298   4.253   4.815 -1.6259 -1.5404  0.9447
 2997TIP3   OH2 8996   1.249   4.128   3.995 -0.5376  0.4229 -0.1586
 2997TIP3    H1 8997   1.227   4.221   3.997  1.1047  1.0023  5.0469
 2997TIP3    H2 8998   1.342   4.125   4.017 -0.2242 -2.4700 -1.4887
 2998TIP3   OH2 8999   5.515   3.214   2.180  0.2094  0.2806  0.5241
 2998TIP3    H1 9000   5.432   3.250   2.211  0.1975  0.2749  0.4990
 2998TIP3    H2 9001   5.511   3.223   2.085  0.1833  0.1606  0.5141
 2999TIP3   OH2 9002   4.889   5.812   2.847  0.1989  0.0049 -0.0175
 2999TIP3    H1 9003   4.839   5.732   2.837 -0.2597  0.5582 -3.2018
 2999TIP3    H2 9004   4.824   5.882   2.843  0.8666  0.6112 -0.7997
 3000TIP3   OH2 9005   2.185   5.386   1.030  0.7202 -0.8894  0.2662
 3000TIP3    H1 9006   2.219   5.423   0.949 -1.4607 -0.6312 -0.5876
 3000TIP3    H2 9007   2.178   5.461   1.089  1.2796 -0.8948  0.3502
 3001TIP3   OH2 9008   1.634   1.111   4.922 -0.0706 -0.0000  0.1523
 3001TIP3    H1 9009   1.689   1.159   4.985 -0.6907  0.1781  0.5644
 3001TIP3    H2 9010   1.612   1.175   4.855  2.6484 -0.7906 -1.6422
 3002TIP3   OH2 9011   2.154   3.775   3.993 -0.0175 -0.2840 -0.7868
 3002TIP3    H1 9012   2.099   3.820   3.928 -1.8345 -0.3901  0.5936
 3002TIP3    H2 9013   2.187   3.845   4.048 -0.5681 -0.3835 -0.3181
 3003TIP3   OH2 9014   5.109   3.950   3.576 -0.1454 -0.1005  0.1349
 3003TIP3    H1 9015   5.015   3.968   3.578 -0.1680 -0.2267  0.2022
 3003TIP3    H2 9016   5.117   3.859   3.605  0.0131 -0.0325  0.3076
 3004TIP3   OH2 9017   1.750   1.227   0.951 -0.6210 -0.1695  0.3184
 3004TIP3    H1 9018   1.757   1.308   0.901 -0.4421 -0.4982 -0.1999
 3004TIP3    H2 9019   1.668   1.188   0.923 -0.5926 -0.2831  0.3891
 3005TIP3   OH2 9020   5.537   1.109   2.254  0.1127  0.3709 -0.1811
 3005TIP3    H1 9021   5.581   1.192   2.236 -1.2014  1.3685  1.0538
 3005TIP3    H2 9022   5.457   1.112   2.203 -1.5602  1.3744  2.3045
 3006TIP3   OH2 9023   4.459   5.733   3.238  0.2168  0.2406  0.0165
 3006TIP3    H1 9024   4.428   5.662   3.294 -1.1080  0.0892 -0.8741
 3006TIP3    H2 9025   4.524   5.779   3.291  1.2584 -1.7400  0.5382
 3007TIP3   OH2 9026   1.253   1.566   2.622 -0.4255 -0.3105 -0.3500
 3007TIP3    H1 9027   1.195   1.538   2.693 -0.6588  0.0008 -0.4177
 3007TIP3    H2 9028   1.202   1.551   2.543 -1.0287  1.4038 -0.3327
 3008TIP3   OH2 9029   0.818   3.998   4.378 -0.1349  0.1317 -0.0976
 3008TIP3    H1 9030   0.909   3.976   4.354  0.2427  0.1689  1.2109
 3008TIP3    H2 9031   0.799   3.940   4.452 -1.1118  0.2746 -0.2334
 3009TIP3   OH2 9032   4.864   4.465   1.664  0.9113  0.2850  0.4974
 3009TIP3    H1 9033   4.814   4.532   1.619 -0.2216 -1.4229 -0.9262
 3009TIP3    H2 9034   4.849   4.385   1.614  2.2703 -1.0442  2.0539
 3010TIP3   OH2 9035   4.456   3.788   2.243  0.3799 -0.2026 -0.0080
 3010TIP3    H1 9036   4.452   3.710   2.297 -1.2262 -1.5822 -1.9903
 3010TIP3    H2 9037   4.366   3.819   2.239  0.9738  1.7810  0.6942
 3011TIP3   OH2 9038   4.497   1.594   3.447 -0.4099 -0.0197  0.0310
 3011TIP3    H1 9039   4.475   1.527   3.382 -2.0962  0.8145 -0.3050
 3011TIP3    H2 9040   4.436   1.578   3.520  0.6387 -0.1807  0.9072
 3012TIP3   OH2 9041   1.955   1.581   4.011  0.0763  0.2515 -0.2135
 3012TIP3    H1 9042   2.050   1.574   4.021 -0.1933 -0.7526  2.5125
 3012TIP3    H2 9043   1.943   1.663   3.963  2.3101  0.0732 -1.2338
 3013TIP3   OH2 9044   5.935   0.256   1.474  0.4090 -0.7858  0.5536
 3013TIP3    H1 9045   5.946   0.175   1.523  1.3364 -1.2048 -0.3050
 3013TIP3    H2 9046   5.869   0.236   1.407  1.0637 -1.0194 -0.0300
 3014TIP3   OH2 9047   1.318   4.935   1.872 -0.2658 -0.0967 -0.6945
 3014TIP3    H1 9048   1.323   4.841   1.854 -0.4655 -0.1139 -0.6670
 3014TIP3    H2 9049   1.283   4.940   1.962 -0.7085  0.0107 -0.8695
 3015TIP3   OH2 9050   6.284   5.981   1.854 -0.6141 -0.1413  0.2463
 3015TIP3    H1 9051   6.227   5.949   1.785 -0.4087 -0.1059  0.0598
 3015TIP3    H2 9052   6.366   6.004   1.810  1.1365 -4.0518  0.9655
 3016TIP3   OH2 9053   1.451   3.319   2.713  0.0056 -0.0374 -0.0254
 3016TIP3    H1 9054   1.520   3.253   2.719 -2.4090 -2.6629  0.7591
 3016TIP3    H2 9055   1.476   3.386   2.777  2.2664 -0.3908 -0.4721
 3017TIP3   OH2 9056   4.955   0.047   3.626  0.2862 -0.0114 -0.2707
 3017TIP3    H1 9057   4.933  -0.006   3.702 -1.0259 -2.9023 -2.4728
 3017TIP3    H2 9058   5.043   0.081   3.645  0.9331 -2.4294  1.6092
 3018TIP3   OH2 9059   2.261   5.020   0.173  0.0376 -0.2948  0.3979
 3018TIP3    H1 9060   2.265   4.924   0.172  1.7483 -0.2447  0.4543
 3018TIP3    H2 9061   2.351   5.048   0.186 -0.2306  1.3586 -0.9740
 3019TIP3   OH2 9062   0.064   1.956   2.464  0.0866 -0.4099 -0.1369
 3019TIP3    H1 9063   0.107   1.984   2.546 -2.5897 -1.4087  1.7531
 3019TIP3    H2 9064   0.043   2.038   2.419 -0.1832  0.2927  1.2000
 3020TIP3   OH2 9065   3.333   0.820   4.314 -0.4735 -0.3772 -0.4841
 3020TIP3    H1 9066   3.277   0.897   4.323  0.8524  0.5496  0.1777
 3020TIP3    H2 9067   3.323   0.794   4.222 -0.5260  0.9349 -0.8772
 3021TIP3   OH2 9068   4.526   1.655   3.741  0.0505 -0.2762 -0.3455
 3021TIP3    H1 9069   4.534   1.564   3.772  3.7934  0.5710  1.8463
 3021TIP3    H2 9070   4.612   1.674   3.704 -1.0846  2.0200 -1.9679
 3022TIP3   OH2 9071   2.455   2.927   2.121 -0.3006 -0.3626 -0.3693
 3022TIP3    H1 9072   2.524   2.993   2.115 -1.2055  0.6585  0.0868
 3022TIP3    H2 9073   2.478   2.862   2.054  0.7274  0.3029 -0.6848
 3023TIP3   OH2 9074   1.492   5.172   2.330 -0.2637  0.6080 -0.1190
 3023TIP3    H1 9075   1.509   5.158   2.236  0.4991 -0.4601  0.1575
 3023TIP3    H2 9076   1.477   5.266   2.338 -0.0083  0.7592 -1.2672
 3024TIP3   OH2 9077   1.332   0.116   1.802 -0.2128  0.1677 -0.0400
 3024TIP3    H1 9078   1.340   0.022   1.782 -0.8203  0.0528  0.2359
 3024TIP3    H2 9079   1.264   0.120   1.870  1.1580  0.6174  1.3722
 3025TIP3   OH2 9080   3.566   0.223   1.188 -0.2189 -0.0553 -0.0600
 3025TIP3    H1 9081   3.490   0.277   1.210 -0.5064 -0.1609 -0.7699
 3025TIP3    H2 9082   3.634   0.287   1.163 -0.1161  0.0322  0.4375
 3026TIP3   OH2 9083   6.277   4.653   4.282 -0.3077 -0.2399 -0.1848
 3026TIP3    H1 9084   6.220   4.715   4.326 -0.1084 -0.8930  1.0206
 3026TIP3    H2 9085   6.353   4.645   4.338 -0.1140 -1.2051 -0.5623
 3027TIP3   OH2 9086   2.459   2.944   2.721 -0.3037  0.0107 -0.6213
 3027TIP3    H1 9087   2.475   2.944   2.627  0.2489 -1.2191 -0.5357
 3027TIP3    H2 9088   2.449   2.852   2.745 -1.1066  0.3408  0.4221
 3028TIP3   OH2 9089   0.125   4.771   2.856 -0.3286 -0.3040 -0.2875
 3028TIP3    H1 9090   0.086   4.690   2.888 -0.4820 -0.8878 -1.8678
 3028TIP3    H2 9091   0.173   4.806   2.931 -1.3655 -1.1520  0.8079
 3029TIP3   OH2 9092   5.815   1.871   2.530 -0.8087 -0.3635 -0.3820
 3029TIP3    H1 9093   5.880   1.856   2.599  0.0402  0.2187 -1.0327
 3029TIP3    H2 9094   5.751   1.801   2.542 -0.7237 -0.2367  1.0292
 3030TIP3   OH2 9095   5.588   2.023   1.559 -0.0679  0.0524  0.0981
 3030TIP3    H1 9096   5.561   2.100   1.609  0.5275  0.0812  0.3797
 3030TIP3    H2 9097   5.627   2.059   1.479 -0.2435  0.0283  0.0009
 3031TIP3   OH2 9098   4.820   4.827   0.801  0.2098  0.9386  0.5023
 3031TIP3    H1 9099   4.845   4.737   0.822  2.2662  1.5956  1.1757
 3031TIP3    H2 9100   4.733   4.838   0.840 -0.6174 -1.0859 -0.6557
 3032TIP3   OH2 9101   0.190   3.264   3.300 -0.3072 -0.6273 -0.0048
 3032TIP3    H1 9102   0.099   3.288   3.284 -0.4142 -0.9109  0.1729
 3032TIP3    H2 9103   0.239   3.344   3.285 -0.6774 -0.2546  0.7442
 3033TIP3   OH2 9104   5.651   1.925   4.691  0.4524  0.3066 -0.1582
 3033TIP3    H1 9105   5.571   1.969   4.665  0.0174 -1.1366 -1.4094
 3033TIP3    H2 9106   5.721   1.988   4.671 -0.1589  0.5649 -1.6270
 3034TIP3   OH2 9107   1.152   0.260   2.575  0.1141  0.1530  0.3481
 3034TIP3    H1 9108   1.134   0.242   2.667  0.0999 -1.6719  0.0190
 3034TIP3    H2 9109   1.246   0.277   2.572  1.0843 -4.1227  0.1970
 3035TIP3   OH2 9110   4.286   5.147   0.428  0.5880 -0.2697  0.3698
 3035TIP3    H1 9111   4.264   5.145   0.335 -0.1900  1.5813  0.4801
 3035TIP3    H2 9112   4.358   5.210   0.434  0.0085  0.3273  1.1326
 3036TIP3   OH2 9113   4.003   2.808   5.097  0.1353 -0.4245 -0.2704
 3036TIP3    H1 9114   4.026   2.715   5.091 -0.3742 -0.6841  1.2952
 3036TIP3    H2 9115   4.084   2.854   5.072  0.9071 -1.2971  0.5274
 3037TIP3   OH2 9116   5.707   2.893   3.767  0.1866  0.3860 -0.1688
 3037TIP3    H1 9117   5.763   2.816   3.780  0.1398  0.1641 -1.1689
 3037TIP3    H2 9118   5.624   2.857   3.736  0.4825  0.8692 -1.5942
 3038TIP3   OH2 9119   0.763   1.079  -0.004 -0.5385  0.1260  0.3577
 3038TIP3    H1 9120   0.729   1.115   0.078 -0.7804 -0.3587  0.4675
 3038TIP3    H2 9121   0.763   1.154  -0.065 -1.2097  0.2666  0.5323
 3039TIP3   OH2 9122   5.837   3.648   4.594 -0.3136  0.3442  0.2834
 3039TIP3    H1 9123   5.910   3.696   4.556 -0.9849  1.9385  0.9509
 3039TIP3    H2 9124   5.759   3.692   4.561 -0.9279  0.8441  2.2782
 3040TIP3   OH2 9125   4.378   1.600   1.990  0.4374 -0.2518  0.2162
 3040TIP3    H1 9126   4.388   1.638   1.902 -2.0564 -0.2081 -0.1370
 3040TIP3    H2 9127   4.389   1.506   1.976  2.0127 -0.0813  0.2344
 3041TIP3   OH2 9128   2.153   5.427   4.718  0.4601 -0.5035 -0.1049
 3041TIP3    H1 9129   2.079   5.444   4.776 -0.3138  1.2355 -1.4961
 3041TIP3    H2 9130   2.166   5.509   4.671  1.1299 -1.7671 -2.2703
 3042TIP3   OH2 9131   0.774   5.391   4.491 -0.4085 -0.4197 -0.1231
 3042TIP3    H1 9132   0.827   5.458   4.535 -1.3635  0.2419  0.0457
 3042TIP3    H2 9133   0.738   5.339   4.562  0.0468 -0.9022 -0.2410
 3043TIP3   OH2 9134   0.715   1.480   0.220 -0.3032  0.4211  0.3093
 3043TIP3    H1 9135   0.749   1.395   0.194 -0.1610  0.6509 -0.2773
 3043TIP3    H2 9136   0.699   1.472   0.314  1.0908  0.2134  0.5554
 3044TIP3   OH2 9137   4.914   0.967   4.255  0.0229 -0.0973 -0.4558
 3044TIP3    H1 9138   4.914   0.876   4.225  0.1125 -0.0974 -0.4554
 3044TIP3    H2 9139   4.917   0.961   4.350 -2.4550 -0.1322 -0.3346
 3045TIP3   OH2 9140   0.941   5.341   3.795 -0.7646  0.2303  0.2539
 3045TIP3    H1 9141   0.849   5.313   3.789 -0.6819 -0.7305  2.5451
 3045TIP3    H2 9142   0.944   5.398   3.872  0.5440  0.3284  0.1479
 3046TIP3   OH2 9143   3.630   2.949   2.187  0.3053 -0.4447  0.0387
 3046TIP3    H1 9144   3.550   2.918   2.145 -0.5729  0.5757  0.9101
 3046TIP3    H2 9145   3.600   3.010   2.254  1.8139 -0.1045  0.4388
 3047TIP3   OH2 9146   1.092   5.353   4.527 -0.3165 -0.2326 -0.0139
 3047TIP3    H1 9147   1.023   5.404   4.569 -1.5672 -0.9981 -1.0643
 3047TIP3    H2 9148   1.046   5.293   4.469  1.1632 -1.7673  0.3022
 3048TIP3   OH2 9149   4.401   3.569   2.461 -0.2544  0.0997  0.0413
 3048TIP3    H1 9150   4.402   3.489   2.514  1.4841 -0.0845 -0.2212
 3048TIP3    H2 9151   4.416   3.639   2.524  0.4235  0.0129 -0.0248
 3049TIP3   OH2 9152   3.688   0.302   2.763  0.4778 -0.3351 -0.5659
 3049TIP3    H1 9153   3.673   0.222   2.814 -0.7227 -0.8377 -1.6609
 3049TIP3    H2 9154   3.765   0.342   2.804 -0.4681 -0.6633  1.6802
 3050TIP3   OH2 9155   1.859   5.644   2.773  0.6537 -0.1874  0.5803
 3050TIP3    H1 9156   1.820   5.722   2.812  1.8433  0.1497  1.1439
 3050TIP3    H2 9157   1.850   5.658   2.678 -0.9153 -0.3126  0.6836
 3051TIP3   OH2 9158   4.835   5.841   1.691 -0.3911  0.2464  0.5561
 3051TIP3    H1 9159   4.812   5.832   1.598  0.5209 -1.0360  0.4292
 3051TIP3    H2 9160   4.809   5.930   1.713 -0.2109  0.7387 -1.0549
 3052TIP3   OH2 9161   5.712   3.923   4.418 -0.4240 -0.4716 -0.3014
 3052TIP3    H1 9162   5.655   3.944   4.492  0.3251 -0.7430  0.3637
 3052TIP3    H2 9163   5.783   3.988   4.423 -0.6017 -0.2093 -1.0491
 3053TIP3   OH2 9164   3.189   1.055   2.537 -0.6533  0.2712 -0.5433
 3053TIP3    H1 9165   3.196   1.029   2.445 -0.2832 -0.3118 -0.3573
 3053TIP3    H2 9166   3.129   1.130   2.536 -0.6865  0.2453 -1.2523
 3054TIP3   OH2 9167   3.767   2.274   3.732  0.0036 -0.4100  0.7165
 3054TIP3    H1 9168   3.809   2.304   3.813  1.0945 -1.0500  0.4004
 3054TIP3    H2 9169   3.693   2.221   3.762 -1.3852  1.7307  1.2853
 3055TIP3   OH2 9170   0.769   0.681   1.172 -0.2855  0.0341  0.5110
 3055TIP3    H1 9171   0.848   0.627   1.184  0.1518  0.0304 -1.9825
 3055TIP3    H2 9172   0.721   0.670   1.254  0.8154 -2.4627  0.9232
 3056TIP3   OH2 9173   3.957   2.915   3.177  0.2145  0.0792  0.7916
 3056TIP3    H1 9174   3.964   2.964   3.095  1.5999 -1.6951 -0.2105
 3056TIP3    H2 9175   4.006   2.969   3.240  1.0861  0.3754 -0.1060
 3057TIP3   OH2 9176   1.391   1.404   4.577 -0.0031  0.5404 -0.7136
 3057TIP3    H1 9177   1.344   1.485   4.559  2.5568  2.0933 -0.8756
 3057TIP3    H2 9178   1.434   1.383   4.494 -1.3575 -1.5927 -0.9646
 3058TIP3   OH2 9179   3.367   3.696   0.876  0.9885  0.7071 -0.2590
 3058TIP3    H1 9180   3.433   3.669   0.813  1.8402  0.0962  0.8545
 3058TIP3    H2 9181   3.311   3.619   0.887  0.5076  0.9897 -0.6590
 3059TIP3   OH2 9182   2.391   0.859   1.170  0.1911  0.2713 -0.4905
 3059TIP3    H1 9183   2.468   0.872   1.115 -1.4587  1.4607 -2.6734
 3059TIP3    H2 9184   2.353   0.947   1.179 -0.4869 -0.1576  1.2241
 3060TIP3   OH2 9185   4.899   1.288   1.010 -0.3967  0.6238 -0.3708
 3060TIP3    H1 9186   4.895   1.228   0.936 -1.3757 -0.0724  0.2269
 3060TIP3    H2 9187   4.823   1.345   0.999 -2.9171 -1.9846  2.1360
 3061TIP3   OH2 9188   4.414   5.154   3.140  0.5041  0.1319  0.0652
 3061TIP3    H1 9189   4.490   5.108   3.105 -0.1562 -0.2748 -0.8863
 3061TIP3    H2 9190   4.365   5.182   3.062 -0.0678  0.8084  0.6569
 3062TIP3   OH2 9191   5.190   2.053   0.744 -0.2546 -0.1200 -0.1801
 3062TIP3    H1 9192   5.209   1.986   0.809  1.5079  1.1171  0.6809
 3062TIP3    H2 9193   5.243   2.029   0.668 -0.1355 -0.0605 -0.1158
 3063TIP3   OH2 9194   3.964   0.142   1.287 -0.4472  0.0013  0.4234
 3063TIP3    H1 9195   3.921   0.101   1.212 -0.9400 -0.3127  0.8712
 3063TIP3    H2 9196   3.914   0.112   1.363 -0.6276  1.1882  0.7924
 3064TIP3   OH2 9197   1.209   1.984   4.988 -0.4209  0.1208 -0.3584
 3064TIP3    H1 9198   1.238   1.899   5.023 -1.2974 -0.8398 -1.8605
 3064TIP3    H2 9199   1.252   1.990   4.903 -0.5190  1.1227 -0.3432
 3065TIP3   OH2 9200   3.021   0.771   1.068 -0.2351  0.0803 -0.1332
 3065TIP3    H1 9201   3.114   0.789   1.083  0.1273 -2.9134  1.9942
 3065TIP3    H2 9202   3.021   0.709   0.995 -0.6725  0.7742 -0.7347
 3066TIP3   OH2 9203   2.899   4.653   1.959  0.2432  0.3209 -0.3465
 3066TIP3    H1 9204   2.870   4.585   2.021  0.5429  0.0688 -0.4803
 3066TIP3    H2 9205   2.823   4.665   1.901  0.0733  0.3313 -0.1238
 3067TIP3   OH2 9206   1.897   2.515   2.675 -0.7494 -0.2390  0.1526
 3067TIP3    H1 9207   1.811   2.493   2.711 -1.4796  0.7687 -0.9083
 3067TIP3    H2 9208   1.878   2.556   2.591  0.7533  0.5044  0.1470
 3068TIP3   OH2 9209   3.312   5.176   2.220  0.0437  0.6374  0.0156
 3068TIP3    H1 9210   3.290   5.092   2.179  1.1922  0.9045 -1.1968
 3068TIP3    H2 9211   3.354   5.227   2.151 -1.5129  2.6221  0.4172
 3069TIP3   OH2 9212   1.081   2.040   4.027 -0.2318  0.6329 -0.2690
 3069TIP3    H1 9213   1.103   2.099   3.955  2.0669 -0.3436 -0.4665
 3069TIP3    H2 9214   1.111   2.085   4.106 -1.3839  1.0566 -0.0548
 3070TIP3   OH2 9215   0.167   2.072   2.088 -0.1893  0.1905  0.1205
 3070TIP3    H1 9216   0.088   2.084   2.036 -0.3772  0.6644  0.5093
 3070TIP3    H2 9217   0.199   2.160   2.105 -1.2717  0.2111  2.5398
 3071TIP3   OH2 9218   1.352   3.401   0.911 -0.3250 -0.0172  0.3956
 3071TIP3    H1 9219   1.320   3.490   0.900  0.4715  0.2055 -0.2138
 3071TIP3    H2 9220   1.285   3.358   0.964 -0.6173  0.9940  0.8749
 3072TIP3   OH2 9221   2.102   3.573   0.443  0.1153  0.0610 -0.2023
 3072TIP3    H1 9222   2.059   3.552   0.360  1.1276 -0.0612 -0.7133
 3072TIP3    H2 9223   2.141   3.659   0.427 -0.7314  0.6027  0.5749
 3073TIP3   OH2 9224   5.475   4.251   0.461 -0.3955 -0.6961  0.2409
 3073TIP3    H1 9225   5.482   4.166   0.505 -1.6004  0.0104  1.9199
 3073TIP3    H2 9226   5.383   4.257   0.435 -0.2708 -0.0071 -0.0604
 3074TIP3   OH2 9227   3.964   1.971   2.157  0.0710  0.0365 -0.1351
 3074TIP3    H1 9228   4.001   2.058   2.176 -1.3672  0.7392 -0.4341
 3074TIP3    H2 9229   4.035   1.925   2.111  1.3312  0.5477  1.1979
 3075TIP3   OH2 9230   3.594   5.892   1.611  0.8064 -0.0517 -0.0352
 3075TIP3    H1 9231   3.562   5.805   1.635  1.0269 -0.3608 -0.8303
 3075TIP3    H2 9232   3.517   5.949   1.617  0.5637 -0.3918  0.0506
 3076TIP3   OH2 9233   4.770   4.968   4.295  0.1597  0.3872  0.6753
 3076TIP3    H1 9234   4.768   4.994   4.203  0.9351 -0.7004  0.3344
 3076TIP3    H2 9235   4.743   5.046   4.342  0.1735  1.0930 -0.4493
 3077TIP3   OH2 9236   2.656   0.511   4.441 -0.0236  0.2303 -0.4102
 3077TIP3    H1 9237   2.633   0.489   4.350  0.3453  0.4286 -0.5579
 3077TIP3    H2 9238   2.591   0.575   4.468 -0.0149  0.3242 -0.6082
 3078TIP3   OH2 9239   1.033   5.172   4.971  0.3065 -0.5478  0.3475
 3078TIP3    H1 9240   1.002   5.091   4.931 -0.4891 -0.2298  0.2995
 3078TIP3    H2 9241   0.954   5.226   4.980  1.0510  0.8767 -1.1424
 3079TIP3   OH2 9242   2.293   4.365   2.590  0.4348 -0.3112  0.1492
 3079TIP3    H1 9243   2.200   4.344   2.594  0.6510 -1.4557 -0.3436
 3079TIP3    H2 9244   2.331   4.320   2.665  0.9030 -1.7540 -0.9011
 3080TIP3   OH2 9245   4.151   1.265   1.449 -0.4161 -0.2401 -0.3561
 3080TIP3    H1 9246   4.156   1.328   1.377  0.9035 -0.3207 -0.3559
 3080TIP3    H2 9247   4.058   1.264   1.474 -0.3869  2.1024  0.0126
 3081TIP3   OH2 9248   2.421   2.980   1.528  0.1822 -0.1158  0.1272
 3081TIP3    H1 9249   2.354   3.031   1.575  0.4073  1.9854 -1.6550
 3081TIP3    H2 9250   2.465   2.930   1.596  0.4394  2.6843  2.2238
 3082TIP3   OH2 9251   3.376   0.684   1.313 -0.1044  0.2024  0.3105
 3082TIP3    H1 9252   3.442   0.740   1.355 -2.0128  2.5586  0.3465
 3082TIP3    H2 9253   3.297   0.698   1.364 -1.1773 -0.9104 -0.9980
 3083TIP3   OH2 9254   4.493   5.391   2.083  0.4204 -0.2526  0.3488
 3083TIP3    H1 9255   4.578   5.360   2.113  0.6918 -1.2998 -1.3283
 3083TIP3    H2 9256   4.430   5.341   2.135  0.7332  1.4043  2.4740
 3084TIP3   OH2 9257   2.461   5.104   4.298 -0.8754  0.4576  0.0428
 3084TIP3    H1 9258   2.516   5.103   4.220  0.0726  0.0544  0.6837
 3084TIP3    H2 9259   2.375   5.076   4.268 -0.4681  0.0954 -0.8145
 3085TIP3   OH2 9260   1.851   4.822   4.180  0.0062  0.1536  0.2149
 3085TIP3    H1 9261   1.906   4.751   4.214 -0.8204 -0.0193  1.2536
 3085TIP3    H2 9262   1.912   4.882   4.137  0.9077 -0.4029  0.6881
 3086TIP3   OH2 9263   2.489   5.097   3.285 -0.1213  0.2962 -0.5194
 3086TIP3    H1 9264   2.437   5.175   3.264 -0.9473  0.4139  1.7100
 3086TIP3    H2 9265   2.574   5.114   3.245 -0.8397  1.5039 -1.6293
 3087TIP3   OH2 9266   0.868   3.913   0.444 -0.5391  0.2707 -0.0235
 3087TIP3    H1 9267   0.938   3.978   0.449 -0.1673 -0.1628  0.5387
 3087TIP3    H2 9268   0.864   3.876   0.532 -1.4542  0.2639 -0.0657
 3088TIP3   OH2 9269   3.550   1.199   4.008  0.3426  0.0636 -0.4099
 3088TIP3    H1 9270   3.512   1.275   3.964  2.0176  1.0632 -0.2094
 3088TIP3    H2 9271   3.615   1.236   4.068  0.9383 -1.5164 -0.0243
 3089TIP3   OH2 9272   1.927   1.021   0.991 -0.0345  0.3208 -0.4932
 3089TIP3    H1 9273   1.882   1.100   0.960 -0.6891  0.5409  0.8950
 3089TIP3    H2 9274   2.008   1.054   1.030 -0.4332  0.3667  0.3287
 3090TIP3   OH2 9275   5.263   2.218   3.907 -0.2375  0.5435 -0.0324
 3090TIP3    H1 9276   5.351   2.184   3.923 -1.0985 -1.3825  0.9149
 3090TIP3    H2 9277   5.215   2.144   3.870 -2.0730  0.8484  1.5765
 3091TIP3   OH2 9278   6.251   3.433   1.918 -0.1117  0.2448 -0.7305
 3091TIP3    H1 9279   6.231   3.345   1.949 -0.0988  0.7911  0.9402
 3091TIP3    H2 9280   6.321   3.421   1.854  0.3227 -0.8994 -0.0573
 3092TIP3   OH2 9281   4.333   5.956   2.379  0.0761 -0.5328 -0.0559
 3092TIP3    H1 9282   4.373   5.887   2.326  1.6083  0.4564 -0.2608
 3092TIP3    H2 9283   4.274   5.910   2.438  1.9441 -2.1774  0.6556
 3093TIP3   OH2 9284   3.552   4.916   4.427  0.0955 -0.2051  0.0996
 3093TIP3    H1 9285   3.567   4.857   4.354 -2.1121  0.9051 -1.3751
 3093TIP3    H2 9286   3.518   4.996   4.386  0.2463  1.0161  2.2295
 3094TIP3   OH2 9287   2.051   2.759   5.086 -0.0362  0.3644  0.3537
 3094TIP3    H1 9288   2.059   2.835   5.028  1.2627  0.8659  1.1252
 3094TIP3    H2 9289   1.958   2.740   5.089 -0.1248  0.2615 -1.9570
 3095TIP3   OH2 9290   5.323   5.566   4.758  0.2060 -0.5983  0.2649
 3095TIP3    H1 9291   5.317   5.613   4.675  1.3772  1.0865  1.0758
 3095TIP3    H2 9292   5.409   5.589   4.793 -0.8557  0.0542  2.6843
 3096TIP3   OH2 9293   3.989   2.635   1.480 -0.8464  0.3525 -0.6722
 3096TIP3    H1 9294   4.019   2.698   1.414 -1.5646  1.8733  0.3820
 3096TIP3    H2 9295   4.039   2.657   1.559  1.2155 -2.4938 -1.0250
 3097TIP3   OH2 9296   3.310   2.392   5.157  0.4760  0.0385 -0.6400
 3097TIP3    H1 9297   3.390   2.424   5.116  0.0924 -1.1766 -2.4481
 3097TIP3    H2 9298   3.340   2.327   5.221  0.9332 -1.0193 -1.8898
 3098TIP3   OH2 9299   3.554   2.014   4.618  0.2241  0.1005  0.1914
 3098TIP3    H1 9300   3.643   1.997   4.649  0.4714 -1.8677 -1.4162
 3098TIP3    H2 9301   3.498   1.966   4.679  0.3502  0.1767  0.3688
 3099TIP3   OH2 9302   5.913   1.122   3.771 -0.7087 -0.4304 -0.5181
 3099TIP3    H1 9303   5.920   1.050   3.709 -1.4166 -1.2877  0.3732
 3099TIP3    H2 9304   5.827   1.111   3.812  0.3481 -0.8882  1.7917
 3100TIP3   OH2 9305   6.309   2.331   0.913  0.3876 -0.1027  0.2754
 3100TIP3    H1 9306   6.277   2.286   0.991  2.0628 -0.2417  0.9199
 3100TIP3    H2 9307   6.369   2.398   0.946  0.7722  0.1372 -0.8650
 3101TIP3   OH2 9308   1.839   0.114   3.767 -0.3626  0.5136  0.0807
 3101TIP3    H1 9309   1.799   0.098   3.853 -0.7687 -0.4304 -0.2677
 3101TIP3    H2 9310   1.842   0.209   3.760  0.2520  0.6170  1.4017
 3102TIP3   OH2 9311   5.273   2.025   3.264 -0.0570  0.1051 -0.3045
 3102TIP3    H1 9312   5.180   2.003   3.255 -0.8694  2.3121  1.5301
 3102TIP3    H2 9313   5.291   2.081   3.189  0.0986 -1.1547 -1.2235
 3103TIP3   OH2 9314   3.127   1.588   0.801 -0.5234 -0.3808 -0.3856
 3103TIP3    H1 9315   3.196   1.582   0.867 -0.5869  1.1347 -0.1260
 3103TIP3    H2 9316   3.112   1.498   0.773  0.6902 -0.8713  0.4429
 3104TIP3   OH2 9317   4.777   3.876   1.699 -0.6079  0.1504  0.3074
 3104TIP3    H1 9318   4.776   3.854   1.606 -0.9825 -1.7273  0.7062
 3104TIP3    H2 9319   4.694   3.921   1.714 -0.3816  0.7898 -0.3236
 3105TIP3   OH2 9320   1.957   1.006   0.490  0.3083 -0.0913  0.9236
 3105TIP3    H1 9321   1.926   1.089   0.526 -1.3150  0.0321 -0.5951
 3105TIP3    H2 9322   1.925   0.940   0.551 -1.3488  0.1999  0.4416
 3106TIP3   OH2 9323   2.822   5.571   1.382 -0.5298  0.1595 -0.5999
 3106TIP3    H1 9324   2.749   5.514   1.357  0.9479 -2.3351  0.4650
 3106TIP3    H2 9325   2.882   5.566   1.307 -0.6468  0.8101 -0.7419
 3107TIP3   OH2 9326   0.060   4.060   2.914  0.0284 -0.1397 -0.4339
 3107TIP3    H1 9327  -0.006   4.102   2.968 -0.2827 -0.2350 -0.7374
 3107TIP3    H2 9328   0.052   4.102   2.829  0.4926 -0.0152 -0.4163
 3108TIP3   OH2 9329   0.688   3.869   1.248  0.2348 -0.2881 -0.1366
 3108TIP3    H1 9330   0.765   3.819   1.275  0.0683  0.3789  1.7056
 3108TIP3    H2 9331   0.706   3.892   1.157  2.3950  0.0912  0.3134
 3109TIP3   OH2 9332   1.040   5.914   3.571  0.2708 -0.0483  0.1116
 3109TIP3    H1 9333   1.036   5.988   3.511  0.2303  0.5750  0.8564
 3109TIP3    H2 9334   0.950   5.882   3.576  0.5704 -1.2991 -1.5673
 3110TIP3   OH2 9335   2.150   5.452   1.899 -0.0854 -0.2731  0.5835
 3110TIP3    H1 9336   2.196   5.405   1.969  1.2972  0.8734  0.4874
 3110TIP3    H2 9337   2.095   5.515   1.946 -0.1466 -0.3876  0.6664
 3111TIP3   OH2 9338   0.210   5.127   0.844  0.0764  0.1645 -1.0478
 3111TIP3    H1 9339   0.157   5.101   0.919  0.1087  0.0900 -1.0512
 3111TIP3    H2 9340   0.207   5.053   0.784 -1.6670  1.0066 -2.0708
 3112TIP3   OH2 9341   3.402   2.748   3.380 -0.4645 -0.0816  0.2521
 3112TIP3    H1 9342   3.374   2.811   3.447 -1.0529 -0.8688  0.7557
 3112TIP3    H2 9343   3.392   2.663   3.422  3.7241 -0.4667  0.9196
 3113TIP3   OH2 9344   1.336   5.233   2.702 -0.3485 -0.0365  0.3919
 3113TIP3    H1 9345   1.393   5.162   2.732  1.0867  1.1268  0.5223
 3113TIP3    H2 9346   1.394   5.308   2.694 -1.4453  0.6596 -1.6247
 3114TIP3   OH2 9347   1.934   0.647   3.757 -0.4957  0.4199  0.4949
 3114TIP3    H1 9348   1.992   0.651   3.833 -1.1122  0.6324  0.9699
 3114TIP3    H2 9349   1.989   0.672   3.683  0.9279 -2.6621  0.3408
 3115TIP3   OH2 9350   4.844   0.380   0.163  0.5495 -0.1175 -0.2461
 3115TIP3    H1 9351   4.891   0.444   0.111 -1.3330  1.3946 -0.1865
 3115TIP3    H2 9352   4.888   0.381   0.248  1.3284  0.1375 -0.6462
 3116TIP3   OH2 9353   3.267   4.776   1.492  0.0864 -0.1108 -0.3006
 3116TIP3    H1 9354   3.232   4.728   1.567 -1.2116  0.9335 -0.2007
 3116TIP3    H2 9355   3.257   4.716   1.418  1.9630 -1.3948  0.4203
 3117TIP3   OH2 9356   1.270   2.337   2.471 -0.0096 -0.0932  0.3172
 3117TIP3    H1 9357   1.346   2.374   2.425 -0.5160  3.0382  1.6838
 3117TIP3    H2 9358   1.307   2.299   2.550  0.2188  1.3033  0.9152
 3118TIP3   OH2 9359   0.816   0.702   3.966  0.4770 -1.2288 -0.0378
 3118TIP3    H1 9360   0.905   0.720   3.994  1.4450 -0.5969 -3.1134
 3118TIP3    H2 9361   0.769   0.679   4.046  2.6070  1.3834  2.1354
 3119TIP3   OH2 9362   0.997   0.946   2.827  0.1363 -0.0693  0.2564
 3119TIP3    H1 9363   0.943   0.894   2.768 -0.2338  0.5167  0.0634
 3119TIP3    H2 9364   0.937   1.010   2.865 -0.1593 -1.8766  3.0863
 3120TIP3   OH2 9365   1.660   4.975   1.629 -0.5652  0.7076 -0.1846
 3120TIP3    H1 9366   1.751   4.982   1.601 -0.4915  0.4083 -0.0194
 3120TIP3    H2 9367   1.643   5.057   1.676 -0.2651  0.5950  0.1197
 3121TIP3   OH2 9368   2.826   3.790   5.198  0.0984 -0.3832 -0.0722
 3121TIP3    H1 9369   2.761   3.760   5.135 -0.5199  1.3343 -0.3120
 3121TIP3    H2 9370   2.843   3.881   5.173  0.2742  0.1692  1.8871
 3122TIP3   OH2 9371   0.019   2.413   5.104  0.2311  0.6790  0.6165
 3122TIP3    H1 9372  -0.051   2.353   5.130 -0.7890  0.5583 -2.1051
 3122TIP3    H2 9373   0.078   2.415   5.179 -0.2968 -2.7768  1.2636
 3123TIP3   OH2 9374   4.209   4.851   3.002 -0.0935  0.1847 -0.5764
 3123TIP3    H1 9375   4.174   4.849   2.913  1.9261  0.0925 -1.4363
 3123TIP3    H2 9376   4.304   4.847   2.990  0.2352  0.2574  1.5945
 3124TIP3   OH2 9377   1.485   3.020   0.533 -0.1499 -0.2196  0.3348
 3124TIP3    H1 9378   1.578   3.023   0.554 -0.2297  1.7477  0.6093
 3124TIP3    H2 9379   1.441   3.018   0.618 -0.3558 -0.3508  0.2247
 3125TIP3   OH2 9380   1.676   2.739   1.284 -0.2244  0.1882  0.1193
 3125TIP3    H1 9381   1.742   2.778   1.341 -1.8917  1.4596  1.2753
 3125TIP3    H2 9382   1.619   2.689   1.343 -0.8333 -0.1532 -0.7246
 3126TIP3   OH2 9383   3.023   2.793   5.051 -0.0922  0.1967 -0.2064
 3126TIP3    H1 9384   2.969   2.791   4.972  0.6534  0.9282 -0.7577
 3126TIP3    H2 9385   3.067   2.708   5.051  0.7360  0.5945 -1.2081
 3127TIP3   OH2 9386   1.770   0.859   2.096 -0.2008  0.0449 -0.2445
 3127TIP3    H1 9387   1.774   0.894   2.185 -0.1038 -0.1571 -0.1703
 3127TIP3    H2 9388   1.690   0.899   2.059  1.0849  2.1429 -0.9354
 3128TIP3   OH2 9389   2.048   5.506   0.668 -0.4905 -0.3096  0.0091
 3128TIP3    H1 9390   2.035   5.417   0.637 -0.7239 -0.3086  0.1021
 3128TIP3    H2 9391   1.963   5.548   0.660 -0.6198 -0.3788  0.8566
 3129TIP3   OH2 9392   0.457   1.058   1.755  0.2646 -0.1663  0.0713
 3129TIP3    H1 9393   0.407   1.123   1.805 -1.0110 -1.6253  0.7985
 3129TIP3    H2 9394   0.446   1.084   1.664 -0.9814  0.1497  0.2902
 3130TIP3   OH2 9395   5.490   2.263   3.279 -0.1435  0.4155 -0.0474
 3130TIP3    H1 9396   5.405   2.295   3.309 -0.1805 -0.9422  1.4345
 3130TIP3    H2 9397   5.474   2.232   3.189 -1.0474  0.7703 -0.0186
 3131TIP3   OH2 9398   2.230   4.570   0.685 -0.4651  0.4836  0.4342
 3131TIP3    H1 9399   2.240   4.475   0.684  1.0882  0.6168  0.8206
 3131TIP3    H2 9400   2.309   4.603   0.641 -0.3273  1.6365  1.4960
 3132TIP3   OH2 9401   5.663   0.847   2.229  0.1505  0.3514 -0.2165
 3132TIP3    H1 9402   5.632   0.937   2.238 -1.0962  0.1880 -2.1191
 3132TIP3    H2 9403   5.674   0.835   2.134  0.4937 -1.4302  0.0119
 3133TIP3   OH2 9404   6.248   5.748   5.155  0.0899  0.3900 -0.6699
 3133TIP3    H1 9405   6.343   5.761   5.147  0.5432 -1.7944  0.4100
 3133TIP3    H2 9406   6.218   5.739   5.065  1.3392 -1.2545 -0.9787
 3134TIP3   OH2 9407   3.126   2.727   3.730  0.0842  0.2323  0.0656
 3134TIP3    H1 9408   3.145   2.666   3.802  0.5987 -1.0236 -1.1022
 3134TIP3    H2 9409   3.040   2.764   3.753 -0.7750 -1.7589  0.2875
 3135TIP3   OH2 9410   4.871   4.948   2.137  0.2771  0.0183  0.1568
 3135TIP3    H1 9411   4.964   4.971   2.136  1.1447 -2.8059 -2.9935
 3135TIP3    H2 9412   4.835   4.996   2.211  4.0173  2.0060  0.9223
 3136TIP3   OH2 9413   3.811   4.098   4.480  0.2093  0.0528  0.0027
 3136TIP3    H1 9414   3.815   4.003   4.492 -0.2807 -0.0226 -0.3663
 3136TIP3    H2 9415   3.724   4.122   4.512  0.0563  0.2736 -0.5755
 3137TIP3   OH2 9416   0.150   2.234   2.745  0.3864  0.2679 -0.0617
 3137TIP3    H1 9417   0.083   2.176   2.781  1.2086 -1.3590 -1.0240
 3137TIP3    H2 9418   0.165   2.299   2.813  0.8591 -1.8351  1.9524
 3138TIP3   OH2 9419   1.487   0.069   4.732  0.0206 -0.3387 -0.1371
 3138TIP3    H1 9420   1.537   0.068   4.650  0.7571  1.3664  0.2431
 3138TIP3    H2 9421   1.402   0.031   4.709 -0.0462  0.7767 -1.8872
 3139TIP3   OH2 9422   5.854   0.485   0.172 -0.2022  0.0390 -0.1734
 3139TIP3    H1 9423   5.769   0.445   0.188 -0.1094  0.4245  1.4672
 3139TIP3    H2 9424   5.841   0.578   0.193  0.2180  0.4134 -1.4906
 3140TIP3   OH2 9425   4.519   0.824   3.867 -0.4643  0.4704 -0.3505
 3140TIP3    H1 9426   4.455   0.753   3.861 -1.8461  1.1917  3.1725
 3140TIP3    H2 9427   4.467   0.904   3.860  0.1854  1.0686  1.1471
 3141TIP3   OH2 9428   1.975   2.233   0.753  0.6734  0.0269 -0.0186
 3141TIP3    H1 9429   1.885   2.208   0.735  0.5336 -0.2869  1.0596
 3141TIP3    H2 9430   2.028   2.170   0.703  0.3020 -0.2343 -0.0853
 3142TIP3   OH2 9431   6.286   2.859   0.197 -0.8065  0.0018 -0.3866
 3142TIP3    H1 9432   6.229   2.785   0.176 -2.0118  0.9496 -0.5686
 3142TIP3    H2 9433   6.371   2.835   0.160 -1.0307 -1.5077  0.0195
 3143TIP3   OH2 9434   1.394   0.546   1.054 -0.1788  0.3262  0.3019
 3143TIP3    H1 9435   1.351   0.466   1.086  1.5068 -1.5134 -1.6830
 3143TIP3    H2 9436   1.487   0.523   1.049  0.2854  2.2225 -0.8847
 3144TIP3   OH2 9437   4.742   3.019   2.424  0.3985  0.1913 -0.2185
 3144TIP3    H1 9438   4.832   3.041   2.402  0.3415  0.3302 -0.3165
 3144TIP3    H2 9439   4.748   2.966   2.503  0.4548  2.1368  1.1590
 3145TIP3   OH2 9440   6.227   2.272   3.252  0.0975  0.1727  0.3665
 3145TIP3    H1 9441   6.192   2.330   3.319  0.6966 -1.6323  2.3405
 3145TIP3    H2 9442   6.322   2.277   3.262  0.1556 -2.0785  1.5025
 3146TIP3   OH2 9443   3.272   1.675   0.565  0.5227 -0.1133 -0.0057
 3146TIP3    H1 9444   3.352   1.700   0.611 -0.2801  1.3090  0.6386
 3146TIP3    H2 9445   3.206   1.668   0.633 -0.5091  1.2977 -0.8271
 3147TIP3   OH2 9446   0.097   3.681   0.826 -0.5751 -0.1522  0.2712
 3147TIP3    H1 9447   0.190   3.668   0.810 -0.1776  0.2971  2.0675
 3147TIP3    H2 9448   0.084   3.658   0.918 -2.2988 -0.4704 -0.0076
 3148TIP3   OH2 9449   4.377   4.208   2.007  0.3339  0.5030 -0.1362
 3148TIP3    H1 9450   4.371   4.205   2.102  0.7325 -2.2976 -0.1106
 3148TIP3    H2 9451   4.471   4.213   1.988  0.2940  0.3532 -0.3867
 3149TIP3   OH2 9452   2.789   1.182   0.623 -0.1413 -0.6886  0.4433
 3149TIP3    H1 9453   2.748   1.149   0.703  0.8679 -0.4125  1.0945
 3149TIP3    H2 9454   2.716   1.203   0.565 -0.9071 -0.5327  1.4403
 3150TIP3   OH2 9455   0.391   3.253   0.644 -0.1530 -0.3328 -0.2596
 3150TIP3    H1 9456   0.426   3.337   0.617 -0.2579  0.4321  1.8238
 3150TIP3    H2 9457   0.301   3.252   0.610 -0.0347  0.2133 -0.6032
 3151TIP3   OH2 9458   1.037   4.926   2.410 -0.0881  0.4850 -0.2177
 3151TIP3    H1 9459   1.018   5.020   2.421  0.9440  0.6360  0.3778
 3151TIP3    H2 9460   1.121   4.914   2.453  1.2997 -0.0918 -2.8807
 3152TIP3   OH2 9461   0.199   5.112   2.373 -0.1941 -0.4479  0.0738
 3152TIP3    H1 9462   0.246   5.069   2.301 -0.3811 -0.7652  0.1381
 3152TIP3    H2 9463   0.243   5.196   2.384  0.0437 -0.5356 -0.1952
 3153TIP3   OH2 9464   0.229   4.318   4.419 -0.4389 -0.3191 -0.2136
 3153TIP3    H1 9465   0.241   4.381   4.489 -2.3905  0.6585 -0.7094
 3153TIP3    H2 9466   0.278   4.354   4.345  0.9674 -0.9645  0.3533
 3154TIP3   OH2 9467   3.275   0.245   1.976  0.5455  0.0435 -0.6228
 3154TIP3    H1 9468   3.347   0.184   1.988  0.4366 -0.1933 -1.1166
 3154TIP3    H2 9469   3.302   0.300   1.903  0.0182 -0.3834 -1.1576
 3155TIP3   OH2 9470   3.348   1.091   0.128 -0.6649 -0.6199 -0.1488
 3155TIP3    H1 9471   3.412   1.021   0.112  0.1372  0.0656  0.0315
 3155TIP3    H2 9472   3.395   1.172   0.107 -1.4656 -0.1014  0.0260
 3156TIP3   OH2 9473   5.850   4.141   2.354  0.2070  0.0706  0.0242
 3156TIP3    H1 9474   5.892   4.133   2.440 -0.8778 -0.6124  0.5058
 3156TIP3    H2 9475   5.790   4.215   2.365 -0.5653 -0.5673  0.1275
 3157TIP3   OH2 9476   3.175   2.660   0.600 -0.0615 -0.4958  0.1872
 3157TIP3    H1 9477   3.270   2.668   0.600  0.1888 -2.9799  0.2942
 3157TIP3    H2 9478   3.152   2.639   0.509 -0.6110  0.6412  0.0343
 3158TIP3   OH2 9479   3.604   1.892   2.682 -0.1796 -0.1110  0.5966
 3158TIP3    H1 9480   3.627   1.816   2.734  0.5876 -1.1377 -1.1607
 3158TIP3    H2 9481   3.669   1.959   2.707  0.5378 -0.7762  0.5459
 3159TIP3   OH2 9482   0.682   3.611   2.214  0.5490  0.0125  0.0368
 3159TIP3    H1 9483   0.687   3.683   2.151  0.6515  1.7478  1.9072
 3159TIP3    H2 9484   0.588   3.603   2.233  0.5143 -0.5251 -0.3657
 3160TIP3   OH2 9485   4.915   5.531   4.917 -0.2409  0.0634  0.1081
 3160TIP3    H1 9486   4.968   5.611   4.922  0.5761 -0.5041  0.6993
 3160TIP3    H2 9487   4.854   5.548   4.845 -0.6886  1.5733  0.7890
 3161TIP3   OH2 9488   4.879   2.229   3.895  0.3736  0.1785 -0.0499
 3161TIP3    H1 9489   4.828   2.204   3.972  1.1853 -1.0763  0.1202
 3161TIP3    H2 9490   4.839   2.181   3.823  0.7828 -0.1549 -0.0610
 3162TIP3   OH2 9491   5.754   4.761   4.468 -0.2162 -0.3808  0.0586
 3162TIP3    H1 9492   5.747   4.825   4.539  0.2223  1.2458 -1.2736
 3162TIP3    H2 9493   5.734   4.812   4.389  0.4902 -1.8334 -1.1016
 3163TIP3   OH2 9494   1.080   2.238   3.364 -0.0533 -0.6830  0.1329
 3163TIP3    H1 9495   1.155   2.269   3.314  1.0432 -1.0950  1.4666
 3163TIP3    H2 9496   1.032   2.318   3.388 -1.0215 -0.4984 -2.0821
 3164TIP3   OH2 9497   1.173   2.422   0.993 -0.1279  0.1513  0.1270
 3164TIP3    H1 9498   1.083   2.435   0.965  0.0623  0.0516 -0.5739
 3164TIP3    H2 9499   1.216   2.383   0.916  0.0685 -1.6125  1.0825
 3165TIP3   OH2 9500   0.523   2.679   2.841 -0.2170  0.5486 -0.0283
 3165TIP3    H1 9501   0.489   2.709   2.757  1.1436 -1.0434 -1.2217
 3165TIP3    H2 9502   0.479   2.595   2.857  1.0027 -0.1511 -0.2000
 3166TIP3   OH2 9503   4.583   2.911   0.829  0.0248 -0.6507 -0.0056
 3166TIP3    H1 9504   4.671   2.921   0.793 -0.3195 -0.4059 -0.7935
 3166TIP3    H2 9505   4.573   2.985   0.890  0.1176 -0.2860 -0.4297
 3167TIP3   OH2 9506   3.520   1.515   3.709  0.6643  0.3074  0.2116
 3167TIP3    H1 9507   3.531   1.432   3.662  0.9676  0.7599 -0.5209
 3167TIP3    H2 9508   3.448   1.559   3.665 -0.9804 -0.4821  1.9452
 3168TIP3   OH2 9509   3.994   2.471   1.248  0.4777 -0.2482 -0.2589
 3168TIP3    H1 9510   4.020   2.516   1.328  0.7811 -0.3069 -0.3224
 3168TIP3    H2 9511   3.935   2.532   1.204 -0.2522 -0.5043  0.3473
 3169TIP3   OH2 9512   3.017   3.091   0.639  0.6416  0.1336 -0.5104
 3169TIP3    H1 9513   3.104   3.111   0.671  0.9034  2.3636 -2.3670
 3169TIP3    H2 9514   2.962   3.163   0.669 -0.0114  0.0444 -1.4250
 3170TIP3   OH2 9515   1.263   2.532   0.365 -0.3229 -0.2970  0.0342
 3170TIP3    H1 9516   1.239   2.563   0.279  0.0316 -0.5191 -0.1489
 3170TIP3    H2 9517   1.211   2.453   0.378 -1.0037  0.2026  0.3773
 3171TIP3   OH2 9518   0.112   2.599   0.063 -0.0532 -0.0253  0.2487
 3171TIP3    H1 9519   0.040   2.583   0.003  0.7191 -0.3307 -0.6307
 3171TIP3    H2 9520   0.169   2.522   0.053 -0.3393 -0.5133  2.0358
 3172TIP3   OH2 9521   2.380   4.364   0.891 -0.3204 -0.1838 -0.0598
 3172TIP3    H1 9522   2.448   4.315   0.936  0.1692  1.0119  0.5538
 3172TIP3    H2 9523   2.423   4.398   0.812 -0.2257  0.4745  0.2686
 3173TIP3   OH2 9524   2.484   2.914   2.431 -0.0508 -0.3837 -0.2405
 3173TIP3    H1 9525   2.484   2.893   2.337  1.2399 -0.3260 -0.2709
 3173TIP3    H2 9526   2.509   2.832   2.474  2.3807  0.2922 -0.1870
 3174TIP3   OH2 9527   4.703   5.275   0.332  0.5240  0.2376 -0.1402
 3174TIP3    H1 9528   4.655   5.240   0.257  3.7637 -0.7625 -1.8902
 3174TIP3    H2 9529   4.742   5.356   0.300 -0.6862  1.5738  1.5610
 3175TIP3   OH2 9530   5.077   2.739   4.213 -0.2198 -0.6081 -0.3421
 3175TIP3    H1 9531   5.152   2.718   4.157 -0.2264  0.5461 -0.8180
 3175TIP3    H2 9532   5.061   2.659   4.263  1.2871 -0.8934 -0.2720
 3176TIP3   OH2 9533   2.103   0.898   1.319  0.2853  0.7096  0.0063
 3176TIP3    H1 9534   2.083   0.951   1.243 -1.2306  1.0260  0.5861
 3176TIP3    H2 9535   2.179   0.940   1.359  0.4732  1.1213 -0.7818
 3177TIP3   OH2 9536   1.793   2.634   0.419  0.2561 -0.4720 -0.3425
 3177TIP3    H1 9537   1.845   2.688   0.479  0.6057  1.6487 -2.4302
 3177TIP3    H2 9538   1.709   2.624   0.463  0.3644  1.3401  0.3619
 3178TIP3   OH2 9539   1.407   3.856   1.414 -0.1849  0.7468 -0.4884
 3178TIP3    H1 9540   1.357   3.782   1.380  1.8380  0.2872 -2.6845
 3178TIP3    H2 9541   1.382   3.861   1.506 -1.8512 -1.4118 -0.7351
 3179TIP3   OH2 9542   4.483   4.613   3.505  0.1805  0.6488 -0.0457
 3179TIP3    H1 9543   4.477   4.518   3.498  1.4232  0.4676  0.9762
 3179TIP3    H2 9544   4.577   4.631   3.508 -0.0148  1.9724 -0.8074
 3180TIP3   OH2 9545   1.923   5.657   5.218  0.3259  0.5134 -0.0940
 3180TIP3    H1 9546   1.880   5.730   5.174 -2.0308 -0.8953 -0.3336
 3180TIP3    H2 9547   1.936   5.591   5.150  0.9164  0.0818  0.4216
 3181TIP3   OH2 9548   5.560   3.939   2.492 -1.0490 -0.1009  0.0909
 3181TIP3    H1 9549   5.547   4.011   2.554 -1.0672 -0.4318  0.4769
 3181TIP3    H2 9550   5.654   3.936   2.478 -1.0049 -0.2560  0.3920
 3182TIP3   OH2 9551   5.111   0.314   1.097 -0.0087  0.4600  0.1795
 3182TIP3    H1 9552   5.030   0.361   1.082  0.7312  1.5227 -0.6610
 3182TIP3    H2 9553   5.167   0.376   1.143  0.6201  0.0383 -0.0026
 3183TIP3   OH2 9554   5.869   5.437   2.645 -0.3622  0.1375  0.3769
 3183TIP3    H1 9555   5.963   5.422   2.643 -0.2320  0.8789  0.4953
 3183TIP3    H2 9556   5.847   5.441   2.738 -0.1953  1.7110  0.3774
 3184TIP3   OH2 9557   0.615   4.618   3.930  0.3390  0.1886 -0.2180
 3184TIP3    H1 9558   0.647   4.646   4.016  0.2067  0.2161 -0.1772
 3184TIP3    H2 9559   0.618   4.522   3.933  0.9341  0.1986 -0.4120
 3185TIP3   OH2 9560   1.722   5.115   1.028  0.0855  0.6283 -0.5262
 3185TIP3    H1 9561   1.753   5.189   0.975 -0.6189  1.5451  0.3067
 3185TIP3    H2 9562   1.634   5.097   0.996 -0.0070  0.6058 -0.2629
 3186TIP3   OH2 9563   2.178   1.701   1.933  0.2414 -0.3364  0.8648
 3186TIP3    H1 9564   2.223   1.752   2.001  0.2922 -1.3978  1.6528
 3186TIP3    H2 9565   2.120   1.642   1.981 -0.1193 -0.7405 -0.0363
 3187TIP3   OH2 9566   6.232   4.638   1.750  0.4503  0.5121 -0.4269
 3187TIP3    H1 9567   6.164   4.637   1.818  0.8785  0.5130  0.0020
 3187TIP3    H2 9568   6.294   4.704   1.779  1.8185 -1.0545  0.3321
 3188TIP3   OH2 9569   6.124   2.054   2.581  0.1621  0.0932 -0.4095
 3188TIP3    H1 9570   6.124   1.964   2.547 -1.3263  0.3343 -1.1528
 3188TIP3    H2 9571   6.186   2.101   2.525 -0.9135  0.0667 -1.6859
 3189TIP3   OH2 9572   1.543   5.965   3.919  0.3180  0.2592  0.6395
 3189TIP3    H1 9573   1.471   5.915   3.957 -0.4104  0.9258  0.1619
 3189TIP3    H2 9574   1.547   5.937   3.827  1.9085 -1.1607  1.0777
 3190TIP3   OH2 9575   1.029   5.337   4.188  0.2635  0.0373  0.4128
 3190TIP3    H1 9576   1.020   5.272   4.258  2.8865  0.8487  1.6116
 3190TIP3    H2 9577   1.105   5.307   4.137  0.1633  1.0110 -0.3337
 3191TIP3   OH2 9578   0.693   0.089   3.917 -0.6159  0.0697 -0.2007
 3191TIP3    H1 9579   0.715   0.172   3.961 -1.1207  0.6900 -1.0979
 3191TIP3    H2 9580   0.764   0.075   3.855  0.6784 -1.3666  1.4740
 3192TIP3   OH2 9581   3.539   5.778   0.157  0.6393 -0.2391  0.4624
 3192TIP3    H1 9582   3.449   5.761   0.131  0.6921  0.7687 -0.4454
 3192TIP3    H2 9583   3.550   5.730   0.240 -0.8716  0.0470  0.8511
 3193TIP3   OH2 9584   4.808   2.591   2.623 -0.3857  0.0223  0.3402
 3193TIP3    H1 9585   4.891   2.637   2.615 -0.1775 -0.2383  0.9612
 3193TIP3    H2 9586   4.790   2.589   2.717  0.0565 -1.9179  0.4346
 3194TIP3   OH2 9587   2.530   4.944   1.836  0.2366  0.2934  0.5548
 3194TIP3    H1 9588   2.588   4.992   1.896  0.8814 -0.8986  0.9087
 3194TIP3    H2 9589   2.535   4.994   1.755  3.0645 -0.6174  0.0592
 3195TIP3   OH2 9590   3.627   1.392   2.857 -0.3188 -0.2865  0.0136
 3195TIP3    H1 9591   3.613   1.298   2.844  0.2377 -0.0505 -2.9986
 3195TIP3    H2 9592   3.545   1.432   2.828  0.2157  0.2404 -0.7886
 3196TIP3   OH2 9593   5.999   4.901   0.691 -0.3938  0.2661  0.1967
 3196TIP3    H1 9594   5.924   4.954   0.662  0.1114  1.2102  0.5558
 3196TIP3    H2 9595   6.068   4.921   0.627  0.4853  1.7682  1.5513
 3197TIP3   OH2 9596   2.852   1.275   1.084  0.2970 -0.0470  0.2524
 3197TIP3    H1 9597   2.842   1.332   1.007 -0.4568  1.4743  1.4323
 3197TIP3    H2 9598   2.839   1.187   1.049 -0.0501  0.5971 -1.3721
 3198TIP3   OH2 9599   3.085   3.297   3.649  0.3405 -0.1959 -0.1876
 3198TIP3    H1 9600   3.156   3.237   3.673  0.9331  0.0566 -1.2103
 3198TIP3    H2 9601   3.087   3.297   3.553 -0.3313  0.6683 -0.2042
 3199TIP3   OH2 9602   0.574   3.734   3.077  0.1004  0.5159 -0.3428
 3199TIP3    H1 9603   0.513   3.757   3.147  1.2037 -0.6202  1.0436
 3199TIP3    H2 9604   0.570   3.808   3.017 -1.6138  1.0757  0.3963
 3200TIP3   OH2 9605   4.808   2.871   3.425 -0.0380 -0.8038 -0.4527
 3200TIP3    H1 9606   4.883   2.928   3.407 -1.9474  3.3997  2.9474
 3200TIP3    H2 9607   4.732   2.920   3.393 -1.8161 -1.4396  2.4011
 3201TIP3   OH2 9608   6.215   4.228   3.512  0.0029  0.3122 -0.3070
 3201TIP3    H1 9609   6.213   4.184   3.597  0.3511 -0.0176 -0.4669
 3201TIP3    H2 9610   6.306   4.223   3.484 -0.3312 -0.7558 -1.2992
 3202TIP3   OH2 9611   5.931   2.899   1.663 -0.0620  0.5873 -0.7042
 3202TIP3    H1 9612   5.943   2.992   1.682 -1.4708  0.5019  0.8395
 3202TIP3    H2 9613   5.873   2.898   1.587 -1.5521  1.0285  0.3755
 3203TIP3   OH2 9614   1.810   1.721   0.274 -0.0562  0.3168 -0.0829
 3203TIP3    H1 9615   1.898   1.722   0.236 -1.1263 -0.7271 -2.8436
 3203TIP3    H2 9616   1.792   1.629   0.291 -0.7071  0.4992  0.2474
 3204TIP3   OH2 9617   5.979   1.778   4.814  0.5790 -0.0418  0.1469
 3204TIP3    H1 9618   5.888   1.754   4.830  0.5824  0.8756  1.8445
 3204TIP3    H2 9619   6.021   1.696   4.788 -0.5957 -0.6105 -0.0191
 3205TIP3   OH2 9620   3.419   4.274   0.897  0.0983  0.0221  0.1645
 3205TIP3    H1 9621   3.494   4.307   0.847 -0.9862  1.9087 -0.3270
 3205TIP3    H2 9622   3.453   4.261   0.985  0.7949  1.8705  0.2119
 3206TIP3   OH2 9623   1.676   4.460   1.263 -0.1240 -0.7027 -0.1719
 3206TIP3    H1 9624   1.752   4.485   1.210  0.2619 -1.3410  0.0789
 3206TIP3    H2 9625   1.704   4.383   1.312 -1.0355 -1.1564 -0.3297
 3207TIP3   OH2 9626   4.103   4.453   4.518 -0.1660 -0.1909 -0.3675
 3207TIP3    H1 9627   4.084   4.521   4.583 -1.1571 -0.8782  0.0777
 3207TIP3    H2 9628   4.049   4.378   4.544  0.4898 -0.9670 -1.1703
 3208TIP3   OH2 9629   5.755   0.466   0.501 -0.1625  0.0303  0.3875
 3208TIP3    H1 9630   5.739   0.430   0.413 -0.8600  0.6211  0.2632
 3208TIP3    H2 9631   5.677   0.518   0.519  0.5326  0.9224  0.8494
 3209TIP3   OH2 9632   2.479   0.791   0.535 -0.2723  0.2060  0.3778
 3209TIP3    H1 9633   2.385   0.781   0.521 -0.1859 -0.6980  0.3686
 3209TIP3    H2 9634   2.506   0.710   0.578  0.4917  0.4861  0.4466
 3210TIP3   OH2 9635   1.518   3.518   3.620  0.0286  0.4356 -0.2713
 3210TIP3    H1 9636   1.613   3.504   3.629  0.0257  1.1127  1.1101
 3210TIP3    H2 9637   1.503   3.520   3.526  0.9508 -2.5376 -0.5929
 3211TIP3   OH2 9638   4.967   3.986   4.519 -0.0765 -0.1648  0.3912
 3211TIP3    H1 9639   4.931   3.957   4.435 -1.1699  0.1094  0.7508
 3211TIP3    H2 9640   5.008   3.908   4.556  2.1126  0.1161 -1.2187
 3212TIP3   OH2 9641   1.518   0.867   4.933  0.2712  0.8504 -0.1992
 3212TIP3    H1 9642   1.447   0.868   4.869 -1.0781  1.2030  1.2295
 3212TIP3    H2 9643   1.558   0.953   4.924 -0.3977  1.1867 -0.0754
 3213TIP3   OH2 9644   1.336   3.282   1.495 -0.9606 -0.4561 -0.0267
 3213TIP3    H1 9645   1.412   3.340   1.502 -2.1103  1.1417 -0.5164
 3213TIP3    H2 9646   1.337   3.253   1.404  0.2623 -2.1914  0.4795
 3214TIP3   OH2 9647   3.306   2.844   3.135  0.2007 -0.1048  0.0100
 3214TIP3    H1 9648   3.347   2.835   3.221 -1.9444  0.4893  1.1948
 3214TIP3    H2 9649   3.330   2.932   3.106  0.3000 -0.0133  0.3672
 3215TIP3   OH2 9650   3.021   1.617   3.731 -0.3390 -0.4223  0.0282
 3215TIP3    H1 9651   3.054   1.684   3.671  0.9211 -0.7647  0.3285
 3215TIP3    H2 9652   2.995   1.666   3.809 -0.8423 -0.1185 -0.3235
 3216TIP3   OH2 9653   3.860   4.218   4.238  0.0926  0.0477 -0.1274
 3216TIP3    H1 9654   3.811   4.190   4.316  0.2053 -0.2725 -0.1682
 3216TIP3    H2 9655   3.867   4.313   4.246  1.2016 -0.0978  0.9065
 3217TIP3   OH2 9656   6.307   1.373   4.683 -0.0905  0.1999  0.3937
 3217TIP3    H1 9657   6.388   1.371   4.734  0.8622  1.3509 -0.9873
 3217TIP3    H2 9658   6.251   1.308   4.725  2.9414 -3.6734 -0.8884
 3218TIP3   OH2 9659   3.298   1.018   2.037 -0.3536 -0.1018  0.5373
 3218TIP3    H1 9660   3.372   1.077   2.026 -0.0110 -0.7276 -0.7082
 3218TIP3    H2 9661   3.224   1.064   1.997 -0.2015 -0.2716  0.0469
 3219TIP3   OH2 9662   3.386   0.426   2.454 -0.5143  0.1130  0.0389
 3219TIP3    H1 9663   3.369   0.519   2.443 -0.2536  0.0185 -1.4638
 3219TIP3    H2 9664   3.475   0.422   2.490 -0.9473  0.4512  1.1775
 3220TIP3   OH2 9665   3.540   3.668   0.581 -0.2976  0.0537 -0.3257
 3220TIP3    H1 9666   3.624   3.624   0.566 -0.6160 -1.5761  2.0118
 3220TIP3    H2 9667   3.474   3.602   0.558 -0.9308  0.9555 -1.1657
 3221TIP3   OH2 9668   0.788   4.931   2.224  0.2556  0.0401  0.0287
 3221TIP3    H1 9669   0.861   4.986   2.253  0.9419  0.2473 -1.9129
 3221TIP3    H2 9670   0.824   4.881   2.151 -1.7347  0.8033 -1.5733
 3222TIP3   OH2 9671   2.895   4.498   0.811  0.1776 -0.4802  0.1497
 3222TIP3    H1 9672   2.990   4.490   0.798 -0.0415  0.5642 -3.0286
 3222TIP3    H2 9673   2.882   4.589   0.837 -0.0179 -0.4253 -0.1437
 3223TIP3   OH2 9674   0.533   0.317   0.963  0.4259  0.5286 -0.2562
 3223TIP3    H1 9675   0.626   0.337   0.949  1.1022 -0.4814  2.2668
 3223TIP3    H2 9676   0.516   0.240   0.910  0.7475  1.2408 -1.4360
 3224TIP3   OH2 9677   5.140   0.046   4.497  0.6050 -0.1153  0.2706
 3224TIP3    H1 9678   5.069   0.090   4.544  0.3526 -1.1105  0.8647
 3224TIP3    H2 9679   5.206   0.028   4.564  0.8057 -0.4295 -0.0074
 3225TIP3   OH2 9680   3.881   4.505   1.683  0.4649 -0.0534 -0.0028
 3225TIP3    H1 9681   3.950   4.482   1.621 -1.0715 -1.3408 -1.3359
 3225TIP3    H2 9682   3.851   4.592   1.654 -1.7064 -1.5186 -2.6021
 3226TIP3   OH2 9683   1.020   5.485   3.581 -0.2980  0.2127 -0.1331
 3226TIP3    H1 9684   0.981   5.572   3.592 -2.7037 -0.7370 -0.5451
 3226TIP3    H2 9685   0.995   5.437   3.661  2.0528  0.1957  0.6700
 3227TIP3   OH2 9686   5.965   1.094   1.106  0.6833  0.2747  0.6567
 3227TIP3    H1 9687   5.927   1.146   1.177 -1.9149 -1.4419  0.6351
 3227TIP3    H2 9688   6.027   1.036   1.150  0.6606  0.6662  1.2214
 3228TIP3   OH2 9689   2.920   0.407   1.797 -0.3497 -0.3842  0.0203
 3228TIP3    H1 9690   2.908   0.415   1.703  0.6786 -0.1860 -0.1132
 3228TIP3    H2 9691   2.896   0.493   1.832  0.0872 -0.1779 -0.1703
 3229TIP3   OH2 9692   1.057   0.730   3.749 -0.6181  0.1777  0.2175
 3229TIP3    H1 9693   1.054   0.670   3.824 -1.1831 -0.9668 -0.7013
 3229TIP3    H2 9694   0.976   0.781   3.757 -0.5331  0.2669  0.5442
 3230TIP3   OH2 9695   3.236   5.801   3.352  0.2631  0.5321  0.1412
 3230TIP3    H1 9696   3.154   5.850   3.358  0.9015  1.6377  0.0693
 3230TIP3    H2 9697   3.213   5.721   3.304 -0.5597  1.3241 -0.8222
 3231TIP3   OH2 9698   1.527   1.347   4.811  0.4418 -0.3904 -0.1988
 3231TIP3    H1 9699   1.506   1.418   4.872 -1.1797 -2.1472  1.4404
 3231TIP3    H2 9700   1.472   1.364   4.735  0.7861  0.6156 -0.2336
 3232TIP3   OH2 9701   5.260   0.845   2.202  0.2447  0.4467  0.3339
 3232TIP3    H1 9702   5.230   0.846   2.112 -1.0436  0.1082  0.7357
 3232TIP3    H2 9703   5.252   0.935   2.232 -0.1129  0.4141  0.3445
 3233TIP3   OH2 9704   1.823   2.955   3.328  0.0950  0.3279 -0.4102
 3233TIP3    H1 9705   1.907   2.910   3.329 -0.1509 -0.2405 -2.0805
 3233TIP3    H2 9706   1.816   2.991   3.240 -2.0007 -0.8072 -0.7592
 3234TIP3   OH2 9707   1.320   1.926   3.208  0.2895  0.2031 -0.1463
 3234TIP3    H1 9708   1.231   1.931   3.172  0.4716 -0.1563 -0.6532
 3234TIP3    H2 9709   1.377   1.949   3.135  0.5993  0.8228  0.2821
 3235TIP3   OH2 9710   5.361   5.840   2.575  0.4140  0.1804 -0.4474
 3235TIP3    H1 9711   5.296   5.862   2.642  0.4293 -2.3773  0.5195
 3235TIP3    H2 9712   5.325   5.875   2.494 -1.4962  0.0896  0.3086
 3236TIP3   OH2 9713   5.763   5.099   0.668  0.0141 -0.1754 -0.5366
 3236TIP3    H1 9714   5.757   5.145   0.584  0.2909  0.3200 -0.2906
 3236TIP3    H2 9715   5.672   5.088   0.696 -0.0636  2.6653  0.6954
 3237TIP3   OH2 9716   4.142   0.491   4.355 -0.4864 -0.0509  0.1167
 3237TIP3    H1 9717   4.204   0.420   4.341  2.0690  1.9808  0.5214
 3237TIP3    H2 9718   4.070   0.451   4.404  2.0764 -1.8426  2.6627
 3238TIP3   OH2 9719   3.634   1.571   0.479 -0.3688  0.3567 -0.3385
 3238TIP3    H1 9720   3.722   1.605   0.466  0.8111 -1.4576  2.0577
 3238TIP3    H2 9721   3.597   1.624   0.550  0.2967 -1.1490  1.2268
 3239TIP3   OH2 9722   4.598   4.567   1.624 -0.0619 -0.4051  0.2971
 3239TIP3    H1 9723   4.596   4.654   1.664  2.9340  0.4068 -0.9721
 3239TIP3    H2 9724   4.575   4.507   1.694  1.7014  1.1745  2.3664
 3240TIP3   OH2 9725   3.389   2.715   0.914  0.0618 -0.0895  0.2975
 3240TIP3    H1 9726   3.343   2.632   0.926  0.6345 -0.0017  4.5897
 3240TIP3    H2 9727   3.323   2.781   0.933 -0.1262  0.5048 -2.1212
 3241TIP3   OH2 9728   0.574   3.124   2.691  0.4613  0.1900 -0.3843
 3241TIP3    H1 9729   0.482   3.097   2.685  1.0100 -1.6606 -1.5642
 3241TIP3    H2 9730   0.582   3.195   2.627 -0.2558  0.7686  0.1515
 3242TIP3   OH2 9731   0.080   0.424   0.366  0.1555  0.3624  0.4233
 3242TIP3    H1 9732   0.092   0.512   0.328  0.2670  0.6234  1.0509
 3242TIP3    H2 9733   0.157   0.412   0.421  0.1886 -0.1798  0.2585
 3243TIP3   OH2 9734   1.628   1.760   0.838  0.6775 -0.3479 -0.5053
 3243TIP3    H1 9735   1.539   1.766   0.803  0.9304 -0.9721 -1.2883
 3243TIP3    H2 9736   1.631   1.826   0.907 -0.3861 -0.3078 -0.4804
 3244TIP3   OH2 9737   6.207   3.749   3.690  0.0233  0.2902  0.8987
 3244TIP3    H1 9738   6.270   3.816   3.664 -0.7203 -0.0427 -2.0387
 3244TIP3    H2 9739   6.259   3.684   3.737  2.0991 -0.3486 -2.0603
 3245TIP3   OH2 9740   3.666   3.261   4.532 -0.7358  0.0808 -0.3101
 3245TIP3    H1 9741   3.667   3.316   4.454 -0.8725 -0.9034 -1.0206
 3245TIP3    H2 9742   3.629   3.317   4.600  0.8986  1.4807 -0.5328
 3246TIP3   OH2 9743   2.632   0.299   1.656  0.0209  0.4440 -0.1672
 3246TIP3    H1 9744   2.704   0.257   1.608  1.1540  1.0599  0.9142
 3246TIP3    H2 9745   2.616   0.241   1.731 -0.7320  0.2310 -0.4848
 3247TIP3   OH2 9746   2.191   0.868   3.800  0.1362  0.0880  0.0908
 3247TIP3    H1 9747   2.256   0.864   3.730 -0.0539 -0.3298 -0.0680
 3247TIP3    H2 9748   2.216   0.798   3.860  0.2145  0.3525  0.3688
 3248TIP3   OH2 9749   1.915   1.773   2.623  0.5563  0.1461  0.6389
 3248TIP3    H1 9750   1.918   1.866   2.645  0.7957  0.4993 -0.7719
 3248TIP3    H2 9751   1.870   1.732   2.696  1.7463  1.1501  1.9862
 3249TIP3   OH2 9752   6.053   2.340   4.469  0.3302  0.4722  0.7131
 3249TIP3    H1 9753   6.102   2.260   4.489  0.1905  0.3771  0.6773
 3249TIP3    H2 9754   6.015   2.366   4.552 -0.5269 -0.1085  0.5184
 3250TIP3   OH2 9755   4.784   2.682   5.041  0.2198 -0.0918  0.4780
 3250TIP3    H1 9756   4.767   2.745   5.111  2.7126 -1.2313  2.2393
 3250TIP3    H2 9757   4.716   2.616   5.052 -3.0793  2.5136 -2.0186
 3251TIP3   OH2 9758   4.031   4.880   4.419  0.7089  0.2141  0.4501
 3251TIP3    H1 9759   4.060   4.968   4.396 -1.7606  0.7641 -0.9409
 3251TIP3    H2 9760   4.082   4.822   4.363 -0.6321  1.1260 -1.8676
 3252TIP3   OH2 9761   1.940   0.462   0.592 -0.6309  0.4183  0.9192
 3252TIP3    H1 9762   2.025   0.470   0.548 -0.7520 -1.8863  0.1480
 3252TIP3    H2 9763   1.878   0.503   0.532 -0.4604 -0.5945  0.0209
 3253TIP3   OH2 9764   6.024   2.658   2.290 -0.0418  0.3033 -0.1634
 3253TIP3    H1 9765   6.066   2.619   2.366  0.4944  2.3084  0.6305
 3253TIP3    H2 9766   5.938   2.687   2.321  0.3787  1.5939 -0.1423
 3254TIP3   OH2 9767   1.242   1.215   1.749 -0.4769 -0.2156 -0.8561
 3254TIP3    H1 9768   1.267   1.266   1.672 -0.5855  0.6574 -0.3324
 3254TIP3    H2 9769   1.176   1.269   1.792 -1.0326 -1.0843 -0.5988
 3255TIP3   OH2 9770   0.750   2.661   4.556 -0.2724 -0.6024 -0.2649
 3255TIP3    H1 9771   0.774   2.752   4.572  0.9900 -1.0130  0.3198
 3255TIP3    H2 9772   0.790   2.613   4.628 -0.3371 -1.7018 -0.9457
 3256TIP3   OH2 9773   5.341   0.503   0.093 -0.3870  0.1607 -0.3665
 3256TIP3    H1 9774   5.433   0.481   0.080 -0.5725 -1.4163  0.7827
 3256TIP3    H2 9775   5.296   0.419   0.095 -1.3077  0.6084  2.8695
 3257TIP3   OH2 9776   4.697   5.835   3.075  0.8274 -0.3236 -0.5302
 3257TIP3    H1 9777   4.703   5.739   3.078 -0.2125 -0.4069 -0.7037
 3257TIP3    H2 9778   4.675   5.860   3.164 -1.6656 -0.4972 -1.0252
 3258TIP3   OH2 9779   2.232   1.138   5.088 -0.2425 -0.4258  0.1073
 3258TIP3    H1 9780   2.299   1.177   5.143 -0.7550  0.1747  0.3052
 3258TIP3    H2 9781   2.252   1.170   5.000 -0.3373 -0.1567  0.1835
 3259TIP3   OH2 9782   4.101   2.987   0.401  0.0050 -0.3496 -0.0657
 3259TIP3    H1 9783   4.152   2.962   0.478  0.8042 -1.9695 -1.0707
 3259TIP3    H2 9784   4.050   3.063   0.430 -0.6119 -1.6018  2.4242
 3260TIP3   OH2 9785   4.761   4.794   0.456  0.2628  0.6126 -0.1200
 3260TIP3    H1 9786   4.665   4.795   0.454  0.1752 -1.7825  0.3688
 3260TIP3    H2 9787   4.783   4.795   0.549  0.8492  2.9657 -0.2011
 3261TIP3   OH2 9788   6.297   2.193   2.417 -0.8008 -0.3278  0.2650
 3261TIP3    H1 9789   6.368   2.256   2.429 -0.9122 -0.2510  0.5326
 3261TIP3    H2 9790   6.242   2.231   2.349 -0.9885 -0.0263  0.5824
 3262TIP3   OH2 9791   6.099   2.192   3.830 -0.2589  0.1402  0.2539
 3262TIP3    H1 9792   6.153   2.270   3.819  2.3732 -1.7349 -1.0699
 3262TIP3    H2 9793   6.044   2.189   3.752 -1.3665  1.3293  0.9554
 3263TIP3   OH2 9794   3.377   0.029   3.845  0.3861 -0.0667  0.3777
 3263TIP3    H1 9795   3.383   0.106   3.902  0.0462  0.6439 -0.5175
 3263TIP3    H2 9796   3.310  -0.026   3.886 -0.9118  1.1151 -0.0849
 3264TIP3   OH2 9797  -0.003   3.794   3.036 -0.2312 -0.2963  0.0180
 3264TIP3    H1 9798  -0.017   3.748   2.953 -0.0979  0.5343 -0.4750
 3264TIP3    H2 9799   0.045   3.873   3.012  0.0991 -0.2090  0.9349
 3265TIP3   OH2 9800   1.950   2.135   0.402 -0.3305  0.1521  0.1023
 3265TIP3    H1 9801   1.870   2.104   0.360  0.2874  0.1746 -1.1424
 3265TIP3    H2 9802   1.921   2.206   0.459 -1.3696 -0.7394  0.7335
 3266TIP3   OH2 9803   2.290   3.665   2.529  0.5763 -0.1629  0.1221
 3266TIP3    H1 9804   2.348   3.599   2.568  0.6643  1.0583  2.2593
 3266TIP3    H2 9805   2.223   3.680   2.596  1.4579  3.0024  0.4635
 3267TIP3   OH2 9806   5.349   0.924   3.657 -0.6392  0.3111 -0.6316
 3267TIP3    H1 9807   5.400   1.002   3.678 -1.1843  1.2240 -2.4978
 3267TIP3    H2 9808   5.363   0.866   3.732  1.1863  1.4791  0.0162
 3268TIP3   OH2 9809   4.766   3.110   1.082  0.3860  0.0206 -0.1077
 3268TIP3    H1 9810   4.791   3.189   1.035  2.1183 -0.9394 -0.9209
 3268TIP3    H2 9811   4.805   3.120   1.169  1.3263 -0.2772 -0.4836
 3269TIP3   OH2 9812   2.303   2.591   0.651  0.0357 -0.0048  0.1992
 3269TIP3    H1 9813   2.378   2.533   0.665 -0.3368 -0.5093  0.1202
 3269TIP3    H2 9814   2.329   2.673   0.694  0.7096 -0.1087  0.0024
 3270TIP3   OH2 9815   0.338   5.257   0.183 -0.5638 -0.3506 -0.2306
 3270TIP3    H1 9816   0.298   5.279   0.099  1.1844 -1.6293 -1.4814
 3270TIP3    H2 9817   0.398   5.330   0.201  1.2211 -1.3582 -1.6515
 3271TIP3   OH2 9818   0.149   4.483   1.261  0.5667  0.4800  0.1063
 3271TIP3    H1 9819   0.181   4.525   1.340 -0.8807 -0.9353  1.5140
 3271TIP3    H2 9820   0.070   4.436   1.288  0.7182 -1.1027 -1.8951
 3272TIP3   OH2 9821   4.743   2.836   1.104  0.2643 -0.4955  0.4650
 3272TIP3    H1 9822   4.746   2.930   1.086 -0.6858 -0.0798  2.2680
 3272TIP3    H2 9823   4.801   2.797   1.038 -0.0682  1.2419 -0.9174
 3273TIP3   OH2 9824   2.222   1.650   1.658  0.2806  0.1576 -0.6184
 3273TIP3    H1 9825   2.192   1.685   1.742  1.7956  0.5946 -0.2132
 3273TIP3    H2 9826   2.175   1.702   1.593 -1.0265 -0.2856 -0.0642
 3274TIP3   OH2 9827   3.183   3.934   1.842 -0.2749 -0.3467  0.0099
 3274TIP3    H1 9828   3.105   3.984   1.818 -0.2894 -0.3399  0.0720
 3274TIP3    H2 9829   3.256   3.987   1.811 -0.2712 -0.0338  0.5472
 3275TIP3   OH2 9830   0.505   3.893   2.884 -0.0018 -0.2321  0.0343
 3275TIP3    H1 9831   0.436   3.867   2.823 -1.1526  0.0374  1.1813
 3275TIP3    H2 9832   0.470   3.970   2.928  1.7725  0.9883 -0.5877
 3276TIP3   OH2 9833   0.456   3.557   1.149  0.6288  0.0081 -0.5078
 3276TIP3    H1 9834   0.402   3.481   1.131 -0.5981  1.0807 -1.6000
 3276TIP3    H2 9835   0.394   3.630   1.158  1.7213  0.8318  0.9228
 3277TIP3   OH2 9836   4.645   3.699   3.522  0.6418  0.1147  0.4547
 3277TIP3    H1 9837   4.555   3.679   3.494  0.6098  0.0635  0.5916
 3277TIP3    H2 9838   4.634   3.762   3.594  0.6837 -0.4099  0.9309
 3278TIP3   OH2 9839   3.395   0.407   0.740  0.0912 -0.2843  0.3198
 3278TIP3    H1 9840   3.402   0.486   0.794  1.1991  1.2089 -1.8399
 3278TIP3    H2 9841   3.467   0.352   0.769 -0.5615 -0.4584  1.7059
 3279TIP3   OH2 9842   2.490   0.957   2.107 -0.4584 -0.0048 -0.2343
 3279TIP3    H1 9843   2.448   0.889   2.159  2.8981 -0.5640  2.0788
 3279TIP3    H2 9844   2.449   1.039   2.137 -1.7521 -0.6642 -0.1327
 3280TIP3   OH2 9845   1.845   2.173   1.821  1.1624  0.2694 -0.0939
 3280TIP3    H1 9846   1.828   2.105   1.886 -0.9929  0.4264 -0.4328
 3280TIP3    H2 9847   1.806   2.140   1.740  0.8813  1.4964 -0.4841
 3281TIP3   OH2 9848   3.936   4.816   0.683 -0.3894 -0.5383 -0.5997
 3281TIP3    H1 9849   3.914   4.846   0.595 -0.8089  0.8695 -0.0398
 3281TIP3    H2 9850   4.031   4.823   0.688 -0.0262 -3.3150 -1.8519
 3282TIP3   OH2 9851   5.017   0.578   0.110 -0.2556 -0.6391  0.3046
 3282TIP3    H1 9852   4.983   0.595   0.198  1.6516 -1.1032  1.1925
 3282TIP3    H2 9853   5.101   0.623   0.108 -0.6248  0.0339 -1.5941
 3283TIP3   OH2 9854   1.281   0.263   0.251  0.2077 -0.3516  0.1748
 3283TIP3    H1 9855   1.270   0.246   0.157  1.0677 -3.3110  0.4925
 3283TIP3    H2 9856   1.362   0.314   0.256  1.3528 -1.9729 -0.6503
 3284TIP3   OH2 9857   3.395   3.854   1.346  0.3035 -0.1987 -0.1518
 3284TIP3    H1 9858   3.443   3.779   1.311  1.4595  0.9477 -1.1296
 3284TIP3    H2 9859   3.351   3.892   1.270  0.0730  0.3562  0.2521
 3285TIP3   OH2 9860   3.869   1.527   2.192 -0.1694  0.5334  0.6387
 3285TIP3    H1 9861   3.934   1.554   2.127 -1.5246  1.6415 -0.3371
 3285TIP3    H2 9862   3.919   1.479   2.258  1.1570 -1.4106 -1.6122
 3286TIP3   OH2 9863   0.775   5.024   1.192 -0.0144 -0.9480 -0.3123
 3286TIP3    H1 9864   0.756   4.975   1.272 -1.9345  0.6937  0.3134
 3286TIP3    H2 9865   0.820   5.103   1.222  2.4964 -1.8857 -1.2572
 3287TIP3   OH2 9866   1.810   5.866   5.098  0.5677  0.2471  0.2443
 3287TIP3    H1 9867   1.791   5.960   5.100 -1.2544 -0.0880  0.0627
 3287TIP3    H2 9868   1.794   5.841   5.007  0.0139 -0.4325  0.5242
 3288TIP3   OH2 9869   1.630   5.053   2.533  0.0107 -0.0535  0.0705
 3288TIP3    H1 9870   1.580   5.082   2.456  0.9487  1.1645 -0.1120
 3288TIP3    H2 9871   1.717   5.035   2.498 -0.4598 -3.1607  0.1834
 3289TIP3   OH2 9872   2.308   4.327   0.612 -0.1809 -0.0774 -0.2403
 3289TIP3    H1 9873   2.360   4.385   0.556 -1.7166  1.6297  0.0072
 3289TIP3    H2 9874   2.345   4.240   0.598  1.8584  0.8721 -1.0549
 3290TIP3   OH2 9875   2.390   4.805   4.753  0.2340 -0.0646 -0.4965
 3290TIP3    H1 9876   2.373   4.851   4.835 -1.5071 -0.8431 -0.3678
 3290TIP3    H2 9877   2.431   4.870   4.696  0.2934  0.8465  0.5667
 3291TIP3   OH2 9878   3.505   0.311   2.208  0.2377 -0.0668 -0.0391
 3291TIP3    H1 9879   3.449   0.341   2.281 -0.0848 -1.5151  0.3535
 3291TIP3    H2 9880   3.503   0.383   2.145 -0.9372  0.4938  0.5967
 3292TIP3   OH2 9881   4.321   2.478   4.140  0.0626 -0.1455  0.1611
 3292TIP3    H1 9882   4.322   2.573   4.148  1.6831 -0.0100 -1.0340
 3292TIP3    H2 9883   4.299   2.446   4.228  2.4050  1.3219  1.3958
 3293TIP3   OH2 9884   5.503   1.709   3.929  0.3738 -0.0007 -0.1625
 3293TIP3    H1 9885   5.578   1.679   3.979  0.3229  1.5927  0.9347
 3293TIP3    H2 9886   5.443   1.634   3.928  1.3620 -0.8204  0.1436
 3294TIP3   OH2 9887   0.624   5.429   0.980 -0.1102 -0.3500 -0.2677
 3294TIP3    H1 9888   0.638   5.361   1.045  0.5667 -1.8248 -1.8606
 3294TIP3    H2 9889   0.712   5.447   0.944 -0.5738 -0.2790 -1.4225
 3295TIP3   OH2 9890   1.486   5.675   3.954  0.0026  0.0344  0.0588
 3295TIP3    H1 9891   1.420   5.725   4.001 -0.0067  0.4916 -0.4320
 3295TIP3    H2 9892   1.555   5.660   4.018 -0.2394  0.2015  0.3595
 3296TIP3   OH2 9893   5.677   5.549   3.623 -0.0181  0.1924  0.5836
 3296TIP3    H1 9894   5.686   5.462   3.662  0.4281 -0.8302 -1.6524
 3296TIP3    H2 9895   5.767   5.583   3.623  0.4865 -0.9247 -1.8265
 3297TIP3   OH2 9896   3.939   5.723   2.750 -0.2059 -0.1706  0.2074
 3297TIP3    H1 9897   3.879   5.649   2.758  1.5689 -1.6912  0.1239
 3297TIP3    H2 9898   3.903   5.774   2.677 -0.8321 -1.5874 -0.5207
 3298TIP3   OH2 9899   3.029   4.148   2.802  0.0037 -0.2201  0.0071
 3298TIP3    H1 9900   2.951   4.204   2.808 -0.4850 -0.9973  1.2216
 3298TIP3    H2 9901   3.102   4.208   2.816 -0.3406  0.5321 -1.1988
 3299TIP3   OH2 9902   3.172   0.410   1.608  0.4506  0.1575 -0.1883
 3299TIP3    H1 9903   3.144   0.489   1.562 -0.9195  0.4656  1.0873
 3299TIP3    H2 9904   3.138   0.337   1.556 -0.9659  0.4956  0.2344
 3300TIP3   OH2 9905   0.777   5.498   4.231  0.2961 -0.0892 -0.8209
 3300TIP3    H1 9906   0.809   5.471   4.317  0.6064  0.7661 -0.6615
 3300TIP3    H2 9907   0.783   5.593   4.232 -5.2703  0.5748  0.4569
 3301TIP3   OH2 9908   5.465   3.518   0.281 -0.0647 -0.0950 -0.0282
 3301TIP3    H1 9909   5.518   3.597   0.275 -1.1998  0.9956  2.7695
 3301TIP3    H2 9910   5.393   3.532   0.220  1.4335 -0.5222 -2.0169
 3302TIP3   OH2 9911   4.386   0.806   5.004  0.1432  0.4592  0.0185
 3302TIP3    H1 9912   4.444   0.825   4.931  1.2877 -0.0808  0.7489
 3302TIP3    H2 9913   4.413   0.719   5.033 -1.0556  0.1929  0.3723
 3303TIP3   OH2 9914   0.080   1.624   0.773 -0.0960 -0.4149 -0.2159
 3303TIP3    H1 9915   0.030   1.670   0.706 -1.6137 -1.2913  0.2630
 3303TIP3    H2 9916   0.156   1.680   0.790 -1.4999  1.5317 -0.1529
 3304TIP3   OH2 9917   0.618   1.826   1.551  0.3813  0.6606 -0.4300
 3304TIP3    H1 9918   0.669   1.906   1.537  0.3730  0.5291 -1.3293
 3304TIP3    H2 9919   0.529   1.857   1.567 -0.0902  0.8300 -2.9481
 3305TIP3   OH2 9920   2.464   1.732   2.506  0.0559 -0.1617 -0.3207
 3305TIP3    H1 9921   2.431   1.678   2.577 -2.2034  1.1135 -0.3202
 3305TIP3    H2 9922   2.489   1.814   2.547 -1.0780  0.5152 -0.9228
 3306TIP3   OH2 9923   2.111   5.062   4.678 -0.4418 -0.0647 -0.1214
 3306TIP3    H1 9924   2.160   5.139   4.646  1.2740 -1.1658 -0.2615
 3306TIP3    H2 9925   2.127   4.995   4.611 -0.2918 -1.1319  0.9643
 3307TIP3   OH2 9926   0.711   3.852   2.082  0.0113 -0.2241 -0.4520
 3307TIP3    H1 9927   0.718   3.932   2.135 -0.1519 -0.1903 -0.4838
 3307TIP3    H2 9928   0.646   3.872   2.015 -0.7519 -0.7144  0.1300
 3308TIP3   OH2 9929   1.365   0.079   4.356 -0.3702 -0.0840 -0.4155
 3308TIP3    H1 9930   1.394   0.060   4.267 -0.3095  0.4745 -0.5176
 3308TIP3    H2 9931   1.424   0.148   4.387 -0.5221 -0.1292 -0.0187
 3309TIP3   OH2 9932   2.972   2.328   1.636 -0.0308 -0.0479 -0.7610
 3309TIP3    H1 9933   3.059   2.341   1.674 -0.2404 -0.4620 -0.1129
 3309TIP3    H2 9934   2.925   2.409   1.654  0.5436  0.6156 -2.0753
 3310TIP3   OH2 9935   3.615   3.458   2.201 -0.1345 -0.1047  0.2378
 3310TIP3    H1 9936   3.694   3.481   2.250 -0.8145  0.6237  1.0365
 3310TIP3    H2 9937   3.646   3.401   2.131  1.3833  1.8386 -0.7548
 3311TIP3   OH2 9938   3.930   4.310   2.899 -0.6193 -0.1357  0.1859
 3311TIP3    H1 9939   3.872   4.300   2.975 -0.1313 -0.3558  0.5408
 3311TIP3    H2 9940   3.886   4.373   2.843  0.0352  1.7847  1.6983
 3312TIP3   OH2 9941   0.556   5.852   3.530 -0.1315  0.3187  0.3072
 3312TIP3    H1 9942   0.501   5.908   3.585  1.6135  2.5289 -0.0564
 3312TIP3    H2 9943   0.640   5.849   3.576  0.5553  0.0576 -0.9286
 3313TIP3   OH2 9944   6.355   0.855   1.798 -0.3308  0.2915 -0.3195
 3313TIP3    H1 9945   6.357   0.765   1.832 -0.0328  0.7317  0.8757
 3313TIP3    H2 9946   6.298   0.850   1.721  0.2471 -1.0576 -0.6986
 3314TIP3   OH2 9947   4.660   3.772   0.266  0.0940  0.0937  0.2741
 3314TIP3    H1 9948   4.599   3.749   0.336 -1.4682 -0.0654 -1.0706
 3314TIP3    H2 9949   4.684   3.863   0.284  0.2992 -0.1686  1.4047
 3315TIP3   OH2 9950   4.231   4.394   2.407  0.5634 -0.1342  0.3577
 3315TIP3    H1 9951   4.213   4.484   2.434  1.5361  0.3507 -0.5105
 3315TIP3    H2 9952   4.201   4.340   2.480 -3.7963  0.5256 -0.6618
 3316TIP3   OH2 9953   2.986   0.592   4.107  0.1435  0.0219 -0.0428
 3316TIP3    H1 9954   3.011   0.678   4.073  1.9625 -1.3942 -2.6690
 3316TIP3    H2 9955   2.936   0.552   4.036 -2.1296 -0.5881  1.7561
 3317TIP3   OH2 9956   2.906   1.678   2.018 -0.1480 -0.1853  0.0129
 3317TIP3    H1 9957   2.950   1.643   1.941  1.8775  0.5671  0.7599
 3317TIP3    H2 9958   2.821   1.709   1.986  0.1202 -1.0497 -1.6356
 3318TIP3   OH2 9959   3.723   2.767   4.679  0.1921  0.8578 -0.4670
 3318TIP3    H1 9960   3.696   2.804   4.595 -1.7825 -1.7347 -1.1107
 3318TIP3    H2 9961   3.801   2.716   4.658  1.3606  2.4052 -0.0914
 3319TIP3   OH2 9962   1.721   2.155   0.653 -0.1287 -0.0841 -0.3937
 3319TIP3    H1 9963   1.633   2.120   0.670  0.3329 -1.0920  0.0403
 3319TIP3    H2 9964   1.706   2.245   0.624 -1.3249 -0.3643 -0.7164
 3320TIP3   OH2 9965   1.834   2.833   2.391  0.0428 -0.1034 -0.4722
 3320TIP3    H1 9966   1.930   2.832   2.393  0.0994  0.3684 -1.8276
 3320TIP3    H2 9967   1.812   2.922   2.365 -0.7687 -0.2464 -0.2903
 3321TIP3   OH2 9968   0.538   3.231   1.451  0.3845  0.1480 -0.2046
 3321TIP3    H1 9969   0.482   3.209   1.375  0.3566 -1.6133  0.2675
 3321TIP3    H2 9970   0.479   3.275   1.512 -0.4384 -1.2869  0.0943
 3322TIP3   OH2 9971   5.395   5.911   2.092 -0.1331 -0.1303 -0.0504
 3322TIP3    H1 9972   5.423   5.986   2.145  0.3205 -0.5092  0.2581
 3322TIP3    H2 9973   5.355   5.950   2.014  0.0299  0.4328  0.1436
 3323TIP3   OH2 9974   3.947   3.518   4.006  0.0007 -0.3151  0.0046
 3323TIP3    H1 9975   4.037   3.489   4.022  0.2500  1.0044  1.2062
 3323TIP3    H2 9976   3.948   3.554   3.918  0.0155 -2.5165 -0.9689
 3324TIP3   OH2 9977   4.235   3.367   3.987 -0.5321 -0.8139 -0.0818
 3324TIP3    H1 9978   4.296   3.441   3.980 -2.5076  0.8231 -0.9766
 3324TIP3    H2 9979   4.216   3.360   4.081 -1.4152  0.8033 -0.1113
 3325TIP3   OH2 9980   6.309   2.150   1.914 -0.1595  0.2983 -0.3912
 3325TIP3    H1 9981   6.338   2.240   1.898 -0.6753  0.3384 -1.1613
 3325TIP3    H2 9982   6.222   2.159   1.953 -1.1318  0.1475 -2.3589
 3326TIP3   OH2 9983   4.710   4.782   3.675  0.5744  0.3427 -0.1328
 3326TIP3    H1 9984   4.726   4.732   3.755 -1.3292  0.4788  0.3809
 3326TIP3    H2 9985   4.620   4.815   3.685  1.6221  3.6763 -0.5428
 3327TIP3   OH2 9986   5.226   1.346   1.161 -0.2119 -0.1894 -0.1696
 3327TIP3    H1 9987   5.310   1.302   1.171 -0.3866 -0.3839  0.4979
 3327TIP3    H2 9988   5.209   1.344   1.066 -0.4201 -1.9739 -0.1461
 3328TIP3   OH2 9989   3.509   5.127   4.264  0.0555  0.1786 -0.3232
 3328TIP3    H1 9990   3.497   5.218   4.237 -1.2524 -0.2030 -1.0967
 3328TIP3    H2 9991   3.557   5.086   4.192 -0.0988  0.0612 -0.3612
 3329TIP3   OH2 9992   0.656   0.136   5.010  0.4249 -0.2654  0.2410
 3329TIP3    H1 9993   0.647   0.132   4.915 -1.3983 -2.7315  0.4189
 3329TIP3    H2 9994   0.596   0.205   5.037  1.7978  1.2557 -0.4028
 3330TIP3   OH2 9995   3.429   5.674   1.605 -0.1238  0.4267  0.4393
 3330TIP3    H1 9996   3.398   5.584   1.615  0.9311 -0.1417 -1.0309
 3330TIP3    H2 9997   3.396   5.700   1.518  1.8168  0.4782 -0.3259
 3331TIP3   OH2 9998   5.840   1.607   0.238 -0.1401  0.0667  1.1600
 3331TIP3    H1 9999   5.866   1.616   0.146  0.0448  1.4029  1.3221
 3331TIP3    H210000   5.905   1.547   0.275 -0.9380 -1.4890  0.1629
 3332TIP3   OH210001   1.134   1.799   4.664  0.3039 -0.4850 -0.3748
 3332TIP3    H110002   1.158   1.892   4.659 -1.4773 -0.0058 -0.8682
 3332TIP3    H210003   1.194   1.756   4.604  0.5518  0.4950 -0.8577
 3333TIP3   OH210004   3.004   2.040   5.130  0.7021  0.3697  0.0622
 3333TIP3    H110005   2.976   2.126   5.161  0.2422 -0.1607  1.1513
 3333TIP3    H210006   3.081   2.020   5.183  0.8869  0.1586 -0.2821
 3334TIP3   OH210007   3.872   1.048   3.568 -0.1672  0.4898 -0.1821
 3334TIP3    H110008   3.900   1.106   3.497  1.2839 -0.1490 -0.1783
 3334TIP3    H210009   3.882   1.100   3.648 -2.1592  1.3333 -0.4486
 3335TIP3   OH210010   5.389   5.217   4.964 -0.1513 -0.5971 -0.2712
 3335TIP3    H110011   5.355   5.128   4.977  1.1213 -1.1293 -0.4165
 3335TIP3    H210012   5.382   5.231   4.870 -0.7187 -0.3865 -0.1987
 3336TIP3   OH210013   2.874   1.674   0.286 -0.0345 -0.0132 -0.2073
 3336TIP3    H110014   2.906   1.729   0.215 -1.0539  1.9378  0.7831
 3336TIP3    H210015   2.783   1.655   0.264 -0.5752  1.1906  0.8619
 3337TIP3   OH210016   4.037   1.196   0.569 -0.1749 -0.2825 -0.2651
 3337TIP3    H110017   4.012   1.287   0.550  0.4142 -0.3841 -1.6089
 3337TIP3    H210018   4.132   1.197   0.571 -0.1361 -0.3359  2.6407
 3338TIP3   OH210019   0.813   3.153   4.989 -0.2459  0.6846  0.3002
 3338TIP3    H110020   0.728   3.111   4.974 -0.4339  1.2918 -0.3752
 3338TIP3    H210021   0.874   3.100   4.937 -0.3216  0.6546  0.2403
 3339TIP3   OH210022   4.402   4.234   2.282 -0.6281 -0.0879 -0.1409
 3339TIP3    H110023   4.351   4.159   2.313  0.5753 -0.4862  1.0115
 3339TIP3    H210024   4.356   4.310   2.316 -0.1839 -0.4658  1.4312
 3340TIP3   OH210025   3.404   2.624   4.503  0.2073 -0.3098  0.2245
 3340TIP3    H110026   3.372   2.711   4.526  1.3848  0.0454  0.5779
 3340TIP3    H210027   3.432   2.585   4.586 -0.9223 -1.3077  0.1696
 3341TIP3   OH210028   5.772   3.788   3.221 -0.0566  0.2215 -0.4175
 3341TIP3    H110029   5.772   3.799   3.126 -0.2662  2.7610 -0.2111
 3341TIP3    H210030   5.861   3.761   3.243  1.1101  3.1489 -1.1041
 3342TIP3   OH210031   5.926   5.916   0.357 -0.0182  0.1147  0.2622
 3342TIP3    H110032   5.956   5.901   0.267  2.3134 -0.6558  1.0893
 3342TIP3    H210033   5.937   6.010   0.371 -0.7426  0.2983 -0.3533
 3343TIP3   OH210034   3.020   3.514   4.051  1.0796 -0.1577 -0.1081
 3343TIP3    H110035   2.937   3.562   4.046  0.1086 -1.5091  1.7166
 3343TIP3    H210036   3.036   3.483   3.963  0.5359  1.5126 -0.8413
 3344TIP3   OH210037   0.576   2.150   4.858 -0.1593 -0.3524 -0.3581
 3344TIP3    H110038   0.547   2.061   4.837 -0.4803 -0.3463  0.0497
 3344TIP3    H210039   0.569   2.197   4.775 -1.0975 -0.4151 -0.3290
 3345TIP3   OH210040   3.666   5.640   4.708 -0.2982  0.2146 -0.4754
 3345TIP3    H110041   3.648   5.655   4.615  1.1456  0.1194 -0.8021
 3345TIP3    H210042   3.755   5.605   4.709 -0.2931  0.2242  0.9540
 3346TIP3   OH210043   4.035   0.184   0.804  0.3601 -0.1537  0.0636
 3346TIP3    H110044   4.078   0.167   0.888  1.2131 -0.4010 -0.4013
 3346TIP3    H210045   4.088   0.254   0.765 -0.6005  0.6273  0.1401
 3347TIP3   OH210046   0.006   4.904   4.086 -0.1111  0.3073  0.0616
 3347TIP3    H110047  -0.056   4.833   4.103  0.0801  0.0575 -0.2545
 3347TIP3    H210048   0.050   4.878   4.005 -0.7923  1.3022 -0.6649
 3348TIP3   OH210049   5.929   5.487   1.767  0.0641  0.3559  0.4114
 3348TIP3    H110050   5.984   5.459   1.693 -0.8846 -1.0945  0.2390
 3348TIP3    H210051   5.948   5.581   1.775  0.8662  0.3589 -1.0857
 3349TIP3   OH210052   1.335   2.569   4.968  0.5651 -0.5568  0.5726
 3349TIP3    H110053   1.246   2.532   4.964  0.4320 -0.4326  2.0616
 3349TIP3    H210054   1.383   2.511   5.026  1.2593 -0.1835  0.3840
 3350TIP3   OH210055   3.998   5.354   4.471  0.5201 -0.4018  0.1939
 3350TIP3    H110056   3.953   5.330   4.552  0.5958  0.9622  0.6613
 3350TIP3    H210057   4.061   5.421   4.497  1.0466 -0.4498 -0.8888
 3351TIP3   OH210058   2.048   2.391   4.970  0.4738 -1.2416  0.6973
 3351TIP3    H110059   1.976   2.417   5.027  0.7337  0.3358  0.3467
 3351TIP3    H210060   2.050   2.458   4.902  2.4978 -1.0424  0.8979
 3352TIP3   OH210061   2.935   4.103   3.946  0.3082  1.0790  0.0965
 3352TIP3    H110062   2.896   4.067   3.867 -0.0534  2.5647 -0.4398
 3352TIP3    H210063   2.864   4.151   3.989  0.8166  1.3663  0.6367
 3353TIP3   OH210064   2.478   3.849   1.913 -0.0865  0.5839  0.2377
 3353TIP3    H110065   2.518   3.934   1.934  0.5987  0.1502  0.7605
 3353TIP3    H210066   2.401   3.845   1.970 -1.8683  2.1056 -1.8883
 3354TIP3   OH210067   0.899   1.202   4.819  0.2228 -0.0249 -0.2037
 3354TIP3    H110068   0.891   1.225   4.912 -0.9662 -1.7191  0.1476
 3354TIP3    H210069   0.989   1.169   4.811 -0.0331 -1.0062  0.6478
 3355TIP3   OH210070   5.112   4.119   1.692 -0.3757 -0.3934  0.3511
 3355TIP3    H110071   5.196   4.151   1.658 -0.3055 -1.1526 -0.2103
 3355TIP3    H210072   5.135   4.050   1.753 -0.4578  1.5198  2.6969
 3356TIP3   OH210073   5.242   5.052   3.860 -0.5957  0.2988  0.0228
 3356TIP3    H110074   5.326   5.031   3.900 -0.3341 -0.0912 -0.7144
 3356TIP3    H210075   5.255   5.141   3.825 -0.0497 -0.2475 -1.2166
 3357TIP3   OH210076   3.145   2.783   4.149  0.0750 -0.4122 -0.0561
 3357TIP3    H110077   3.187   2.833   4.079  0.4908  0.1457  0.5753
 3357TIP3    H210078   3.216   2.760   4.209 -0.4883  0.5376  1.0314
 3358TIP3   OH210079   0.466   4.256   4.613 -0.2917 -0.0917  0.0074
 3358TIP3    H110080   0.382   4.215   4.591 -0.0206  0.0359 -1.3519
 3358TIP3    H210081   0.524   4.231   4.541  0.2586  1.5397 -0.1592
 3359TIP3   OH210082   2.397   5.678   3.410  0.0703  0.0448 -0.5208
 3359TIP3    H110083   2.365   5.744   3.348 -1.1612 -1.0825 -1.1332
 3359TIP3    H210084   2.445   5.615   3.355  1.1418  0.3441  0.0397
 3360TIP3   OH210085   3.702   4.300   1.619 -0.2935 -0.0710  0.3401
 3360TIP3    H110086   3.717   4.366   1.551  1.3228  0.8947  1.5604
 3360TIP3    H210087   3.772   4.315   1.683 -0.9109 -1.8747  1.5129
 3361TIP3   OH210088   0.682   2.026   2.194  0.0027 -0.5858  0.1995
 3361TIP3    H110089   0.650   2.115   2.202 -1.3989 -1.0651  0.1528
 3361TIP3    H210090   0.740   2.028   2.117 -0.2281  0.2148  0.0396
 3362TIP3   OH210091   2.854   2.900   3.414  0.5958 -0.1816 -0.3098
 3362TIP3    H110092   2.905   2.952   3.476 -0.1787  1.7571 -1.2044
 3362TIP3    H210093   2.778   2.870   3.463  1.3162 -0.9504  0.3591
 3363TIP3   OH210094   4.772   5.506   0.889  0.3539 -0.1669  0.0973
 3363TIP3    H110095   4.706   5.515   0.957 -0.1413  0.8446 -0.4806
 3363TIP3    H210096   4.756   5.581   0.831  4.3102  2.3850  1.9066
 3364TIP3   OH210097   1.545   2.088   2.324  0.4765 -0.1598 -0.5222
 3364TIP3    H110098   1.456   2.060   2.347 -0.1485  0.5941 -1.8481
 3364TIP3    H210099   1.600   2.013   2.345 -0.4257 -0.5184  0.6470
 3365TIP3   OH210100   3.505   4.847   3.862  0.3042  0.2931 -0.3045
 3365TIP3    H110101   3.474   4.835   3.772 -1.2405 -1.1830  0.3878
 3365TIP3    H210102   3.448   4.914   3.899  0.1045 -0.0127 -0.0508
 3366TIP3   OH210103   4.754   1.740   1.136  0.1702 -0.3107 -0.6236
 3366TIP3    H110104   4.724   1.776   1.052 -1.6008 -2.2057 -0.8889
 3366TIP3    H210105   4.692   1.670   1.155  2.0959 -1.6810  0.9743
 3367TIP3   OH210106   5.733   1.743   1.954  0.1466 -0.6277 -0.4036
 3367TIP3    H110107   5.679   1.727   2.032 -0.4743 -2.5376 -1.1639
 3367TIP3    H210108   5.685   1.810   1.905 -0.2747 -0.5573  0.0931
 3368TIP3   OH210109   0.764   1.229   3.126 -0.0727 -0.4591 -0.0702
 3368TIP3    H110110   0.730   1.309   3.166 -1.2944 -0.2903 -1.3453
 3368TIP3    H210111   0.785   1.171   3.199  0.5792  0.9175  0.8700
 3369TIP3   OH210112   4.771   0.863   2.001  0.5880  0.7651  0.0342
 3369TIP3    H110113   4.742   0.780   1.965  1.6152  0.5881 -0.4154
 3369TIP3    H210114   4.691   0.902   2.038 -0.4714  0.7743 -2.0458
 3370TIP3   OH210115   3.396   0.505   0.463 -1.1099 -0.6064  0.2177
 3370TIP3    H110116   3.383   0.474   0.553  0.9895 -1.7660  0.1834
 3370TIP3    H210117   3.387   0.426   0.409  2.1554 -0.8953 -0.0917
 3371TIP3   OH210118   4.022   1.907   0.068  0.1086 -0.1903 -0.1867
 3371TIP3    H110119   4.076   1.845   0.118  1.8993 -0.0185 -1.7917
 3371TIP3    H210120   4.014   1.983   0.126  1.1496 -0.4452  0.3202
 3372TIP3   OH210121   2.097   3.643   3.052  0.0364 -0.2831 -0.1388
 3372TIP3    H110122   2.124   3.551   3.057 -2.7401 -1.1851  0.1667
 3372TIP3    H210123   2.002   3.640   3.062 -0.3042  2.5252 -1.5510
 3373TIP3   OH210124   0.307   4.364   1.028  0.5140  0.9697  0.3031
 3373TIP3    H110125   0.221   4.401   1.050  1.0834  3.0157 -0.7065
 3373TIP3    H210126   0.288   4.300   0.959 -0.4729 -0.6763  1.9833
 3374TIP3   OH210127   4.070   0.040   2.149 -0.5913 -0.6115 -0.7707
 3374TIP3    H110128   3.982   0.016   2.177 -0.1581 -2.2398 -0.7262
 3374TIP3    H210129   4.064   0.133   2.128 -1.4412  0.2697  2.7807
 3375TIP3   OH210130   5.913   5.855   3.500  0.6298 -0.3911 -0.2377
 3375TIP3    H110131   5.844   5.911   3.537 -0.1928 -0.0963 -2.1232
 3375TIP3    H210132   5.984   5.915   3.478 -0.0035 -0.1357 -1.6792
 3376TIP3   OH210133   3.372   2.920   0.534  0.3959  0.6195 -0.2514
 3376TIP3    H110134   3.451   2.910   0.587  0.8047  1.2033 -0.7334
 3376TIP3    H210135   3.393   2.876   0.452  1.1244  2.7222 -1.2772
 3377TIP3   OH210136   3.425   0.845   0.875  0.2561 -0.3959  0.2200
 3377TIP3    H110137   3.346   0.899   0.873  0.3750 -0.2335 -0.2265
 3377TIP3    H210138   3.475   0.873   0.798  0.7455 -0.5035  0.5006
 3378TIP3   OH210139   2.860   3.113   4.277 -0.4641 -1.1314  0.3601
 3378TIP3    H110140   2.812   3.181   4.324 -0.3135 -0.7120 -0.0835
 3378TIP3    H210141   2.881   3.153   4.192 -1.5506 -2.2045 -0.4331
 3379TIP3   OH210142   2.823   3.027   2.319 -0.3406  0.1371 -0.3309
 3379TIP3    H110143   2.775   3.102   2.287 -1.4006 -0.3817  0.0030
 3379TIP3    H210144   2.855   2.983   2.240 -0.8272  0.2221 -0.5784
 3380TIP3   OH210145   4.333   2.581   1.321  0.4338 -0.5115 -0.2212
 3380TIP3    H110146   4.244   2.612   1.339  0.4799 -1.0183  0.9166
 3380TIP3    H210147   4.381   2.660   1.295  0.5566  0.4512  2.6279
 3381TIP3   OH210148   1.587   4.748   1.766  0.3908  0.0586  0.1467
 3381TIP3    H110149   1.565   4.824   1.712 -0.7465 -0.3187  0.0501
 3381TIP3    H210150   1.638   4.692   1.708  0.4224  0.3199 -0.0813
 3382TIP3   OH210151   0.443   3.482   5.019 -0.7410  0.3749 -0.2004
 3382TIP3    H110152   0.486   3.473   4.934  0.3892 -1.8649  0.5267
 3382TIP3    H210153   0.493   3.548   5.065  0.2945 -0.2823 -0.3568
 3383TIP3   OH210154   3.102   5.255   3.279  0.0845  1.0541  0.0343
 3383TIP3    H110155   3.043   5.191   3.240  1.0104  0.7687 -0.9503
 3383TIP3    H210156   3.088   5.246   3.374 -0.7061  0.3020 -0.1414
 3384TIP3   OH210157   5.999   5.210   1.845 -0.7273  0.0090 -0.5946
 3384TIP3    H110158   5.920   5.176   1.804  0.0235  0.3463 -2.3811
 3384TIP3    H210159   5.977   5.300   1.867 -1.7934 -0.7181  1.6603
 3385TIP3   OH210160   5.167   1.083   3.410 -0.1270 -0.4794  0.7690
 3385TIP3    H110161   5.145   1.018   3.476  0.7672 -0.0400  1.5273
 3385TIP3    H210162   5.184   1.163   3.460  0.7379 -0.1840  0.0367
 3386TIP3   OH210163   1.527   3.457   1.219 -0.2062 -0.1880 -0.4769
 3386TIP3    H110164   1.607   3.437   1.170  1.1782  0.5182  1.3486
 3386TIP3    H210165   1.549   3.435   1.310 -1.6604  1.1612  0.2536
 3387TIP3   OH210166   5.408   0.944   1.348 -0.6927  0.6196 -0.1691
 3387TIP3    H110167   5.318   0.956   1.377  0.2505  1.5112  2.6653
 3387TIP3    H210168   5.417   1.004   1.273 -1.9155  2.0410  0.7629
 3388TIP3   OH210169   4.126   0.285   3.496 -0.6065  0.4811 -0.3497
 3388TIP3    H110170   4.195   0.325   3.550 -1.7909  1.5467  0.4427
 3388TIP3    H210171   4.153   0.302   3.406  0.4480  0.3647 -0.0748
 3389TIP3   OH210172   4.874   4.812   1.278  0.2562  0.0694 -0.2318
 3389TIP3    H110173   4.947   4.751   1.277 -0.4378 -0.8330  0.9914
 3389TIP3    H210174   4.876   4.850   1.366  1.0467  2.3136 -1.1582
 3390TIP3   OH210175   5.105   3.036   2.398 -0.0390  0.1246  0.2152
 3390TIP3    H110176   5.064   3.113   2.358 -2.0954 -0.1338  1.6204
 3390TIP3    H210177   5.102   3.054   2.492 -1.0844 -1.8421  0.6232
 3391TIP3   OH210178   5.830   4.434   3.668 -0.3075  0.0060  0.1261
 3391TIP3    H110179   5.773   4.427   3.591 -0.0559 -0.4064 -0.0225
 3391TIP3    H210180   5.771   4.417   3.742 -0.5670  0.4810  0.0340
 3392TIP3   OH210181   2.154   1.078   1.113 -0.3446  0.2604 -0.5037
 3392TIP3    H110182   2.176   1.155   1.166 -0.7864  1.1545 -1.5572
 3392TIP3    H210183   2.225   1.072   1.049  0.4669 -1.1307  0.4724
 3393TIP3   OH210184   5.857   1.090   1.997 -0.5950  0.1100  0.2877
 3393TIP3    H110185   5.838   1.146   2.072  0.5298  2.4340 -1.0394
 3393TIP3    H210186   5.771   1.062   1.965 -1.1535  0.5212  1.3801
 3394TIP3   OH210187   3.610   1.867   3.958  0.8937 -0.1551 -0.5569
 3394TIP3    H110188   3.611   1.852   3.863  1.1077 -0.7752 -0.4631
 3394TIP3    H210189   3.519   1.889   3.978  0.7833 -0.3299 -0.8607
 3395TIP3   OH210190   4.089   1.403   3.519 -0.1057  0.8419 -0.4345
 3395TIP3    H110191   4.085   1.455   3.599  2.1984 -1.1186  1.0852
 3395TIP3    H210192   4.046   1.321   3.541  2.2742 -0.5023 -0.4310
 3396TIP3   OH210193   5.160   1.277   3.144  0.2216  0.3510  0.3300
 3396TIP3    H110194   5.216   1.208   3.178  0.4867 -0.3993 -1.5280
 3396TIP3    H210195   5.192   1.293   3.055 -1.0586  1.5279  0.0365
 3397TIP3   OH210196   2.162   6.002   5.116 -0.1464  0.0000 -0.2690
 3397TIP3    H110197   2.216   5.949   5.175 -1.6610  0.7016  1.8738
 3397TIP3    H210198   2.131   5.939   5.050 -0.1841 -1.3375  0.9646
 3398TIP3   OH210199   5.225   3.554   4.621  0.6095  0.1594  0.5213
 3398TIP3    H110200   5.314   3.561   4.653  0.1973  1.5723  1.4326
 3398TIP3    H210201   5.197   3.465   4.646  1.1368  0.3657  1.8886
 3399TIP3   OH210202   2.496   4.428   0.080  0.7083 -0.0495  0.3411
 3399TIP3    H110203   2.443   4.423   0.000 -1.8140 -0.5753  1.9232
 3399TIP3    H210204   2.452   4.494   0.134  0.6129 -1.6636  2.3922
 3400TIP3   OH210205   0.829   5.551   1.687  0.0030 -0.1700  0.0759
 3400TIP3    H110206   0.806   5.624   1.630  0.1616 -1.0105 -1.0829
 3400TIP3    H210207   0.864   5.592   1.766  2.0078  1.0044 -1.3428
 3401TIP3   OH210208   3.234   2.607   2.540 -0.4130  0.5274 -0.2030
 3401TIP3    H110209   3.327   2.603   2.562 -0.7641 -0.7071  1.2354
 3401TIP3    H210210   3.223   2.543   2.470 -0.2087  0.5909 -0.2942
 3402TIP3   OH210211   2.236   5.845   4.107 -0.1733 -0.0607 -0.1819
 3402TIP3    H110212   2.208   5.756   4.127 -1.3395 -0.0102 -1.4007
 3402TIP3    H210213   2.197   5.898   4.177  0.7168 -0.5180  0.6744
 3403TIP3   OH210214   2.893   2.428   4.057  0.2061 -0.5753  1.0095
 3403TIP3    H110215   2.829   2.378   4.107 -0.6701 -0.0023  0.4876
 3403TIP3    H210216   2.972   2.375   4.059 -1.2531 -3.0477 -1.3271
 3404TIP3   OH210217   2.242   5.874   2.681 -0.2401 -0.0162 -0.5403
 3404TIP3    H110218   2.242   5.873   2.776  1.9733 -0.3735 -0.4913
 3404TIP3    H210219   2.236   5.967   2.658 -1.3745  0.0383 -0.1065
 3405TIP3   OH210220   1.704   5.812   4.823  0.4196  0.1740  0.3794
 3405TIP3    H110221   1.659   5.772   4.748 -0.8440 -0.7864  1.6138
 3405TIP3    H210222   1.637   5.867   4.864  0.8944  0.1542  1.2003
 3406TIP3   OH210223   5.732   0.566   3.839 -0.4127  0.4460 -0.0102
 3406TIP3    H110224   5.753   0.657   3.859 -0.7780  0.5262  0.0188
 3406TIP3    H210225   5.809   0.517   3.867  0.0597  0.8156 -0.6610
 3407TIP3   OH210226   4.483   4.403   4.830 -0.5922 -0.2402 -0.1969
 3407TIP3    H110227   4.493   4.308   4.842  0.7919 -0.2020 -0.8976
 3407TIP3    H210228   4.553   4.442   4.882 -2.1781  0.5275  1.4662
 3408TIP3   OH210229   5.439   4.718   2.879 -0.4828 -0.3354 -0.2781
 3408TIP3    H110230   5.391   4.800   2.871  0.2314  0.0381 -0.8298
 3408TIP3    H210231   5.427   4.692   2.971 -0.1901  0.7096  0.0666
 3409TIP3   OH210232   5.816   4.026   5.001 -0.2287  0.2509  0.0253
 3409TIP3    H110233   5.886   3.988   4.947 -0.2383 -1.3639  1.0842
 3409TIP3    H210234   5.855   4.033   5.088 -0.9427  0.6682  0.3138
 3410TIP3   OH210235   2.813   4.768   0.905 -0.7742  0.6304  0.1100
 3410TIP3    H110236   2.865   4.820   0.844 -0.8181  0.0048 -0.4598
 3410TIP3    H210237   2.722   4.787   0.882 -0.9024  2.7499  1.9409
 3411TIP3   OH210238   0.359   0.461   1.541  0.2264 -0.4021 -0.2322
 3411TIP3    H110239   0.417   0.442   1.615 -0.4095  0.7127  0.5727
 3411TIP3    H210240   0.322   0.547   1.560 -0.6035 -0.4639 -1.4377
 3412TIP3   OH210241   2.557   1.071   2.447 -0.7624 -0.1439  0.1049
 3412TIP3    H110242   2.612   0.994   2.428 -1.9009 -0.8377 -0.5493
 3412TIP3    H210243   2.496   1.041   2.515  0.1098  0.8406  1.3613
 3413TIP3   OH210244   2.926   0.684   4.941 -0.5037 -0.0106  0.1730
 3413TIP3    H110245   2.844   0.638   4.961 -1.0761  0.8295 -0.1652
 3413TIP3    H210246   2.898   0.766   4.899  0.5008  0.4815  0.4291
 3414TIP3   OH210247   0.719   4.186   1.534 -0.0684  0.2442 -0.1001
 3414TIP3    H110248   0.787   4.118   1.524 -0.1177  0.2940 -0.8059
 3414TIP3    H210249   0.637   4.137   1.532 -0.0675  0.2231  0.3798
 3415TIP3   OH210250   4.135   5.769   0.213  0.0872 -0.4633 -0.1064
 3415TIP3    H110251   4.149   5.722   0.130 -1.4388  1.1343 -1.3348
 3415TIP3    H210252   4.129   5.861   0.188  0.8570  0.2206  1.9770
 3416TIP3   OH210253   3.877   1.030   2.075 -0.0060 -0.6382 -0.1134
 3416TIP3    H110254   3.901   1.119   2.098 -0.1031 -0.5937 -0.1836
 3416TIP3    H210255   3.787   1.020   2.108 -0.6282 -0.1560 -1.5790
 3417TIP3   OH210256   5.910   4.256   1.567  0.1588  0.0142  0.7197
 3417TIP3    H110257   5.904   4.259   1.662  0.9928 -0.6842  0.8018
 3417TIP3    H210258   5.998   4.223   1.548  0.2876  0.8823 -0.3082
 3418TIP3   OH210259   0.566   5.559   4.750 -0.1709  0.6605 -0.0875
 3418TIP3    H110260   0.542   5.467   4.737 -0.4975  0.6682  0.4189
 3418TIP3    H210261   0.633   5.557   4.818  1.2710  0.6457 -1.4464
 3419TIP3   OH210262   4.899   3.400   2.999  0.3695 -0.2440 -0.5218
 3419TIP3    H110263   4.829   3.465   3.007 -0.2105 -0.9989  0.8509
 3419TIP3    H210264   4.979   3.449   3.020  0.2641  0.5558 -1.8311
 3420TIP3   OH210265   4.268   4.658   4.950  0.2517 -0.0665  0.6138
 3420TIP3    H110266   4.346   4.624   4.995  1.4980  2.2021  0.3384
 3420TIP3    H210267   4.228   4.719   5.013  0.1624  0.6750 -0.1338
 3421TIP3   OH210268   3.266   5.152   0.782 -0.3874 -0.8646  0.8509
 3421TIP3    H110269   3.175   5.180   0.781 -0.7683 -2.0300  1.0548
 3421TIP3    H210270   3.293   5.155   0.690 -0.1919  0.7926  0.9453
 3422TIP3   OH210271   3.339   5.637   1.912  0.6629 -0.1618  0.8843
 3422TIP3    H110272   3.342   5.561   1.854 -2.5725  0.2701 -0.0213
 3422TIP3    H210273   3.321   5.711   1.854 -2.3465  0.3373  2.2816
 3423TIP3   OH210274   1.245   5.689   0.019  0.8641  0.0799 -0.2432
 3423TIP3    H110275   1.181   5.734   0.074  1.4496  0.5223  0.0901
 3423TIP3    H210276   1.290   5.759  -0.028  1.9979 -0.0965  0.5139
 3424TIP3   OH210277   5.988   4.066   4.456  0.3426 -0.1102  0.1911
 3424TIP3    H110278   6.023   3.979   4.477 -0.5572 -0.5704 -0.1520
 3424TIP3    H210279   6.043   4.127   4.506  1.3476 -0.8288 -0.0167
 3425TIP3   OH210280   6.119   1.241   5.127 -0.1886 -0.3912  0.2528
 3425TIP3    H110281   6.177   1.192   5.185  0.5971  0.3789  0.1430
 3425TIP3    H210282   6.039   1.255   5.178  0.3624 -0.0206  1.0308
 3426TIP3   OH210283   3.856   3.616   0.939 -0.0456  0.3742  0.0329
 3426TIP3    H110284   3.817   3.703   0.926  0.1243  0.2103 -1.7893
 3426TIP3    H210285   3.951   3.633   0.938 -0.0119  0.3678  1.3891
 3427TIP3   OH210286   4.092   1.468   1.176  0.1830  0.4186  0.2160
 3427TIP3    H110287   4.092   1.377   1.145 -1.4654 -0.7840  3.2804
 3427TIP3    H210288   4.006   1.501   1.150 -0.5278 -0.0434  1.8563
 3428TIP3   OH210289   1.033   4.078   2.739  0.3578  0.0111  0.0111
 3428TIP3    H110290   0.967   4.062   2.672  0.5626  0.6931 -0.3685
 3428TIP3    H210291   1.026   4.172   2.757  2.5800  0.5587 -1.5105
 3429TIP3   OH210292   5.147   3.657   2.743 -0.5708 -0.0297 -0.2103
 3429TIP3    H110293   5.215   3.725   2.736 -0.1956 -0.1263  2.0056
 3429TIP3    H210294   5.086   3.678   2.673  0.1919  1.8463 -0.3796
 3430TIP3   OH210295   0.338   2.384   3.512 -0.0235  0.1588  0.0156
 3430TIP3    H110296   0.324   2.407   3.604 -0.9942 -0.0234 -0.0755
 3430TIP3    H210297   0.427   2.348   3.510  0.2552  0.7804  0.7569
 3431TIP3   OH210298   6.237   1.661   0.264 -0.1406  0.3130 -0.3970
 3431TIP3    H110299   6.258   1.571   0.290 -1.9878  0.0765  0.4126
 3431TIP3    H210300   6.322   1.701   0.246  0.7493 -1.4847 -0.4534
 3432TIP3   OH210301   2.500   5.744   1.673  0.3021 -0.3302 -0.4045
 3432TIP3    H110302   2.450   5.806   1.621  1.3123  0.8102 -0.0514
 3432TIP3    H210303   2.560   5.703   1.610  0.6095  0.0901 -0.3910
 3433TIP3   OH210304   0.616   0.756   3.046  0.0262 -0.1504  0.3822
 3433TIP3    H110305   0.551   0.818   3.014  0.8842  0.7056  0.2478
 3433TIP3    H210306   0.654   0.798   3.123  1.2205 -0.0936 -0.2087
 3434TIP3   OH210307   4.248   4.031   2.449 -0.2947  0.1581 -0.4814
 3434TIP3    H110308   4.186   4.066   2.385 -1.1329  0.0919  0.2787
 3434TIP3    H210309   4.246   3.936   2.434  3.7177  0.3405 -4.1522
 3435TIP3   OH210310   3.331   2.030   2.806 -0.5038 -0.0733 -0.0238
 3435TIP3    H110311   3.392   2.038   2.879 -1.8200  1.5954  0.9512
 3435TIP3    H210312   3.272   2.104   2.815 -1.8401 -0.8488 -1.7476
 3436TIP3   OH210313   3.151   5.651   2.755  0.2647 -0.1730 -0.5956
 3436TIP3    H110314   3.211   5.589   2.714  0.8665  1.1383 -1.7874
 3436TIP3    H210315   3.082   5.666   2.689  0.3107  0.6591 -0.4683
 3437TIP3   OH210316   0.800   3.425   4.894 -0.2238  0.0744 -0.1256
 3437TIP3    H110317   0.887   3.456   4.868 -1.2203  0.2594 -3.9448
 3437TIP3    H210318   0.814   3.335   4.923  1.4446  0.7707  1.4067
 3438TIP3   OH210319   6.051   2.562   3.962  0.4265 -0.9606 -0.3362
 3438TIP3    H110320   6.032   2.488   4.020  0.1545 -0.9733 -0.4396
 3438TIP3    H210321   6.060   2.637   4.021  1.3311 -1.1824 -0.1717
 3439TIP3   OH210322   4.528   4.942   1.143 -0.0471  0.4141 -0.0737
 3439TIP3    H110323   4.593   5.007   1.170  0.5283 -0.8414  1.8339
 3439TIP3    H210324   4.462   4.945   1.212  0.0509 -1.0501  0.1157
 3440TIP3   OH210325   3.865   1.153   0.012 -0.1850 -0.3436  0.0021
 3440TIP3    H110326   3.954   1.182   0.031  0.7409 -3.9169  2.0586
 3440TIP3    H210327   3.858   1.067   0.053 -5.2669  0.5109  1.7709
 3441TIP3   OH210328   4.078   5.846   4.004  0.0733 -0.8378 -0.2107
 3441TIP3    H110329   4.088   5.886   4.090 -3.9712  0.7484 -0.2243
 3441TIP3    H210330   4.130   5.900   3.945  1.2522 -0.7024  0.9256
 3442TIP3   OH210331   0.255   2.830   0.553 -0.2519 -0.6055  0.3932
 3442TIP3    H110332   0.248   2.736   0.541 -1.8163 -0.6834  1.5071
 3442TIP3    H210333   0.178   2.853   0.606  0.5344  1.1726  0.8430
 3443TIP3   OH210334   1.251   0.057   1.197 -0.0557 -0.3172 -0.0239
 3443TIP3    H110335   1.198   0.054   1.117  1.1581 -1.2876 -0.8303
 3443TIP3    H210336   1.196   0.015   1.263 -1.0065  0.3326 -0.3815
 3444TIP3   OH210337   3.417   1.870   1.014 -0.2202 -0.4119 -0.3642
 3444TIP3    H110338   3.454   1.927   0.946  0.2791 -0.7073 -0.3430
 3444TIP3    H210339   3.401   1.929   1.088  1.5336 -0.4998  0.1342
 3445TIP3   OH210340   4.547   1.363   3.730  0.5311  0.0587 -0.3830
 3445TIP3    H110341   4.528   1.296   3.796 -1.7124  0.7394 -0.2447
 3445TIP3    H210342   4.485   1.346   3.659  1.6570  0.4655 -1.5042
 3446TIP3   OH210343   3.018   4.922   4.188 -0.0470  0.2788  0.0638
 3446TIP3    H110344   2.932   4.961   4.206 -0.1140 -0.2359  0.9123
 3446TIP3    H210345   3.040   4.952   4.100 -0.8941  0.7862  0.0154
 3447TIP3   OH210346   1.822   1.790   3.907 -0.2846  0.4176  0.2867
 3447TIP3    H110347   1.788   1.878   3.924  0.4903  0.9835 -0.9687
 3447TIP3    H210348   1.812   1.778   3.812 -1.2407 -1.2334  0.5522
 3448TIP3   OH210349   3.985   0.438   0.588  0.0487 -0.3298  0.3210
 3448TIP3    H110350   3.914   0.381   0.617  0.6445 -0.7189  1.0528
 3448TIP3    H210351   4.016   0.399   0.506  1.5204 -2.0466  1.6166
 3449TIP3   OH210352   4.523   1.582   1.422 -0.1962 -0.2690  0.0596
 3449TIP3    H110353   4.609   1.598   1.460 -0.5021  0.9575  0.2552
 3449TIP3    H210354   4.487   1.669   1.402 -2.9483 -0.4022  3.4617
 3450TIP3   OH210355   2.989   5.708   2.514 -0.0792 -0.4658 -0.0454
 3450TIP3    H110356   2.906   5.682   2.553 -0.6548  2.2943  0.7550
 3450TIP3    H210357   2.972   5.707   2.419 -0.4462 -1.5573  0.0089
 3451TIP3   OH210358   3.486   3.095   2.386 -0.0554  0.3040  0.0053
 3451TIP3    H110359   3.432   3.172   2.366 -1.0355 -0.3217  0.1560
 3451TIP3    H210360   3.422   3.027   2.410  0.6689 -1.0502 -1.7128
 3452TIP3   OH210361   2.260   5.583   3.118 -0.2493  0.2267 -0.6611
 3452TIP3    H110362   2.216   5.502   3.146  1.8445 -0.5525  0.5885
 3452TIP3    H210363   2.352   5.558   3.111  0.2071  2.1079 -1.9499
 3453TIP3   OH210364   0.948   2.450   1.629 -0.0146 -0.2923  0.2263
 3453TIP3    H110365   1.016   2.466   1.694 -0.4638 -0.0132  0.6340
 3453TIP3    H210366   0.876   2.508   1.654  0.4422  1.1507 -1.5372
 3454TIP3   OH210367   0.851   1.365   5.052  0.2510  0.4270  0.3618
 3454TIP3    H110368   0.788   1.384   5.121  0.6832  2.2195  0.3122
 3454TIP3    H210369   0.937   1.382   5.092  0.7533 -1.8994  0.4099
 3455TIP3   OH210370   1.579   3.828   3.083  0.1741  0.1877 -0.9169
 3455TIP3    H110371   1.575   3.786   2.997 -1.1965 -1.0527 -0.2821
 3455TIP3    H210372   1.515   3.781   3.136  1.9368  0.0176  1.1959
 3456TIP3   OH210373   3.527   5.565   2.658  0.4459 -0.8867  0.2774
 3456TIP3    H110374   3.532   5.659   2.676  1.3794 -0.8008 -0.3342
 3456TIP3    H210375   3.483   5.559   2.573 -0.7192 -1.0795  0.8871
 3457TIP3   OH210376   6.124   1.823   5.043 -0.4130 -0.6769  0.0751
 3457TIP3    H110377   6.091   1.804   4.955  0.9591 -0.6515 -0.4699
 3457TIP3    H210378   6.056   1.879   5.082 -0.3779  0.5757 -1.5265
 3458TIP3   OH210379   0.383   2.861   2.336 -0.6938  0.0161  0.2238
 3458TIP3    H110380   0.350   2.832   2.250 -0.5392 -0.6436  0.3805
 3458TIP3    H210381   0.451   2.925   2.316 -1.0647  0.3014 -0.1343
 3459TIP3   OH210382   4.795   2.061   0.314  0.3594 -0.6044  0.5997
 3459TIP3    H110383   4.753   2.137   0.272 -0.9090 -1.5879  0.0219
 3459TIP3    H210384   4.806   2.087   0.405  0.5482  0.5214  0.2714
 3460TIP3   OH210385   0.664   1.381   1.831  0.4021 -0.0456 -0.6782
 3460TIP3    H110386   0.684   1.410   1.920 -3.3639 -0.3183  0.4021
 3460TIP3    H210387   0.673   1.460   1.777 -1.2584  1.1443  0.7150
 3461TIP3   OH210388   3.548   3.356   0.967 -0.3365 -0.4585  0.6318
 3461TIP3    H110389   3.525   3.397   0.884 -1.0520 -1.8392  0.1059
 3461TIP3    H210390   3.464   3.326   1.003  0.1568 -1.5826  0.8992
 3462TIP3   OH210391   4.410   1.302   1.811  0.3311 -0.6428 -0.1156
 3462TIP3    H110392   4.482   1.245   1.785  1.1339 -0.2121  1.1256
 3462TIP3    H210393   4.430   1.329   1.900 -0.9238  0.1940 -0.0516
 3463TIP3   OH210394   3.561   5.047   4.774 -0.7194  0.0109 -0.1262
 3463TIP3    H110395   3.572   5.140   4.753  0.9397 -0.3307 -0.9489
 3463TIP3    H210396   3.642   5.023   4.819 -0.9959 -1.0980 -0.1907
 3464TIP3   OH210397   5.587   2.362   1.923  0.5366 -0.0894 -0.1447
 3464TIP3    H110398   5.655   2.327   1.980  0.7893  2.4455  1.2783
 3464TIP3    H210399   5.505   2.337   1.966  0.6791  0.0456  0.2129
 3465TIP3   OH210400   0.193   2.691   3.440 -0.1620  0.1591 -0.2720
 3465TIP3    H110401   0.195   2.735   3.355  1.4119  0.9874  0.1459
 3465TIP3    H210402   0.281   2.705   3.476 -0.6057 -0.6940  1.2351
 3466TIP3   OH210403   2.527   2.614   3.872  0.0818 -0.3629  0.0789
 3466TIP3    H110404   2.477   2.604   3.791 -0.3268  1.2916  0.0984
 3466TIP3    H210405   2.478   2.564   3.937 -0.6572 -0.0883 -0.2649
 3467TIP3   OH210406   5.622   4.932   3.720 -0.6217 -0.4623 -0.0658
 3467TIP3    H110407   5.568   4.876   3.664  0.9762 -1.9969 -0.1538
 3467TIP3    H210408   5.686   4.971   3.661 -0.1215 -0.5813  0.3888
 3468TIP3   OH210409   2.109   5.655   2.462  0.1291  0.4294  0.0151
 3468TIP3    H110410   2.140   5.738   2.497  0.5243  0.1483  0.3448
 3468TIP3    H210411   2.154   5.589   2.515 -1.6873  0.0095  1.1320
 3469TIP3   OH210412   3.462   2.936   4.255 -0.3635  0.3808  0.2444
 3469TIP3    H110413   3.378   2.980   4.272 -1.2403 -1.4139  0.8181
 3469TIP3    H210414   3.493   2.975   4.174 -2.0246  0.7348 -0.2695
 3470TIP3   OH210415   3.258   1.081   4.392  0.0070 -0.1421  0.1345
 3470TIP3    H110416   3.259   1.091   4.296  1.4319 -1.5600 -0.0499
 3470TIP3    H210417   3.278   1.168   4.426  1.0016  0.0606 -0.9126
 3471TIP3   OH210418   4.537   2.645   0.890  0.2904  0.0016  0.0725
 3471TIP3    H110419   4.600   2.589   0.846  0.6659 -0.0582  0.6802
 3471TIP3    H210420   4.565   2.734   0.868  0.8555 -0.0168  0.7107
 3472TIP3   OH210421   5.016   3.848   3.065 -0.0942  0.4054  0.2569
 3472TIP3    H110422   4.969   3.910   3.120  0.2213  0.3452  0.6054
 3472TIP3    H210423   5.091   3.897   3.031 -1.0049  0.8379 -1.2261
 3473TIP3   OH210424   1.099   2.152   0.159 -0.2718  0.2489 -0.2217
 3473TIP3    H110425   1.052   2.207   0.095 -0.2807 -0.5956 -0.9514
 3473TIP3    H210426   1.044   2.074   0.168  0.6740 -0.4845 -0.6268
 3474TIP3   OH210427   5.379   2.390   4.188  0.5192  0.1455 -0.0138
 3474TIP3    H110428   5.446   2.324   4.170 -1.3141 -1.4806 -1.2733
 3474TIP3    H210429   5.336   2.360   4.268  0.7246  0.7477  0.3368
 3475TIP3   OH210430   6.034   3.430   3.930  0.3078  0.4548  0.7465
 3475TIP3    H110431   6.068   3.513   3.963 -0.7829  1.6602 -0.9951
 3475TIP3    H210432   5.981   3.454   3.854  1.2306 -1.9898 -0.7719
 3476TIP3   OH210433   1.229   3.384   1.763  0.3277 -0.0588  0.3746
 3476TIP3    H110434   1.244   3.368   1.670  1.2072  0.3498  0.4324
 3476TIP3    H210435   1.139   3.356   1.778  0.9293 -2.4826 -0.0673
 3477TIP3   OH210436   6.291   1.215   3.239  0.1189  0.5418  0.0524
 3477TIP3    H110437   6.224   1.159   3.201  0.1601 -0.5824  1.5224
 3477TIP3    H210438   6.366   1.156   3.254  0.8217  1.3909 -0.0202
 3478TIP3   OH210439   4.361   1.930   1.084 -0.2928 -0.3007  0.9085
 3478TIP3    H110440   4.410   1.974   1.016  2.0639 -1.2518  1.9011
 3478TIP3    H210441   4.358   1.838   1.057 -0.4861 -0.4634  1.4585
 3479TIP3   OH210442   6.196   3.207   2.466  0.1132 -0.0486 -0.3751
 3479TIP3    H110443   6.193   3.118   2.429 -3.3181 -0.6928  1.1000
 3479TIP3    H210444   6.164   3.263   2.395  3.1156  0.2887 -1.6192
 3480TIP3   OH210445   1.997   2.137   4.025  0.1097 -0.3784 -0.2147
 3480TIP3    H110446   1.928   2.111   3.964  0.6670  2.2555 -2.1821
 3480TIP3    H210447   1.958   2.206   4.077  1.1664  1.1434 -1.3561
 3481TIP3   OH210448   6.110   4.687   5.059  0.5264 -0.3327 -0.3922
 3481TIP3    H110449   6.022   4.693   5.021  0.3447 -0.0055  0.0770
 3481TIP3    H210450   6.144   4.776   5.056  0.6571 -0.3750 -0.1286
 3482TIP3   OH210451   0.927   3.222   2.619 -0.0051 -0.0980 -0.2044
 3482TIP3    H110452   1.014   3.252   2.592  0.6584 -0.7218  1.1217
 3482TIP3    H210453   0.944   3.161   2.692 -1.4883 -1.0710 -0.6183
 3483TIP3   OH210454   3.387   1.254   2.300 -0.6875  0.8730 -0.2857
 3483TIP3    H110455   3.423   1.322   2.244  1.2442  0.9866  0.9826
 3483TIP3    H210456   3.444   1.178   2.285  0.0550  0.9843  1.6387
 3484TIP3   OH210457   0.517   4.847   0.965 -0.4026  0.5835 -0.4631
 3484TIP3    H110458   0.579   4.786   1.006 -0.4443  1.7858  1.4891
 3484TIP3    H210459   0.454   4.790   0.921  0.9277 -0.7130 -0.7990
 3485TIP3   OH210460   3.796   5.393   0.118 -0.4604 -0.4638  0.6989
 3485TIP3    H110461   3.855   5.417   0.046 -0.9718 -0.1819  0.3660
 3485TIP3    H210462   3.795   5.471   0.174 -2.1005  0.3465 -0.3687
 3486TIP3   OH210463   5.585   5.482   0.837 -0.1467 -0.5520  0.1336
 3486TIP3    H110464   5.508   5.432   0.863 -0.2173 -0.5265 -0.0216
 3486TIP3    H210465   5.576   5.566   0.883 -0.3948 -0.4168 -0.1589
 3487TIP3   OH210466   5.227   3.726   0.880 -0.0486 -0.1589 -0.6429
 3487TIP3    H110467   5.271   3.679   0.809  1.8779 -0.7687  0.8564
 3487TIP3    H210468   5.228   3.818   0.851  0.5826 -0.4119 -1.4691
 3488TIP3   OH210469   4.540   4.075   2.615 -0.7420  0.4484  0.3602
 3488TIP3    H110470   4.496   4.088   2.531 -1.1181  2.9656  0.8725
 3488TIP3    H210471   4.582   4.159   2.634  0.0135 -0.2987  2.3289
 3489TIP3   OH210472   4.776   3.273   0.562 -0.7232 -0.5203  0.2025
 3489TIP3    H110473   4.774   3.329   0.639 -1.2607 -0.2668  0.0140
 3489TIP3    H210474   4.808   3.330   0.492 -1.4893 -0.3707 -0.0400
 3490TIP3   OH210475   3.512   5.455   5.120 -0.0142  0.0332 -0.0663
 3490TIP3    H110476   3.603   5.483   5.128  0.0879 -0.1053 -0.6845
 3490TIP3    H210477   3.517   5.376   5.065 -0.5224  0.1329 -0.2543
 3491TIP3   OH210478   3.985   1.832   1.755 -0.1176  0.1179 -0.1565
 3491TIP3    H110479   4.031   1.748   1.744 -0.6653 -0.2646  0.4177
 3491TIP3    H210480   3.984   1.847   1.849 -1.7167 -0.2003 -0.1005
 3492TIP3   OH210481   3.378   3.429   0.725  0.7249 -0.8011  0.2900
 3492TIP3    H110482   3.364   3.453   0.633 -0.5284  0.8430  0.8603
 3492TIP3    H210483   3.426   3.346   0.721  0.3660 -0.9668 -1.8438
 3493TIP3   OH210484   3.671   1.544   2.536 -0.1115  0.3635 -0.0018
 3493TIP3    H110485   3.764   1.550   2.558 -0.0144  2.3859 -0.7564
 3493TIP3    H210486   3.662   1.597   2.457 -1.8725 -0.0610 -0.1217
 3494TIP3   OH210487   5.254   2.601   4.844 -0.3069 -0.1607  0.2127
 3494TIP3    H110488   5.227   2.675   4.790 -0.1232 -0.2279  0.0288
 3494TIP3    H210489   5.350   2.605   4.843 -0.3021 -0.1518  0.5460
 3495TIP3   OH210490   5.204   3.559   2.383 -0.0084 -0.6690  0.2871
 3495TIP3    H110491   5.163   3.552   2.470  0.4504 -2.2603  0.4069
 3495TIP3    H210492   5.270   3.627   2.393  0.6464 -1.4499  1.4501
 3496TIP3   OH210493   4.032   4.604   3.478 -0.3138 -0.4215  0.5477
 3496TIP3    H110494   4.096   4.634   3.413 -3.0983 -1.3738 -2.9920
 3496TIP3    H210495   4.044   4.510   3.482 -0.9077 -0.5059  0.4645
 3497TIP3   OH210496   4.690   5.711   0.340  0.2197 -0.7239  0.4692
 3497TIP3    H110497   4.610   5.684   0.295 -0.4919 -0.5340  1.5604
 3497TIP3    H210498   4.674   5.689   0.432 -0.0171  2.3830  1.3052
 3498TIP3   OH210499   6.112   4.530   2.599  0.2155  0.1177 -0.4933
 3498TIP3    H110500   6.077   4.535   2.510 -0.1658  0.4584 -0.3304
 3498TIP3    H210501   6.039   4.559   2.655  0.6543  0.5165 -0.1190
 3499TIP3   OH210502   5.580   4.693   1.120  0.0260  0.5371  0.1796
 3499TIP3    H110503   5.502   4.748   1.118  0.3375  0.9655 -0.6928
 3499TIP3    H210504   5.613   4.700   1.209  0.1177  1.8588  0.0543
 3500TIP3   OH210505   5.317   0.190   0.264  0.4481 -0.2342 -0.0673
 3500TIP3    H110506   5.328   0.123   0.332 -0.5889 -0.0398  0.3128
 3500TIP3    H210507   5.328   0.273   0.310  1.0889 -0.1207 -0.4139
 3501TIP3   OH210508   2.389   0.538   1.375 -0.6306 -0.2019 -0.5722
 3501TIP3    H110509   2.298   0.562   1.394 -0.8500 -2.0306  1.0481
 3501TIP3    H210510   2.389   0.514   1.282 -2.1481 -1.4018 -0.3107
 3502TIP3   OH210511   5.271   3.295   2.611  0.9203  0.0980  0.0588
 3502TIP3    H110512   5.315   3.254   2.685  1.0416  0.1993  0.0430
 3502TIP3    H210513   5.195   3.340   2.649 -0.1829 -1.5197 -0.1136
 3503TIP3   OH210514   2.889   3.817   0.117  0.0730  0.0611 -0.4295
 3503TIP3    H110515   2.975   3.819   0.075  0.6169 -2.2120  0.4131
 3503TIP3    H210516   2.907   3.788   0.206 -1.5782 -0.7157 -0.3111
 3504TIP3   OH210517   0.641   1.465   1.130 -0.2149  0.0803  0.5460
 3504TIP3    H110518   0.595   1.455   1.213 -0.4941  0.5058  0.4434
 3504TIP3    H210519   0.719   1.517   1.152  2.0193 -3.2604  1.3699
 3505TIP3   OH210520   2.938   2.864   4.371 -0.0106 -0.1784  0.1181
 3505TIP3    H110521   3.020   2.853   4.322  0.8470  0.9790  1.2090
 3505TIP3    H210522   2.900   2.945   4.338  0.6133  0.6522  1.3443
 3506TIP3   OH210523   1.739   3.553   1.753  0.1941 -0.4556  0.5718
 3506TIP3    H110524   1.752   3.477   1.809 -0.3242  0.6821  2.3454
 3506TIP3    H210525   1.773   3.626   1.805  1.9285  0.4023 -1.6161
 3507TIP3   OH210526   4.506   1.316   2.085 -0.2821  0.0503  0.0580
 3507TIP3    H110527   4.462   1.346   2.165  0.6205 -0.5894  0.8139
 3507TIP3    H210528   4.527   1.224   2.102 -0.0333 -0.0738 -0.8930
 3508TIP3   OH210529   2.868   1.861   1.153  0.2448  0.9423 -0.6226
 3508TIP3    H110530   2.872   1.769   1.130  0.9515  0.4140  1.4192
 3508TIP3    H210531   2.904   1.907   1.077  0.0720 -0.4564 -1.5831
 3509TIP3   OH210532   1.579   4.164   4.866 -0.3098  0.4377 -0.1764
 3509TIP3    H110533   1.558   4.190   4.777  0.1202  1.0538 -0.1007
 3509TIP3    H210534   1.619   4.242   4.906 -1.3993  0.5107  0.8545
 3510TIP3   OH210535   3.068   0.042   1.708 -0.1245 -0.2694  0.2260
 3510TIP3    H110536   3.052   0.093   1.788 -0.0002  3.6158 -1.9919
 3510TIP3    H210537   3.151   0.076   1.674  0.4305 -2.6646 -1.0457
 3511TIP3   OH210538   3.070   3.415   4.491  0.0193 -0.0722  0.4420
 3511TIP3    H110539   3.135   3.473   4.530 -0.9087  1.8666 -0.7388
 3511TIP3    H210540   3.031   3.369   4.566  1.2863  0.2637  1.3384
 3512TIP3   OH210541   3.126   3.324   4.234  0.5546  0.6069 -0.3311
 3512TIP3    H110542   3.072   3.364   4.302  0.4787 -1.6333  1.0369
 3512TIP3    H210543   3.066   3.306   4.162  0.0080  0.3553  0.1859
 3513TIP3   OH210544   2.307   2.325   0.492 -0.3129  0.0373 -0.0045
 3513TIP3    H110545   2.287   2.416   0.468  1.6636  0.2366 -1.0783
 3513TIP3    H210546   2.377   2.299   0.432  0.8771 -1.4025  1.8856
 3514TIP3   OH210547   1.038   4.684   1.140 -0.1387 -0.5106  0.4911
 3514TIP3    H110548   1.068   4.771   1.166  0.1311 -0.8690  1.4071
 3514TIP3    H210549   0.953   4.699   1.098  0.1207  0.2356  0.2166
 3515TIP3   OH210550   4.322   0.942   0.501 -0.5438 -0.1696  0.5279
 3515TIP3    H110551   4.265   0.884   0.551 -1.5718  0.8885  0.6060
 3515TIP3    H210552   4.274   0.962   0.421 -0.1862  0.5368  0.4767
 3516TIP3   OH210553   1.847   3.088   2.251 -0.0891  0.6403  0.0757
 3516TIP3    H110554   1.929   3.132   2.227  0.4902 -0.3798  0.1167
 3516TIP3    H210555   1.829   3.029   2.177 -1.7183  2.0664 -0.7366
 3517TIP3   OH210556   2.380   1.812   3.091  0.2088 -0.0866 -0.3409
 3517TIP3    H110557   2.331   1.730   3.078  1.0965 -0.4608 -1.5323
 3517TIP3    H210558   2.470   1.784   3.106  0.8867  0.6746 -2.5939
 3518TIP3   OH210559   0.206   1.039   2.521 -1.1106  0.0260  0.7692
 3518TIP3    H110560   0.204   1.031   2.426  0.1277 -2.6098  0.8834
 3518TIP3    H210561   0.185   1.131   2.538  1.5769  1.3458 -2.1660
 3519TIP3   OH210562   0.176   2.340  -0.009 -0.1281 -0.2387 -0.1824
 3519TIP3    H110563   0.172   2.266   0.052 -2.0273 -0.4514 -0.5189
 3519TIP3    H210564   0.270   2.357  -0.019  0.2885 -1.4761  1.2457
 3520TIP3   OH210565   3.148   4.236   1.368 -0.3275  0.3486  0.1710
 3520TIP3    H110566   3.195   4.295   1.427 -0.0511  0.6431 -0.3365
 3520TIP3    H210567   3.173   4.148   1.397  2.1120  0.4659 -1.2571
 3521TIP3   OH210568   5.146   0.030   3.383 -0.0478  0.1540 -0.6779
 3521TIP3    H110569   5.152   0.052   3.476  0.0536  0.5227 -0.7696
 3521TIP3    H210570   5.054   0.007   3.370 -0.2640  1.0074 -0.6830
 3522TIP3   OH210571   4.505   1.987   0.162  0.9731  0.4813  0.1491
 3522TIP3    H110572   4.538   2.031   0.240 -0.5659  0.5619  0.8029
 3522TIP3    H210573   4.550   1.902   0.161  0.5164  0.1886  1.5453
 3523TIP3   OH210574   6.373   3.209   4.019  0.3598  0.2702 -0.4022
 3523TIP3    H110575   6.313   3.143   3.984  0.7808 -0.3952  0.0921
 3523TIP3    H210576   6.348   3.219   4.110 -0.9224  2.2168 -0.9228
 3524TIP3   OH210577   3.236   3.375   5.062 -0.0078 -0.3333 -0.3211
 3524TIP3    H110578   3.155   3.325   5.076 -0.6953  0.8252 -0.1016
 3524TIP3    H210579   3.207   3.457   5.023  1.0256  0.2717  0.1539
 3525TIP3   OH210580   2.916   4.286   3.295 -0.5667 -0.2224  0.3220
 3525TIP3    H110581   2.979   4.269   3.225  0.0909 -0.5373  0.9768
 3525TIP3    H210582   2.870   4.365   3.267  0.7687  0.5684  0.2488
 3526TIP3   OH210583   2.947   0.855   3.991 -0.1284 -0.0782 -0.9451
 3526TIP3    H110584   2.904   0.934   4.026  0.1770  0.3757 -1.5786
 3526TIP3    H210585   3.024   0.888   3.946  1.6589 -0.9764  1.2783
 3527TIP3   OH210586   1.159   5.682   2.166 -0.4551 -0.1850  0.1416
 3527TIP3    H110587   1.234   5.715   2.215 -0.7013  0.7608 -0.1123
 3527TIP3    H210588   1.158   5.733   2.085 -2.3185  0.9838  0.8396
 3528TIP3   OH210589   0.793   3.548   1.792 -0.2049  0.2910 -0.5761
 3528TIP3    H110590   0.720   3.540   1.730  0.0166 -0.5066 -0.7404
 3528TIP3    H210591   0.753   3.533   1.878 -0.1280 -0.8600 -0.7238
 3529TIP3   OH210592   4.863   4.004   2.303 -0.0615 -0.3568  0.0661
 3529TIP3    H110593   4.798   4.069   2.331  0.6123  0.8667 -1.0816
 3529TIP3    H210594   4.817   3.951   2.238  0.0614  0.5095 -0.7499
 3530TIP3   OH210595   6.292   1.298   1.577  0.4412  0.1950 -0.1341
 3530TIP3    H110596   6.211   1.311   1.529  0.0212  1.1891  0.8061
 3530TIP3    H210597   6.361   1.323   1.515  0.0398 -0.5224 -0.8903
 3531TIP3   OH210598   3.667   1.345   2.198 -0.6159 -0.2854  0.2166
 3531TIP3    H110599   3.745   1.397   2.176  0.2857 -0.9728  1.6248
 3531TIP3    H210600   3.598   1.410   2.212 -0.1140  0.3787 -0.3047
 3532TIP3   OH210601   2.771   4.044   0.211 -0.2253  0.1624  0.0902
 3532TIP3    H110602   2.799   3.963   0.169 -0.8996  0.5607 -1.1729
 3532TIP3    H210603   2.820   4.112   0.165 -1.7145  0.6942 -0.7438
 3533TIP3   OH210604   3.879   2.970   2.065 -0.3229 -0.3750 -0.0947
 3533TIP3    H110605   3.939   2.899   2.087  1.3299  1.1592  0.6224
 3533TIP3    H210606   3.803   2.955   2.122  0.2918 -1.1815  0.5388
 3534TIP3   OH210607   5.821   2.902   4.945  0.0405 -0.0042 -0.6613
 3534TIP3    H110608   5.751   2.932   5.003  1.6116  1.1889  0.6737
 3534TIP3    H210609   5.891   2.966   4.955  1.5025 -1.3620 -1.6825
 3535TIP3   OH210610   1.336   2.749   3.377 -0.2613 -0.3924  0.0641
 3535TIP3    H110611   1.402   2.756   3.447  0.3453  0.3451 -0.5539
 3535TIP3    H210612   1.281   2.827   3.389  0.4433  0.2710 -0.8500
 3536TIP3   OH210613   2.368   5.315   4.824  0.3257  0.3139 -0.2439
 3536TIP3    H110614   2.281   5.335   4.790 -0.7084  0.2113  2.1820
 3536TIP3    H210615   2.357   5.233   4.872  1.7472  0.3474  0.1823
 3537TIP3   OH210616   0.814   4.562   1.848  0.0514  0.2737  0.1280
 3537TIP3    H110617   0.804   4.468   1.839 -0.2585  0.3866 -0.7167
 3537TIP3    H210618   0.741   4.600   1.800  0.7092  0.9591 -0.3634
 3538TIP3   OH210619   3.186   2.328   1.399 -0.0166 -0.3963  0.5686
 3538TIP3    H110620   3.227   2.386   1.334  1.7936 -0.0466  1.9503
 3538TIP3    H210621   3.158   2.386   1.469 -1.3361 -0.8501  0.4530
 3539TIP3   OH210622   1.958   5.699   4.819  0.1312  0.3640  0.6966
 3539TIP3    H110623   1.916   5.629   4.869  0.7523  0.1464  0.9199
 3539TIP3    H210624   1.889   5.764   4.807 -0.5226 -0.3747  0.2981
 3540TIP3   OH210625   0.608   0.957   3.657  0.1615  0.0264  0.5105
 3540TIP3    H110626   0.513   0.961   3.644  0.2622  2.5335 -0.0196
 3540TIP3    H210627   0.639   1.045   3.635  2.8486 -1.1844 -1.0126
 3541TIP3   OH210628   5.814   3.929   2.130  0.2059 -0.2606  0.0918
 3541TIP3    H110629   5.820   3.998   2.196  0.8141  0.8449 -1.0718
 3541TIP3    H210630   5.750   3.962   2.067  1.7800  0.0799 -1.3854
 3542TIP3   OH210631   1.433   1.992   3.457 -0.0524 -0.0708 -0.3352
 3542TIP3    H110632   1.521   1.964   3.482  0.0795  0.7915  0.2176
 3542TIP3    H210633   1.420   1.955   3.370  0.0086 -2.0104  0.4403
 3543TIP3   OH210634   4.700   3.294   5.106  0.4807  0.0423 -0.7171
 3543TIP3    H110635   4.611   3.259   5.097  1.0514 -2.0126  0.8836
 3543TIP3    H210636   4.732   3.301   5.016 -0.8035 -0.5541 -1.2485
 3544TIP3   OH210637   3.658   0.508   1.026 -0.1976  0.8530  0.0288
 3544TIP3    H110638   3.731   0.446   1.023  0.1094  1.2423 -1.2014
 3544TIP3    H210639   3.663   0.555   0.942 -2.0596  0.6552 -0.2372
 3545TIP3   OH210640   2.485   2.294   1.981  0.0967 -0.2503  0.1019
 3545TIP3    H110641   2.411   2.354   1.967  1.1509  0.8821 -0.8873
 3545TIP3    H210642   2.558   2.336   1.935  0.8548 -2.3757 -0.7391
 3546TIP3   OH210643   5.441   0.282   3.677  0.2732 -0.6537 -1.1045
 3546TIP3    H110644   5.421   0.326   3.594 -0.4198 -0.6014 -0.9155
 3546TIP3    H210645   5.529   0.245   3.664  0.0241 -0.9610 -1.9923
 3547TIP3   OH210646   1.978   1.797   3.047  0.8333  0.0224 -0.2207
 3547TIP3    H110647   1.971   1.887   3.079  1.0218  0.6432 -1.8311
 3547TIP3    H210648   2.041   1.803   2.974 -0.0277 -1.1888 -1.0985
 3548TIP3   OH210649   3.788   0.849   1.406  0.1592 -0.5458  0.3243
 3548TIP3    H110650   3.810   0.921   1.348 -1.1225  0.7961  1.4197
 3548TIP3    H210651   3.752   0.781   1.349 -1.1577  0.7750 -0.4712
 3549TIP3   OH210652   2.899   3.305   2.478 -0.3567  0.1032 -0.2028
 3549TIP3    H110653   2.947   3.223   2.465  0.4941  0.3458  1.2027
 3549TIP3    H210654   2.946   3.349   2.549 -2.5962  0.4362  1.1485
 3550TIP3   OH210655   2.176   5.786   2.941 -0.2644 -0.0582  0.5548
 3550TIP3    H110656   2.110   5.831   2.994  0.1586 -0.0745  1.0980
 3550TIP3    H210657   2.191   5.703   2.986  0.1137 -0.0624  0.4191
 3551TIP3   OH210658   3.648   2.996   2.822  0.3592 -0.1397 -0.2160
 3551TIP3    H110659   3.717   2.931   2.809  0.9749  0.2301  1.0902
 3551TIP3    H210660   3.693   3.073   2.858 -0.4192  0.8784 -1.3414
 3552TIP3   OH210661   5.913   2.185   3.332  0.2123 -0.2471  0.0694
 3552TIP3    H110662   5.954   2.136   3.261  0.1765 -0.1881  0.0084
 3552TIP3    H210663   5.837   2.227   3.292 -0.4992 -1.1853  0.4202
 3553TIP3   OH210664   3.541   2.286   3.956 -1.0880  0.7893 -0.2694
 3553TIP3    H110665   3.487   2.286   4.035 -1.0789  0.6335 -0.2629
 3553TIP3    H210666   3.615   2.343   3.977 -2.4439  3.0179 -1.0868
 3554TIP3   OH210667   1.841   0.927   3.444 -0.3534  0.5666  0.7602
 3554TIP3    H110668   1.914   0.944   3.504  0.1211  0.9865  0.0670
 3554TIP3    H210669   1.840   0.831   3.435 -0.2916  0.5142  1.2618
 3555TIP3   OH210670   1.241   0.933   1.902  0.1052  0.0409 -0.3957
 3555TIP3    H110671   1.187   1.010   1.885 -2.5861 -1.4670  0.7008
 3555TIP3    H210672   1.314   0.966   1.955 -1.9804  1.6209  1.7097
 3556TIP3   OH210673   5.120   4.390   2.895  0.2396  0.4603 -0.1945
 3556TIP3    H110674   5.112   4.320   2.830  1.0585  0.9520 -0.8552
 3556TIP3    H210675   5.167   4.349   2.968  0.6701  0.3023 -0.5558
 3557TIP3   OH210676   1.419   2.209   2.662 -0.0908 -0.6491 -0.2109
 3557TIP3    H110677   1.431   2.114   2.670  2.7662 -0.2325  1.7299
 3557TIP3    H210678   1.497   2.240   2.616  0.2422  0.9708  1.3250
 3558TIP3   OH210679   2.310   3.107   0.206 -0.4025 -0.4471 -0.4221
 3558TIP3    H110680   2.369   3.148   0.269 -0.2447 -1.4025  0.0588
 3558TIP3    H210681   2.358   3.110   0.123 -0.1106 -0.2897 -0.2484
 3559TIP3   OH210682   2.662   0.764   0.063  0.0411  0.2819  0.0721
 3559TIP3    H110683   2.746   0.781   0.020  0.2964 -3.5267 -1.3356
 3559TIP3    H210684   2.682   0.758   0.156  0.8099  1.8069  0.0299
 3560TIP3   OH210685   6.142   3.282   2.202 -0.0333 -0.0363 -0.0057
 3560TIP3    H110686   6.104   3.246   2.122 -1.3579  0.9221  0.1623
 3560TIP3    H210687   6.095   3.364   2.217  2.2976  1.3730  0.0802
 3561TIP3   OH210688   3.490   3.988   0.881  0.4822 -0.3090 -0.4421
 3561TIP3    H110689   3.445   3.915   0.839 -0.2748  0.8409 -1.7046
 3561TIP3    H210690   3.429   4.061   0.873  0.3965  0.0378  2.5310
 3562TIP3   OH210691   4.688   1.899   2.014 -0.2743  0.2840  0.5638
 3562TIP3    H110692   4.631   1.894   1.937  0.7079  0.9144 -0.2319
 3562TIP3    H210693   4.644   1.846   2.080 -0.7977 -0.8455 -0.6532
 3563TIP3   OH210694   1.026   3.076   4.331  0.2620  0.0457 -0.3184
 3563TIP3    H110695   1.076   3.157   4.323  1.5255 -0.7871 -1.2237
 3563TIP3    H210696   1.020   3.061   4.425  1.4045  0.3789 -0.1741
 3564TIP3   OH210697   6.103   3.552   2.833 -0.1519 -0.3066  0.2538
 3564TIP3    H110698   6.149   3.469   2.835  0.2822 -0.0914 -0.5309
 3564TIP3    H210699   6.022   3.534   2.786 -1.1871 -0.8211  2.1302
 3565TIP3   OH210700   4.036   1.579   0.133 -0.5036  0.3167  0.6195
 3565TIP3    H110701   4.039   1.626   0.050  0.0178  0.7096  0.8507
 3565TIP3    H210702   3.944   1.579   0.158 -0.5651  0.8308  0.3993
 3566TIP3   OH210703   3.485  -0.024   1.068 -0.0562 -0.1973 -0.1299
 3566TIP3    H110704   3.518   0.055   1.110 -0.2174  0.3405 -0.9864
 3566TIP3    H210705   3.535  -0.030   0.986 -0.1388 -0.9106 -0.1340
 3567TIP3   OH210706   0.412   4.439   2.654  0.2399  0.2067  0.0304
 3567TIP3    H110707   0.504   4.460   2.672  0.3906 -0.7379  0.4357
 3567TIP3    H210708   0.379   4.513   2.604  1.0656  0.8262  0.3920
 3568TIP3   OH210709   4.912   2.298   1.033  0.2087 -0.1746  0.1661
 3568TIP3    H110710   4.849   2.366   1.059 -0.3264 -1.1754  1.5992
 3568TIP3    H210711   4.931   2.251   1.114  0.1379 -2.1044 -0.8775
 3569TIP3   OH210712   2.429   1.845   0.103  0.6504 -0.6349 -0.2374
 3569TIP3    H110713   2.387   1.928   0.082 -1.5890 -2.1109 -2.0839
 3569TIP3    H210714   2.500   1.837   0.039  2.2771  0.7292  1.2976
 3570TIP3   OH210715   3.416   4.043   3.015 -0.5599 -0.0752  0.0183
 3570TIP3    H110716   3.387   4.030   3.105 -1.8091  0.9835 -0.1973
 3570TIP3    H210717   3.445   4.134   3.012  0.4971 -0.4049 -0.4044
 3571TIP3   OH210718   3.381   3.754   4.944 -0.6037 -0.3701  0.1441
 3571TIP3    H110719   3.328   3.674   4.948 -0.0896 -0.6731  1.3824
 3571TIP3    H210720   3.321   3.821   4.911 -0.5415 -1.6236 -2.9037
 3572TIP3   OH210721   5.116   1.300   4.021 -0.0936  0.2970  0.0160
 3572TIP3    H110722   5.142   1.268   3.935  0.7569  1.1340 -0.0486
 3572TIP3    H210723   5.150   1.234   4.082  0.0721  0.1501 -0.2334
 3573TIP3   OH210724   5.444   0.930   4.996  0.9370 -0.0503 -0.3167
 3573TIP3    H110725   5.352   0.953   5.001  1.3169  1.5518 -0.0790
 3573TIP3    H210726   5.452   0.876   4.917 -0.2940 -0.8331  0.0565
 3574TIP3   OH210727   5.530   5.059   2.849 -0.3029  0.1684 -0.3052
 3574TIP3    H110728   5.511   4.969   2.877 -0.0265  0.5178  1.1267
 3574TIP3    H210729   5.576   5.049   2.766  1.6706 -1.1666  0.8339
 3575TIP3   OH210730   2.305   1.681   0.369  0.0116 -0.6644  0.3126
 3575TIP3    H110731   2.242   1.734   0.418 -0.3390 -0.4199 -0.3894
 3575TIP3    H210732   2.343   1.741   0.305  0.0798 -1.1021 -0.0669
 3576TIP3   OH210733   5.615   1.375   2.399 -0.6592 -0.0165  0.3039
 3576TIP3    H110734   5.602   1.330   2.482 -1.9662  0.8521  0.5900
 3576TIP3    H210735   5.529   1.408   2.375 -0.3158 -0.2887 -1.4390
 3577TIP3   OH210736   3.206   1.431   3.726 -0.1416  0.4604  0.2179
 3577TIP3    H110737   3.254   1.459   3.648 -0.8947  1.4433  0.0923
 3577TIP3    H210738   3.124   1.480   3.723 -2.4127 -3.1184 -0.9599
 3578TIP3   OH210739   1.353   3.230   1.198  0.1274  0.0063  0.6395
 3578TIP3    H110740   1.362   3.164   1.129 -1.1454  0.0755  0.4038
 3578TIP3    H210741   1.401   3.306   1.166 -0.1869 -0.0749 -0.0263
 3579TIP3   OH210742   4.600   1.973   3.472 -0.0186 -0.3378 -0.1622
 3579TIP3    H110743   4.510   1.941   3.474 -0.2119  0.2081  1.1211
 3579TIP3    H210744   4.651   1.897   3.442 -1.1155  0.0827 -3.4847
 3580TIP3   OH210745   4.739   4.803   2.773  0.3327  0.0167 -0.7602
 3580TIP3    H110746   4.723   4.897   2.781 -0.4077 -0.1124 -0.6520
 3580TIP3    H210747   4.778   4.793   2.687  2.1163  0.6319 -0.0663
 3581TIP3   OH210748   0.650   5.805   1.247  0.3557 -0.1330 -0.2031
 3581TIP3    H110749   0.666   5.725   1.297 -0.4319 -0.0255  0.2383
 3581TIP3    H210750   0.566   5.836   1.279 -0.1184 -0.0008 -1.5328
 3582TIP3   OH210751   0.050   3.629   3.830 -0.0538  0.0795 -0.4185
 3582TIP3    H110752   0.141   3.602   3.816  0.4628  1.8421 -0.7064
 3582TIP3    H210753   0.012   3.560   3.885  1.1554 -1.1933 -1.1290
 3583TIP3   OH210754   4.752   1.268   2.234 -0.4764  0.7052  0.3506
 3583TIP3    H110755   4.794   1.192   2.192 -0.0741  0.3583  1.3521
 3583TIP3    H210756   4.722   1.235   2.318 -0.0562  1.7196  0.9154
 3584TIP3   OH210757   6.206   5.379   3.055 -0.0757  0.6298 -0.2293
 3584TIP3    H110758   6.215   5.309   3.119  0.6304 -0.0496 -1.0469
 3584TIP3    H210759   6.291   5.383   3.011 -0.4061  1.3684 -0.8325
 3585TIP3   OH210760   3.532   0.483   0.134 -0.2024  0.2847 -0.1905
 3585TIP3    H110761   3.602   0.524   0.185 -0.2248 -2.7764  2.6272
 3585TIP3    H210762   3.563   0.393   0.120 -2.9231 -0.7443 -0.1048
 3586TIP3   OH210763   3.666   0.188   4.340 -0.1232 -0.0072  0.2048
 3586TIP3    H110764   3.588   0.153   4.298  1.7448 -3.3103 -0.9461
 3586TIP3    H210765   3.634   0.258   4.397 -4.0666 -2.0508  0.8553
 3587TIP3   OH210766   1.394   3.813   2.201 -0.0425 -0.7628 -0.4568
 3587TIP3    H110767   1.431   3.892   2.239 -0.0443 -0.3583 -1.2849
 3587TIP3    H210768   1.374   3.757   2.277  0.1638 -0.0724  0.1147
 3588TIP3   OH210769   2.179   3.956   2.735 -0.3026  0.3071  0.1266
 3588TIP3    H110770   2.182   4.048   2.761  2.0559  0.6756 -1.2060
 3588TIP3    H210771   2.185   3.958   2.639 -0.7754 -1.2313  0.0402
 3589TIP3   OH210772   2.741   2.521   0.111  0.2393  0.6379  0.8668
 3589TIP3    H110773   2.793   2.526   0.190  0.0413  3.1156  0.9137
 3589TIP3    H210774   2.758   2.603   0.065  0.6478 -0.8627 -1.8912
 3590TIP3   OH210775   5.477   1.142   1.186 -0.3612 -0.1688  0.1636
 3590TIP3    H110776   5.532   1.219   1.198 -1.3200  0.9985 -2.2986
 3590TIP3    H210777   5.528   1.085   1.128 -0.7558 -0.1399 -0.2188
 3591TIP3   OH210778   0.119   3.534   1.058  0.5392  0.2296 -0.1252
 3591TIP3    H110779   0.191   3.500   1.111 -0.6008 -0.0591  1.3179
 3591TIP3    H210780   0.077   3.600   1.114 -0.6715 -0.0273 -0.6865
 3592TIP3   OH210781   1.143   2.832   1.455 -0.1752 -0.7346 -0.1088
 3592TIP3    H110782   1.198   2.867   1.385 -0.2991  0.4856  0.3682
 3592TIP3    H210783   1.181   2.747   1.476  1.3689 -0.0507  0.0108
 3593TIP3   OH210784   4.483   0.752   0.748  0.9010  0.3166 -0.3445
 3593TIP3    H110785   4.538   0.712   0.815 -0.6346 -0.6010  0.4267
 3593TIP3    H210786   4.520   0.840   0.736  1.6625  0.2417  1.1738
 3594TIP3   OH210787   0.507   5.426   2.857  0.3138 -0.0103  0.1219
 3594TIP3    H110788   0.595   5.446   2.889  0.5870  1.9817 -1.6151
 3594TIP3    H210789   0.495   5.485   2.782 -1.8501 -1.4539 -0.7753
 3595TIP3   OH210790   3.160   2.050   3.787  0.3951 -0.3093 -0.9787
 3595TIP3    H110791   3.175   2.143   3.769  0.6896  0.2277  1.7205
 3595TIP3    H210792   3.085   2.049   3.846  0.0692 -1.8581 -1.3772
 3596TIP3   OH210793   3.692   0.909   3.747  0.2925 -0.6986  0.0423
 3596TIP3    H110794   3.660   0.819   3.734  0.4053 -0.7040 -0.1981
 3596TIP3    H210795   3.755   0.922   3.676  1.2440 -0.8837  0.8354
 3597TIP3   OH210796   6.233   2.857   1.999 -0.7030  0.6475 -0.2525
 3597TIP3    H110797   6.179   2.820   1.928  0.0817  0.6689 -0.8748
 3597TIP3    H210798   6.271   2.936   1.960  0.8327 -0.0790 -0.2681
 3598TIP3   OH210799   0.620   4.788   0.484 -0.3888  0.2743 -0.1914
 3598TIP3    H110800   0.701   4.756   0.524  0.7049  2.0942 -0.8200
 3598TIP3    H210801   0.648   4.834   0.405 -1.8715  2.1126  0.2669
 3599TIP3   OH210802   6.196   4.275   2.668 -0.2632  0.1160  0.4477
 3599TIP3    H110803   6.190   4.348   2.605  0.5961  0.3834  0.6633
 3599TIP3    H210804   6.187   4.317   2.754  2.0674  0.2633  0.6806
 3600TIP3   OH210805   5.582   4.005   0.577 -0.1610 -0.0560 -0.7236
 3600TIP3    H110806   5.630   4.003   0.660  0.0538  0.2008 -0.8430
 3600TIP3    H210807   5.648   3.992   0.510 -0.4571 -1.2617 -0.8197
 3601TIP3   OH210808   0.669   2.800   1.339 -0.5997  0.0141  0.1084
 3601TIP3    H110809   0.628   2.724   1.379 -3.0626  2.1552  2.0106
 3601TIP3    H210810   0.671   2.866   1.408 -0.2983  2.2827 -1.9200
 3602TIP3   OH210811   2.429   1.437   1.054 -0.5348 -0.0554 -0.3380
 3602TIP3    H110812   2.468   1.390   0.980  0.2931 -0.1628  0.1530
 3602TIP3    H210813   2.480   1.518   1.061  0.5455 -0.8269  1.1748
 3603TIP3   OH210814   1.267   1.718   5.094  0.4595 -0.9354 -0.1266
 3603TIP3    H110815   1.250   1.681   5.008 -0.2170 -1.4160  0.1980
 3603TIP3    H210816   1.332   1.661   5.133  0.1352 -1.2213  0.0014
 3604TIP3   OH210817   1.884   3.351   1.290 -0.1246 -0.4794 -0.1585
 3604TIP3    H110818   1.861   3.416   1.356  1.1109  0.2003 -0.3681
 3604TIP3    H210819   1.857   3.391   1.207 -0.4106 -0.7311 -0.1870
 3605TIP3   OH210820   5.001   4.315   2.002 -0.2606  0.1917  0.0217
 3605TIP3    H110821   5.059   4.240   2.010 -0.0282  0.4734  1.3485
 3605TIP3    H210822   5.047   4.375   1.943  0.4467  0.0931  0.4616
 3606TIP3   OH210823   0.853   0.516   4.452  0.2148 -0.0164 -0.1139
 3606TIP3    H110824   0.819   0.427   4.441 -2.3195  0.7649  0.8282
 3606TIP3    H210825   0.927   0.506   4.512  0.0555 -1.4976 -0.1246
 3607TIP3   OH210826   3.090   3.870   2.894 -0.1114  0.4667 -0.4636
 3607TIP3    H110827   3.063   3.958   2.867 -0.9839 -0.0100 -1.1983
 3607TIP3    H210828   3.143   3.838   2.820  2.9625  1.5404  1.1067
 3608TIP3   OH210829   2.607   0.313   0.926  0.4854  0.1535 -0.3607
 3608TIP3    H110830   2.700   0.313   0.907  0.2051 -0.6058 -1.8704
 3608TIP3    H210831   2.596   0.248   0.996  1.5735  3.1894  2.9198
 3609TIP3   OH210832   3.095   0.169   1.419  0.2724 -0.3587  0.1254
 3609TIP3    H110833   3.151   0.093   1.410 -0.5206 -0.8616 -0.7098
 3609TIP3    H210834   3.118   0.225   1.345  1.3290  0.5568  1.1076
 3610TIP3   OH210835   1.395   2.715   0.732  0.1882  0.3851 -0.0717
 3610TIP3    H110836   1.447   2.646   0.775 -0.7451  0.1855  0.7439
 3610TIP3    H210837   1.330   2.740   0.796  1.5133  3.2592  0.2965
 3611TIP3   OH210838   5.877   2.190   2.989  0.3103  0.2362  0.5934
 3611TIP3    H110839   5.841   2.266   3.035  1.4299  2.3250 -1.7233
 3611TIP3    H210840   5.939   2.151   3.051  1.0624  2.3484  1.2437
 3612TIP3   OH210841   1.983   2.602   3.069 -0.3172 -0.0205 -0.9800
 3612TIP3    H110842   1.980   2.587   3.164  0.1585 -1.4715 -1.1579
 3612TIP3    H210843   2.075   2.585   3.045 -0.1144  1.6912 -1.5221
 3613TIP3   OH210844   3.254   1.363   3.012  0.2006 -0.0250  0.3398
 3613TIP3    H110845   3.243   1.273   2.980 -0.4377  0.0261  0.3838
 3613TIP3    H210846   3.322   1.400   2.957  1.6552 -1.0355  1.3772
 3614TIP3   OH210847   2.018   4.865   2.491 -0.0359  0.0420 -0.1037
 3614TIP3    H110848   2.031   4.893   2.582  0.3189 -0.5663  0.0418
 3614TIP3    H210849   1.952   4.925   2.457  0.7873  1.1340  0.1549
 3615TIP3   OH210850   2.785   0.810   1.676 -0.6056 -0.1741 -0.2059
 3615TIP3    H110851   2.711   0.844   1.726 -2.0679 -1.3865 -1.4457
 3615TIP3    H210852   2.745   0.763   1.602  1.4066 -0.7144 -1.0276
 3616TIP3   OH210853   4.532   4.590   5.119 -0.4700 -0.7343  0.3736
 3616TIP3    H110854   4.546   4.668   5.172 -1.6555 -0.5869  0.4987
 3616TIP3    H210855   4.611   4.583   5.065  0.1994 -0.1660  1.2350
 3617TIP3   OH210856   0.447   0.774   3.314  0.5523 -0.2962 -0.3865
 3617TIP3    H110857   0.434   0.861   3.275  1.2978 -0.6138 -1.3822
 3617TIP3    H210858   0.394   0.715   3.260 -2.3973 -0.1248  2.0618
 3618TIP3   OH210859   0.122   4.113   1.508 -0.0297  0.3388  0.0844
 3618TIP3    H110860   0.093   4.129   1.598 -1.5412  0.3424 -0.3769
 3618TIP3    H210861   0.142   4.019   1.505  0.0629  0.3472  0.4253
 3619TIP3   OH210862   2.923   0.704   2.386  0.0054 -0.3031  0.0285
 3619TIP3    H110863   2.982   0.705   2.311  0.4247 -0.1492  0.3560
 3619TIP3    H210864   2.844   0.749   2.356 -0.6570 -2.0104 -0.9726
 3620TIP3   OH210865   0.341   1.844   0.392 -0.2335  0.3093  0.2950
 3620TIP3    H110866   0.376   1.843   0.303  0.7612 -0.3947  0.6733
 3620TIP3    H210867   0.364   1.930   0.427  2.0149 -0.4531  0.8502
 3621TIP3   OH210868   1.954   2.977   2.740 -0.2089  0.0341 -0.2217
 3621TIP3    H110869   2.003   2.911   2.788 -0.5291 -0.4704 -0.5744
 3621TIP3    H210870   2.020   3.027   2.692  0.0647  0.2177  0.3451
 3622TIP3   OH210871   3.708   2.764   3.751  0.7279  0.0226 -0.0081
 3622TIP3    H110872   3.779   2.778   3.689  0.4718  1.4117 -0.0155
 3622TIP3    H210873   3.665   2.685   3.720  2.6082 -1.2052  0.3459
 3623TIP3   OH210874   5.204   1.262   1.794 -0.1267  0.0540 -0.4343
 3623TIP3    H110875   5.251   1.193   1.747 -0.0105  0.3927 -0.8232
 3623TIP3    H210876   5.264   1.337   1.791  0.2120 -0.1377  0.9131
 3624TIP3   OH210877   5.704   5.701   1.358  0.4780 -0.5002  0.2727
 3624TIP3    H110878   5.765   5.746   1.416  0.1107  1.2445 -0.6042
 3624TIP3    H210879   5.760   5.652   1.298  0.8823 -1.6196  1.5300
 3625TIP3   OH210880   6.288   0.113   3.850  0.3229  0.1848  0.0700
 3625TIP3    H110881   6.247   0.182   3.797 -1.9419 -0.1404  1.2876
 3625TIP3    H210882   6.301   0.040   3.788 -1.0137  0.2922 -0.3669
 3626TIP3   OH210883   0.216   0.112   1.125  0.3439 -0.1069 -0.0950
 3626TIP3    H110884   0.251   0.190   1.168  1.9186 -0.8361  0.0242
 3626TIP3    H210885   0.126   0.135   1.102 -0.2050  0.7287  2.5477
 3627TIP3   OH210886   3.347   4.154   3.737  0.3173 -0.4953  0.1855
 3627TIP3    H110887   3.284   4.191   3.799 -1.4442  1.1617 -2.4033
 3627TIP3    H210888   3.425   4.208   3.748 -0.9382  1.6916 -0.8771
 3628TIP3   OH210889   2.317   3.408   1.901  0.0910  0.0060 -0.0938
 3628TIP3    H110890   2.296   3.468   1.972  0.5745 -0.3161  0.3216
 3628TIP3    H210891   2.236   3.401   1.851  0.0592  1.0931 -0.2143
 3629TIP3   OH210892   2.855   5.800   0.407  0.5526  0.1543  0.2074
 3629TIP3    H110893   2.830   5.771   0.319  1.5012  0.5985 -0.2250
 3629TIP3    H210894   2.894   5.723   0.447 -0.6355 -0.2909  0.5661
 3630TIP3   OH210895   3.030   3.211   4.732 -0.0188 -0.1241  0.4137
 3630TIP3    H110896   2.936   3.209   4.745 -0.1433 -1.5047 -0.4587
 3630TIP3    H210897   3.047   3.144   4.665  1.4375  0.9834 -0.3948
 3631TIP3   OH210898   4.613   5.303   0.782  0.7194  0.3248 -0.1028
 3631TIP3    H110899   4.667   5.375   0.815  1.1412 -0.3247  0.6712
 3631TIP3    H210900   4.525   5.322   0.814  0.5466  1.2018 -1.0654
 3632TIP3   OH210901   4.468   4.566   3.974  0.0671  0.3765  0.5338
 3632TIP3    H110902   4.423   4.625   4.034 -2.4075  1.8130 -2.4200
 3632TIP3    H210903   4.399   4.510   3.938  1.8872 -2.3732  0.9785
 3633TIP3   OH210904   3.176   4.154   0.173 -0.1005 -0.1176  0.0429
 3633TIP3    H110905   3.254   4.147   0.119  0.3959 -0.4973  0.8031
 3633TIP3    H210906   3.195   4.227   0.233  0.2523 -1.1000  1.1561
 3634TIP3   OH210907   0.710   5.153   2.530  0.0162  0.6514  0.0783
 3634TIP3    H110908   0.710   5.155   2.626  1.8173  0.7070  0.1076
 3634TIP3    H210909   0.696   5.061   2.507 -0.0903  0.5881  0.3970
 3635TIP3   OH210910   1.587   3.976   1.662 -0.0216 -0.2868  0.2132
 3635TIP3    H110911   1.601   4.046   1.726  0.0894 -0.1055 -0.0081
 3635TIP3    H210912   1.494   3.952   1.673 -0.1807  0.2070 -0.0206
 3636TIP3   OH210913   3.171   4.735   1.143  0.5368 -0.0625 -0.0489
 3636TIP3    H110914   3.174   4.799   1.072  0.0223 -0.5973 -0.5613
 3636TIP3    H210915   3.254   4.688   1.136  0.9193  0.5313  0.3303
 3637TIP3   OH210916   4.960   3.633   0.909  0.3319 -0.0889 -0.2527
 3637TIP3    H110917   5.046   3.674   0.894  0.6526 -0.6841 -0.0714
 3637TIP3    H210918   4.910   3.654   0.830  0.0893  1.6286  0.3248
 3638TIP3   OH210919   5.724   0.606   2.363  0.2260  0.0080  0.1345
 3638TIP3    H110920   5.716   0.692   2.321  2.0891  0.3564  0.4313
 3638TIP3    H210921   5.643   0.561   2.339  0.8690  0.4071 -3.3335
 3639TIP3   OH210922   4.823   0.849   2.299  0.1423 -0.3910  0.4116
 3639TIP3    H110923   4.786   0.830   2.212  0.4365  3.3331 -0.6763
 3639TIP3    H210924   4.747   0.865   2.354 -0.0568  1.7344 -0.4013
 3640TIP3   OH210925   3.585   2.695   4.313 -0.5378 -0.0037 -0.4586
 3640TIP3    H110926   3.536   2.773   4.288 -0.6467 -0.0638 -0.4331
 3640TIP3    H210927   3.537   2.659   4.387  0.3245  0.7219  0.4865
 3641TIP3   OH210928   6.033   3.054   4.086 -0.3440  0.1975  0.4864
 3641TIP3    H110929   5.999   2.992   4.021 -0.7947  0.8504  0.0926
 3641TIP3    H210930   6.112   3.012   4.119  0.3624  0.2164 -1.0829
 3642TIP3   OH210931   1.319   4.117   4.937  0.0082  0.0958  0.7707
 3642TIP3    H110932   1.300   4.099   4.845 -1.6258  0.2995  1.0478
 3642TIP3    H210933   1.415   4.116   4.942  0.1526  0.8993 -1.0823
 3643TIP3   OH210934   5.347   1.479   1.753 -0.3140  0.2817 -0.4213
 3643TIP3    H110935   5.311   1.498   1.666 -1.8781  1.4636  0.4313
 3643TIP3    H210936   5.338   1.562   1.800 -0.0080 -0.5026  1.0485
 3644TIP3   OH210937   2.232   0.862   2.868 -0.5736  0.3462  0.2425
 3644TIP3    H110938   2.269   0.776   2.846 -0.0087  0.4861  0.6496
 3644TIP3    H210939   2.185   0.848   2.950 -1.1727  0.2467 -0.1039
 3645TIP3   OH210940   2.192   2.089   0.530  0.2889  0.4247  0.6765
 3645TIP3    H110941   2.235   2.174   0.535  1.0006  0.1352 -0.2370
 3645TIP3    H210942   2.111   2.104   0.482  1.0628  0.3678 -0.7014
 3646TIP3   OH210943   0.003   4.191   4.552 -0.0817 -0.3304 -0.9896
 3646TIP3    H110944  -0.067   4.254   4.536 -0.4574  0.0902  1.8733
 3646TIP3    H210945   0.082   4.233   4.517 -0.6525  0.8436 -0.9051
 3647TIP3   OH210946   1.730   3.305   0.385 -0.1007  0.2081 -0.8544
 3647TIP3    H110947   1.708   3.368   0.316  0.7069  1.2262 -0.2191
 3647TIP3    H210948   1.749   3.224   0.339  0.9741  1.0136 -1.8987
 3648TIP3   OH210949   2.994   2.913   2.147  0.6085  0.1063  0.2059
 3648TIP3    H110950   2.994   2.845   2.215 -2.4070 -1.2840 -0.9735
 3648TIP3    H210951   3.004   2.865   2.065 -1.1806  1.0524 -0.6312
 3649TIP3   OH210952   4.469   5.215   2.588 -0.9471 -0.2412  0.3347
 3649TIP3    H110953   4.455   5.298   2.632  0.6106  0.2064  0.0457
 3649TIP3    H210954   4.519   5.237   2.509 -0.1688 -1.4784  0.4508
 3650TIP3   OH210955   3.902   5.403   3.614  0.9481  0.2297  0.0600
 3650TIP3    H110956   3.927   5.395   3.523 -0.5942  0.8482 -0.4622
 3650TIP3    H210957   3.920   5.317   3.653  1.7686  0.0189 -0.7758
 3651TIP3   OH210958   2.416   2.217   2.273  0.2039  0.0274 -0.0447
 3651TIP3    H110959   2.461   2.196   2.191 -1.1978  0.6853 -1.0109
 3651TIP3    H210960   2.487   2.244   2.332  1.1764  0.1870 -1.2405
 3652TIP3   OH210961   2.626   1.088   3.937 -0.3366 -0.1581 -0.1828
 3652TIP3    H110962   2.557   1.105   4.001  0.2485 -0.3257  0.4960
 3652TIP3    H210963   2.602   1.142   3.862 -0.8616  0.2770  0.2897
 3653TIP3   OH210964   0.062   0.927   3.578 -0.4478  0.2579  0.6607
 3653TIP3    H110965   0.090   0.941   3.668 -1.1716  0.6627  0.8385
 3653TIP3    H210966   0.015   0.843   3.580 -0.8236  0.4666  0.7560
 3654TIP3   OH210967   1.961   1.382   2.799  0.1300  0.4749  0.1261
 3654TIP3    H110968   2.039   1.326   2.801 -0.4334 -0.7001 -3.5878
 3654TIP3    H210969   1.996   1.471   2.805  1.6647 -0.0795 -0.1476
 3655TIP3   OH210970   4.275   1.746   0.102 -0.2269  0.1524  0.4411
 3655TIP3    H110971   4.217   1.675   0.128 -0.9333 -0.1954 -1.8742
 3655TIP3    H210972   4.361   1.704   0.092 -0.4806 -0.2441 -0.1645
 3656TIP3   OH210973   1.214   5.842   1.670  0.0943  0.0576  0.4107
 3656TIP3    H110974   1.270   5.797   1.606  0.2368  0.8812 -0.0609
 3656TIP3    H210975   1.250   5.930   1.676  0.9232 -0.3657  2.6675
 3657TIP3   OH210976   5.928   1.902   4.517  0.0674  0.0346 -0.1799
 3657TIP3    H110977   6.022   1.886   4.514  0.2892  1.2474 -0.0843
 3657TIP3    H210978   5.918   1.983   4.568 -1.1195 -0.7336  0.8660
 3658TIP3   OH210979   1.537   4.954   3.203 -0.6000  0.2571 -0.1886
 3658TIP3    H110980   1.559   4.954   3.296  0.1177  0.6628 -0.3502
 3658TIP3    H210981   1.620   4.936   3.159 -0.9400  0.0531 -0.7492
 3659TIP3   OH210982   2.284   0.148   4.139 -0.5436  0.2499 -0.1789
 3659TIP3    H110983   2.205   0.154   4.085  0.0187  2.2309 -0.8760
 3659TIP3    H210984   2.260   0.192   4.221 -0.4032  0.1582 -0.0881
 3660TIP3   OH210985   1.719   1.738   1.684  0.5248  0.2470 -0.0534
 3660TIP3    H110986   1.704   1.789   1.763  2.4673 -1.1640  1.3327
 3660TIP3    H210987   1.789   1.677   1.707 -1.1858 -2.6436 -1.7451
 3661TIP3   OH210988   2.247   2.041   4.530 -0.2785  0.1775 -0.0881
 3661TIP3    H110989   2.230   2.072   4.441  2.0329  1.2003 -0.2658
 3661TIP3    H210990   2.289   1.955   4.518 -1.3338 -0.3785  0.1128
 3662TIP3   OH210991   2.772   3.051   1.245  0.3073 -1.1304  0.3293
 3662TIP3    H110992   2.803   2.971   1.202 -0.2290 -1.0657 -0.1998
 3662TIP3    H210993   2.777   3.117   1.176  1.3941 -0.5519  0.9566
 3663TIP3   OH210994   5.019   1.996   5.035  0.5960  0.3971  0.1479
 3663TIP3    H110995   5.070   1.923   5.071 -0.5049 -2.2944 -3.1451
 3663TIP3    H210996   4.934   1.989   5.080  0.1914 -1.0810 -0.7415
 3664TIP3   OH210997   3.613   0.554   1.624  0.2353 -0.4762  0.3044
 3664TIP3    H110998   3.693   0.607   1.630  0.3688 -0.7978  1.6389
 3664TIP3    H210999   3.642   0.472   1.584  0.1939  0.0925 -0.9466
 3665TIP3   OH211000   3.608   3.900   1.114 -0.1237 -0.3991 -0.4239
 3665TIP3    H111001   3.692   3.947   1.118 -0.9386  1.0394  1.0066
 3665TIP3    H211002   3.558   3.946   1.046 -0.2830 -0.2928 -0.2375
 3666TIP3   OH211003   3.919   5.130   1.252  0.6562 -0.6965  0.4457
 3666TIP3    H111004   3.981   5.158   1.320  1.5404  1.0657 -0.9894
 3666TIP3    H211005   3.973   5.081   1.191  0.4174 -0.1186 -0.2409
 3667TIP3   OH211006   5.123   3.144   0.149  0.0454  0.4966 -0.0369
 3667TIP3    H111007   5.066   3.107   0.082  0.0629  0.8240 -0.2324
 3667TIP3    H211008   5.211   3.129   0.117  0.0389  1.7638 -0.6928
 3668TIP3   OH211009   1.492   4.219   2.959 -0.0563 -0.0246 -0.2530
 3668TIP3    H111010   1.571   4.167   2.974 -0.3396 -0.6798 -0.9726
 3668TIP3    H211011   1.523   4.300   2.921  0.3926  0.3487  0.8762
 3669TIP3   OH211012   4.118   2.739   3.420  0.7007 -0.4173 -0.5728
 3669TIP3    H111013   4.160   2.755   3.336  0.8740 -1.8878 -0.7905
 3669TIP3    H211014   4.181   2.686   3.469  1.2734  1.6556  1.1247
 3670TIP3   OH211015   1.305   1.496   2.287 -0.5647 -0.0339 -0.3254
 3670TIP3    H111016   1.274   1.538   2.207 -1.4908 -1.9514 -1.0404
 3670TIP3    H211017   1.225   1.473   2.335 -0.2240 -2.2757 -0.7028
 3671TIP3   OH211018   5.810   5.089   4.062 -0.2549  0.0387  0.6752
 3671TIP3    H111019   5.829   5.020   3.999  0.6743  0.5444  0.3802
 3671TIP3    H211020   5.769   5.159   4.011  0.4545  0.4299  0.6340
 3672TIP3   OH211021   4.263   4.246   3.282  0.1908 -0.5319 -0.1611
 3672TIP3    H111022   4.304   4.173   3.235  1.5463  0.0371  0.0947
 3672TIP3    H211023   4.284   4.323   3.229  1.3246  0.0557  1.0737
 3673TIP3   OH211024   3.051   4.996   0.370 -0.6558 -0.0418  0.0300
 3673TIP3    H111025   3.037   5.084   0.405 -0.0942 -0.0331  0.2564
 3673TIP3    H211026   3.003   4.939   0.430  0.1041 -0.0033  0.7060
 3674TIP3   OH211027   2.649   0.879   1.122 -0.6087 -0.3318  0.2102
 3674TIP3    H111028   2.678   0.828   1.046  1.4504  1.2030 -0.1197
 3674TIP3    H211029   2.649   0.816   1.194 -0.3889 -1.3137 -0.6229
 3675TIP3   OH211030   3.117   4.492   4.452 -0.4359 -0.1118  0.3792
 3675TIP3    H111031   3.177   4.534   4.390 -2.7279  1.0334 -1.2137
 3675TIP3    H211032   3.117   4.550   4.529  1.4818 -0.8833  1.0255
 3676TIP3   OH211033   5.434   4.497   4.729 -0.0991  0.7429  0.3474
 3676TIP3    H111034   5.408   4.438   4.657 -0.2483  0.9528  0.2283
 3676TIP3    H211035   5.384   4.466   4.804  1.5430 -0.7544  0.8818
 3677TIP3   OH211036   0.105   0.433   5.075 -0.0367 -0.2437 -0.4341
 3677TIP3    H111037   0.184   0.424   5.128  0.4677  2.3163 -0.6638
 3677TIP3    H211038   0.133   0.412   4.986 -0.3573 -2.2434 -0.1153
 3678TIP3   OH211039   3.367   2.874   1.868  0.3148  0.0976  0.3737
 3678TIP3    H111040   3.363   2.862   1.773 -0.5243 -0.5275  0.4786
 3678TIP3    H211041   3.278   2.899   1.893  0.9698  2.2057  0.7607
 3679TIP3   OH211042   1.138   4.386   0.778  0.2959  0.1933 -0.2862
 3679TIP3    H111043   1.149   4.432   0.861 -2.4712  2.6130 -1.1063
 3679TIP3    H211044   1.199   4.429   0.718  1.2182 -0.5556  0.0900
 3680TIP3   OH211045  -0.002   0.740   4.510 -0.6535 -0.2729  0.8553
 3680TIP3    H111046   0.010   0.650   4.540  0.4242 -0.4704 -0.1260
 3680TIP3    H211047   0.010   0.793   4.589 -0.0121 -0.9138  1.2005
 3681TIP3   OH211048   3.624   4.345   3.440 -0.0952  0.3147  0.1275
 3681TIP3    H111049   3.699   4.286   3.444  0.9289  1.5049 -0.7563
 3681TIP3    H211050   3.548   4.288   3.451  0.8754 -1.0703 -0.0813
 3682TIP3   OH211051   4.119   0.557   2.868 -0.2820 -0.0332 -0.0746
 3682TIP3    H111052   4.122   0.626   2.935  0.7246  0.0184 -0.1462
 3682TIP3    H211053   4.203   0.512   2.877  0.0301  0.1916 -1.5083
 3683TIP3   OH211054   4.761   5.725   4.398  0.2155  0.1862  0.3007
 3683TIP3    H111055   4.750   5.702   4.306  0.4174 -0.8010  0.5137
 3683TIP3    H211056   4.836   5.785   4.398  0.2403  0.1601 -0.1730
 3684TIP3   OH211057   1.963   0.012   0.534  0.2527  0.7139 -0.2821
 3684TIP3    H111058   2.011  -0.018   0.457 -1.4135 -1.4501 -0.5543
 3684TIP3    H211059   1.885   0.056   0.498 -0.5568 -0.3436  0.1401
 3685TIP3   OH211060   0.287   3.693   4.857 -0.0595 -0.1811 -0.2801
 3685TIP3    H111061   0.205   3.726   4.894  0.4318  0.4475  0.2689
 3685TIP3    H211062   0.311   3.620   4.915  1.8180  2.1163  2.0741
 3686TIP3   OH211063   4.292   0.111   0.273  0.3769  0.3969  0.2880
 3686TIP3    H111064   4.354   0.104   0.346 -0.2137  0.6185  0.8195
 3686TIP3    H211065   4.244   0.028   0.274  1.4056 -0.2450 -0.8275
 3687TIP3   OH211066   1.859   5.795   1.333 -0.1336  0.5197 -0.1427
 3687TIP3    H111067   1.884   5.878   1.292  0.9563  0.0235 -0.5397
 3687TIP3    H211068   1.764   5.792   1.326 -0.1046  1.2271 -1.1287
 3688TIP3   OH211069   2.965   0.897   3.627  0.0417 -0.1875 -0.2623
 3688TIP3    H111070   2.932   0.910   3.716  1.4587  0.4189  0.1994
 3688TIP3    H211071   3.044   0.951   3.623  1.1006 -1.7392 -1.2387
 3689TIP3   OH211072   0.587   2.311   3.501 -0.1430 -0.5102  0.2890
 3689TIP3    H111073   0.634   2.285   3.581  1.0951  1.4643  0.2506
 3689TIP3    H211074   0.639   2.274   3.430 -0.1012 -0.5313  0.3303
 3690TIP3   OH211075   6.000   3.170   2.001 -0.1752  0.2766 -0.3285
 3690TIP3    H111076   6.009   3.217   1.919 -1.5093 -0.8391 -1.1740
 3690TIP3    H211077   6.072   3.108   2.002  1.3808  2.0059  0.6244
 3691TIP3   OH211078   0.988   5.412   1.081  0.0140 -0.1108  0.0380
 3691TIP3    H111079   1.020   5.467   1.010  4.0837 -0.8579  1.0025
 3691TIP3    H211080   0.954   5.474   1.146  1.8942  1.1279 -0.0724
 3692TIP3   OH211081   4.837   1.931   3.049 -0.3519 -0.4019 -0.8428
 3692TIP3    H111082   4.860   2.001   2.988 -0.5352 -1.0982 -1.7324
 3692TIP3    H211083   4.742   1.930   3.050 -0.3842  0.4747  0.5050
 3693TIP3   OH211084   3.431   0.208   4.978 -0.2220  0.1291 -0.3865
 3693TIP3    H111085   3.478   0.280   5.020  0.3076 -1.6541  2.3429
 3693TIP3    H211086   3.456   0.214   4.886  2.2768  1.5771  0.2854
 3694TIP3   OH211087   5.354   0.648   4.146 -0.1924 -0.5402 -0.1041
 3694TIP3    H111088   5.355   0.741   4.167 -0.2187 -0.4663 -0.4217
 3694TIP3    H211089   5.445   0.620   4.156 -0.3178 -0.6624  0.7713
 3695TIP3   OH211090   2.280   0.109   0.963 -0.0252  0.1010 -0.4424
 3695TIP3    H111091   2.223   0.157   1.022  1.4806  3.1654 -1.2590
 3695TIP3    H211092   2.369   0.126   0.996  0.6196 -2.4796 -0.6178
 3696TIP3   OH211093   3.009   0.081   0.785 -0.2805 -0.0847  0.0714
 3696TIP3    H111094   3.105   0.090   0.783 -0.1549 -1.2108  0.3838
 3696TIP3    H211095   2.980   0.114   0.700  0.4771 -0.6148 -0.4080
 3697TIP3   OH211096   6.215   0.040   4.889  0.5438  0.9203 -0.2549
 3697TIP3    H111097   6.211   0.043   4.984  0.4669  1.2813 -0.2648
 3697TIP3    H211098   6.217   0.132   4.863  1.9530  0.8218 -0.5543
 3698TIP3   OH211099   0.664   1.477   3.223 -0.2800  0.1120 -0.2475
 3698TIP3    H111100   0.721   1.485   3.300 -1.4642  1.0144  0.5724
 3698TIP3    H211101   0.699   1.541   3.161  1.7156 -1.7631 -1.2202
 3699TIP3   OH211102   1.401   0.201   3.878 -0.1571  0.5701 -0.4782
 3699TIP3    H111103   1.307   0.216   3.888 -0.5431 -0.8247 -1.8048
 3699TIP3    H211104   1.419   0.219   3.786  1.0563  1.6069 -0.0730
 3700TIP3   OH211105   1.626   4.511   3.597 -0.3805  0.2322  0.9603
 3700TIP3    H111106   1.636   4.418   3.578 -1.3771  0.4464 -0.8970
 3700TIP3    H211107   1.545   4.517   3.647 -1.5930  0.2350 -0.8766
 3701TIP3   OH211108   2.020   2.486   0.296 -0.3092 -0.3287 -0.0386
 3701TIP3    H111109   2.108   2.510   0.324  0.0471 -0.0668 -1.3179
 3701TIP3    H211110   1.963   2.527   0.361  0.4522  0.8038 -0.0466
 3702TIP3   OH211111   3.650   1.614   1.638  0.2202 -0.4000  0.3300
 3702TIP3    H111112   3.680   1.696   1.677 -0.7979 -0.6428  1.6852
 3702TIP3    H211113   3.617   1.563   1.711 -1.5235 -0.9830 -0.8034
 3703TIP3   OH211114   4.205   3.109   3.129 -0.5067  0.5442 -0.2352
 3703TIP3    H111115   4.184   3.168   3.056 -3.3695  1.1013  0.9109
 3703TIP3    H211116   4.167   3.151   3.206  1.8043 -0.3823  1.5397
 3704TIP3   OH211117   2.756   5.012   4.256  0.2935 -0.4088 -0.0604
 3704TIP3    H111118   2.783   5.051   4.339  0.2610 -1.1499  0.3045
 3704TIP3    H211119   2.719   5.085   4.206  0.9952  0.1884  0.2797
 3705TIP3   OH211120   2.229   1.607   4.114  0.5031  0.0432 -0.2143
 3705TIP3    H111121   2.253   1.660   4.190  1.5295  2.0771 -1.8591
 3705TIP3    H211122   2.283   1.529   4.121  0.6976  0.2707  1.0455
 3706TIP3   OH211123   1.447   4.450   4.120 -0.1469 -0.4591 -0.3281
 3706TIP3    H111124   1.366   4.493   4.146 -0.8378 -2.2616  0.6238
 3706TIP3    H211125   1.516   4.504   4.160 -0.9812 -0.2432  0.8818
 3707TIP3   OH211126   0.783   1.496   0.531  0.1876 -0.8184  0.3665
 3707TIP3    H111127   0.736   1.425   0.576 -0.9117 -0.3707 -0.0331
 3707TIP3    H211128   0.852   1.452   0.482  1.1664 -1.3612  2.1515
 3708TIP3   OH211129   0.656   5.250   3.821  0.0125  0.4388 -0.3488
 3708TIP3    H111130   0.648   5.292   3.906  1.1441  1.4975 -0.7387
 3708TIP3    H211131   0.655   5.156   3.841 -1.8106  0.6203  0.6007
 3709TIP3   OH211132   1.470   3.550   2.902 -0.0109  0.0169 -0.0625
 3709TIP3    H111133   1.379   3.567   2.880  0.0729  0.3919 -0.1175
 3709TIP3    H211134   1.520   3.613   2.850  0.2996 -0.4170 -0.2949
 3710TIP3   OH211135   6.262   5.256   5.098 -0.1234  0.3150 -0.4491
 3710TIP3    H111136   6.253   5.329   5.159  0.0615  0.0246 -0.0673
 3710TIP3    H211137   6.343   5.213   5.124  0.6277  0.9356 -1.7260
 3711TIP3   OH211138   0.866   1.200   0.249 -0.5071 -0.2947  0.2311
 3711TIP3    H111139   0.819   1.121   0.276 -0.5982 -1.0283 -1.8880
 3711TIP3    H211140   0.944   1.202   0.305 -1.8309 -0.3536  2.1770
 3712TIP3   OH211141   1.426   2.415   3.862 -0.0019 -0.4640  0.2759
 3712TIP3    H111142   1.413   2.323   3.836 -0.7754 -0.1053 -0.6899
 3712TIP3    H211143   1.337   2.446   3.884 -0.2523  0.8596 -2.2644
 3713TIP3   OH211144   1.678   5.744   0.932  0.2288  0.4254 -0.3964
 3713TIP3    H111145   1.645   5.694   1.006  0.2700 -0.3873 -0.9182
 3713TIP3    H211146   1.639   5.702   0.855  0.2156  1.2314 -0.8410
 3714TIP3   OH211147   5.363   1.874   5.028  0.0958 -0.4011  0.2225
 3714TIP3    H111148   5.376   1.967   5.007 -0.9054  0.1803  2.0103
 3714TIP3    H211149   5.406   1.862   5.113 -0.8743 -1.2680  0.6063
 3715TIP3   OH211150   5.018   2.174   1.542  0.1137 -0.4414  0.0382
 3715TIP3    H111151   4.934   2.157   1.585 -0.4700 -1.2656 -1.3282
 3715TIP3    H211152   5.062   2.237   1.599 -2.2096  1.4863 -0.0967
 3716TIP3   OH211153   2.438   5.882   1.430  0.4217 -0.3325  0.3295
 3716TIP3    H111154   2.418   5.802   1.381 -0.2780 -0.8379  1.4065
 3716TIP3    H211155   2.406   5.953   1.375  0.5018 -0.8223 -0.3623
 3717TIP3   OH211156   1.710   0.416   0.969  0.1563 -0.1109  0.7298
 3717TIP3    H111157   1.797   0.456   0.963 -0.0160  0.6773  2.6771
 3717TIP3    H211158   1.698   0.400   1.063 -1.0504 -1.9435  0.3183
 3718TIP3   OH211159   0.782   3.162   2.072  0.3176 -0.5348  0.1404
 3718TIP3    H111160   0.776   3.156   1.976  0.1452  1.1290  0.0135
 3718TIP3    H211161   0.876   3.170   2.090  0.2335  1.4314 -0.1016
 3719TIP3   OH211162   5.725   0.296   0.927 -0.0249  0.0620  0.0458
 3719TIP3    H111163   5.749   0.347   1.005  0.5089  0.8749 -0.6322
 3719TIP3    H211164   5.808   0.279   0.883 -0.3585 -0.0345 -0.5569
 3720TIP3   OH211165   0.462   2.582   0.220 -0.2616 -0.2243  0.0326
 3720TIP3    H111166   0.544   2.616   0.185 -0.2871 -1.1647 -1.0328
 3720TIP3    H211167   0.428   2.526   0.150 -0.6417 -1.7088  1.3309
 3721TIP3   OH211168   3.856   0.583   2.080  0.2938  0.0864  0.0238
 3721TIP3    H111169   3.867   0.614   1.990 -0.9496 -0.9583 -0.5166
 3721TIP3    H211170   3.927   0.625   2.128  1.2195  0.3800 -1.5196
 3722TIP3   OH211171   1.516   4.686   3.143  0.2707 -0.3162  0.1443
 3722TIP3    H111172   1.536   4.687   3.050  0.0271  0.0702  0.0954
 3722TIP3    H211173   1.498   4.777   3.165 -0.0369 -0.4560  0.4872
 3723TIP3   OH211174   4.916   4.772   4.445  0.2820 -0.0239  0.2188
 3723TIP3    H111175   4.989   4.755   4.385  1.3542  0.6638  1.2791
 3723TIP3    H211176   4.873   4.849   4.408 -1.1905 -1.5786 -1.5129
 3724TIP3   OH211177   0.818   0.493   1.841  0.5355  0.1889 -0.0227
 3724TIP3    H111178   0.767   0.447   1.907 -1.5219  2.7449  0.3245
 3724TIP3    H211179   0.903   0.508   1.883  0.4039 -1.0577  0.7490
 3725TIP3   OH211180   2.436   2.460   4.253 -0.2753 -0.2664  0.4653
 3725TIP3    H111181   2.489   2.495   4.325 -0.4282 -1.4598  1.1786
 3725TIP3    H211182   2.349   2.498   4.268 -0.1195  0.1053  0.4509
 3726TIP3   OH211183   5.550   2.793   4.494 -0.1249 -0.0788  0.6431
 3726TIP3    H111184   5.619   2.798   4.560 -0.2039 -0.8681  0.8027
 3726TIP3    H211185   5.552   2.878   4.450  0.0768  0.3752  1.5108
 3727TIP3   OH211186   4.577   0.412   0.234 -0.0216  0.1126  0.5117
 3727TIP3    H111187   4.670   0.404   0.211 -0.0588 -1.8524  0.8656
 3727TIP3    H211188   4.574   0.486   0.295  1.1999  0.5863  0.0401
 3728TIP3   OH211189   1.488   0.969   3.895 -0.5434 -0.6096 -0.8105
 3728TIP3    H111190   1.413   0.931   3.851  0.2021 -1.0266 -1.7651
 3728TIP3    H211191   1.562   0.949   3.838  0.3922 -0.7678  0.4083
 3729TIP3   OH211192   1.315   3.463   0.621  0.2636 -0.7086 -0.0075
 3729TIP3    H111193   1.410   3.459   0.634  0.4009 -0.7337 -0.9620
 3729TIP3    H211194   1.303   3.458   0.526 -0.7292 -1.3457  0.1300
 3730TIP3   OH211195   5.971   5.636   3.662 -0.4601 -0.7116 -0.6396
 3730TIP3    H111196   6.036   5.578   3.622  1.1699 -0.1588  1.0558
 3730TIP3    H211197   5.963   5.709   3.601  1.6657 -0.0690 -0.2286
 3731TIP3   OH211198   3.115   1.870   2.103  0.2915 -0.2983  0.0298
 3731TIP3    H111199   3.057   1.795   2.114  1.0708 -0.8630  0.3633
 3731TIP3    H211200   3.113   1.888   2.009 -0.4193 -0.3073  0.0399
 3732TIP3   OH211201   5.082   3.256   4.210  0.3465 -0.1790 -0.3231
 3732TIP3    H111202   5.155   3.318   4.208  0.6670 -0.5245  0.3935
 3732TIP3    H211203   5.118   3.178   4.253  0.0514 -1.0050 -1.5222
 3733TIP3   OH211204   2.551   5.769   0.877  0.9128  0.1226 -0.1955
 3733TIP3    H111205   2.590   5.847   0.916 -0.3646  0.5450  0.2909
 3733TIP3    H211206   2.610   5.746   0.806  1.3180  1.5394 -0.3542
 3734TIP3   OH211207   5.749   4.607   2.462  0.7388 -0.4112  0.0146
 3734TIP3    H111208   5.739   4.647   2.376 -3.6307 -0.7514  0.1479
 3734TIP3    H211209   5.744   4.680   2.524  1.5572 -0.4042  0.0918
 3735TIP3   OH211210   3.397   2.183   1.511  0.5243 -0.1168  0.6928
 3735TIP3    H111211   3.318   2.208   1.462  0.5602  0.7661  1.0509
 3735TIP3    H211212   3.460   2.253   1.492  0.8703 -0.2798  1.2097
 3736TIP3   OH211213   0.100   3.512   2.978  0.0109  0.2475 -0.3711
 3736TIP3    H111214   0.150   3.447   2.928  1.3695 -0.0488  1.2651
 3736TIP3    H211215   0.164   3.581   2.999 -0.5153  0.4053  0.8377
 3737TIP3   OH211216   0.843   5.119   3.438  0.0020 -0.4819 -0.1569
 3737TIP3    H111217   0.844   5.062   3.362 -1.3827  0.6945 -1.1161
 3737TIP3    H211218   0.924   5.100   3.484 -0.0232 -2.5824 -0.8859
 3738TIP3   OH211219   5.740   0.422   4.278  0.2612 -0.2408 -0.2839
 3738TIP3    H111220   5.765   0.415   4.371 -1.0661  0.5582  0.1590
 3738TIP3    H211221   5.823   0.436   4.232  0.7826  1.1821  0.9989
 3739TIP3   OH211222   5.209   3.024   3.985 -0.3535  0.3940  0.3531
 3739TIP3    H111223   5.262   3.049   3.910  0.0388  0.4114  0.6297
 3739TIP3    H211224   5.158   3.103   4.005 -2.4852 -0.4034 -1.5326
 3740TIP3   OH211225   3.444   3.656   4.432  0.2007  0.0876  0.0354
 3740TIP3    H111226   3.531   3.632   4.462 -0.3919 -3.1126 -0.4665
 3740TIP3    H211227   3.426   3.597   4.359 -1.5585  2.1735 -1.3420
 3741TIP3   OH211228   2.901   1.612   2.323 -0.2801 -0.2728  0.6143
 3741TIP3    H111229   2.835   1.544   2.334  0.9999 -1.6371  0.2784
 3741TIP3    H211230   2.926   1.607   2.231 -0.3742  0.8642  0.5185
 3742TIP3   OH211231   1.646   2.574   3.105  0.5177 -0.3505  0.1997
 3742TIP3    H111232   1.687   2.512   3.164  2.4863 -0.7455 -1.4876
 3742TIP3    H211233   1.664   2.541   3.017  1.1497  2.2570 -0.7630
 3743TIP3   OH211234   3.852   5.260   2.852 -0.1932 -0.0478 -0.6521
 3743TIP3    H111235   3.923   5.202   2.825  0.8350  0.8497  0.0565
 3743TIP3    H211236   3.797   5.205   2.908 -0.0019 -0.7218 -1.1170
 3744TIP3   OH211237   0.504   1.958   0.840 -0.4146 -0.1978  0.1653
 3744TIP3    H111238   0.584   2.010   0.841 -1.4215  1.4331  1.0496
 3744TIP3    H211239   0.514   1.898   0.766  0.3204  2.0469 -1.6373
 3745TIP3   OH211240   6.064   2.533   1.434 -0.9627  0.3867  0.4813
 3745TIP3    H111241   5.969   2.524   1.441 -1.0809  0.9290 -0.3325
 3745TIP3    H211242   6.077   2.599   1.367  0.0277 -1.7433 -1.5473
 3746TIP3   OH211243   2.039   1.015   3.646 -0.0823  0.3328  0.6332
 3746TIP3    H111244   2.099   0.972   3.707  0.0073  0.1814  0.4442
 3746TIP3    H211245   2.094   1.036   3.570 -0.8032 -2.4331 -0.8158
 3747TIP3   OH211246   1.674   5.197   3.735  0.0623 -0.4413  0.5059
 3747TIP3    H111247   1.713   5.284   3.725 -1.2444  0.0420 -0.6983
 3747TIP3    H211248   1.703   5.168   3.822  0.3528  1.2803  1.0356
 3748TIP3   OH211249   0.803   2.063   1.836  0.6198 -0.0937  0.0202
 3748TIP3    H111250   0.736   2.124   1.867  0.2510  0.0350 -0.9878
 3748TIP3    H211251   0.869   2.062   1.905 -0.4754 -0.3086  1.0951
 3749TIP3   OH211252   3.245   5.926   0.818  0.7758 -0.1743 -0.5560
 3749TIP3    H111253   3.190   5.973   0.881 -0.4337 -0.7656 -1.1390
 3749TIP3    H211254   3.214   5.955   0.733  0.5874 -1.3614 -0.9133
 3750TIP3   OH211255   6.115   1.788   3.125  0.1897 -0.0801  0.3256
 3750TIP3    H111256   6.032   1.757   3.162 -0.1358  2.6624  2.2738
 3750TIP3    H211257   6.182   1.741   3.174 -0.2041 -1.5927 -0.5597
 3751TIP3   OH211258   2.738   0.872   4.895 -0.4515  0.3231  0.0343
 3751TIP3    H111259   2.789   0.952   4.907 -0.8212  0.3165  2.0346
 3751TIP3    H211260   2.677   0.872   4.969 -1.9531 -0.7119 -1.1525
 3752TIP3   OH211261   2.639   3.440   1.211 -0.0494 -0.4346 -0.2688
 3752TIP3    H111262   2.624   3.406   1.300 -2.1694 -0.6918 -0.6824
 3752TIP3    H211263   2.553   3.464   1.179  0.6519 -0.4262 -2.3211
 3753TIP3   OH211264   2.335   3.065   0.769 -0.1715  0.2805  0.0391
 3753TIP3    H111265   2.376   2.980   0.755 -0.3723  0.0955  0.5592
 3753TIP3    H211266   2.291   3.084   0.686 -2.2785 -1.3329  0.7083
 3754TIP3   OH211267   3.534   3.690   2.073  0.1442  0.5409  0.9294
 3754TIP3    H111268   3.441   3.711   2.063  0.6238  2.4398 -0.0378
 3754TIP3    H211269   3.535   3.616   2.133 -2.0922 -0.7020 -0.4223
 3755TIP3   OH211270   0.847   4.666   4.148 -0.7229  1.2201 -0.0286
 3755TIP3    H111271   0.858   4.619   4.230 -1.4876 -0.3958 -0.8042
 3755TIP3    H211272   0.887   4.608   4.082 -4.8467 -0.2603 -1.5417
 3756TIP3   OH211273   1.783   2.520   5.026 -0.2651 -0.2003  0.4302
 3756TIP3    H111274   1.731   2.483   4.955  0.3945 -0.2280 -0.0536
 3756TIP3    H211275   1.746   2.607   5.041 -0.0563  0.0266 -0.3362
 3757TIP3   OH211276   3.984   4.745   4.099  0.2276 -0.0810 -0.0583
 3757TIP3    H111277   4.077   4.730   4.081  0.2025  0.1150 -0.3704
 3757TIP3    H211278   3.942   4.739   4.013 -0.2148 -1.3139  0.2273
 3758TIP3   OH211279   5.018   5.857   3.412 -0.3481  0.0113  0.2929
 3758TIP3    H111280   4.968   5.919   3.464 -1.9586 -0.5543 -0.4925
 3758TIP3    H211281   4.969   5.775   3.419  0.5845 -0.6309 -0.3743
 3759TIP3   OH211282   1.901   4.985   1.480  0.4920 -0.2257 -0.1689
 3759TIP3    H111283   1.900   4.902   1.431 -0.3326 -0.5475  0.3819
 3759TIP3    H211284   1.988   5.021   1.461  0.2885 -0.4369 -1.6887
 3760TIP3   OH211285   5.533   4.313   3.598 -0.2387  0.8175 -0.4210
 3760TIP3    H111286   5.569   4.225   3.592 -1.4008  0.4109 -2.0019
 3760TIP3    H211287   5.439   4.302   3.584 -1.0195  1.9017  3.0074
 3761TIP3   OH211288   2.563   2.941   2.998  0.1532 -0.0760  0.6160
 3761TIP3    H111289   2.550   2.944   2.903 -3.2874 -0.6063  0.9518
 3761TIP3    H211290   2.613   2.861   3.013  0.8763  0.0913 -0.7190
 3762TIP3   OH211291   4.793   4.661   2.122  0.0238 -0.5111 -0.2515
 3762TIP3    H111292   4.807   4.750   2.154  0.4903 -0.4636 -0.5747
 3762TIP3    H211293   4.849   4.655   2.044  0.5622 -1.3256  0.1823
 3763TIP3   OH211294   5.060   2.301   4.088  0.0938 -0.2074  0.9995
 3763TIP3    H111295   4.983   2.286   4.032 -0.1267  0.6563  1.0531
 3763TIP3    H211296   5.134   2.296   4.028 -0.2537  2.5799  0.2031
 3764TIP3   OH211297   5.041   1.796   2.510 -0.7200  0.5736 -0.0616
 3764TIP3    H111298   5.056   1.851   2.433 -0.8728  1.6427  0.6528
 3764TIP3    H211299   5.120   1.808   2.564 -0.7115  0.0059  0.0648
 3765TIP3   OH211300   0.817   0.086   1.678 -0.6453  1.1940 -0.2148
 3765TIP3    H111301   0.784   0.080   1.768 -0.2421  0.9977 -0.0783
 3765TIP3    H211302   0.805  -0.002   1.642 -0.3414  1.1415 -0.1887
 3766TIP3   OH211303   4.112   5.540   2.629 -0.7453 -0.1020  0.3145
 3766TIP3    H111304   4.070   5.559   2.712  0.4078 -2.0484  1.4341
 3766TIP3    H211305   4.040   5.516   2.571 -1.5291  0.8514  0.8499
 3767TIP3   OH211306   6.005   0.771   2.562 -0.3268  0.3977 -0.6425
 3767TIP3    H111307   6.083   0.822   2.584 -0.2876 -0.3068  1.0183
 3767TIP3    H211308   5.942   0.835   2.531  0.0623  1.3361  0.4294
 3768TIP3   OH211309   3.244   1.468   3.410 -0.1748 -0.1048  0.5048
 3768TIP3    H111310   3.299   1.545   3.399 -0.1849  0.0900  1.7256
 3768TIP3    H211311   3.305   1.395   3.418 -0.1227 -0.0442  0.6678
 3769TIP3   OH211312   0.753   3.973   1.020  0.2739 -0.3608 -0.4575
 3769TIP3    H111313   0.815   4.027   1.070 -0.9892  1.5390 -0.8217
 3769TIP3    H211314   0.790   3.969   0.932  0.4455 -0.1721 -0.3952
 3770TIP3   OH211315   1.145   4.946   0.447 -0.1835 -0.1047 -0.1020
 3770TIP3    H111316   1.148   4.854   0.473  1.5544 -0.0944 -0.1322
 3770TIP3    H211317   1.074   4.984   0.499  1.9806 -0.4784  3.4588
 3771TIP3   OH211318   5.838   0.047   4.901 -0.3505  0.0248 -0.2461
 3771TIP3    H111319   5.904  -0.018   4.875  0.2164  0.5074 -0.0486
 3771TIP3    H211320   5.788   0.063   4.821 -0.6768 -0.8590 -0.2253
 3772TIP3   OH211321   3.003   4.196   0.564  0.6420  0.8158 -0.2292
 3772TIP3    H111322   3.058   4.152   0.500  1.6294  0.0246  1.1139
 3772TIP3    H211323   2.969   4.126   0.620 -0.7037  1.4201 -0.2317
 3773TIP3   OH211324   0.705   0.748   1.988 -0.1884  0.4914 -0.2201
 3773TIP3    H111325   0.719   0.668   1.938  0.1307 -0.4873  1.3460
 3773TIP3    H211326   0.672   0.717   2.073 -1.1313  2.1013  0.0312
 3774TIP3   OH211327   4.000   1.286   4.390  0.2623 -0.2269  0.0927
 3774TIP3    H111328   4.087   1.317   4.416 -0.2551  1.7546 -0.3955
 3774TIP3    H211329   3.962   1.359   4.341 -1.5429 -1.1935 -0.0232
 3775TIP3   OH211330   1.163   0.853   0.048 -0.2110 -0.2455 -0.2407
 3775TIP3    H111331   1.150   0.897  -0.036  0.7557  1.7782  0.5793
 3775TIP3    H211332   1.107   0.776   0.044  0.0170 -0.3818 -2.8356
 3776TIP3   OH211333   3.537   4.714   4.640 -0.1100  0.3515  0.0429
 3776TIP3    H111334   3.581   4.706   4.725 -0.6912  0.8431  0.3983
 3776TIP3    H211335   3.605   4.747   4.581  0.6837 -1.3143 -0.0381
 3777TIP3   OH211336   2.304   3.554   0.170  0.1278  0.1479  0.3102
 3777TIP3    H111337   2.375   3.504   0.130  0.7976 -0.6944  2.4302
 3777TIP3    H211338   2.349   3.625   0.217 -0.5737  0.5990  0.3193
 3778TIP3   OH211339   5.468   2.000   3.938 -0.0168 -0.0876  0.4522
 3778TIP3    H111340   5.451   1.906   3.929 -0.9687 -0.0920  1.8763
 3778TIP3    H211341   5.547   2.005   3.992 -0.6611 -0.1100  1.4379
 3779TIP3   OH211342   5.673   3.431   3.430  0.4340  0.7873  0.2795
 3779TIP3    H111343   5.667   3.485   3.509 -0.2946  0.4846  0.4446
 3779TIP3    H211344   5.618   3.355   3.449 -0.8967  1.3659 -1.0334
 3780TIP3   OH211345   4.881   1.457   0.314 -0.6745 -0.8795  0.0653
 3780TIP3    H111346   4.890   1.504   0.231 -2.2112  0.2458  0.4999
 3780TIP3    H211347   4.787   1.446   0.326 -0.6416  0.6518  2.5213
 3781TIP3   OH211348   4.816   1.693   3.652 -0.3072  0.0786 -0.2884
 3781TIP3    H111349   4.904   1.705   3.616 -0.1419 -0.9766 -0.2785
 3781TIP3    H211350   4.807   1.598   3.662 -0.8123  0.2548  1.2874
 3782TIP3   OH211351   0.202   4.032   1.031  0.2199  0.1259  0.1081
 3782TIP3    H111352   0.275   3.992   0.984  0.6482  1.7657 -0.6729
 3782TIP3    H211353   0.244   4.091   1.095 -0.4027 -0.3066  0.9403
 3783TIP3   OH211354   2.394   0.734   1.805  0.3318  0.1318  0.3966
 3783TIP3    H111355   2.453   0.672   1.762  0.3126 -0.4610  1.2131
 3783TIP3    H211356   2.388   0.704   1.895  0.0200  1.1035  0.7197
 3784TIP3   OH211357   0.732   3.032   4.753  0.5459 -0.0714  0.5525
 3784TIP3    H111358   0.683   3.019   4.672  1.4622 -0.2046  0.0008
 3784TIP3    H211359   0.760   2.944   4.779  1.7988  0.1567  0.0120
 3785TIP3   OH211360   0.324   4.525   0.592  0.6336 -0.2808  0.2984
 3785TIP3    H111361   0.384   4.460   0.627 -0.3513  0.1747  3.0408
 3785TIP3    H211362   0.241   4.479   0.582  0.7806 -0.2888 -1.1631
 3786TIP3   OH211363   2.546   1.953   2.884 -0.4587 -0.1782 -0.3312
 3786TIP3    H111364   2.464   1.977   2.926 -1.1221 -0.0413 -1.6629
 3786TIP3    H211365   2.548   1.857   2.888 -0.9666 -0.2125 -0.7870
 3787TIP3   OH211366   5.611   4.061   1.990  0.2693  0.2338  0.1782
 3787TIP3    H111367   5.546   3.991   1.993  0.9398 -0.4069 -0.2008
 3787TIP3    H211368   5.586   4.119   2.063 -1.8164  0.9870 -1.0407
 3788TIP3   OH211369   5.358   1.511   0.339 -0.9950  0.2509  0.1630
 3788TIP3    H111370   5.358   1.438   0.401  1.4857  0.0712  0.0835
 3788TIP3    H211371   5.440   1.558   0.358  0.2138 -0.1811 -3.3121
 3789TIP3   OH211372   5.618   5.825   1.859  0.2532  0.3318  0.0544
 3789TIP3    H111373   5.686   5.853   1.920  0.5036  0.9179 -0.4740
 3789TIP3    H211374   5.601   5.734   1.881 -0.4557  0.8321  1.7061
 3790TIP3   OH211375   4.372   5.705   0.386 -0.0897 -0.2366  0.2806
 3790TIP3    H111376   4.281   5.714   0.357 -0.2515 -1.5899  0.3188
 3790TIP3    H211377   4.372   5.631   0.446  0.6798  1.0643  1.9702
 3791TIP3   OH211378   2.554   1.988   0.304  0.2470  0.0353  0.3337
 3791TIP3    H111379   2.511   1.931   0.240 -1.4767  0.4427  1.0804
 3791TIP3    H211380   2.646   1.988   0.278  0.2570 -2.7641  0.0616
 3792TIP3   OH211381   2.097   3.275   3.933 -1.0630 -0.1585  0.0168
 3792TIP3    H111382   2.062   3.318   3.854  1.0144  2.3973  0.3518
 3792TIP3    H211383   2.102   3.345   3.998 -0.6398 -1.7094  1.7420
 3793TIP3   OH211384   4.427   5.040   5.003  0.1444 -0.3239  0.4858
 3793TIP3    H111385   4.417   5.118   4.949 -1.9571  0.2075  1.5354
 3793TIP3    H211386   4.484   4.983   4.952  2.0621  1.9963 -0.1721
 3794TIP3   OH211387   5.768   3.364   2.928  0.1057  0.0823  0.2399
 3794TIP3    H111388   5.805   3.400   3.009  0.7594  0.2727 -0.1405
 3794TIP3    H211389   5.779   3.434   2.863  0.5760 -0.4688 -0.2806
 3795TIP3   OH211390   3.809   5.988   3.109  0.0403 -0.7183 -0.1453
 3795TIP3    H111391   3.852   6.002   3.024  2.5092 -1.4468  0.8881
 3795TIP3    H211392   3.832   5.898   3.133  0.6211 -0.0891  1.8950
 3796TIP3   OH211393   1.566   5.766   1.947 -0.1257  0.1483 -0.2008
 3796TIP3    H111394   1.534   5.756   1.858  0.9332  0.2770 -0.6175
 3796TIP3    H211395   1.661   5.755   1.940 -0.1129 -0.8704  1.0744
 3797TIP3   OH211396   6.010   3.700   3.325 -0.2903 -0.0662  0.1351
 3797TIP3    H111397   6.102   3.672   3.318 -0.1620 -0.1217  1.7232
 3797TIP3    H211398   6.004   3.740   3.411 -1.2472  1.9602 -0.8114
 3798TIP3   OH211399   0.307   5.064   4.702  0.2423 -0.3848  0.2202
 3798TIP3    H111400   0.397   5.069   4.668  0.0645  1.6076 -0.0872
 3798TIP3    H211401   0.309   5.115   4.783 -0.5563 -0.5620  0.3583
 3799TIP3   OH211402   3.584   3.688   1.262  0.0119  0.4603  0.4090
 3799TIP3    H111403   3.659   3.633   1.241  1.6625  3.1859 -1.3499
 3799TIP3    H211404   3.604   3.774   1.225 -2.8446  2.0669  2.1131
 3800TIP3   OH211405   1.849   2.191   2.465 -0.0934  0.0014  0.1652
 3800TIP3    H111406   1.822   2.214   2.376 -1.1820  0.8342  0.6768
 3800TIP3    H211407   1.939   2.224   2.472  0.1509 -0.4452 -0.7498
 3801TIP3   OH211408   1.229   5.332   3.778 -0.1040 -0.2350  0.1306
 3801TIP3    H111409   1.135   5.316   3.790 -0.2315  1.6598  2.0968
 3801TIP3    H211410   1.267   5.316   3.864  1.4590 -1.1507 -0.6920
 3802TIP3   OH211411   3.984   3.919   2.741  0.2432  0.2643  0.6081
 3802TIP3    H111412   4.058   3.980   2.749 -0.2813  1.0305 -0.1652
 3802TIP3    H211413   3.961   3.922   2.648  0.8132 -1.8861  0.3455
 3803TIP3   OH211414   5.245   3.981   2.979 -0.1957  0.2392  0.3931
 3803TIP3    H111415   5.285   3.963   2.894 -1.5977  1.2991 -0.5209
 3803TIP3    H211416   5.314   4.024   3.029  0.3887  0.3817 -0.5132
 3804TIP3   OH211417   0.653   4.215   4.857  0.0143  0.3517 -0.1967
 3804TIP3    H111418   0.566   4.234   4.891 -0.7532 -2.5602 -0.2682
 3804TIP3    H211419   0.644   4.223   4.762 -0.5226 -0.9864 -0.2818
 3805TIP3   OH211420   0.185   5.187   3.210  0.1098 -0.3511  0.2598
 3805TIP3    H111421   0.265   5.149   3.247 -0.5095  0.7108  2.8598
 3805TIP3    H211422   0.210   5.213   3.121  2.2711 -1.2138  0.5580
 3806TIP3   OH211423   5.126   4.412   3.579  0.1405  0.2339  0.7473
 3806TIP3    H111424   5.128   4.456   3.664 -0.8666 -0.9565  1.4108
 3806TIP3    H211425   5.061   4.462   3.529  1.0496  1.2020  0.5084
 3807TIP3   OH211426   6.269   3.279   3.264  0.2511 -0.0026 -0.5924
 3807TIP3    H111427   6.250   3.354   3.208  0.9692 -0.5477 -1.6170
 3807TIP3    H211428   6.224   3.297   3.346  0.2196  1.4257 -0.9075
 3808TIP3   OH211429   5.883   2.119   1.585 -0.8329  0.1532 -0.3837
 3808TIP3    H111430   5.968   2.154   1.557 -0.1389 -0.5747  0.7190
 3808TIP3    H211431   5.869   2.042   1.529  0.0782 -0.7278  0.5600
 3809TIP3   OH211432   5.638   5.020   1.370 -0.1770  0.2512 -0.1642
 3809TIP3    H111433   5.722   5.065   1.384  0.0134  0.3360 -1.4842
 3809TIP3    H211434   5.662   4.930   1.348 -0.5000 -0.0966  0.8449
 3810TIP3   OH211435   6.160   3.635   1.408  0.0963 -0.1672 -0.0767
 3810TIP3    H111436   6.070   3.602   1.409 -0.2177  0.6708 -0.7487
 3810TIP3    H211437   6.164   3.695   1.482 -0.4837  1.3237 -1.2236
 3811TIP3   OH211438   3.395   1.841   2.194 -0.0622  0.6306  0.1257
 3811TIP3    H111439   3.340   1.914   2.167  0.3133  0.2320 -1.8457
 3811TIP3    H211440   3.452   1.878   2.261 -1.0290  1.6892  0.4022
 3812TIP3   OH211441   3.115   1.169   1.923 -0.0786 -0.0862  0.6538
 3812TIP3    H111442   3.037   1.138   1.878  0.1452 -0.9618  0.8514
 3812TIP3    H211443   3.083   1.206   2.005 -0.4194  0.8877  0.0965
 3813TIP3   OH211444   2.551   1.500   2.175 -0.6023 -0.1574  0.2895
 3813TIP3    H111445   2.456   1.501   2.183 -0.5670 -0.2288  0.7728
 3813TIP3    H211446   2.583   1.511   2.265 -0.1665 -1.7230  0.3643
 3814TIP3   OH211447   5.047   0.463   3.565  0.6407 -0.2614  0.4197
 3814TIP3    H111448   4.969   0.459   3.508 -1.2641  2.5728  2.5785
 3814TIP3    H211449   5.118   0.491   3.507 -0.6891  0.2680 -1.0221
 3815TIP3   OH211450   1.390   5.111   4.934  0.6135  0.6763  0.5186
 3815TIP3    H111451   1.322   5.126   4.868  0.8700  0.4993  0.2055
 3815TIP3    H211452   1.471   5.106   4.883  0.5603 -1.7513  0.5560
 3816TIP3   OH211453   4.258   0.257   4.552 -0.0354  0.0081  0.0920
 3816TIP3    H111454   4.282   0.165   4.544 -0.5018 -0.0266 -1.1562
 3816TIP3    H211455   4.330   0.304   4.510 -0.3104  0.1499 -0.2157
 3817TIP3   OH211456   3.506   1.221   1.547 -0.1313 -0.6547 -0.4029
 3817TIP3    H111457   3.461   1.306   1.544  0.7353 -0.1635  0.1410
 3817TIP3    H211458   3.449   1.167   1.602 -0.0906 -0.0480  0.2527
 3818TIP3   OH211459   1.110   3.987   1.990  0.2807  0.1119  0.2830
 3818TIP3    H111460   1.129   3.899   2.021  0.9870 -0.2323 -1.0771
 3818TIP3    H211461   1.060   4.027   2.062  1.1859 -0.8945  1.5207
 3819TIP3   OH211462   1.024   0.845   4.429 -0.4373 -0.4028  0.4448
 3819TIP3    H111463   0.972   0.925   4.434  1.3454  0.8625 -0.3535
 3819TIP3    H211464   1.114   0.875   4.425  0.3371 -2.4968  0.7997
 3820TIP3   OH211465   0.557   2.904   4.547 -0.2087 -0.4391 -0.2248
 3820TIP3    H111466   0.473   2.913   4.590 -0.1863 -1.3062  0.0161
 3820TIP3    H211467   0.551   2.822   4.498  0.5559 -0.6096 -0.0555
 3821TIP3   OH211468   0.127   0.535   0.730 -0.3492 -0.0604 -0.2471
 3821TIP3    H111469   0.163   0.591   0.662 -0.7184 -0.8896 -1.1363
 3821TIP3    H211470   0.037   0.517   0.702 -0.1444 -1.3270 -0.1113
 3822TIP3   OH211471   5.990   2.007   1.799  0.2903 -0.0246  0.3157
 3822TIP3    H111472   5.947   2.051   1.726  1.3996 -0.4128 -0.6010
 3822TIP3    H211473   6.002   2.075   1.865 -3.4541 -0.2623  1.4924
 3823TIP3   OH211474   3.592   0.984   0.434  0.0749  0.4433 -0.5813
 3823TIP3    H111475   3.560   0.961   0.346  0.2805  0.8862 -0.7766
 3823TIP3    H211476   3.685   1.003   0.422  0.1881  0.1501 -0.1966
 3824TIP3   OH211477   1.935   4.767   2.869 -0.2003 -0.1926  0.1060
 3824TIP3    H111478   1.914   4.779   2.961 -0.5960 -1.0118  0.1393
 3824TIP3    H211479   1.922   4.853   2.829  0.9466  0.4090  0.9850
 3825TIP3   OH211480   5.155   3.511   3.598 -1.2759  0.3241 -0.6247
 3825TIP3    H111481   5.195   3.596   3.580  0.4065 -0.4378 -0.6386
 3825TIP3    H211482   5.097   3.528   3.672  1.0120  1.0171  1.1431
 3826TIP3   OH211483   3.707   3.686   5.161 -0.0620  0.1442 -0.4908
 3826TIP3    H111484   3.760   3.717   5.087  2.6421 -0.6497  0.9840
 3826TIP3    H211485   3.652   3.760   5.184  2.6730  2.2144 -0.1568
 3827TIP3   OH211486   0.490   0.094   1.792 -0.5273  0.0918  0.2602
 3827TIP3    H111487   0.414   0.117   1.739  0.5448  0.9998 -0.9460
 3827TIP3    H211488   0.455   0.080   1.880 -2.1825 -0.2485 -0.4196
 3828TIP3   OH211489   5.237   2.634   2.475 -0.3083  0.3643  0.1892
 3828TIP3    H111490   5.280   2.704   2.427 -0.1948  0.9596  1.1280
 3828TIP3    H211491   5.183   2.679   2.540  1.3106 -0.3649  2.1547
 3829TIP3   OH211492   0.678   1.698   0.035  0.6459  0.2722 -0.3457
 3829TIP3    H111493   0.628   1.630   0.081 -0.4380 -0.9561 -3.0998
 3829TIP3    H211494   0.764   1.660   0.021  0.2608 -0.2952 -1.2648
 3830TIP3   OH211495   3.989   5.309   3.345  0.3476 -0.2114  0.0276
 3830TIP3    H111496   4.047   5.234   3.359  1.0031  0.3252  0.1925
 3830TIP3    H211497   4.009   5.340   3.257  0.8821  0.4616  0.3774
 3831TIP3   OH211498   2.572   2.109   4.030  0.3239  0.3762 -0.5163
 3831TIP3    H111499   2.633   2.051   3.985  0.1814 -0.7036  0.6122
 3831TIP3    H211500   2.492   2.107   3.977 -0.3491 -2.0284  0.4596
 3832TIP3   OH211501   2.875   3.938   0.695  0.0452 -0.6126  0.1942
 3832TIP3    H111502   2.883   3.868   0.759  0.6557  0.0437  0.8625
 3832TIP3    H211503   2.940   3.918   0.628  0.0590 -0.7978  0.2641
 3833TIP3   OH211504   3.790   1.231   2.412 -0.3237  0.2873  0.6539
 3833TIP3    H111505   3.739   1.261   2.336  0.0497 -0.9921 -0.1284
 3833TIP3    H211506   3.730   1.172   2.459 -0.3498  0.6190  1.0508
 3834TIP3   OH211507   3.241   2.720   2.887 -0.1480 -0.1556  0.1323
 3834TIP3    H111508   3.274   2.789   2.830 -1.4382  0.0241 -0.4412
 3834TIP3    H211509   3.256   2.753   2.976  2.8038 -0.8758  0.0029
 3835TIP3   OH211510   2.712   0.237   1.972 -0.3878 -0.0181 -0.1371
 3835TIP3    H111511   2.780   0.263   1.911  0.0351 -1.1809 -0.1910
 3835TIP3    H211512   2.759   0.201   2.047 -0.9190 -0.4455  0.0042
 3836TIP3   OH211513   4.550   5.847   3.956 -0.3744 -0.1268 -0.3338
 3836TIP3    H111514   4.543   5.859   3.861 -2.0900  1.2434 -0.0904
 3836TIP3    H211515   4.608   5.917   3.984 -1.3669  0.6530 -0.1832
 3837TIP3   OH211516   1.791   2.717   2.114  0.2620  0.2932  0.4924
 3837TIP3    H111517   1.860   2.761   2.065 -0.6132  0.8414 -0.2884
 3837TIP3    H211518   1.723   2.784   2.125 -0.5456 -0.4902  0.4255
 3838TIP3   OH211519   2.580   2.463   1.452  0.3191 -0.0530  0.4585
 3838TIP3    H111520   2.513   2.531   1.445 -1.5848 -1.5954  2.2206
 3838TIP3    H211521   2.567   2.408   1.374  0.2389  0.2288  0.2720
 3839TIP3   OH211522   4.637   1.416   0.923 -0.1629 -0.1630  0.0826
 3839TIP3    H111523   4.585   1.370   0.989  0.4610 -1.8252 -0.5346
 3839TIP3    H211524   4.594   1.396   0.840 -0.3001  1.0005 -0.1507
 3840TIP3   OH211525   2.375   2.781   3.662  0.0737 -0.5921 -0.1425
 3840TIP3    H111526   2.391   2.858   3.607  0.5029  1.2259  2.3244
 3840TIP3    H211527   2.315   2.813   3.730 -0.0451 -2.5725  0.7436
 3841TIP3   OH211528   4.113   2.654   1.728 -0.1930 -0.1890  0.1051
 3841TIP3    H111529   4.036   2.641   1.784  1.1354  1.3715  2.5092
 3841TIP3    H211530   4.112   2.747   1.707  1.3285  0.0237  0.7667
 3842TIP3   OH211531   2.318   1.388   1.983  0.0276 -0.2138  0.4554
 3842TIP3    H111532   2.308   1.413   1.891  1.3462 -0.0226  0.3484
 3842TIP3    H211533   2.334   1.294   1.981 -3.0089 -0.8447  0.7346
 3843TIP3   OH211534   3.149   4.688   0.220  0.6116 -0.1506 -0.3359
 3843TIP3    H111535   3.223   4.690   0.281 -0.5995  0.9268  1.1835
 3843TIP3    H211536   3.171   4.752   0.153 -0.0032  2.0937  1.5023
 3844TIP3   OH211537   3.215   1.629   2.305 -0.3169 -0.1189 -0.0341
 3844TIP3    H111538   3.123   1.641   2.330 -0.4914  1.6042 -1.3184
 3844TIP3    H211539   3.243   1.716   2.276  1.1651 -1.0243 -1.4517
 3845TIP3   OH211540   4.701   1.816   4.378  0.2623 -0.7863  0.4390
 3845TIP3    H111541   4.637   1.866   4.429 -0.5148 -2.0769  0.7812
 3845TIP3    H211542   4.784   1.861   4.393 -0.7856  2.2190 -1.6830
 3846TIP3   OH211543   3.080   2.421   0.438 -0.3307 -0.1231  0.0840
 3846TIP3    H111544   3.163   2.419   0.392 -0.7865 -2.2999 -0.7344
 3846TIP3    H211545   3.077   2.339   0.488 -2.0381 -0.1916 -0.0404
 3847TIP3   OH211546   4.792   1.102   0.205  0.0476  0.1989 -0.3651
 3847TIP3    H111547   4.827   1.029   0.154  1.8518  0.2139  0.7446
 3847TIP3    H211548   4.801   1.178   0.149  1.7579  0.1736 -0.1580
 3848TIP3   OH211549   4.281   3.108   2.583  0.3812  0.4808 -0.1973
 3848TIP3    H111550   4.315   3.049   2.516  1.3743  0.4946  0.2776
 3848TIP3    H211551   4.186   3.098   2.579  0.4412  0.2774 -1.4174
 3849TIP3   OH211552   0.780   2.336   2.909 -0.0437  0.0025  0.3214
 3849TIP3    H111553   0.730   2.270   2.860 -0.8592  0.1791  0.9040
 3849TIP3    H211554   0.867   2.297   2.919 -0.7316 -1.3398  1.3391
 3850TIP3   OH211555   1.733   1.355   4.215 -0.1545 -0.2623 -0.1552
 3850TIP3    H111556   1.804   1.291   4.213  0.3638  0.2558  1.1068
 3850TIP3    H211557   1.726   1.386   4.124  1.8563  0.3481 -0.1489
 3851TIP3   OH211558   0.692   3.257   0.028 -0.4325 -0.2902  0.2285
 3851TIP3    H111559   0.688   3.229   0.119  0.5775 -0.3441  0.2604
 3851TIP3    H211560   0.784   3.249   0.003 -0.3450  1.5914 -0.2177
 3852TIP3   OH211561   1.064   4.379   2.751 -0.3658  0.2136  0.0460
 3852TIP3    H111562   1.044   4.473   2.751  0.4404  0.4081  1.2789
 3852TIP3    H211563   1.148   4.373   2.796  0.0554 -1.0241 -0.8677
 3853TIP3   OH211564   4.085   1.686   0.435 -0.2194  0.4091 -0.4570
 3853TIP3    H111565   4.062   1.676   0.342 -1.1562 -2.3028 -0.0176
 3853TIP3    H211566   4.008   1.727   0.474 -0.0394  1.0468 -0.7448
 3854TIP3   OH211567   3.407   5.319   1.126 -0.1056 -0.9448  0.2163
 3854TIP3    H111568   3.478   5.343   1.066  1.2276 -0.8023  1.7712
 3854TIP3    H211569   3.429   5.363   1.208 -2.9684  0.5628  0.3006
 3855TIP3   OH211570   5.134   5.370   0.477 -0.0269 -0.5857  0.1825
 3855TIP3    H111571   5.165   5.298   0.531  2.5452  0.4050  0.1964
 3855TIP3    H211572   5.182   5.361   0.394 -1.4113 -0.2058 -0.6895
 3856TIP3   OH211573   3.719   3.802   3.753 -0.0337 -0.6096  0.2168
 3856TIP3    H111574   3.754   3.848   3.676  0.4838  3.3439  2.5122
 3856TIP3    H211575   3.797   3.785   3.807 -0.5862 -1.5707  0.7279
 3857TIP3   OH211576  -0.025   0.093   0.447 -0.1231 -0.0447 -0.6837
 3857TIP3    H111577   0.058   0.110   0.404  0.5010 -0.8650  0.1650
 3857TIP3    H211578  -0.008   0.020   0.506 -1.8432 -1.3884 -1.7289
 3858TIP3   OH211579   2.311   5.267   3.701  0.4479  0.2074 -0.2542
 3858TIP3    H111580   2.406   5.270   3.684  0.4498  0.6754 -0.1836
 3858TIP3    H211581   2.276   5.339   3.648  0.1414  0.0823 -0.2199
 3859TIP3   OH211582   0.640   4.704   3.272  0.1722 -0.1509 -0.4354
 3859TIP3    H111583   0.722   4.746   3.293  0.8226 -1.2685 -0.6490
 3859TIP3    H211584   0.582   4.723   3.346  0.8848 -0.0525  0.0980
 3860TIP3   OH211585   5.391   2.117   0.237  0.4279 -0.3272 -0.2775
 3860TIP3    H111586   5.472   2.084   0.276  0.1021 -0.9266 -0.0921
 3860TIP3    H211587   5.404   2.108   0.143 -0.0039 -1.8750 -0.2128
 3861TIP3   OH211588   6.214   4.951   3.301 -0.0862  0.1277 -0.3859
 3861TIP3    H111589   6.161   4.898   3.361 -0.4739 -0.9869 -1.6618
 3861TIP3    H211590   6.296   4.903   3.292 -1.1563 -1.4465 -3.0761
 3862TIP3   OH211591   5.988   2.902   2.532  0.8303  0.5373 -0.1623
 3862TIP3    H111592   6.051   2.916   2.462 -1.1151  1.2038 -1.8659
 3862TIP3    H211593   5.960   2.811   2.522 -0.8849  1.1629 -1.5884
 3863TIP3   OH211594   3.665   0.289   2.494 -0.2861  0.0645  0.4435
 3863TIP3    H111595   3.694   0.380   2.486  1.7288 -0.5552  0.2870
 3863TIP3    H211596   3.664   0.272   2.588 -0.4649  0.1757  0.4630
 3864TIP3   OH211597   3.785   4.764   2.787  1.0981  0.3464 -0.0010
 3864TIP3    H111598   3.747   4.841   2.745 -0.8497 -0.0358  0.9328
 3864TIP3    H211599   3.763   4.775   2.880  1.5819 -0.8929  0.2772
 3865TIP3   OH211600   4.191   2.065   1.564  0.7539  0.0437  0.8457
 3865TIP3    H111601   4.175   2.149   1.608  1.5207  0.1204  0.9829
 3865TIP3    H211602   4.231   2.088   1.480  0.4714 -0.1645  0.6504
 3866TIP3   OH211603   1.305   5.827   4.776 -1.1458 -0.4799  0.1618
 3866TIP3    H111604   1.344   5.768   4.841 -0.4795 -1.0870 -0.7556
 3866TIP3    H211605   1.326   5.786   4.691 -1.5919  0.5284 -0.4520
 3867TIP3   OH211606   2.904   3.592   2.257  0.5167 -0.4435  0.1927
 3867TIP3    H111607   2.862   3.515   2.297 -2.1734  0.9075  0.2034
 3867TIP3    H211608   2.848   3.666   2.283  3.3810  1.6780  0.8007
 3868TIP3   OH211609   0.276   0.076   0.132  0.5371  0.3306  0.2738
 3868TIP3    H111610   0.250   0.037   0.216 -0.9075  1.4328  0.3595
 3868TIP3    H211611   0.255   0.009   0.067 -1.4384  0.7141  0.4742
 3869TIP3   OH211612   1.592   3.332   3.038  0.1229  0.3506  0.0543
 3869TIP3    H111613   1.541   3.252   3.048  0.1010  0.2164 -1.0405
 3869TIP3    H211614   1.528   3.399   3.014  0.5621 -0.0745 -2.5310
 3870TIP3   OH211615   5.274   4.921   2.827  0.2891 -0.2216  0.0015
 3870TIP3    H111616   5.190   4.952   2.861 -0.3848 -1.0047 -0.9083
 3870TIP3    H211617   5.320   5.001   2.801 -0.3045  0.1941  0.2104
 3871TIP3   OH211618   0.948   4.940   4.135  0.2058  0.4827 -0.1348
 3871TIP3    H111619   0.906   4.856   4.154  0.5180 -0.0794 -1.7772
 3871TIP3    H211620   0.885   5.005   4.166 -0.3507 -0.3542  0.5380
 3872TIP3   OH211621   4.234   3.516   0.146  0.1007 -0.8310 -0.5195
 3872TIP3    H111622   4.193   3.482   0.226 -0.1917 -2.5893 -1.3702
 3872TIP3    H211623   4.243   3.439   0.090  0.5575  0.3277 -2.0736
 3873TIP3   OH211624   4.755   4.026   0.237 -0.0708 -0.1546 -0.1402
 3873TIP3    H111625   4.723   4.105   0.281 -0.2212 -0.1770 -0.2105
 3873TIP3    H211626   4.813   4.059   0.168  0.8949 -0.1448  0.6535
 3874TIP3   OH211627   0.697   1.284   4.381 -0.0617  0.1643 -0.2466
 3874TIP3    H111628   0.652   1.263   4.299 -1.5850  0.3796  0.5097
 3874TIP3    H211629   0.635   1.338   4.430  1.3057  1.1090  0.5392
 3875TIP3   OH211630   3.280   5.432   3.548 -0.0794  0.0126  0.0762
 3875TIP3    H111631   3.350   5.497   3.548  0.1283 -0.1089 -2.3917
 3875TIP3    H211632   3.202   5.480   3.521 -0.1894 -0.4972 -0.5446
 3876TIP3   OH211633   0.320   1.262   1.590  0.8019 -0.1503 -0.0942
 3876TIP3    H111634   0.352   1.180   1.551  0.4551  0.0641 -0.8525
 3876TIP3    H211635   0.245   1.286   1.536 -0.7639 -0.7010  1.6955
 3877TIP3   OH211636   2.161   0.509   0.429 -0.0564 -0.4820 -0.3479
 3877TIP3    H111637   2.252   0.501   0.404 -0.2987 -1.2954 -0.9856
 3877TIP3    H211638   2.113   0.458   0.364 -1.0183  0.3797 -0.3438
 3878TIP3   OH211639   3.744   5.655   1.801  0.3666 -0.0774  0.0939
 3878TIP3    H111640   3.768   5.739   1.842  1.2168 -0.4467  0.3753
 3878TIP3    H211641   3.801   5.649   1.724  0.6877 -0.6333  0.3701
 3879TIP3   OH211642   3.211   4.236   4.447  0.1897  0.4628 -0.0975
 3879TIP3    H111643   3.275   4.225   4.518 -3.1376  0.6007  3.2152
 3879TIP3    H211644   3.172   4.322   4.463 -0.3180  0.7413 -2.5162
 3880TIP3   OH211645   1.234   3.464   2.316  0.2641 -0.0381  0.1490
 3880TIP3    H111646   1.236   3.496   2.226  0.1139 -0.7080 -0.0993
 3880TIP3    H211647   1.325   3.443   2.336  0.2219 -0.4414 -0.0586
 3881TIP3   OH211648   4.273   2.927   5.073 -0.3741  0.2341  0.3454
 3881TIP3    H111649   4.349   2.983   5.090  0.0732  0.4638 -2.0084
 3881TIP3    H211650   4.245   2.951   4.984 -1.1880 -2.0946 -0.1000
 3882TIP3   OH211651   5.985   3.912   4.170  0.7687  0.0488  0.0332
 3882TIP3    H111652   5.923   3.949   4.233  0.2690  0.9405 -0.9428
 3882TIP3    H211653   5.952   3.941   4.085  1.4197 -1.1376 -0.6425
 3883TIP3   OH211654   6.191   4.083   3.806 -0.2338  0.0901  0.2486
 3883TIP3    H111655   6.167   4.160   3.857 -0.0131  0.4573 -0.1912
 3883TIP3    H211656   6.286   4.077   3.814 -0.3335 -0.6272  0.9602
 3884TIP3   OH211657   5.815   3.963   1.838  0.1374 -0.0503 -0.2659
 3884TIP3    H111658   5.750   4.016   1.885  0.3024  0.5688 -0.7227
 3884TIP3    H211659   5.876   4.027   1.802  0.5409 -0.5804 -0.5361
 3885TIP3   OH211660   1.652   3.222   3.300  0.4467 -0.5542 -0.4212
 3885TIP3    H111661   1.615   3.292   3.246 -0.3657 -0.3864  0.3208
 3885TIP3    H211662   1.644   3.143   3.247  3.2861  0.1683 -2.1495
 3886TIP3   OH211663   4.566   1.932   3.034  0.0651  0.1288  0.3209
 3886TIP3    H111664   4.552   1.886   2.951 -0.6755  0.5154  0.2146
 3886TIP3    H211665   4.547   1.867   3.101 -0.2560  0.0717  0.1779
 3887TIP3   OH211666   1.140   5.829   0.764  0.1945 -0.1769  0.5710
 3887TIP3    H111667   1.100   5.878   0.692 -0.3231 -1.1377  0.1898
 3887TIP3    H211668   1.105   5.870   0.844  1.4201  1.4411  0.3348
 3888TIP3   OH211669   2.579   0.563   2.293  0.1872 -0.5296 -0.1726
 3888TIP3    H111670   2.591   0.610   2.210  1.6458  0.4950  0.5640
 3888TIP3    H211671   2.539   0.480   2.269 -0.9077  0.4001 -1.7242
 3889TIP3   OH211672   1.360   5.364   0.571 -0.0135  0.1138  0.0456
 3889TIP3    H111673   1.266   5.373   0.555  0.1005  0.2782 -0.5576
 3889TIP3    H211674   1.400   5.382   0.486  0.6513  1.4648  0.6236
 3890TIP3   OH211675   6.201  -0.019   1.442 -0.5814  0.0338  0.1131
 3890TIP3    H111676   6.147   0.015   1.513  1.1506  0.7123  1.1615
 3890TIP3    H211677   6.256   0.055   1.417 -0.2100 -0.6035 -1.0110
 3891TIP3   OH211678   4.256   0.724   3.655 -0.5145 -0.3370 -0.0468
 3891TIP3    H111679   4.301   0.659   3.708 -0.5424  1.0334  1.7720
 3891TIP3    H211680   4.163   0.715   3.679 -0.5361  0.2562  0.1140
 3892TIP3   OH211681   4.820   5.207   3.946  0.4528 -0.4678 -0.1318
 3892TIP3    H111682   4.784   5.294   3.962 -1.3955 -1.4928  1.8278
 3892TIP3    H211683   4.909   5.211   3.983  0.1973  0.4478  0.4199
 3893TIP3   OH211684   2.684   2.699   4.489  0.7567 -0.4579 -0.3460
 3893TIP3    H111685   2.761   2.748   4.517 -1.4385  3.3291 -0.2913
 3893TIP3    H211686   2.661   2.736   4.404 -1.6943 -0.5603  0.1917
 3894TIP3   OH211687   0.862   0.626   0.370 -0.0805  0.6342  0.1041
 3894TIP3    H111688   0.925   0.678   0.419  0.6514 -1.7473  1.8873
 3894TIP3    H211689   0.910   0.546   0.348 -1.0683  0.7234 -2.7186
 3895TIP3   OH211690   0.778   4.606   2.279  0.0116  0.3172 -0.0282
 3895TIP3    H111691   0.689   4.584   2.252  0.9828 -2.0224 -1.6378
 3895TIP3    H211692   0.806   4.674   2.218 -0.3068  0.2815 -0.2163
 3896TIP3   OH211693   4.834   1.914   3.813  0.6510  0.5976  0.2429
 3896TIP3    H111694   4.888   1.860   3.870  2.7060  0.1310 -1.9708
 3896TIP3    H211695   4.806   1.854   3.744 -1.0437  1.3290  0.2637
 3897TIP3   OH211696   1.546   5.225   4.463  0.0053 -0.7591 -0.4604
 3897TIP3    H111697   1.570   5.196   4.375  1.2718 -0.0748 -0.3452
 3897TIP3    H211698   1.610   5.184   4.521 -0.6100 -0.9273  0.1246
 3898TIP3   OH211699   0.070   5.947   2.493  0.2266 -0.3221  0.3387
 3898TIP3    H111700  -0.004   5.887   2.483  1.6003 -2.0263 -0.0910
 3898TIP3    H211701   0.113   5.946   2.407  0.8899  0.4613  0.6511
 3899TIP3   OH211702   5.131   2.385   2.906 -0.1274 -0.0656  0.2756
 3899TIP3    H111703   5.203   2.443   2.934 -1.7715  1.9547  0.5442
 3899TIP3    H211704   5.151   2.366   2.814 -0.4292  2.5146 -0.4197
 3900TIP3   OH211705   1.667   5.747   0.086 -0.2054  0.6702 -0.6648
 3900TIP3    H111706   1.577   5.724   0.110  0.2235  0.7155  1.0706
 3900TIP3    H211707   1.702   5.666   0.047  0.1530 -0.6076  2.1104
 3901TIP3   OH211708   4.597   5.977   0.602 -0.1076 -0.1841  0.8879
 3901TIP3    H111709   4.588   5.984   0.697  0.3092 -0.6404  0.9647
 3901TIP3    H211710   4.661   5.908   0.589 -0.6784 -0.6084  0.2560
 3902TIP3   OH211711   1.488   4.296   4.655  0.3507  0.8116  0.5186
 3902TIP3    H111712   1.399   4.316   4.683 -0.0774 -0.9676  0.5256
 3902TIP3    H211713   1.502   4.352   4.579 -1.0891  0.5268  0.0089
 3903TIP3   OH211714   5.336   2.928   3.060 -0.0999 -0.9819 -0.1321
 3903TIP3    H111715   5.334   2.853   3.120  0.2995 -0.2453  0.8136
 3903TIP3    H211716   5.416   2.975   3.083 -0.5888  0.0014 -0.3993
 3904TIP3   OH211717   4.814   3.879   0.548 -0.3676 -0.4025  0.2414
 3904TIP3    H111718   4.823   3.828   0.628 -1.9768  0.8818  1.3119
 3904TIP3    H211719   4.868   3.957   0.564 -1.2589  0.1994  0.4298
 3905TIP3   OH211720   1.074   4.714   3.564 -0.1657  0.4719 -0.4564
 3905TIP3    H111721   1.162   4.721   3.527 -0.2280  0.1479 -0.6726
 3905TIP3    H211722   1.069   4.625   3.597 -1.2317 -0.3503 -2.6074
 3906TIP3   OH211723   3.238   2.575   3.930  0.1462 -0.3596  0.4004
 3906TIP3    H111724   3.200   2.580   4.018 -1.2913  1.5391 -0.2545
 3906TIP3    H211725   3.330   2.598   3.942  0.0686 -0.5568  1.4591
 3907TIP3   OH211726   6.107   4.685   4.603  0.2303 -0.0126 -0.4957
 3907TIP3    H111727   6.023   4.704   4.561 -0.2455 -1.1482 -0.0941
 3907TIP3    H211728   6.146   4.771   4.619 -1.2447  0.5711  0.0865
 3908TIP3   OH211729   5.688  -0.013   2.028 -0.1501  0.1894  0.2680
 3908TIP3    H111730   5.774  -0.054   2.032 -0.6079 -0.7538  0.9033
 3908TIP3    H211731   5.704   0.079   2.049  0.4086 -0.4267  2.8099
 3909TIP3   OH211732   4.628   2.183   5.049 -0.2617 -0.1986  0.3241
 3909TIP3    H111733   4.580   2.101   5.040  0.6604 -0.7935  0.7193
 3909TIP3    H211734   4.689   2.184   4.975  0.8343 -0.6512  1.1907
 3910TIP3   OH211735   3.929   5.349   1.009 -0.6143 -0.2342 -0.4849
 3910TIP3    H111736   3.989   5.327   1.080 -2.2671 -1.0190  0.7230
 3910TIP3    H211737   3.980   5.335   0.929  0.7996 -0.8479  0.4884
 3911TIP3   OH211738   1.722   4.100   1.178  0.1902 -0.0193  0.1266
 3911TIP3    H111739   1.674   4.154   1.241 -0.1293 -0.5171  0.3159
 3911TIP3    H211740   1.757   4.028   1.231 -1.3230 -1.2648 -0.4963
 3912TIP3   OH211741   5.995   3.896   3.873  0.0939 -0.8194 -0.2526
 3912TIP3    H111742   5.976   3.857   3.788  0.6424 -0.6169 -0.4712
 3912TIP3    H211743   6.065   3.960   3.856 -0.1325 -0.4250  0.2627
 3913TIP3   OH211744   5.080   2.482   4.290  0.1815  0.0841  0.3101
 3913TIP3    H111745   5.026   2.430   4.231  1.5415 -1.6877  0.5724
 3913TIP3    H211746   5.140   2.420   4.330  1.4930  1.7564  1.0922
 3914TIP3   OH211747   4.922   2.088   0.874 -0.3034  0.1411  0.0345
 3914TIP3    H111748   5.009   2.094   0.834 -0.9832 -0.8980 -1.7110
 3914TIP3    H211749   4.909   2.173   0.916  1.3729  0.4669 -0.0424
 3915TIP3   OH211750   0.967   3.312   3.880 -0.5265 -0.7393 -0.7927
 3915TIP3    H111751   0.936   3.275   3.963  0.7532  0.1901  0.1440
 3915TIP3    H211752   0.887   3.334   3.832 -1.3782  0.9832  1.2590
 3916TIP3   OH211753   3.108   0.503   5.067  0.3583 -0.4866 -0.1021
 3916TIP3    H111754   3.191   0.513   5.021 -0.3530 -0.9477 -1.5559
 3916TIP3    H211755   3.043   0.544   5.010 -0.2083  1.5335  1.8659
 3917TIP3   OH211756   2.048   2.490   0.667  0.0659 -0.7098  0.7686
 3917TIP3    H111757   2.138   2.521   0.660 -0.1639  0.3025  1.8799
 3917TIP3    H211758   2.055   2.406   0.713  0.5338 -1.3246 -0.3990
 3918TIP3   OH211759   2.351   4.459   3.462  0.1960 -0.0052 -0.3149
 3918TIP3    H111760   2.289   4.531   3.473 -0.1562 -0.1090 -1.4751
 3918TIP3    H211761   2.429   4.501   3.425  1.1910  0.2701  1.9192
 3919TIP3   OH211762   4.063   2.719   0.350 -0.9220  0.1884 -0.1511
 3919TIP3    H111763   4.085   2.812   0.345 -1.7150  0.3918  0.0057
 3919TIP3    H211764   3.975   2.713   0.313 -1.6738 -0.2014  1.5889
 3920TIP3   OH211765   1.245   4.882   2.610 -0.4658 -0.2341 -0.1211
 3920TIP3    H111766   1.269   4.895   2.702 -0.8556 -1.3754  0.1545
 3920TIP3    H211767   1.306   4.938   2.562 -0.2271  0.3518  0.8230
 3921TIP3   OH211768   0.408   4.650   3.709  0.4583  0.0367  0.2790
 3921TIP3    H111769   0.324   4.607   3.725  1.0255 -1.0845  0.2909
 3921TIP3    H211770   0.458   4.638   3.790  0.0633  2.1273  0.9043
 3922TIP3   OH211771   5.307   1.744   2.648  0.5090  0.0054  0.0663
 3922TIP3    H111772   5.338   1.656   2.628  0.3592  0.0520 -0.3825
 3922TIP3    H211773   5.293   1.744   2.742 -1.7665 -1.2038 -0.2025
 3923TIP3   OH211774   4.335   3.597   3.844 -0.2064 -0.0069 -0.2185
 3923TIP3    H111775   4.409   3.636   3.890 -1.1367 -0.4336  1.7465
 3923TIP3    H211776   4.266   3.663   3.849 -0.3743 -0.1226 -0.9068
 3924TIP3   OH211777   2.306   2.946   3.442  0.3250  0.1470  0.4324
 3924TIP3    H111778   2.274   3.013   3.382 -1.0715  1.2025  2.2657
 3924TIP3    H211779   2.402   2.951   3.433  0.2666  2.3063  0.4206
 3925TIP3   OH211780   2.720   0.094   0.529  0.1820 -0.0434 -0.1962
 3925TIP3    H111781   2.639   0.145   0.531 -0.4111 -0.8655 -1.4434
 3925TIP3    H211782   2.692   0.006   0.555  1.0356  0.0475  1.1292
 3926TIP3   OH211783   1.906   3.908   2.263 -0.7781  0.0334 -0.4367
 3926TIP3    H111784   1.852   3.977   2.224 -1.3111 -0.5777 -0.7888
 3926TIP3    H211785   1.892   3.832   2.207  1.3013  0.1456 -1.2174
 3927TIP3   OH211786   4.197   3.829   2.273  0.5318  0.1768 -0.0464
 3927TIP3    H111787   4.159   3.855   2.189  0.3971 -1.2330 -0.4370
 3927TIP3    H211788   4.127   3.783   2.319  0.4429  1.3855  1.0799
 3928TIP3   OH211789   6.201   4.903   0.111 -0.4110  0.1101 -0.1634
 3928TIP3    H111790   6.224   4.831   0.170 -0.6442  0.4678  0.3681
 3928TIP3    H211791   6.282   4.953   0.101 -0.6240  0.6480  0.6999
 3929TIP3   OH211792   1.764   2.989   0.606  0.3841 -0.2143 -0.1355
 3929TIP3    H111793   1.834   3.009   0.544 -0.5180  0.9388 -0.8268
 3929TIP3    H211794   1.787   2.903   0.642  1.2159 -0.6638 -1.6604
 3930TIP3   OH211795   1.327   4.894   2.864  0.3884  0.0588  0.1711
 3930TIP3    H111796   1.394   4.962   2.849  0.4528 -0.0583 -0.0838
 3930TIP3    H211797   1.377   4.813   2.872  0.2177 -0.1971 -1.1100
 3931TIP3   OH211798   1.846   0.942   4.713  0.1321 -0.1076 -0.6356
 3931TIP3    H111799   1.882   1.011   4.769 -0.8951 -0.3002  0.2822
 3931TIP3    H211800   1.760   0.974   4.687 -0.4738 -1.1505  0.0267
 3932TIP3   OH211801   4.242   0.144   2.818  0.1977 -1.2375 -0.3031
 3932TIP3    H111802   4.229   0.104   2.904  0.4458 -1.0834 -0.1913
 3932TIP3    H211803   4.154   0.169   2.789  0.1763 -0.7249  0.1846
 3933TIP3   OH211804   4.236   3.007   4.817 -0.0385  0.0689  0.5838
 3933TIP3    H111805   4.250   2.981   4.726  0.6097  0.4714  0.5570
 3933TIP3    H211806   4.184   3.087   4.811  0.7402  0.5832  0.5182
 3934TIP3   OH211807   4.243   4.637   3.284 -0.6953  0.4810  0.5535
 3934TIP3    H111808   4.224   4.663   3.194 -0.4434  1.0125  0.6513
 3934TIP3    H211809   4.319   4.578   3.277 -2.2492 -1.5849  0.1693
 3935TIP3   OH211810   2.375   2.397   3.994 -0.1118  0.0859  0.7043
 3935TIP3    H111811   2.389   2.465   4.060 -0.5462  0.0631  0.8228
 3935TIP3    H211812   2.369   2.316   4.044  1.5289 -0.2015  0.4738
 3936TIP3   OH211813   3.201   0.320   4.802 -0.0219 -0.1785  0.0469
 3936TIP3    H111814   3.183   0.242   4.854  1.7260  0.3624  1.5490
 3936TIP3    H211815   3.242   0.381   4.863 -2.1105  2.2928 -0.8527
 3937TIP3   OH211816   4.469   3.459   4.123 -0.3378  0.0636  0.1112
 3937TIP3    H111817   4.515   3.400   4.184  0.4243  3.1508  2.8038
 3937TIP3    H211818   4.537   3.488   4.063 -0.0410  0.3489  0.5766
 3938TIP3   OH211819   5.387   3.288   3.907 -0.2717  0.1185  0.4665
 3938TIP3    H111820   5.480   3.274   3.892 -0.1704  1.8774 -0.9134
 3938TIP3    H211821   5.347   3.282   3.820 -1.4237 -0.3394  1.0027
 3939TIP3   OH211822   4.066   0.311   2.112  0.5510  0.3919  0.3175
 3939TIP3    H111823   4.117   0.352   2.042  0.5163 -0.0610  0.0192
 3939TIP3    H211824   3.977   0.341   2.097  0.7511  1.2905  0.9191
 3940TIP3   OH211825   2.358   2.222   4.322 -0.1574  0.1070 -1.0131
 3940TIP3    H111826   2.412   2.290   4.283 -0.0730  0.5719 -0.1114
 3940TIP3    H211827   2.273   2.264   4.339  0.0035  0.1061 -0.1361
 3941TIP3   OH211828   3.559   4.149   4.537  0.1645 -0.0862 -0.2376
 3941TIP3    H111829   3.488   4.094   4.504  0.0189  1.2114 -2.2348
 3941TIP3    H211830   3.557   4.227   4.482  2.6873  0.3068  0.1042
 3942TIP3   OH211831   4.615   5.350   3.746 -0.1725 -0.2706  0.1073
 3942TIP3    H111832   4.689   5.291   3.730  0.2732  0.3869 -0.3421
 3942TIP3    H211833   4.656   5.434   3.769 -0.7810  0.0435  0.0580
 3943TIP3   OH211834   2.654   1.512   3.397  0.0531  0.3085 -0.2126
 3943TIP3    H111835   2.726   1.547   3.345  2.0317  0.1590  2.2506
 3943TIP3    H211836   2.588   1.583   3.398 -0.0895  0.2808 -2.8396
 3944TIP3   OH211837   0.302   0.068   4.471 -0.3676  0.3486  0.1722
 3944TIP3    H111838   0.262   0.140   4.422  0.6125 -0.1380 -1.4379
 3944TIP3    H211839   0.285  -0.010   4.418  2.0174  0.0254 -0.2518
 3945TIP3   OH211840   2.964   5.744   1.174  0.4163 -0.1519  0.7601
 3945TIP3    H111841   3.018   5.727   1.097 -0.5812  2.9695 -0.7978
 3945TIP3    H211842   3.024   5.787   1.235  0.3728  0.8238  0.1419
 3946TIP3   OH211843   3.712   5.164   5.064  0.2072  0.2000 -0.1686
 3946TIP3    H111844   3.716   5.257   5.043  0.0671  0.1038 -0.6447
 3946TIP3    H211845   3.619   5.143   5.062  0.2574 -0.0148 -0.3772
 3947TIP3   OH211846   1.915   4.738   1.335 -0.1561 -0.1816 -0.1191
 3947TIP3    H111847   2.000   4.694   1.328  0.4886  0.8988  0.6664
 3947TIP3    H211848   1.872   4.721   1.251  1.2084  0.0026 -0.8764
 3948TIP3   OH211849   2.181   4.550   3.977  0.0310 -0.2858 -0.2908
 3948TIP3    H111850   2.152   4.459   3.979  1.8248 -0.9101 -0.2155
 3948TIP3    H211851   2.236   4.559   4.055 -0.7813  1.1285  0.1589
 3949TIP3   OH211852   3.637   5.839   1.127  0.7698 -0.5017  0.2220
 3949TIP3    H111853   3.664   5.755   1.090  2.2485  0.2740 -0.5579
 3949TIP3    H211854   3.574   5.874   1.063  1.0522 -0.4940 -0.0539
 3950TIP3   OH211855   1.065   0.255   2.832 -0.0646  0.0886  0.2453
 3950TIP3    H111856   0.986   0.238   2.884  0.3416  1.0679  1.2210
 3950TIP3    H211857   1.111   0.324   2.880  0.3598  1.0013 -1.3984
 3951TIP3   OH211858   6.127   5.887   1.653 -0.2715  0.0132 -0.1227
 3951TIP3    H111859   6.143   5.810   1.599  0.5081  0.5991 -0.7731
 3951TIP3    H211860   6.086   5.950   1.593  0.0594  0.4631  0.1096
 3952TIP3   OH211861   5.635   1.422   5.081  0.0530  0.2089  0.0062
 3952TIP3    H111862   5.609   1.337   5.045  2.4066 -1.0444  1.0694
 3952TIP3    H211863   5.730   1.426   5.068 -0.0991  3.1354 -0.8555
 3953TIP3   OH211864   4.036   3.110   3.389 -0.1496  0.2607  0.0463
 3953TIP3    H111865   4.034   3.190   3.336 -0.4483  0.4796  0.3877
 3953TIP3    H211866   4.031   3.140   3.479  2.2288  0.0109  0.3271
 3954TIP3   OH211867   1.970   1.048   3.177  0.3064  0.0199  0.3597
 3954TIP3    H111868   1.888   1.007   3.151 -0.0579  0.6624  0.4619
 3954TIP3    H211869   1.953   1.142   3.167  1.5108  0.1250 -1.0768
 3955TIP3   OH211870   2.415   4.613   1.625  0.1655 -0.1588 -0.0754
 3955TIP3    H111871   2.393   4.644   1.712 -1.5881  0.5593 -0.7322
 3955TIP3    H211872   2.383   4.523   1.622 -0.7210  0.1526 -0.2925
 3956TIP3   OH211873   1.784   3.452   3.545  0.2019  0.2539  0.7369
 3956TIP3    H111874   1.865   3.501   3.526  0.2544 -0.1057 -0.0199
 3956TIP3    H211875   1.772   3.397   3.468 -0.6592  0.1537  0.9402
 3957TIP3   OH211876   4.614   4.322   4.224  0.6363 -0.2047 -0.4216
 3957TIP3    H111877   4.581   4.396   4.174  0.9710  0.7477  0.7148
 3957TIP3    H211878   4.535   4.281   4.261  0.5600  1.4384  1.4274
 3958TIP3   OH211879   1.888   5.423   4.438  0.4885  0.5132 -0.4028
 3958TIP3    H111880   1.880   5.405   4.531 -0.0532  1.2376 -0.2922
 3958TIP3    H211881   1.982   5.428   4.421  0.5979  1.9212  0.4420
 3959TIP3   OH211882   2.463   1.008   4.778  0.1402 -0.4938 -0.7254
 3959TIP3    H111883   2.497   1.093   4.805 -0.7298  0.0989 -1.4381
 3959TIP3    H211884   2.444   0.963   4.860  1.0116 -0.1801 -0.3383
 3960TIP3   OH211885   3.894   3.984   1.125 -0.4964  0.1708  0.2269
 3960TIP3    H111886   3.910   3.981   1.030  0.4825 -2.2779  0.4002
 3960TIP3    H211887   3.955   4.050   1.157 -0.8656  1.0573 -0.8407
 3961TIP3   OH211888   4.281   2.165   0.272  0.0365  0.3500  0.7880
 3961TIP3    H111889   4.328   2.175   0.355  2.7250  1.1962 -0.6938
 3961TIP3    H211890   4.311   2.239   0.219 -3.1447  0.9987 -0.3373
 3962TIP3   OH211891   3.405   4.135   0.029  0.1182 -0.3536  0.5809
 3962TIP3    H111892   3.369   4.203  -0.028 -0.0351 -0.5079  0.4957
 3962TIP3    H211893   3.500   4.148   0.024  0.0839 -0.0547  0.6754
 3963TIP3   OH211894   5.513   3.798   2.126 -0.3754 -0.5998 -0.1388
 3963TIP3    H111895   5.430   3.790   2.079 -0.5427  1.4735 -0.3147
 3963TIP3    H211896   5.496   3.763   2.213 -2.6970  3.1407  1.1462
 3964TIP3   OH211897   6.017   3.528   2.273  0.8756  0.1472 -0.5583
 3964TIP3    H111898   5.973   3.553   2.192  2.3816  1.1134 -1.1310
 3964TIP3    H211899   5.954   3.550   2.342  0.2536  1.0040 -1.3672
 3965TIP3   OH211900   4.235   2.775   0.648  0.0620  0.2218  0.1363
 3965TIP3    H111901   4.219   2.683   0.668  0.2522  0.0132 -0.6523
 3965TIP3    H211902   4.305   2.774   0.583  0.1867  0.9338  0.2514
 3966TIP3   OH211903   4.512   4.341   3.498 -0.5002  0.8918 -0.0949
 3966TIP3    H111904   4.430   4.291   3.509 -0.5007  0.6749 -0.9716
 3966TIP3    H211905   4.554   4.338   3.584 -0.4842 -0.6792 -0.1229
 3967TIP3   OH211906   1.990   2.033   5.096  0.1899 -0.2747  0.0902
 3967TIP3    H111907   2.032   2.088   5.029 -0.5939 -0.6596 -0.7397
 3967TIP3    H211908   2.027   1.946   5.081 -0.3405 -0.4590 -0.1517
 3968TIP3   OH211909   1.569   4.190   1.486  0.2278 -1.0820 -0.2014
 3968TIP3    H111910   1.606   4.108   1.519  0.3360 -0.3520  1.6240
 3968TIP3    H211911   1.590   4.255   1.554  0.7943  0.6446 -1.9040
 3969TIP3   OH211912   4.598   5.298   2.355  0.2434  0.1188  0.5224
 3969TIP3    H111913   4.656   5.231   2.318 -1.3216 -0.4704 -1.0028
 3969TIP3    H211914   4.632   5.381   2.320 -1.0946 -0.4013 -2.3603
 3970TIP3   OH211915   1.401   1.307   1.476 -0.5510  0.2148  0.2401
 3970TIP3    H111916   1.350   1.388   1.489 -1.4066 -0.3000  0.1467
 3970TIP3    H211917   1.480   1.336   1.431  0.6165  1.4786  2.8242
 3971TIP3   OH211918   4.454   5.960   0.376  0.0265  0.1724  0.0141
 3971TIP3    H111919   4.513   5.965   0.452  0.2129  0.5378 -0.1507
 3971TIP3    H211920   4.436   5.867   0.366  0.1336  0.1062  0.4071
 3972TIP3   OH211921   3.654   5.709   2.973 -0.3056 -0.4469  0.5285
 3972TIP3    H111922   3.652   5.720   2.878  0.4342 -1.3169  0.3958
 3972TIP3    H211923   3.569   5.740   3.003 -0.9630 -1.1544 -0.5454
 3973TIP3   OH211924   2.362   1.662   4.991  0.2763  0.3072 -0.5629
 3973TIP3    H111925   2.434   1.720   5.018  1.1253 -0.2641 -1.5276
 3973TIP3    H211926   2.367   1.661   4.895  0.2622 -1.3428 -0.5684
 3974TIP3   OH211927   6.152   2.698   2.848 -0.1722 -0.5865  0.1757
 3974TIP3    H111928   6.242   2.725   2.831  0.3434 -1.6612  1.0811
 3974TIP3    H211929   6.100   2.778   2.835  1.1772  0.6369  1.8868
 3975TIP3   OH211930   2.328   4.715   3.309 -0.2583 -0.1338 -0.2035
 3975TIP3    H111931   2.333   4.719   3.213 -2.1994  2.5258 -0.3016
 3975TIP3    H211932   2.243   4.674   3.326 -0.3673  0.3019  0.3311
 3976TIP3   OH211933   0.780   5.127   4.226 -0.2198 -0.5383 -0.5822
 3976TIP3    H111934   0.692   5.113   4.259  0.0762  0.1294  0.5576
 3976TIP3    H211935   0.772   5.201   4.167 -0.4060 -0.4097 -0.3975
 3977TIP3   OH211936   1.750   1.460   0.313 -0.3558 -0.3734  0.1787
 3977TIP3    H111937   1.794   1.403   0.250 -1.0374 -1.4025  0.6142
 3977TIP3    H211938   1.657   1.444   0.299 -0.5473  0.4483  0.4868
 3978TIP3   OH211939   1.479   1.082   2.734  0.1582 -0.4839 -0.3347
 3978TIP3    H111940   1.542   1.116   2.798  0.6571 -0.0924 -1.0250
 3978TIP3    H211941   1.533   1.044   2.665 -0.2683  1.6363 -1.9350
 3979TIP3   OH211942   2.928   0.069   2.792 -0.3225 -0.2701 -0.2601
 3979TIP3    H111943   2.864   0.093   2.859 -0.4887 -0.8668 -0.2042
 3979TIP3    H211944   2.966  -0.013   2.824  1.2582  0.6169  0.2696
 3980TIP3   OH211945   1.478   0.158   5.103  1.0766 -0.1891 -0.1132
 3980TIP3    H111946   1.532   0.188   5.030 -0.1542  1.7514 -0.3113
 3980TIP3    H211947   1.462   0.237   5.155  0.0853 -1.0978  1.0305
 3981TIP3   OH211948   3.625   1.893   1.744 -0.0501 -0.1828 -0.4943
 3981TIP3    H111949   3.610   1.949   1.821  0.1537 -0.3876 -0.3067
 3981TIP3    H211950   3.694   1.939   1.695 -0.8269  0.4380 -1.0423
 3982TIP3   OH211951   3.049   2.494   1.969 -0.4962 -0.3015  0.1188
 3982TIP3    H111952   3.050   2.398   1.978  0.3098 -0.3413 -0.3319
 3982TIP3    H211953   2.970   2.512   1.918 -0.9670 -0.6754  0.6975
 3983TIP3   OH211954   5.112   5.707   4.987  0.2778 -0.2905  0.1977
 3983TIP3    H111955   5.172   5.653   4.935  1.2738  0.4681  0.5267
 3983TIP3    H211956   5.147   5.796   4.978 -0.0602 -0.0211  1.4252
 3984TIP3   OH211957   5.377   5.034   3.162  0.0688 -0.0876 -0.3569
 3984TIP3    H111958   5.435   4.989   3.223  0.5626 -1.0591 -1.4918
 3984TIP3    H211959   5.312   5.077   3.217  0.1965 -1.3399  0.8278
 3985TIP3   OH211960   2.755   3.892   3.161 -0.1274  0.0586 -0.2096
 3985TIP3    H111961   2.768   3.972   3.111 -0.0750  0.0790 -0.1631
 3985TIP3    H211962   2.667   3.900   3.198 -1.1591 -1.0338 -2.2880
 3986TIP3   OH211963   0.077   2.057   4.844 -0.3776 -0.2280  0.3134
 3986TIP3    H111964   0.035   1.985   4.797  0.6781  0.0669 -1.1931
 3986TIP3    H211965   0.018   2.079   4.915 -2.8600  0.2888 -1.7706
 3987TIP3   OH211966   1.460   1.522   0.394 -0.4437  0.4772  0.2020
 3987TIP3    H111967   1.401   1.451   0.419  0.3664 -0.0853  0.5554
 3987TIP3    H211968   1.504   1.546   0.476  0.1485  0.5852 -0.1465
 3988TIP3   OH211969   3.108   3.628   4.271 -0.2899  0.2466 -0.6834
 3988TIP3    H111970   3.076   3.566   4.206 -0.2056 -0.4578 -0.0736
 3988TIP3    H211971   3.096   3.583   4.355 -1.8645  1.7165 -0.0366
 3989TIP3   OH211972   0.497   1.205   5.161 -0.2282 -0.2480  0.1755
 3989TIP3    H111973   0.449   1.258   5.225 -0.5217  0.2112 -0.4145
 3989TIP3    H211974   0.477   1.246   5.076  2.0052  0.5819 -0.0141
 3990TIP3   OH211975   3.701   3.352   3.384  0.0436 -0.1646  0.3328
 3990TIP3    H111976   3.608   3.342   3.400 -0.0252 -1.1067 -0.5423
 3990TIP3    H211977   3.707   3.425   3.322 -0.1483 -0.4380 -0.0061
 3991TIP3   OH211978   2.751   4.500   1.197  0.3996 -0.4752 -0.6429
 3991TIP3    H111979   2.779   4.476   1.109  0.5947 -0.2722 -0.6349
 3991TIP3    H211980   2.831   4.520   1.244  0.1911  1.8091 -1.1108
 3992TIP3   OH211981   1.298   2.381   4.258 -0.7544 -0.4908 -0.2611
 3992TIP3    H111982   1.381   2.338   4.238 -0.1923 -0.9394  2.7074
 3992TIP3    H211983   1.233   2.311   4.258 -0.3734 -0.8843  1.4801
 3993TIP3   OH211984   4.743   4.099   4.106 -0.1354  0.1354  0.2207
 3993TIP3    H111985   4.709   4.051   4.181 -1.9030  0.6910 -0.1815
 3993TIP3    H211986   4.752   4.189   4.137  1.0291  0.0057  0.3161
 3994TIP3   OH211987   2.066   1.763   3.711 -0.2109 -0.1965  0.1570
 3994TIP3    H111988   2.054   1.696   3.644  1.5731  1.2827 -1.7577
 3994TIP3    H211989   2.139   1.731   3.764  0.6140  0.1640 -0.7326
 3995TIP3   OH211990   0.915   5.852   3.132 -0.2667  0.1820  0.4262
 3995TIP3    H111991   0.889   5.858   3.040 -0.0739  1.2191  0.4309
 3995TIP3    H211992   0.991   5.793   3.132  0.2049  0.7829 -0.1786
 3996TIP3   OH211993   5.125   0.988   1.384  0.4253  0.1703 -0.0599
 3996TIP3    H111994   5.084   0.953   1.305  1.8214  0.4832 -0.9627
 3996TIP3    H211995   5.110   1.083   1.378  0.8385  0.2335 -0.1548
 3997TIP3   OH211996   2.767   5.115   3.865 -0.0212 -0.1943  0.5138
 3997TIP3    H111997   2.847   5.168   3.859  1.8513 -2.5692  2.2615
 3997TIP3    H211998   2.740   5.103   3.774  1.3694  1.0469 -0.1107
 3998TIP3   OH211999   1.555   3.570   4.002 -0.2624  0.3200 -0.2708
 3998TIP3    H112000   1.508   3.641   4.046  0.7842 -0.4976  2.4119
 3998TIP3    H212001   1.557   3.499   4.067 -1.3617 -2.2850 -2.8558
 3999TIP3   OH212002   2.918   3.686   0.811  0.3315  0.0937  0.6208
 3999TIP3    H112003   2.989   3.659   0.752  1.0011  0.1170  1.3903
 3999TIP3    H212004   2.870   3.605   0.828 -0.6527  0.3121 -0.9454
 4000TIP3   OH212005   6.099   2.350   2.667  0.0051  0.5568 -0.4937
 4000TIP3    H112006   6.128   2.302   2.745  0.7433  0.7998 -0.6154
 4000TIP3    H212007   6.038   2.290   2.624 -1.0776  0.7439  0.6993
 4001TIP3   OH212008   2.349   0.481   4.452  0.2984  0.1934 -0.0249
 4001TIP3    H112009   2.381   0.500   4.364  0.2767  0.5621  0.0487
 4001TIP3    H212010   2.285   0.549   4.470 -0.7582 -0.6939 -0.2841
 4002TIP3   OH212011   5.653   5.415   1.252  0.3960  0.2898 -0.1052
 4002TIP3    H112012   5.634   5.405   1.345 -0.1838 -1.1087 -0.3482
 4002TIP3    H212013   5.745   5.438   1.249  0.5281 -0.0659  0.8099
 4003TIP3   OH212014   1.253   0.334   0.861  0.2430  0.1646 -0.3116
 4003TIP3    H112015   1.204   0.334   0.779 -0.5596  2.2436  0.1203
 4003TIP3    H212016   1.279   0.425   0.874 -0.9085  0.1938  2.4646
 4004TIP3   OH212017   0.327   0.849   0.105 -0.5329 -0.2286  0.2277
 4004TIP3    H112018   0.242   0.855   0.148 -0.7705  0.5701 -0.3227
 4004TIP3    H212019   0.324   0.917   0.038  0.2272 -0.7494 -0.3440
 4005TIP3   OH212020   2.973   4.381   2.591 -0.2825 -0.5138 -0.2911
 4005TIP3    H112021   2.967   4.288   2.571  0.3761 -0.4077 -1.0264
 4005TIP3    H212022   2.900   4.397   2.652 -0.2720 -1.5398  0.0114
 4006TIP3   OH212023   4.501   5.365   4.499  0.3785  0.1838 -0.3150
 4006TIP3    H112024   4.482   5.421   4.423  0.0218  0.7160  0.1565
 4006TIP3    H212025   4.415   5.346   4.536  0.5716  0.1536  0.1213
 4007TIP3   OH212026   3.111   0.175   0.219  0.3007  0.4704  0.3236
 4007TIP3    H112027   3.099   0.136   0.133  0.2974 -0.8540  0.9056
 4007TIP3    H212028   3.204   0.160   0.240 -0.1799 -1.1650  1.4462
 4008TIP3   OH212029   0.301   3.851   2.713  0.1088  0.0773 -0.3439
 4008TIP3    H112030   0.319   3.934   2.669 -0.9034  0.5349  0.0572
 4008TIP3    H212031   0.237   3.808   2.658 -0.2817  0.1210  0.0684
 4009TIP3   OH212032   6.289   4.845   2.391 -0.1216 -0.0795 -0.1970
 4009TIP3    H112033   6.275   4.758   2.354 -0.8864  0.1128 -0.3688
 4009TIP3    H212034   6.382   4.847   2.412 -0.3602 -1.4778  1.1808
 4010TIP3   OH212035   3.753   0.877   0.867 -0.1032  0.0036 -0.4216
 4010TIP3    H112036   3.678   0.913   0.913 -1.4574 -0.8907 -1.8355
 4010TIP3    H212037   3.805   0.953   0.842 -0.2348  0.5991  1.0231
 4011TIP3   OH212038   1.531   4.729   4.458 -0.1847 -0.2007  0.2898
 4011TIP3    H112039   1.507   4.741   4.366  0.6570  0.9944  0.2004
 4011TIP3    H212040   1.478   4.794   4.505 -2.4692 -2.3994  1.0206
 4012TIP3   OH212041   0.557   1.545   3.612 -0.5898 -0.2499  0.2673
 4012TIP3    H112042   0.598   1.628   3.588  1.6998 -1.5507 -0.6124
 4012TIP3    H212043   0.472   1.570   3.650 -0.3257  2.4147 -0.7041
 4013TIP3   OH212044   1.968   2.012   3.210  0.1529  0.1133 -0.4003
 4013TIP3    H112045   1.878   2.043   3.226 -0.0042 -0.6775  0.3634
 4013TIP3    H212046   2.022   2.090   3.216  0.1431  0.0628  4.4507
 4014TIP3   OH212047   3.128   1.762   1.286 -1.0276  0.4753  0.2633
 4014TIP3    H112048   3.081   1.711   1.353  1.8950  0.0595  2.1837
 4014TIP3    H212049   3.062   1.821   1.250 -4.1929 -3.2872 -0.7724
 4015TIP3   OH212050   0.493   4.004   0.892 -0.2649 -0.1479 -0.1219
 4015TIP3    H112051   0.570   3.989   0.947  0.4249  1.3232 -0.6345
 4015TIP3    H212052   0.509   3.950   0.814 -0.7553 -1.4263  0.6210
 4016TIP3   OH212053   5.660   1.909   3.178  0.3341  0.0249 -0.1132
 4016TIP3    H112054   5.581   1.854   3.183  0.7773 -0.5929  0.2177
 4016TIP3    H212055   5.658   1.945   3.089 -0.9861  1.0387  0.2856
 4017TIP3   OH212056   0.060   4.524   0.970  0.2270  0.3212 -0.2396
 4017TIP3    H112057   0.036   4.512   1.062  1.0705 -0.3250 -0.0950
 4017TIP3    H212058   0.095   4.613   0.967  0.6221  0.1903  0.1735
 4018TIP3   OH212059   2.411   1.394   3.033 -0.1242 -0.8766 -0.4903
 4018TIP3    H112060   2.415   1.345   2.951 -0.3368 -0.5312 -0.7098
 4018TIP3    H212061   2.456   1.338   3.096  0.1088 -1.1120 -0.8579
 4019TIP3   OH212062   0.989   5.135   4.380 -0.3923 -0.0865 -0.3319
 4019TIP3    H112063   0.908   5.124   4.330 -0.7013  0.8851 -0.0550
 4019TIP3    H212064   0.988   5.062   4.443 -1.5211  0.4401  0.2930
 4020TIP3   OH212065   3.063   4.578   1.771  0.1947 -0.1360  0.3305
 4020TIP3    H112066   3.000   4.594   1.841 -1.3210 -2.9859 -0.2658
 4020TIP3    H212067   3.075   4.483   1.769 -0.0769 -0.2513 -3.4197
 4021TIP3   OH212068   3.373   3.328   0.059  0.6573  0.2130  0.6266
 4021TIP3    H112069   3.396   3.283   0.139  1.0103  1.3204  1.1751
 4021TIP3    H212070   3.313   3.397   0.086  0.0394  0.0146 -0.1970
 4022TIP3   OH212071   2.620   5.694   1.930 -0.1000 -1.0073  0.2237
 4022TIP3    H112072   2.598   5.694   1.837  1.2625 -0.0549 -0.1214
 4022TIP3    H212073   2.544   5.653   1.972 -1.5344  0.1832 -1.0958
 4023TIP3   OH212074   5.494   1.351   4.033  0.3899  0.0028  0.5764
 4023TIP3    H112075   5.447   1.370   3.952 -1.8285 -1.9305  1.2874
 4023TIP3    H212076   5.570   1.409   4.031 -0.3516  1.0427 -2.1697
 4024TIP3   OH212077   1.717   2.576   2.419  0.1849  0.3259 -0.3782
 4024TIP3    H112078   1.656   2.566   2.346  2.6394 -0.8799 -2.3963
 4024TIP3    H212079   1.761   2.659   2.402 -1.2693  1.5976  1.5037
 4025TIP3   OH212080   6.070   4.658   1.238  0.1054 -0.1351  0.0794
 4025TIP3    H112081   6.154   4.702   1.253 -0.9498  1.4631  1.6744
 4025TIP3    H212082   6.049   4.618   1.322 -0.3003 -1.3579 -0.5837
 4026TIP3   OH212083   3.503   1.362   5.125  0.1637 -0.2496 -0.2946
 4026TIP3    H112084   3.565   1.380   5.195  0.3847 -0.2437 -0.4902
 4026TIP3    H212085   3.435   1.309   5.166  0.3516 -0.3412 -0.1011
 4027TIP3   OH212086   5.582   2.629   4.063  0.4229 -0.1217 -0.1677
 4027TIP3    H112087   5.583   2.534   4.074  0.2243 -0.2767 -1.3550
 4027TIP3    H212088   5.624   2.663   4.142 -0.0224 -1.1633  0.5361
 4028TIP3   OH212089   3.267   2.445   2.856  0.3033  0.1228  0.1458
 4028TIP3    H112090   3.338   2.509   2.851  0.6573 -0.2561  0.2909
 4028TIP3    H212091   3.192   2.490   2.817  0.8662  0.1831 -0.8990
 4029TIP3   OH212092   2.439   5.937   4.961 -0.4858  0.1997  0.4032
 4029TIP3    H112093   2.455   6.004   5.028 -1.6382 -0.0550  0.9651
 4029TIP3    H212094   2.353   5.902   4.983  0.5904 -2.3482  0.8649
 4030TIP3   OH212095   0.093   1.691   2.424  0.0668 -0.5993 -0.1868
 4030TIP3    H112096   0.041   1.767   2.450  1.7560  0.0762  1.5253
 4030TIP3    H212097   0.101   1.638   2.504  1.5043 -0.9329 -0.5125
 4031TIP3   OH212098   2.050   2.701   2.800 -0.0362  0.0101  0.5428
 4031TIP3    H112099   1.973   2.645   2.807  0.3191 -0.3664  1.7092
 4031TIP3    H212100   2.107   2.656   2.737 -1.4976  1.2314 -1.7887
 4032TIP3   OH212101   4.096   4.047   3.545  0.5467 -0.1035 -0.3053
 4032TIP3    H112102   4.123   4.137   3.565 -0.5973  0.3864 -0.8676
 4032TIP3    H212103   4.146   4.023   3.467 -0.8596  0.9446 -1.5881
 4033TIP3   OH212104   0.502   0.321   2.442  0.1972 -0.5757  0.0648
 4033TIP3    H112105   0.408   0.329   2.424  0.1530  0.3359  0.6509
 4033TIP3    H212106   0.511   0.237   2.487 -0.6918  0.4088  2.1864
 4034TIP3   OH212107   6.160   1.066   3.036  0.0282  0.0512 -0.1774
 4034TIP3    H112108   6.113   1.017   2.969  2.5103 -0.7147 -1.4847
 4034TIP3    H212109   6.253   1.053   3.015  0.8769  1.3474  2.3188
 4035TIP3   OH212110   2.742   5.972   3.302  0.2710 -0.3746  0.7681
 4035TIP3    H112111   2.755   5.882   3.332 -0.3673 -1.1937 -1.2585
 4035TIP3    H212112   2.688   6.013   3.369  0.4291 -1.5538  1.6329
 4036TIP3   OH212113   3.316   5.941   1.940  0.1374 -0.0954  0.3470
 4036TIP3    H112114   3.409   5.953   1.925 -0.1320  0.9392 -0.7472
 4036TIP3    H212115   3.288   6.023   1.982 -0.4015 -0.0698 -0.0456
 4037TIP3   OH212116   0.127   0.937   3.843  0.0461  0.1542  0.1036
 4037TIP3    H112117   0.080   0.915   3.924  0.3537 -0.6004  0.0828
 4037TIP3    H212118   0.217   0.951   3.871  0.3843 -1.1771 -0.2432
 4038TIP3   OH212119   2.005   0.543   2.140  0.2802  0.4199 -0.6587
 4038TIP3    H112120   1.913   0.544   2.113 -0.0307  0.1787  0.3338
 4038TIP3    H212121   2.051   0.591   2.072 -0.3358 -0.8650 -2.0291
 4039TIP3   OH212122   5.783   2.903   1.450 -0.4626  0.1242  0.3462
 4039TIP3    H112123   5.690   2.883   1.459 -1.1086  2.5043 -0.1718
 4039TIP3    H212124   5.788   2.958   1.371  1.5549 -0.8185 -0.2575
 4040TIP3   OH212125   4.199   4.409   2.906 -0.0135 -0.6600  0.6882
 4040TIP3    H112126   4.252   4.341   2.865 -0.2748 -1.4564  1.6169
 4040TIP3    H212127   4.112   4.370   2.915 -0.2055 -0.1570  1.0963
 4041TIP3   OH212128   4.043   0.430   2.560 -0.5480 -0.3426 -0.9225
 4041TIP3    H112129   3.997   0.401   2.639  1.0939  1.5868  0.8345
 4041TIP3    H212130   4.062   0.349   2.513  0.0149 -1.7707  1.5667
 4042TIP3   OH212131   5.496   4.585   4.424 -0.0599  0.7133 -0.1294
 4042TIP3    H112132   5.439   4.629   4.487  2.0751  1.5770  1.3224
 4042TIP3    H212133   5.567   4.648   4.408  1.2321 -0.8342 -0.7438
 4043TIP3   OH212134   6.090   1.508   3.672 -0.1354 -0.0711  0.2890
 4043TIP3    H112135   6.100   1.514   3.577  0.4332 -0.9099  0.2842
 4043TIP3    H212136   6.159   1.564   3.707 -0.7876  0.7993  0.2148
 4044TIP3   OH212137   5.049   4.105   2.448 -0.0449 -0.2561  0.2437
 4044TIP3    H112138   4.996   4.061   2.381  1.2624 -0.0996 -0.9207
 4044TIP3    H212139   5.025   4.197   2.441  0.0647 -0.2455  0.0191
 4045TIP3   OH212140   2.309   0.086   4.780  0.2810  0.0457  0.3030
 4045TIP3    H112141   2.384   0.142   4.801  0.9735 -1.3071  1.5563
 4045TIP3    H212142   2.250   0.096   4.855 -1.4125  2.0032 -1.1751
 4046TIP3   OH212143   0.528   2.268   1.397 -0.1814  0.2421 -0.0580
 4046TIP3    H112144   0.615   2.278   1.437 -0.8701  0.6783  1.3832
 4046TIP3    H212145   0.529   2.329   1.323  1.2854 -0.9244 -1.0667
 4047TIP3   OH212146   4.085   4.237   5.009 -0.1014  0.6609 -0.4300
 4047TIP3    H112147   4.162   4.212   5.060  0.1760  0.9948 -0.6815
 4047TIP3    H212148   4.088   4.181   4.931  0.8940  1.8984 -1.3286
 4048TIP3   OH212149   0.606   5.151   2.791 -0.1786 -0.2319 -0.2487
 4048TIP3    H112150   0.550   5.087   2.747  0.5769  0.2310 -1.9196
 4048TIP3    H212151   0.545   5.220   2.819 -0.3209  1.3653 -3.9809
 4049TIP3   OH212152   3.898   4.875   0.415  0.4042  0.3109  0.5358
 4049TIP3    H112153   3.904   4.869   0.320  1.7293 -0.1955  0.6208
 4049TIP3    H212154   3.839   4.948   0.432 -0.3973 -0.0348 -0.6644
 4050TIP3   OH212155   2.959   4.976   2.167  0.8480  0.3966 -0.3252
 4050TIP3    H112156   3.036   4.921   2.155  0.8250 -0.0011  1.1213
 4050TIP3    H212157   2.928   4.954   2.255 -1.8063 -0.5883 -1.4031
 4051TIP3   OH212158   0.059   5.970   3.418  0.9364 -0.7328  0.6849
 4051TIP3    H112159   0.074   5.953   3.325 -0.2183 -0.2239  0.3896
 4051TIP3    H212160  -0.036   5.965   3.428  0.7835  1.9592  1.2629
 4052TIP3   OH212161   1.925   1.243   0.652 -0.4979 -0.1691  0.0257
 4052TIP3    H112162   1.980   1.308   0.608  1.4426 -0.8622  1.2857
 4052TIP3    H212163   1.850   1.292   0.686 -0.2831  0.9515 -1.0802
 4053TIP3   OH212164   2.058   3.444   0.207  0.0868 -1.0984  0.3061
 4053TIP3    H112165   2.131   3.492   0.167 -0.7220  1.0421  1.2388
 4053TIP3    H212166   2.000   3.425   0.134  0.7634 -1.3039 -0.1921
 4054TIP3   OH212167   1.999   3.761   1.555 -0.4599  0.6688  0.0509
 4054TIP3    H112168   2.094   3.768   1.550 -0.1612 -1.4895  1.2985
 4054TIP3    H212169   1.975   3.813   1.632 -0.3333  1.3422 -0.3541
 4055TIP3   OH212170   5.878   5.318   2.901 -0.0339 -0.3444 -0.7129
 4055TIP3    H112171   5.819   5.314   2.977 -1.2469  3.2388 -1.2601
 4055TIP3    H212172   5.965   5.308   2.938 -0.6179  0.8675  1.1644
 4056TIP3   OH212173   1.132   2.206   1.748  0.3095 -0.1673  0.3596
 4056TIP3    H112174   1.142   2.269   1.819 -1.0103 -0.0069  0.4279
 4056TIP3    H212175   1.038   2.205   1.730  0.6755  0.3398 -1.8652
 4057TIP3   OH212176   3.389   3.568   5.197  1.3014 -0.0757  0.6622
 4057TIP3    H112177   3.420   3.625   5.127 -1.0643  0.8780  0.2704
 4057TIP3    H212178   3.347   3.495   5.152 -0.1431  0.4890  1.0413
 4058TIP3   OH212179   1.090   2.218   4.229  0.2488  0.2206 -0.2711
 4058TIP3    H112180   1.057   2.146   4.282  1.6367  0.0975  0.4759
 4058TIP3    H212181   1.014   2.275   4.216 -0.2776 -0.0499  1.3562
 4059TIP3   OH212182   0.889   4.031   4.817  0.3745  0.0074 -0.1185
 4059TIP3    H112183   0.815   3.998   4.766 -0.1647 -0.5202  0.9654
 4059TIP3    H212184   0.851   4.101   4.871  1.3654  2.0985 -1.9375
 4060TIP3   OH212185   4.935   4.662   1.893 -0.0402 -0.0886  0.8869
 4060TIP3    H112186   5.031   4.661   1.899  0.2983  0.5911 -2.4231
 4060TIP3    H212187   4.915   4.587   1.836 -1.3021  0.7235  0.2305
 4061TIP3   OH212188   2.286   1.521   3.629 -0.1097 -0.4108  0.1588
 4061TIP3    H112189   2.191   1.519   3.620 -0.4289  0.9729  2.5380
 4061TIP3    H212190   2.303   1.484   3.715  1.4306  0.2371  0.1629
 4062TIP3   OH212191   6.046   1.510   4.952  0.4295  0.2134  0.3421
 4062TIP3    H112192   6.091   1.514   4.868 -0.0506 -0.2922  0.0576
 4062TIP3    H212193   6.009   1.422   4.956 -1.3775  0.9314  0.1419
 4063TIP3   OH212194   2.350   3.814   3.794  0.8570 -0.2081 -0.0671
 4063TIP3    H112195   2.289   3.795   3.866  1.4633  1.0568  0.8124
 4063TIP3    H212196   2.351   3.733   3.742 -0.1350 -0.9070  0.9408
 4064TIP3   OH212197   2.667   5.762   0.631 -0.1516  0.3649  0.5673
 4064TIP3    H112198   2.698   5.716   0.553  0.8669 -1.8174  2.1376
 4064TIP3    H212199   2.737   5.823   0.653 -0.3505  0.8341 -0.0797
 4065TIP3   OH212200   0.388   0.630   0.274 -0.0778 -0.4359 -0.7329
 4065TIP3    H112201   0.391   0.696   0.205  1.4973 -1.4764 -1.7026
 4065TIP3    H212202   0.477   0.596   0.279  0.0271  0.0178  2.2434
 4066TIP3   OH212203   5.868   5.738   2.920  0.1036  0.5974  0.1086
 4066TIP3    H112204   5.942   5.727   2.980 -0.7893 -0.0742  1.1159
 4066TIP3    H212205   5.909   5.746   2.834  1.3906  1.1501  0.7417
 4067TIP3   OH212206   1.083   3.714   3.195  0.1812 -0.3581  0.0208
 4067TIP3    H112207   1.024   3.757   3.133  0.1801 -0.3807  0.0061
 4067TIP3    H212208   1.057   3.622   3.193  0.2535 -0.3778 -0.0279
 4068TIP3   OH212209   1.990   4.788   0.292 -0.2507 -0.1465 -1.1652
 4068TIP3    H112210   2.055   4.722   0.268  2.6227  0.8659  2.8360
 4068TIP3    H212211   1.910   4.738   0.311 -0.0081 -1.7064 -3.7226
 4069TIP3   OH212212   1.135   1.073   3.196 -0.6335 -0.3285  0.7172
 4069TIP3    H112213   1.198   1.123   3.145 -0.9081  0.1289  0.8271
 4069TIP3    H212214   1.078   1.032   3.131 -0.1013 -0.9172  0.6077
 4070TIP3   OH212215   5.523   1.314   3.398 -0.1068 -0.2533 -0.0579
 4070TIP3    H112216   5.593   1.257   3.366 -0.0764  1.1276 -2.7240
 4070TIP3    H212217   5.559   1.352   3.478  1.5230 -0.8534 -0.4524
 4071TIP3   OH212218   3.452   5.733   4.362 -0.0784  0.0592  0.0642
 4071TIP3    H112219   3.542   5.761   4.376  0.1054 -1.1273  1.4717
 4071TIP3    H212220   3.445   5.717   4.268  0.6870  1.7117 -0.3103
 4072TIP3   OH212221   2.955   3.777   1.966  0.4538  0.0469 -0.2232
 4072TIP3    H112222   2.889   3.823   1.914 -0.1894 -2.0257 -1.3494
 4072TIP3    H212223   2.937   3.805   2.056 -0.0753  1.7290 -0.8052
 4073TIP3   OH212224   0.321   0.262   0.526  0.1565 -0.0213 -0.0475
 4073TIP3    H112225   0.373   0.280   0.448 -0.9061  0.0657 -0.7509
 4073TIP3    H212226   0.332   0.169   0.542 -1.2774 -0.4955 -1.5633
 4074TIP3   OH212227   3.247   3.752   0.396  0.1097 -0.3933  0.0366
 4074TIP3    H112228   3.243   3.672   0.344  0.9360 -0.5247  0.1671
 4074TIP3    H212229   3.304   3.811   0.347 -0.8797  0.3058 -0.3004
 4075TIP3   OH212230   0.401   1.346   0.059  0.0573  0.0026 -0.3149
 4075TIP3    H112231   0.475   1.318   0.113  0.3207  1.5693  0.2196
 4075TIP3    H212232   0.364   1.421   0.107  0.7342  1.9398 -2.6052
 4076TIP3   OH212233   4.885   4.939   1.858 -0.0205 -0.4925  0.0731
 4076TIP3    H112234   4.949   4.872   1.883 -2.3214 -2.5950  0.7633
 4076TIP3    H212235   4.864   4.984   1.939  0.4006  0.0533 -0.1144
 4077TIP3   OH212236   2.360   1.227   4.638 -0.0553  0.2826  0.2493
 4077TIP3    H112237   2.402   1.146   4.666  2.1539  1.2614 -0.0251
 4077TIP3    H212238   2.339   1.273   4.720  0.5522  0.3301  0.3788
 4078TIP3   OH212239   2.618   2.531   4.721 -0.0204  0.3817  0.3492
 4078TIP3    H112240   2.524   2.515   4.728 -0.1600  1.6645  2.9527
 4078TIP3    H212241   2.626   2.600   4.656 -0.9337  0.5030  0.3467
 4079TIP3   OH212242   3.042   3.069   5.064 -0.2998  0.3050  0.3454
 4079TIP3    H112243   3.025   2.975   5.072  2.8728 -0.5608 -1.3106
 4079TIP3    H212244   3.007   3.093   4.978 -1.4931  0.7797  0.9474
 4080TIP3   OH212245   0.546   3.872   0.611 -0.4375 -0.2729  0.2530
 4080TIP3    H112246   0.575   3.828   0.531  1.3665 -1.2572  1.3692
 4080TIP3    H212247   0.615   3.936   0.630 -1.6196  1.0662  0.2077
 4081TIP3   OH212248   0.844   4.950   3.217  1.2776 -0.3890 -0.5916
 4081TIP3    H112249   0.797   4.999   3.149 -0.9465 -2.4478 -0.6958
 4081TIP3    H212250   0.897   4.886   3.168 -2.0963 -3.4794 -0.6656
 4082TIP3   OH212251   3.714   5.888   3.405  0.5816  0.3495 -0.1175
 4082TIP3    H112252   3.730   5.793   3.405 -0.6672  0.1277  0.0736
 4082TIP3    H212253   3.652   5.903   3.334 -0.1752  0.8393  0.6205
 4083TIP3   OH212254   1.010   4.857   5.155 -0.0971  0.8518 -0.0721
 4083TIP3    H112255   1.059   4.939   5.154 -1.6123  1.8195  0.7831
 4083TIP3    H212256   0.954   4.862   5.077 -1.0030  1.1911  0.5764
 4084TIP3   OH212257   2.463   2.225   0.269  0.2010 -0.7984 -0.1791
 4084TIP3    H112258   2.479   2.132   0.284  0.1594 -0.7304  0.3167
 4084TIP3    H212259   2.500   2.242   0.183  2.2432 -0.8059  0.6254
 4085TIP3   OH212260   3.167   1.022   4.879 -0.1904  0.4973 -0.0283
 4085TIP3    H112261   3.158   0.980   4.793  1.1851 -0.2999  0.1836
 4085TIP3    H212262   3.239   1.084   4.868  0.9964 -0.6391  0.8664
 4086TIP3   OH212263   4.596   0.264   4.793 -0.1933 -0.2639  0.5886
 4086TIP3    H112264   4.654   0.303   4.859 -0.5257  0.9274  0.1955
 4086TIP3    H212265   4.510   0.301   4.810 -0.4406 -0.5136 -0.0570
 4087TIP3   OH212266   4.956   1.541   0.869  0.3432  0.8037  0.0557
 4087TIP3    H112267   4.977   1.448   0.869  0.9253  0.9348  0.0616
 4087TIP3    H212268   4.868   1.546   0.830  0.3022  0.2546  0.0777
 4088TIP3   OH212269   0.781   4.425   4.974  0.2636  0.2093  0.4356
 4088TIP3    H112270   0.753   4.345   4.929 -1.0993 -0.0166  1.6241
 4088TIP3    H212271   0.863   4.401   5.017  0.4257 -0.2205 -0.0984
 4089TIP3   OH212272   4.269   4.595   2.673 -0.9764 -0.0087 -0.6498
 4089TIP3    H112273   4.189   4.568   2.718  0.3170  0.9182  2.5080
 4089TIP3    H212274   4.337   4.538   2.709 -0.1097 -0.6181 -3.0901
 4090TIP3   OH212275   2.263   2.502   3.135  0.3217 -0.0446 -0.1094
 4090TIP3    H112276   2.291   2.575   3.190  0.7455 -0.3611  0.1032
 4090TIP3    H212277   2.325   2.432   3.155  0.7937 -0.0083 -1.3562
 4091TIP3   OH212278   3.762   0.341   2.125 -0.4698  0.4665 -0.7031
 4091TIP3    H112279   3.803   0.428   2.124  3.2741 -1.0299  1.2056
 4091TIP3    H212280   3.710   0.341   2.206  0.0830  0.7197 -0.3381
 4092TIP3   OH212281   5.097   4.813   4.219 -0.2441  0.3033  0.3700
 4092TIP3    H112282   5.155   4.888   4.205  0.3523 -0.3821 -1.0128
 4092TIP3    H212283   5.023   4.829   4.161 -0.6483  0.3380  0.8837
 4093TIP3   OH212284   1.952   5.027   0.200  0.1377 -0.5550  0.0546
 4093TIP3    H112285   1.968   4.941   0.238 -0.8041 -0.7208  0.0897
 4093TIP3    H212286   1.993   5.088   0.262 -0.2287 -0.9068  0.6562
 4094TIP3   OH212287   4.747   5.796   2.448 -0.2478 -0.6358  0.3178
 4094TIP3    H112288   4.662   5.758   2.471  0.1655 -1.2845  0.8462
 4094TIP3    H212289   4.805   5.767   2.519  0.3450  0.0544  0.1272
 4095TIP3   OH212290   1.759   0.936   3.008 -0.5390  0.1887  0.0469
 4095TIP3    H112291   1.786   0.940   2.917  1.2118 -0.9372  0.4724
 4095TIP3    H212292   1.667   0.910   3.004 -0.2797 -0.6056 -1.3812
 4096TIP3   OH212293   3.991   1.926   1.101 -0.0810 -0.3368  0.1416
 4096TIP3    H112294   3.989   1.950   1.194 -1.7648  0.3454 -0.0404
 4096TIP3    H212295   3.968   2.006   1.054 -1.5084 -1.2093 -0.7226
 4097TIP3   OH212296   4.349   3.040   3.428 -0.1490 -0.9134 -0.1413
 4097TIP3    H112297   4.261   3.072   3.451 -1.3092 -1.0008 -3.8045
 4097TIP3    H212298   4.405   3.116   3.439 -0.8510 -0.5620  1.2557
 4098TIP3   OH212299   5.730   5.422   4.285 -0.2387 -0.5418  0.1141
 4098TIP3    H112300   5.744   5.328   4.297 -0.6195 -0.7409 -0.9307
 4098TIP3    H212301   5.750   5.438   4.193 -1.0451  0.2418  0.0609
 4099TIP3   OH212302   6.248   5.350   1.867  0.4360 -0.4496 -0.1084
 4099TIP3    H112303   6.207   5.425   1.911  1.0649 -0.3577  0.3444
 4099TIP3    H212304   6.183   5.281   1.870 -0.0372 -0.0146 -0.2552
 4100TIP3   OH212305   0.134   4.178   4.798 -0.4198 -0.0242 -0.2111
 4100TIP3    H112306   0.083   4.179   4.717  2.3791 -0.5581 -2.1044
 4100TIP3    H212307   0.133   4.086   4.825 -0.3405 -0.0594 -0.3277
 4101TIP3   OH212308   1.762   0.432   3.748  0.0777  1.3290 -0.4277
 4101TIP3    H112309   1.841   0.486   3.753  0.5246  0.5462  1.5725
 4101TIP3    H212310   1.701   0.472   3.810 -0.0394  0.2697  0.1620
 4102TIP3   OH212311   1.356   5.029   4.465 -0.2129  0.4452  0.2103
 4102TIP3    H112312   1.427   5.094   4.469  1.4194 -1.2020 -0.2780
 4102TIP3    H212313   1.326   5.032   4.375  0.1723  0.2266  0.0714
 4103TIP3   OH212314   0.319   1.637   3.724 -0.5157  0.1135  0.4833
 4103TIP3    H112315   0.290   1.680   3.644  0.6832 -2.4687 -1.4955
 4103TIP3    H212316   0.331   1.708   3.787 -1.3344  2.2674 -1.6654
 4104TIP3   OH212317   4.320   2.741   2.599  0.3999 -0.0251  0.1574
 4104TIP3    H112318   4.297   2.808   2.535  2.2869  1.5802  1.0112
 4104TIP3    H212319   4.366   2.674   2.549 -0.2833  0.0069 -0.5184
 4105TIP3   OH212320  -0.004   2.782   3.639 -0.5659  0.2161 -0.1835
 4105TIP3    H112321   0.046   2.752   3.563  0.7674  0.3465  0.5946
 4105TIP3    H212322   0.025   2.873   3.652 -1.2279  0.3894  0.1106
 4106TIP3   OH212323   3.127   4.500   2.103  0.2911  0.4152 -0.6019
 4106TIP3    H112324   3.047   4.486   2.154  0.5573  0.6823 -0.1019
 4106TIP3    H212325   3.109   4.577   2.050 -0.5870 -0.8000 -2.1540
 4107TIP3   OH212326   0.572   0.590   4.120 -0.7756  0.5924  0.2714
 4107TIP3    H112327   0.536   0.505   4.146 -1.3371  0.6057 -0.4358
 4107TIP3    H212328   0.524   0.654   4.173 -0.0391  0.4561  1.1337
 4108TIP3   OH212329   5.253   2.441   3.309 -0.2346 -0.1550 -0.1002
 4108TIP3    H112330   5.190   2.405   3.371  0.4135 -0.7919  0.2133
 4108TIP3    H212331   5.201   2.468   3.234 -0.8469 -0.9650  0.0157
 4109TIP3   OH212332   5.779   3.575   4.137  0.0311 -0.4923  0.1268
 4109TIP3    H112333   5.803   3.625   4.060  1.2766  0.7503  1.2567
 4109TIP3    H212334   5.863   3.541   4.170 -0.3735 -0.3652  1.3282
 4110TIP3   OH212335   3.930   2.671   0.639  0.0289  0.3736  0.1439
 4110TIP3    H112336   3.856   2.717   0.600 -0.6253 -1.9412 -1.5769
 4110TIP3    H212337   4.007   2.711   0.597 -0.4912  0.2278 -1.0038
 4111TIP3   OH212338   5.545   2.237   4.622 -0.1632  0.1132 -0.3672
 4111TIP3    H112339   5.598   2.251   4.543 -0.0342 -0.7620 -0.4440
 4111TIP3    H212340   5.507   2.151   4.610 -1.4396  0.6390 -0.2010
 4112TIP3   OH212341   2.039   4.322   0.671 -0.6957 -0.1970  0.3477
 4112TIP3    H112342   2.025   4.243   0.722  0.2520 -0.8992 -0.4496
 4112TIP3    H212343   2.133   4.324   0.653 -0.3508  2.0745  1.8739
 4113TIP3   OH212344   5.877   0.521   4.917  0.3160  0.3125  0.2609
 4113TIP3    H112345   5.802   0.487   4.966 -0.5580  2.9868  0.9255
 4113TIP3    H212346   5.845   0.602   4.877  2.3410  0.5571 -0.9685
 4114TIP3   OH212347   1.007   2.028   2.091 -0.3338  0.3323  0.4033
 4114TIP3    H112348   1.010   2.080   2.172  1.1560  1.5115 -0.3463
 4114TIP3    H212349   1.057   1.949   2.112  1.1980  1.2346  0.2786
 4115TIP3   OH212350   3.015   5.230   0.841 -0.4567  0.6684 -0.2832
 4115TIP3    H112351   3.052   5.277   0.916  0.0989  0.2478 -0.2936
 4115TIP3    H212352   2.933   5.194   0.874 -0.5846  1.1158 -0.0950
 4116TIP3   OH212353   0.487   2.668   4.189  0.3796  0.4300 -0.1310
 4116TIP3    H112354   0.524   2.586   4.159  1.2946  0.3041  1.2608
 4116TIP3    H212355   0.493   2.664   4.285 -1.9073  1.0302  0.0936
 4117TIP3   OH212356   3.932   3.515   1.429 -0.1128 -0.4213 -0.0840
 4117TIP3    H112357   3.851   3.566   1.425 -1.7057 -2.7515  0.3710
 4117TIP3    H212358   3.961   3.508   1.338  0.0192  1.0790 -0.1683
 4118TIP3   OH212359   1.089   3.121   0.666 -0.2560 -0.0797 -0.5236
 4118TIP3    H112360   1.051   3.039   0.634 -1.7079  0.0848  0.6829
 4118TIP3    H212361   1.025   3.188   0.644 -0.2255  0.3608  0.6532
 4119TIP3   OH212362   4.652   4.211   5.096 -0.2161 -0.1103 -0.3799
 4119TIP3    H112363   4.621   4.185   5.183  1.1841 -1.0927 -0.1441
 4119TIP3    H212364   4.695   4.295   5.109  2.6637 -1.5959  0.5427
 4120TIP3   OH212365   5.287   1.546   1.502  0.7097 -0.0028 -0.3405
 4120TIP3    H112366   5.246   1.553   1.416 -1.8907 -0.2766  0.7828
 4120TIP3    H212367   5.296   1.637   1.531  0.2637  0.0540 -0.3617
 4121TIP3   OH212368   5.292   0.231   2.050 -0.0025  0.4772 -0.1047
 4121TIP3    H112369   5.300   0.326   2.041 -0.9906  0.4523 -1.6309
 4121TIP3    H212370   5.261   0.202   1.964  0.6040 -1.2677  0.2426
 4122TIP3   OH212371   4.280   1.294   4.123  0.0570  0.3017 -0.2422
 4122TIP3    H112372   4.235   1.224   4.076  0.7743  0.4857 -1.2245
 4122TIP3    H212373   4.235   1.298   4.208 -1.4046  0.0918 -0.9649
 4123TIP3   OH212374   6.070   5.874   3.203 -0.5853  0.0090 -0.0341
 4123TIP3    H112375   6.138   5.904   3.143  0.7445 -1.2517  0.7591
 4123TIP3    H212376   6.109   5.885   3.290 -2.2490  1.2618  0.6025
 4124TIP3   OH212377   1.526   1.208   3.031 -0.1924 -0.3322 -0.4286
 4124TIP3    H112378   1.601   1.247   2.986 -0.6336  0.5379 -0.4512
 4124TIP3    H212379   1.562   1.169   3.110  0.4423 -0.9414 -1.0100
 4125TIP3   OH212380   0.890   0.938   2.153 -0.1490  0.2342 -0.9963
 4125TIP3    H112381   0.873   0.958   2.245 -0.0192  1.7996 -1.3010
 4125TIP3    H212382   0.978   0.898   2.154  0.2179  1.0255 -0.5323
 4126TIP3   OH212383   5.609   1.418   1.219 -0.2551 -0.0421 -0.0645
 4126TIP3    H112384   5.561   1.454   1.145 -0.7116  1.0772  0.7603
 4126TIP3    H212385   5.625   1.492   1.277  0.3386 -0.8407  0.8333
 4127TIP3   OH212386   0.158   2.562   0.575 -0.1867 -0.2665  0.0834
 4127TIP3    H112387   0.070   2.581   0.607  0.2552 -0.8309  1.7747
 4127TIP3    H212388   0.145   2.526   0.487 -1.7049 -0.9095  0.5351
 4128TIP3   OH212389   0.100   1.855   0.260  0.1231  0.1992 -0.2470
 4128TIP3    H112390   0.164   1.855   0.331 -1.2844  0.2295  1.0830
 4128TIP3    H212391   0.073   1.946   0.252 -0.7167 -0.0049  0.1456
 4129TIP3   OH212392   0.644   1.790   2.752  0.6935  0.3600 -0.5562
 4129TIP3    H112393   0.734   1.797   2.784  0.4222  3.3528 -0.2001
 4129TIP3    H212394   0.648   1.723   2.684  3.6945  1.9232 -2.1103
 4130TIP3   OH212395   0.927   4.475   3.960 -0.6360 -0.3732  0.9933
 4130TIP3    H112396   0.842   4.431   3.958 -1.0625  0.4076 -1.4606
 4130TIP3    H212397   0.991   4.404   3.954 -0.9483 -1.0863  4.2799
 4131TIP3   OH212398   3.591   5.332   4.768  0.4154 -0.1497 -0.1045
 4131TIP3    H112399   3.598   5.396   4.697 -0.5833 -0.0591 -0.1347
 4131TIP3    H212400   3.504   5.347   4.806 -0.0141 -1.7669 -0.3782
 4132TIP3   OH212401   3.699   0.760   2.300 -0.7453  0.1535  0.0339
 4132TIP3    H112402   3.749   0.707   2.238  1.6996  2.7058 -0.3645
 4132TIP3    H212403   3.737   0.740   2.385 -1.2367 -0.2334  0.1670
 4133TIP3   OH212404   1.223   2.226   2.037  0.5339 -0.4556  0.3823
 4133TIP3    H112405   1.296   2.175   2.072 -0.0767 -0.5885  1.5110
 4133TIP3    H212406   1.147   2.169   2.047  0.0310  0.2391  0.6006
 4134TIP3   OH212407   3.643   5.009   1.862 -0.1220 -0.0873  0.1087
 4134TIP3    H112408   3.676   4.947   1.798  2.7006  1.3428  0.0482
 4134TIP3    H212409   3.595   5.074   1.809  0.2209 -0.1544 -0.2932
 4135TIP3   OH212410   1.102   3.374   1.260 -0.1369 -0.4473  0.0912
 4135TIP3    H112411   1.167   3.338   1.199 -0.4800 -0.3526 -0.3345
 4135TIP3    H212412   1.155   3.408   1.333  0.3423  0.1480 -0.5171
 4136TIP3   OH212413   2.299   5.663   4.450 -0.0590  0.3523  0.2807
 4136TIP3    H112414   2.218   5.663   4.502  0.9295  2.2285  1.9675
 4136TIP3    H212415   2.270   5.686   4.361 -1.3586  1.4381  0.9389
 4137TIP3   OH212416   3.045   2.519   0.824 -0.2478  0.1999 -0.3228
 4137TIP3    H112417   2.965   2.550   0.864  0.1949 -0.0587  0.7964
 4137TIP3    H212418   3.047   2.561   0.738 -1.5782  0.1891 -0.3792
 4138TIP3   OH212419   3.730   1.741   4.545  0.0634 -0.1681 -0.7620
 4138TIP3    H112420   3.721   1.836   4.545  0.2263 -0.0891  1.6510
 4138TIP3    H212421   3.797   1.723   4.479  1.3516  1.5681 -0.0003
 4139TIP3   OH212422   1.418   4.637   1.947 -0.7900  0.2729  0.3669
 4139TIP3    H112423   1.465   4.668   1.870 -1.9633  0.3227 -0.3433
 4139TIP3    H212424   1.481   4.581   1.992 -0.2797 -0.2356 -0.9361
 4140TIP3   OH212425   3.513   2.701   3.942  0.4082 -0.1524  0.3124
 4140TIP3    H112426   3.583   2.667   3.998  0.9985  1.3544  0.5333
 4140TIP3    H212427   3.559   2.749   3.873 -0.3801  1.6054  0.9446
 4141TIP3   OH212428   5.742   4.337   2.503 -0.7022 -1.0279 -0.4063
 4141TIP3    H112429   5.753   4.428   2.474 -2.1014 -0.7888 -0.2735
 4141TIP3    H212430   5.720   4.345   2.596  3.0810 -1.7460  0.7358
 4142TIP3   OH212431   0.321   5.047   2.119 -0.3813 -0.0623  0.5363
 4142TIP3    H112432   0.354   5.068   2.032  0.0768 -0.2916  0.6510
 4142TIP3    H212433   0.250   4.985   2.103 -0.4983  0.1313  0.3067
 4143TIP3   OH212434   1.311   3.897   4.192 -0.0463  0.0007  0.1196
 4143TIP3    H112435   1.221   3.867   4.178  0.1942  0.0108 -1.6920
 4143TIP3    H212436   1.362   3.855   4.122  1.1303  0.9937  0.3401
 4144TIP3   OH212437   2.611   1.576   3.686 -0.1304  0.4192 -0.6999
 4144TIP3    H112438   2.667   1.562   3.609 -1.0920 -0.6180 -1.2464
 4144TIP3    H212439   2.534   1.522   3.669 -0.0721 -0.3749  1.3046
 4145TIP3   OH212440   3.366   4.117   1.756 -0.6523  0.0213  0.3294
 4145TIP3    H112441   3.357   4.114   1.661  0.5410 -1.0431  0.2167
 4145TIP3    H212442   3.449   4.072   1.774 -2.3788 -2.7528  2.0920
 4146TIP3   OH212443   1.221   4.614   4.154 -0.6403 -0.2272 -0.5441
 4146TIP3    H112444   1.185   4.617   4.066  1.1757 -0.9407 -1.3663
 4146TIP3    H212445   1.205   4.702   4.189 -0.1633  0.5287 -2.1147
 4147TIP3   OH212446   4.097   1.079   4.842  0.1800 -0.4926  0.0566
 4147TIP3    H112447   4.192   1.066   4.846  0.3170  0.4089 -0.2649
 4147TIP3    H212448   4.079   1.145   4.909  0.0230  0.7172 -1.1579
 4148TIP3   OH212449   1.638   3.761   4.238 -0.4753 -0.4412 -0.0246
 4148TIP3    H112450   1.598   3.712   4.309 -0.0187 -1.6173 -0.5554
 4148TIP3    H212451   1.712   3.707   4.209  0.8625  1.1607  0.2201
 4149TIP3   OH212452   3.801   4.489   2.705  0.0946  0.0362 -0.2761
 4149TIP3    H112453   3.813   4.583   2.714  1.1784  0.3427 -3.6938
 4149TIP3    H212454   3.718   4.471   2.750 -1.1730  2.9732 -1.2363
 4150TIP3   OH212455   5.989   2.906   0.655  0.0880 -0.1374  0.4081
 4150TIP3    H112456   6.058   2.915   0.590 -0.6047  1.0196 -0.1957
 4150TIP3    H212457   6.030   2.859   0.727  0.9056 -1.3823 -0.8089
 4151TIP3   OH212458   3.326   1.317   4.507 -0.1352  0.1392 -0.0998
 4151TIP3    H112459   3.332   1.311   4.602  0.4394  1.4276 -0.0341
 4151TIP3    H212460   3.416   1.328   4.477 -0.4588  1.9237 -0.5839
 4152TIP3   OH212461   5.777   1.688   4.548 -0.6257  0.4199  0.4725
 4152TIP3    H112462   5.830   1.767   4.542 -0.7024  0.5608  1.5024
 4152TIP3    H212463   5.688   1.718   4.526 -0.5694  0.5222  0.3841
 4153TIP3   OH212464   2.329   2.374   0.054 -0.3631  0.0980 -0.0155
 4153TIP3    H112465   2.242   2.345   0.027  0.4519 -1.0635 -1.6195
 4153TIP3    H212466   2.386   2.299   0.034  0.7744  0.1402  2.6393
 4154TIP3   OH212467   1.799   0.441   1.771 -0.3301  0.2947 -0.3716
 4154TIP3    H112468   1.721   0.453   1.717 -0.5750 -3.1153 -0.9799
 4154TIP3    H212469   1.781   0.492   1.850 -2.2424  1.2338 -1.3364
 4155TIP3   OH212470   5.857   3.063   4.521  0.0561  0.1809  0.2385
 4155TIP3    H112471   5.762   3.073   4.512 -0.1023 -0.6068  0.8818
 4155TIP3    H212472   5.877   2.980   4.478  0.8087  1.3517 -1.8434
 4156TIP3   OH212473   3.136   5.157   2.686 -0.5169  0.0543  0.8785
 4156TIP3    H112474   3.102   5.205   2.762 -2.3109 -1.0181  0.8171
 4156TIP3    H212475   3.102   5.205   2.611 -2.0225 -1.0346  0.8162
 4157TIP3   OH212476   3.702   0.659   2.857  0.0512 -0.1417  0.3117
 4157TIP3    H112477   3.608   0.664   2.874 -0.2801 -0.3558 -1.3033
 4157TIP3    H212478   3.718   0.723   2.788  0.0717 -3.5667 -3.2522
 4158TIP3   OH212479   3.195   2.337   3.759 -0.3594  0.2511  0.1807
 4158TIP3    H112480   3.240   2.399   3.818  0.4639  1.5657 -1.7021
 4158TIP3    H212481   3.103   2.361   3.765 -0.1811  0.9412  0.3175
 4159TIP3   OH212482   0.913   2.432   0.465 -0.1801 -0.8250  0.3707
 4159TIP3    H112483   0.986   2.373   0.443 -0.4987 -1.0634 -0.0800
 4159TIP3    H212484   0.953   2.503   0.514  1.3940  1.8513 -4.1622
 4160TIP3   OH212485   1.257   0.612   2.687  0.1356  0.5097  0.2464
 4160TIP3    H112486   1.265   0.695   2.734 -0.9935  0.0457  1.3143
 4160TIP3    H212487   1.319   0.554   2.730  1.6605  1.0425 -1.1485
 4161TIP3   OH212488   6.214   0.563   2.495  0.2275 -0.3403 -0.1866
 4161TIP3    H112489   6.125   0.589   2.517 -0.7395 -1.7720 -2.1633
 4161TIP3    H212490   6.250   0.638   2.446 -0.6112 -0.5268 -1.1135
 4162TIP3   OH212491   4.146   3.974   4.766 -0.2945 -0.5584 -0.4699
 4162TIP3    H112492   4.054   3.984   4.742  0.2516  2.0775 -1.8666
 4162TIP3    H212493   4.148   3.897   4.823 -3.2455 -1.0494 -0.8767
 4163TIP3   OH212494   5.989   0.942   0.267  0.0421  0.4175 -0.5613
 4163TIP3    H112495   5.930   1.005   0.309 -0.9880 -0.2112 -1.0591
 4163TIP3    H212496   6.047   0.914   0.338 -0.5346  0.7055  0.0317
 4164TIP3   OH212497   2.264   3.993   4.929  0.2164 -0.6892  0.1955
 4164TIP3    H112498   2.280   4.061   4.994 -3.1499 -0.1700  0.6731
 4164TIP3    H212499   2.296   4.030   4.847 -1.3635  1.4690  0.4788
 4165TIP3   OH212500   2.223   0.601   0.746  0.0439  0.5897  0.0973
 4165TIP3    H112501   2.150   0.561   0.792  0.5518 -0.6902 -0.1842
 4165TIP3    H212502   2.187   0.684   0.713 -0.7373  0.8405  1.5145
 4166TIP3   OH212503   2.543   3.962   3.706 -0.2394 -0.3766 -0.3947
 4166TIP3    H112504   2.477   3.920   3.761  0.4679 -0.7719  0.1740
 4166TIP3    H212505   2.627   3.929   3.740  0.1920 -1.7621 -2.5925
 4167TIP3   OH212506   3.069   4.868   3.357 -0.3325 -0.6169 -0.7061
 4167TIP3    H112507   3.074   4.775   3.333 -2.0786 -1.3926  1.4639
 4167TIP3    H212508   3.139   4.880   3.421 -0.5996 -0.6514 -0.4063
 4168TIP3   OH212509   2.582   4.287   4.523  0.1898  0.5618  0.0317
 4168TIP3    H112510   2.606   4.376   4.547  0.8933  0.6094 -0.8109
 4168TIP3    H212511   2.641   4.264   4.451  0.7861 -0.9801  0.9529
 4169TIP3   OH212512   4.950   5.016   5.013 -0.0181  0.0313 -0.0281
 4169TIP3    H112513   4.917   5.083   4.953 -0.7131 -0.4219 -0.1740
 4169TIP3    H212514   5.040   5.000   4.984  0.1819  0.9648  0.0768
 4170TIP3   OH212515   4.286   2.354   4.401  0.0914  0.1926  0.1926
 4170TIP3    H112516   4.285   2.272   4.351 -0.1607  0.0048  0.4955
 4170TIP3    H212517   4.215   2.343   4.465 -0.2262  0.8232 -0.0422
 4171TIP3   OH212518   4.074   2.100   3.679 -0.7289 -0.2532  0.0237
 4171TIP3    H112519   4.068   2.068   3.589 -0.4685  1.2104 -0.5325
 4171TIP3    H212520   3.984   2.097   3.712 -1.0586  0.6128 -0.7888
 4172TIP3   OH212521   1.545   1.610   1.067 -0.2216  0.4993 -0.7442
 4172TIP3    H112522   1.629   1.608   1.114 -0.2910  2.1706 -0.4753
 4172TIP3    H212523   1.568   1.631   0.977 -0.3100  0.1726 -0.8463
 4173TIP3   OH212524   2.741   2.045   1.318 -0.8274  0.1776 -0.0722
 4173TIP3    H112525   2.790   1.979   1.269  1.1835  1.5154  0.0450
 4173TIP3    H212526   2.669   2.069   1.260 -1.6592 -2.1300 -0.0868
 4174TIP3   OH212527   0.294   5.949   0.282  0.0490 -0.3360  0.1894
 4174TIP3    H112528   0.316   5.931   0.374  0.9397  0.0355  0.0663
 4174TIP3    H212529   0.199   5.954   0.280  0.0318 -0.0912  1.1515
 4175TIP3   OH212530   2.530   4.334   4.943 -0.1215  0.5215  0.5573
 4175TIP3    H112531   2.446   4.359   4.903 -0.1471  0.7051  0.7243
 4175TIP3    H212532   2.518   4.352   5.036  0.4351  1.4640  0.4528
 4176TIP3   OH212533   2.399   4.205   2.820  0.3704 -0.0738 -0.0275
 4176TIP3    H112534   2.411   4.129   2.877  0.7878  0.7070  0.9769
 4176TIP3    H212535   2.310   4.235   2.838 -0.5783 -1.5058 -1.9720
 4177TIP3   OH212536   0.103   3.275   2.177  0.7558 -0.2962  0.7394
 4177TIP3    H112537   0.159   3.209   2.137  0.0813 -0.1580 -0.4768
 4177TIP3    H212538   0.016   3.235   2.181 -0.0096  0.9889 -1.3968
 4178TIP3   OH212539   0.441   5.155   1.891 -0.5760  0.7173  0.2780
 4178TIP3    H112540   0.454   5.095   1.818 -1.2452 -1.2918  1.7409
 4178TIP3    H212541   0.529   5.189   1.909  0.0123 -0.6611  0.1081
 4179TIP3   OH212542   4.732   0.394   5.022 -0.4406  0.4517  0.2774
 4179TIP3    H112543   4.695   0.451   5.089 -0.3525 -0.3941  1.0732
 4179TIP3    H212544   4.798   0.342   5.069 -0.2812 -0.0566 -0.4909
 4180TIP3   OH212545   1.552   1.671   1.461  0.9503  0.3947  0.2964
 4180TIP3    H112546   1.617   1.723   1.508  1.7378  0.3392 -0.7065
 4180TIP3    H212547   1.603   1.613   1.404  0.0387 -0.0589 -0.0904
 4181TIP3   OH212548   2.677   0.160   3.946 -0.5304 -0.2439  0.0896
 4181TIP3    H112549   2.607   0.094   3.950 -1.0741  0.2985 -0.3338
 4181TIP3    H212550   2.639   0.232   3.896  1.1609 -0.9582 -2.3793
 4182TIP3   OH212551   0.795   3.553   0.691 -0.3499 -0.3331  0.0924
 4182TIP3    H112552   0.821   3.571   0.782 -3.3962  0.8626  0.8751
 4182TIP3    H212553   0.826   3.628   0.642  0.5599 -0.5591  0.3103
 4183TIP3   OH212554   2.537   0.272   2.278  0.2500  0.1589 -0.2791
 4183TIP3    H112555   2.626   0.242   2.257  0.1705 -0.5193  0.3287
 4183TIP3    H212556   2.513   0.223   2.357  0.9325  3.3095  2.0630
 4184TIP3   OH212557   0.446   0.772   4.648 -0.0874 -0.0773 -0.2718
 4184TIP3    H112558   0.458   0.808   4.560  0.1136  1.0222  0.1830
 4184TIP3    H212559   0.534   0.750   4.678 -0.0263  0.5270  0.0301
 4185TIP3   OH212560   2.602   3.653   3.593  0.2290 -0.0620  0.4986
 4185TIP3    H112561   2.603   3.589   3.664 -0.8309 -0.5906  0.0643
 4185TIP3    H212562   2.633   3.605   3.516  0.9083  0.3748  0.4941
 4186TIP3   OH212563   6.207   2.925   4.292 -0.8986  0.3771  0.4150
 4186TIP3    H112564   6.216   2.984   4.367 -2.1153 -0.3595  1.1970
 4186TIP3    H212565   6.279   2.947   4.234 -0.8866  2.1061  1.0301
 4187TIP3   OH212566   0.611   5.407   4.028  0.0936 -0.1476  0.4253
 4187TIP3    H112567   0.651   5.430   4.112 -1.9613 -0.2151  1.4814
 4187TIP3    H212568   0.518   5.430   4.038 -0.6571 -2.2248 -1.0326
 4188TIP3   OH212569   5.833   4.471   2.154 -0.5602  0.0287  0.2028
 4188TIP3    H112570   5.830   4.566   2.166  1.1047  0.1881 -0.3703
 4188TIP3    H212571   5.750   4.440   2.189 -0.1818  1.4656  2.6284
 4189TIP3   OH212572   0.638   3.787   1.543  0.3989 -0.1345  0.1169
 4189TIP3    H112573   0.658   3.797   1.450 -0.5470  0.9918  0.0076
 4189TIP3    H212574   0.720   3.806   1.588  0.2680  1.9574 -0.4048
 4190TIP3   OH212575   3.495   0.740   1.788  0.8935 -0.0053 -0.1701
 4190TIP3    H112576   3.523   0.664   1.737 -0.7031  0.1510 -1.3338
 4190TIP3    H212577   3.432   0.785   1.732  2.3546  2.6599  0.1388
 4191TIP3   OH212578   1.213   1.906   1.863 -0.0250 -0.1545  0.1609
 4191TIP3    H112579   1.200   2.001   1.866 -1.4227 -0.3025 -0.4448
 4191TIP3    H212580   1.130   1.871   1.831 -0.6519 -1.8723  3.2520
 4192TIP3   OH212581   1.203   2.543   1.507 -0.2346  0.3676  0.1559
 4192TIP3    H112582   1.109   2.533   1.524 -0.5522  2.3300 -0.1492
 4192TIP3    H212583   1.241   2.562   1.593  0.1266 -1.6429  0.4887
 4193TIP3   OH212584   4.070   5.378   3.090  0.3195  0.2239  0.3284
 4193TIP3    H112585   3.990   5.420   3.059  0.1151 -1.5504 -1.8363
 4193TIP3    H212586   4.106   5.336   3.012  2.5718 -0.2976  1.5702
 4194TIP3   OH212587   6.048   1.702   0.491 -0.5306  0.0504  0.2223
 4194TIP3    H112588   5.958   1.733   0.502 -0.0793  1.5539 -0.0673
 4194TIP3    H212589   6.050   1.665   0.403 -0.7768  0.3895  0.0692
 4195TIP3   OH212590   2.702   4.449   1.641  0.1113  0.3464 -0.1653
 4195TIP3    H112591   2.722   4.499   1.561  0.4970  0.5348  0.0483
 4195TIP3    H212592   2.697   4.515   1.710 -0.2140  0.1826 -0.0266
 4196TIP3   OH212593   2.763   1.402   0.010 -0.4627 -0.0952 -0.3160
 4196TIP3    H112594   2.825   1.333   0.031 -0.0178 -0.1997 -1.8788
 4196TIP3    H212595   2.756   1.453   0.091 -0.7346 -1.8787  0.8470
 4197TIP3   OH212596   3.748   4.743   3.927 -0.1657 -0.0234  0.4043
 4197TIP3    H112597   3.670   4.786   3.893 -0.8775 -2.2454 -0.9512
 4197TIP3    H212598   3.800   4.723   3.850  0.8492 -0.2776  1.1363
 4198TIP3   OH212599   1.212   4.821   0.893 -0.1958  0.3150 -0.0607
 4198TIP3    H112600   1.121   4.826   0.863 -0.2489 -0.5249 -0.0498
 4198TIP3    H212601   1.221   4.732   0.926  0.5555  0.4871  0.1965
 4199TIP3   OH212602   4.899   1.635   1.839 -0.7541 -0.0522 -0.2294
 4199TIP3    H112603   4.866   1.572   1.904  2.5534 -0.3709  1.3571
 4199TIP3    H212604   4.927   1.580   1.766  2.4086 -0.6888  1.2752
 4200TIP3   OH212605   0.871   1.291   2.040  0.0160  0.0354 -0.1932
 4200TIP3    H112606   0.826   1.370   2.069 -1.3468 -1.1106  0.9551
 4200TIP3    H212607   0.866   1.231   2.114 -0.0549 -1.5595 -1.4156
 4201TIP3   OH212608   1.598   4.104  -0.011 -0.0291  0.4831 -0.2363
 4201TIP3    H112609   1.683   4.066   0.006  0.9347  2.3933 -0.4365
 4201TIP3    H212610   1.565   4.130   0.075 -0.4808 -0.3819 -0.1452
 4202TIP3   OH212611   0.925   3.097   3.540 -0.0513 -0.1827  0.0680
 4202TIP3    H112612   0.995   3.162   3.544 -0.4053  0.2256 -0.2058
 4202TIP3    H212613   0.850   3.145   3.504 -1.6764  0.4607  3.8355
 4203TIP3   OH212614   5.471   4.329   0.825 -0.5997 -0.1081 -0.5707
 4203TIP3    H112615   5.422   4.254   0.859 -0.0822 -0.4675 -0.6064
 4203TIP3    H212616   5.555   4.292   0.798 -0.5714  0.3746 -1.1618
 4204TIP3   OH212617   5.501   1.983   2.631 -0.0783  0.2845  0.6106
 4204TIP3    H112618   5.471   1.893   2.641  0.7807  0.0061  0.7420
 4204TIP3    H212619   5.505   2.017   2.720  0.2936  0.2233  0.6164
 4205TIP3   OH212620   0.228   1.349   0.376 -0.3456  0.0697  0.4491
 4205TIP3    H112621   0.263   1.437   0.364 -1.5517  0.3704 -1.1605
 4205TIP3    H212622   0.300   1.300   0.417  1.0010  1.3209 -0.3055
 4206TIP3   OH212623   3.075   2.992   4.572  0.0539  0.2144  0.1118
 4206TIP3    H112624   2.997   2.962   4.525 -0.4777  0.9239  0.5249
 4206TIP3    H212625   3.105   2.915   4.620 -0.7057  0.0716  0.3728
 4207TIP3   OH212626   4.576   3.741   4.239 -0.2733 -0.5125  0.7435
 4207TIP3    H112627   4.643   3.688   4.281 -1.2183 -1.2063  1.4099
 4207TIP3    H212628   4.586   3.828   4.278  1.0085 -0.2627 -0.0514
 4208TIP3   OH212629   4.602   5.379   3.221  0.2211 -0.1885 -0.7056
 4208TIP3    H112630   4.568   5.343   3.139 -2.3899 -1.5180  0.8337
 4208TIP3    H212631   4.613   5.303   3.278 -0.8830  0.9468  1.1220
 4209TIP3   OH212632   2.237   1.957   0.974 -0.3813 -0.5086  0.0832
 4209TIP3    H112633   2.149   1.991   0.987 -0.6070 -0.2216 -1.8314
 4209TIP3    H212634   2.289   2.034   0.952  0.8233 -0.3867  2.9663
 4210TIP3   OH212635   5.795   4.789   3.201 -0.3380 -0.1089 -0.1969
 4210TIP3    H112636   5.777   4.883   3.205  0.2234 -0.0620  2.3856
 4210TIP3    H212637   5.801   4.761   3.292 -0.5442 -2.6852 -0.8955
 4211TIP3   OH212638   5.412   2.133   4.992  0.2009 -0.2023 -0.2398
 4211TIP3    H112639   5.405   2.199   4.923  1.7596  0.9452  0.6476
 4211TIP3    H212640   5.435   2.182   5.071  0.5993 -1.7264  0.6430
 4212TIP3   OH212641   1.769   4.215   0.223 -0.1466  0.4622  0.4161
 4212TIP3    H112642   1.688   4.187   0.265 -0.2282 -1.0484 -0.6457
 4212TIP3    H212643   1.838   4.165   0.268 -0.3013 -1.7308 -1.5591
 4213TIP3   OH212644   3.043   0.840   1.972  0.1058 -0.3107  0.2392
 4213TIP3    H112645   2.997   0.920   1.998  0.9217  0.4217 -0.4782
 4213TIP3    H212646   3.085   0.809   2.052 -1.2400 -0.7311  0.7972
 4214TIP3   OH212647   4.527   4.216   2.937  0.7573 -0.4148 -0.4646
 4214TIP3    H112648   4.502   4.288   2.879 -1.1294  1.5275  2.5073
 4214TIP3    H212649   4.622   4.225   2.946  0.4782  2.5706  0.7093
 4215TIP3   OH212650   4.124   5.419   1.239 -0.2514  0.1735 -0.1006
 4215TIP3    H112651   4.158   5.456   1.321  0.9323  0.1601 -0.5695
 4215TIP3    H212652   4.111   5.494   1.182 -0.1598  0.0988 -0.2215
 4216TIP3   OH212653   1.781   4.677   2.144 -0.1975  0.1326 -0.0071
 4216TIP3    H112654   1.848   4.678   2.076 -1.4890  1.0549 -1.3329
 4216TIP3    H212655   1.715   4.616   2.112 -0.6280  0.2581  0.6261
 4217TIP3   OH212656   1.873   4.924   0.836  0.1578 -0.3907  0.2971
 4217TIP3    H112657   1.822   4.907   0.757  1.2705 -0.0771 -0.5165
 4217TIP3    H212658   1.808   4.946   0.903 -0.7581  0.1671 -0.7472
 4218TIP3   OH212659   5.919   0.075   5.201  0.7701 -0.0502 -0.2918
 4218TIP3    H112660   5.885   0.163   5.186 -1.2090 -0.8702 -0.9840
 4218TIP3    H212661   5.916   0.033   5.115  1.1420 -0.9738  0.1322
 4219TIP3   OH212662   4.536   4.743   0.609  0.1162  0.4888 -0.0830
 4219TIP3    H112663   4.450   4.757   0.568 -0.2041  1.4054  0.8562
 4219TIP3    H212664   4.522   4.766   0.701  1.3367  0.4891  0.1126
 4220TIP3   OH212665   4.688   2.790   2.241 -0.4701  0.2788  0.0014
 4220TIP3    H112666   4.745   2.860   2.273  1.4440 -1.6089  1.0137
 4220TIP3    H212667   4.748   2.730   2.196 -1.9963 -0.7974 -0.6511
 4221TIP3   OH212668   0.687   4.332   3.939  0.1883 -0.1184 -0.0518
 4221TIP3    H112669   0.691   4.286   3.855 -0.2031  0.5436 -0.4442
 4221TIP3    H212670   0.606   4.300   3.980  0.8305 -1.1089  0.4856
 4222TIP3   OH212671   1.670   4.455   0.417 -0.1741  0.3814  0.1481
 4222TIP3    H112672   1.587   4.501   0.423 -0.3077  0.5478 -2.0011
 4222TIP3    H212673   1.660   4.398   0.341  1.9354  1.0555 -0.7134
 4223TIP3   OH212674   4.257   1.172   2.920 -0.0553 -0.3370  0.2706
 4223TIP3    H112675   4.237   1.084   2.888 -1.1932 -0.2420  0.6652
 4223TIP3    H212676   4.321   1.206   2.858  0.8311 -1.6505  0.4361
 4224TIP3   OH212677   1.351   3.222   0.422 -0.0932 -0.0932  0.5043
 4224TIP3    H112678   1.382   3.137   0.453  1.3235  0.7873  1.5986
 4224TIP3    H212679   1.284   3.248   0.485  0.4234  0.2016  0.9325
 4225TIP3   OH212680   4.472   4.816   3.018 -0.5695 -0.2219 -0.2545
 4225TIP3    H112681   4.521   4.898   3.014  1.1438 -1.1830 -0.1590
 4225TIP3    H212682   4.536   4.749   2.991 -1.5038 -1.6901  1.0265
 4226TIP3   OH212683   2.750   2.656   2.160 -0.3789 -0.1151  0.2406
 4226TIP3    H112684   2.689   2.639   2.233 -0.8895  0.7724  0.0300
 4226TIP3    H212685   2.836   2.659   2.202 -0.8344  2.3276  1.1599
 4227TIP3   OH212686   2.827   1.628   3.199  0.1535  0.1257 -0.3550
 4227TIP3    H112687   2.868   1.714   3.189  1.3932 -0.5406 -1.2088
 4227TIP3    H212688   2.900   1.566   3.202 -0.7597 -1.0749 -1.6629
 4228TIP3   OH212689   3.762   1.343   4.588 -0.1468 -0.0825 -0.4927
 4228TIP3    H112690   3.851   1.362   4.559  0.2997 -0.5534  0.5138
 4228TIP3    H212691   3.771   1.264   4.643 -1.5583 -1.7670 -2.5246
 4229TIP3   OH212692   0.682   2.543   0.597  0.3155 -0.2098 -0.1174
 4229TIP3    H112693   0.751   2.484   0.566 -0.4019  0.0713 -2.3623
 4229TIP3    H212694   0.682   2.615   0.535 -0.5075  0.9430  1.1701
 4230TIP3   OH212695   4.667   4.952   3.993  0.0577 -0.3176 -0.0359
 4230TIP3    H112696   4.645   4.966   3.901 -1.5645  0.4985  0.4258
 4230TIP3    H212697   4.592   4.904   4.029  0.3465 -0.0197  1.0133
 4231TIP3   OH212698   0.161   1.479   3.889 -0.4536  0.9597  0.3644
 4231TIP3    H112699   0.216   1.504   3.815 -0.0243  1.4689  0.8447
 4231TIP3    H212700   0.131   1.390   3.868  3.1574 -0.7322  1.5318
 4232TIP3   OH212701   3.343   4.682   3.710 -0.6236 -0.1143 -0.3954
 4232TIP3    H112702   3.306   4.597   3.686 -1.7118  0.1859  0.1483
 4232TIP3    H212703   3.320   4.740   3.637  1.1633 -0.5112 -1.3583
 4233TIP3   OH212704   3.128   0.065   4.905  0.1766  0.4315 -0.3981
 4233TIP3    H112705   3.120   0.004   4.979  0.7521 -0.6716 -1.2107
 4233TIP3    H212706   3.050   0.048   4.852 -0.0295  0.9321 -0.2613
 4234TIP3   OH212707   5.018   0.227   4.330  0.0157 -0.0318  0.5397
 4234TIP3    H112708   5.070   0.153   4.360  2.2964  1.1918 -0.1260
 4234TIP3    H212709   4.993   0.274   4.410 -0.9199 -1.1217  0.9197
 4235TIP3   OH212710   3.873   3.232   1.362  0.1436  0.4915  0.5505
 4235TIP3    H112711   3.795   3.272   1.322 -0.1627  0.3932  1.0401
 4235TIP3    H212712   3.919   3.192   1.289 -0.1520  0.7456  0.2213
 4236TIP3   OH212713   0.581   0.973   5.039  0.1766  0.1730  0.1343
 4236TIP3    H112714   0.570   1.064   5.070  2.3251  0.9643 -1.2077
 4236TIP3    H212715   0.521   0.922   5.094  1.5303  1.8853  3.5369
 4237TIP3   OH212716   3.348   3.472   0.463  0.0443 -0.6888  0.2045
 4237TIP3    H112717   3.428   3.445   0.417  0.4026  0.2328  0.2697
 4237TIP3    H212718   3.277   3.446   0.404  0.4895  0.2221 -0.7693
 4238TIP3   OH212719   0.947   0.241   4.808 -0.7560 -0.4892  0.6935
 4238TIP3    H112720   0.938   0.184   4.732  1.0534  0.7732 -0.5664
 4238TIP3    H212721   0.951   0.181   4.883  0.7309 -2.0156 -0.5293
 4239TIP3   OH212722   2.923   2.805   2.513 -0.2547 -0.8757  0.1591
 4239TIP3    H112723   2.892   2.802   2.603  1.6910 -0.3636  0.9065
 4239TIP3    H212724   2.867   2.871   2.471  0.0151  0.2911  1.5310
 4240TIP3   OH212725   3.134   2.558   1.575  0.1811  0.2611 -0.4685
 4240TIP3    H112726   3.111   2.613   1.501 -0.4393  1.0604  0.2935
 4240TIP3    H212727   3.229   2.559   1.578  0.2063  3.3127  0.9425
 4241TIP3   OH212728   4.260   4.062   1.527 -0.3128  0.3603 -0.1931
 4241TIP3    H112729   4.185   4.088   1.473 -0.7932 -2.7199 -1.2248
 4241TIP3    H212730   4.243   4.100   1.613 -1.9030  1.6032 -1.0068
 4242TIP3   OH212731   5.546   4.823   1.799 -0.0211 -0.2766  0.4812
 4242TIP3    H112732   5.520   4.768   1.725 -1.0450 -0.5962  1.0650
 4242TIP3    H212733   5.497   4.789   1.874 -0.6237  1.3557  0.8865
 4243TIP3   OH212734   2.275   5.215   4.512 -0.5251 -0.5612 -0.7529
 4243TIP3    H112735   2.350   5.274   4.510 -1.0532  0.1158 -1.2480
 4243TIP3    H212736   2.307   5.135   4.471  0.3623 -0.8305  0.4316
 4244TIP3   OH212737   5.091   1.520   3.773 -0.1142  0.0760  0.4184
 4244TIP3    H112738   5.002   1.486   3.765 -1.2452  2.9801 -0.5977
 4244TIP3    H212739   5.080   1.608   3.809  2.1525  1.2711 -1.5554
 4245TIP3   OH212740   3.393   3.189   1.617  0.2791  0.3525 -0.5166
 4245TIP3    H112741   3.375   3.270   1.569  1.8958  2.4271  2.1216
 4245TIP3    H212742   3.311   3.140   1.612 -0.5471  1.7873 -2.7623
 4246TIP3   OH212743   1.381   3.883   4.474 -0.2376  0.0363  0.1754
 4246TIP3    H112744   1.346   3.876   4.385  0.7461 -0.0211 -0.2234
 4246TIP3    H212745   1.462   3.833   4.471 -0.0116  0.3450  1.0111
 4247TIP3   OH212746   5.054   3.174   3.776 -0.2333  0.7322  0.3913
 4247TIP3    H112747   4.961   3.178   3.756 -0.1610  1.9380  0.2164
 4247TIP3    H212748   5.097   3.177   3.691 -0.0218 -0.1080  0.4545
 4248TIP3   OH212749   6.324   2.474   4.755 -0.2454  0.0359 -0.3872
 4248TIP3    H112750   6.310   2.561   4.718 -0.0629 -0.1671 -0.9386
 4248TIP3    H212751   6.393   2.435   4.700  0.6617  0.0545  0.6969
 4249TIP3   OH212752   2.984   1.993   0.939 -0.0443  0.2737  0.0895
 4249TIP3    H112753   3.046   1.989   0.867 -0.5174 -0.5890 -0.2910
 4249TIP3    H212754   2.925   2.065   0.916  0.5671  0.8219  0.2470
 4250TIP3   OH212755   5.830   3.793   2.411 -0.3362  0.5503  0.0596
 4250TIP3    H112756   5.822   3.829   2.323 -0.7180  1.3979  0.4252
 4250TIP3    H212757   5.763   3.725   2.416  0.4622 -0.3097 -0.6779
 4251TIP3   OH212758   2.308   3.027   4.752  0.4582  0.1018 -0.3852
 4251TIP3    H112759   2.290   2.990   4.666  0.8008 -1.6572  0.2550
 4251TIP3    H212760   2.225   3.023   4.798  0.7875 -1.2464  0.1470
 4252TIP3   OH212761   1.100   0.530   0.248 -0.4208  0.0953  0.3056
 4252TIP3    H112762   1.191   0.506   0.264 -0.8494 -1.2018  1.0074
 4252TIP3    H212763   1.098   0.564   0.159  0.6431 -0.4272  0.0777
 4253TIP3   OH212764   3.353   0.521   4.909  0.2526  0.4392  0.1357
 4253TIP3    H112765   3.428   0.562   4.951  0.6278 -0.5090  0.4145
 4253TIP3    H212766   3.371   0.530   4.815  1.2345 -0.6664  0.1910
 4254TIP3   OH212767   3.213   3.551   2.808 -0.4099 -0.3900  0.3357
 4254TIP3    H112768   3.302   3.585   2.808 -0.8825  0.9386  0.5743
 4254TIP3    H212769   3.212   3.484   2.877  0.5325 -0.8410 -0.0741
 4255TIP3   OH212770   5.593   3.714   0.924  0.1097  0.0624  0.0796
 4255TIP3    H112771   5.623   3.668   1.003 -0.4375  0.1312  0.3302
 4255TIP3    H212772   5.558   3.645   0.868 -0.1569  0.0934  0.2029
 4256TIP3   OH212773   0.173   2.182   0.735  0.5618 -0.7629  0.0324
 4256TIP3    H112774   0.100   2.243   0.752 -0.4667 -1.9066 -0.1323
 4256TIP3    H212775   0.133   2.095   0.740  2.1003 -1.4713  0.7891
 4257TIP3   OH212776   5.391   1.167   0.103  0.4360  0.3822 -0.1427
 4257TIP3    H112777   5.310   1.128   0.070  0.6095  0.0504 -0.1802
 4257TIP3    H212778   5.383   1.162   0.198  0.5161  0.1386 -0.1499
 4258TIP3   OH212779   3.138   1.930   0.462 -0.1629  0.0711 -0.5109
 4258TIP3    H112780   3.178   1.858   0.413  0.9347  0.7183 -0.6146
 4258TIP3    H212781   3.115   1.994   0.395 -0.1072  0.2911 -0.3208
 4259TIP3   OH212782   5.361   3.023   3.733 -0.1802 -0.4462 -0.4854
 4259TIP3    H112783   5.369   2.938   3.776 -1.9227 -0.8996 -0.9765
 4259TIP3    H212784   5.334   3.002   3.644 -0.8676  0.6280 -0.5449
 4260TIP3   OH212785   5.546   2.626   1.823  0.8351 -0.5716 -0.1043
 4260TIP3    H112786   5.573   2.541   1.857  0.3105 -0.6445  0.1438
 4260TIP3    H212787   5.606   2.689   1.866 -0.0925 -0.6149  1.3396
 4261TIP3   OH212788   1.333   4.271   3.685  0.3661 -0.4046  0.0634
 4261TIP3    H112789   1.340   4.225   3.601 -1.3835  0.1367 -0.4449
 4261TIP3    H212790   1.401   4.233   3.740  0.8049 -1.5849 -1.2349
 4262TIP3   OH212791   1.348   5.141   3.420 -0.0233 -0.6971  0.0135
 4262TIP3    H112792   1.409   5.080   3.379  1.1919  1.5089 -1.7218
 4262TIP3    H212793   1.399   5.187   3.486 -0.5753 -0.7138  0.4644
 4263TIP3   OH212794   3.351   2.522   1.256 -0.3827  0.2327  0.3962
 4263TIP3    H112795   3.425   2.581   1.261 -0.7525  0.6436  1.1095
 4263TIP3    H212796   3.389   2.435   1.253  0.1624  0.4937 -0.5113
 4264TIP3   OH212797   5.099   5.355   2.222  0.2238  0.5959  0.2217
 4264TIP3    H112798   5.096   5.437   2.270  3.2514  0.5442  0.6868
 4264TIP3    H212799   5.063   5.376   2.136 -2.1159  1.5087  1.3207
 4265TIP3   OH212800   1.832   3.606   3.162  0.3389  0.0547  0.2628
 4265TIP3    H112801   1.757   3.563   3.203  0.8655  0.4534  1.7349
 4265TIP3    H212802   1.814   3.700   3.171  1.6783  0.2169  2.1297
 4266TIP3   OH212803   1.076   3.770   4.113  0.2539 -0.4850  0.5057
 4266TIP3    H112804   1.094   3.696   4.171 -1.4350 -1.8335 -0.5810
 4266TIP3    H212805   0.984   3.792   4.131  0.5762  1.0014  0.4235
 4267TIP3   OH212806   1.653   1.294   3.597 -0.8967  0.0523 -0.7716
 4267TIP3    H112807   1.705   1.250   3.664 -0.9036  0.3418 -0.5726
 4267TIP3    H212808   1.605   1.362   3.645 -1.7855 -0.4853 -0.8773
 4268TIP3   OH212809   0.112   0.665  -0.025  0.3844  0.0702  0.4989
 4268TIP3    H112810   0.063   0.584  -0.012  0.7618 -0.1275  0.7011
 4268TIP3    H212811   0.087   0.721   0.049  0.8634 -0.2304  0.8922
 4269TIP3   OH212812   1.965   2.649   1.389  0.1041  0.2206 -0.4435
 4269TIP3    H112813   2.005   2.692   1.464  0.1792  0.7032 -0.7593
 4269TIP3    H212814   1.959   2.557   1.415  0.2334  0.3642  0.1074
 4270TIP3   OH212815   5.058   4.058   4.027  0.0810 -0.0350  0.0247
 4270TIP3    H112816   4.982   3.998   4.026  0.0058  0.0655 -0.5014
 4270TIP3    H212817   5.120   4.019   3.965  0.7762 -0.5142  1.0023
 4271TIP3   OH212818   0.229   0.225   3.180  0.4304 -0.1837 -0.0857
 4271TIP3    H112819   0.161   0.172   3.139  0.3744 -0.7627  0.7379
 4271TIP3    H212820   0.203   0.232   3.272  0.4380  1.2722 -0.1702
 4272TIP3   OH212821   6.262   1.585   1.024  0.1368  0.3449  0.0198
 4272TIP3    H112822   6.279   1.645   1.097 -0.9002 -1.4547  1.8378
 4272TIP3    H212823   6.320   1.615   0.954  0.5783  2.6483  1.2755
 4273TIP3   OH212824   1.107   2.846   1.783 -0.6663 -0.1006  0.2170
 4273TIP3    H112825   1.131   2.894   1.863 -0.7905 -0.6060  0.5556
 4273TIP3    H212826   1.113   2.912   1.714 -1.9667  0.7002  0.8405
 4274TIP3   OH212827   4.508   1.065   0.131 -0.3354 -0.1282  0.6442
 4274TIP3    H112828   4.589   1.064   0.182  0.1960  0.1840 -0.1759
 4274TIP3    H212829   4.489   0.972   0.116 -0.5963 -0.2268  1.5556
 4275TIP3   OH212830   5.615   3.002   3.105  0.6256 -0.4894 -0.2540
 4275TIP3    H112831   5.657   3.031   3.186 -1.3400 -2.0640  1.4471
 4275TIP3    H212832   5.582   3.082   3.064  0.9931  0.2653  0.8886
 4276TIP3   OH212833   2.961   3.046   2.709 -0.5252 -0.4445  0.0724
 4276TIP3    H112834   3.014   3.057   2.629 -0.3612 -0.0777  0.2302
 4276TIP3    H212835   2.919   3.131   2.722  1.2460  0.2595  1.6567
 4277TIP3   OH212836   2.001   4.268   1.205  0.4340  0.0663 -0.5903
 4277TIP3    H112837   2.036   4.187   1.167 -1.7947 -0.3605 -1.9202
 4277TIP3    H212838   1.937   4.299   1.141  1.0606  2.8172 -0.0111
 4278TIP3   OH212839   2.422   1.077   4.110 -0.1580  0.8489 -0.1001
 4278TIP3    H112840   2.397   0.988   4.085 -0.3603  0.9342 -0.2051
 4278TIP3    H212841   2.422   1.077   4.206 -0.9127  0.9424 -0.0937
 4279TIP3   OH212842   1.402   2.496   4.486  0.2179  0.6271  0.7399
 4279TIP3    H112843   1.346   2.466   4.415 -0.3555 -1.8311  2.1072
 4279TIP3    H212844   1.491   2.475   4.458 -0.0010 -0.2558  0.6848
 4280TIP3   OH212845   1.896   1.983   2.111 -0.2001  0.6424  0.0981
 4280TIP3    H112846   1.818   1.929   2.125 -0.8785  1.4884 -0.3390
 4280TIP3    H212847   1.928   2.002   2.199 -0.3312  0.0817  0.2736
 4281TIP3   OH212848   5.461   0.071   1.608  0.0966  0.2655 -0.5929
 4281TIP3    H112849   5.466   0.105   1.518  0.0239  2.0985  0.0681
 4281TIP3    H212850   5.377   0.102   1.641 -0.1312 -0.8785 -0.0596
 4282TIP3   OH212851   0.613   0.623   0.921 -0.2633 -0.1729  0.5634
 4282TIP3    H112852   0.530   0.608   0.966 -0.1511  0.4642  0.9888
 4282TIP3    H212853   0.671   0.657   0.989  0.3718 -0.6722  0.2872
 4283TIP3   OH212854   5.586   5.727   1.015  0.2495 -0.2471  0.1261
 4283TIP3    H112855   5.637   5.805   1.035  2.4516 -1.7488  0.6928
 4283TIP3    H212856   5.531   5.714   1.093 -0.7562  1.1558 -0.3168
 4284TIP3   OH212857   0.880   4.283   2.588 -0.0705 -0.6211  0.1231
 4284TIP3    H112858   0.960   4.326   2.615  0.1519 -0.9743  0.0338
 4284TIP3    H212859   0.811   4.349   2.601  0.2199 -0.3471  0.2745
 4285TIP3   OH212860   0.193   0.371   1.308  0.0125  0.6074 -0.0992
 4285TIP3    H112861   0.256   0.376   1.380 -0.5066 -1.1239  0.5198
 4285TIP3    H212862   0.232   0.425   1.239  1.7912  0.2107  0.5399
 4286TIP3   OH212863   5.333   4.756   4.944  0.3944 -0.1735  0.1173
 4286TIP3    H112864   5.424   4.733   4.925 -0.2740 -1.3353 -2.0574
 4286TIP3    H212865   5.288   4.748   4.860 -1.5912  1.1533  0.9588
 4287TIP3   OH212866   1.605   0.017   1.973  0.0089 -0.8129 -0.1924
 4287TIP3    H112867   1.645  -0.012   2.055 -0.7702  0.4499  0.6626
 4287TIP3    H212868   1.679   0.041   1.917  0.5114  0.2314  0.8821
 4288TIP3   OH212869   1.944   1.823   0.485 -0.0350  0.3578 -0.1136
 4288TIP3    H112870   2.014   1.863   0.434 -0.5216  0.8492 -0.4120
 4288TIP3    H212871   1.878   1.797   0.420 -1.0382  1.7395  0.3003
 4289TIP3   OH212872   0.748   3.071   1.105 -0.3872  0.2692 -0.1751
 4289TIP3    H112873   0.728   3.157   1.067  1.2418  0.8181  0.1306
 4289TIP3    H212874   0.804   3.091   1.180  2.2482 -1.1251 -1.6157
 4290TIP3   OH212875   3.339   2.925   3.961  0.1111 -0.0083  0.2755
 4290TIP3    H112876   3.392   2.845   3.960 -1.7691 -1.3424 -0.4563
 4290TIP3    H212877   3.397   2.992   3.995  1.9619 -1.5580  0.3725
 4291TIP3   OH212878   0.857   4.636   0.592  0.2233 -0.4192  0.4751
 4291TIP3    H112879   0.937   4.672   0.553 -0.2038  0.0191 -0.0221
 4291TIP3    H212880   0.860   4.542   0.573  0.0127 -0.2159 -0.6687
 4292TIP3   OH212881   0.038   1.088   1.935  0.3632 -0.1007  0.1004
 4292TIP3    H112882   0.031   1.024   1.865  1.3168 -0.8320  0.6501
 4292TIP3    H212883   0.064   1.169   1.892 -0.5056 -0.1555 -0.5579
 4293TIP3   OH212884   2.617   0.970   3.377  0.1141  0.3967  0.0893
 4293TIP3    H112885   2.696   1.022   3.392 -1.1041  2.0000  1.3671
 4293TIP3    H212886   2.619   0.902   3.445  1.3178 -0.8081 -1.0940
 4294TIP3   OH212887   0.567   3.162   2.996 -0.0159 -0.2542  0.3427
 4294TIP3    H112888   0.571   3.250   3.034 -0.4034 -0.1922  0.2406
 4294TIP3    H212889   0.621   3.167   2.917 -0.2529 -0.0381  0.1961
 4295TIP3   OH212890   4.476   5.316   0.492 -0.6455 -0.0569  0.6220
 4295TIP3    H112891   4.571   5.325   0.485 -0.4703 -1.5822  0.7030
 4295TIP3    H212892   4.446   5.403   0.516  0.6508  0.6371 -0.1223
 4296TIP3   OH212893   3.240   0.450   2.895  0.4035  0.1383  0.2529
 4296TIP3    H112894   3.200   0.509   2.958  1.8119  1.4779 -0.0612
 4296TIP3    H212895   3.173   0.438   2.827  1.0208  3.8377 -1.2411
 4297TIP3   OH212896   5.159   5.108   1.310  0.5581 -0.1437  0.2926
 4297TIP3    H112897   5.116   5.122   1.226  0.8458  0.7936  0.2914
 4297TIP3    H212898   5.249   5.084   1.287 -0.4414 -4.6257  0.1934
 4298TIP3   OH212899   0.945   0.928   1.397 -0.0418 -0.5557  0.5500
 4298TIP3    H112900   0.939   0.898   1.306  2.6981  1.4212 -0.4399
 4298TIP3    H212901   0.854   0.929   1.428 -0.9316 -2.5859 -1.6707
 4299TIP3   OH212902   4.849   3.060   4.967  0.3763 -0.0730 -0.4647
 4299TIP3    H112903   4.839   3.137   4.911  0.4793  0.5152  0.3007
 4299TIP3    H212904   4.759   3.033   4.988  0.2611  1.7978  1.8439
 4300TIP3   OH212905   3.312   4.258   2.508  0.1942  0.2294  0.8550
 4300TIP3    H112906   3.243   4.193   2.501  1.2160 -0.7214 -1.6829
 4300TIP3    H212907   3.282   4.331   2.453  0.8932  0.0822  0.2609
 4301TIP3   OH212908   4.003   5.632   3.351  0.5189 -0.3620  0.0030
 4301TIP3    H112909   3.991   5.541   3.325  0.0789 -0.0410 -1.0027
 4301TIP3    H212910   4.063   5.668   3.285  1.3125 -0.1208  0.8438
 4302TIP3   OH212911   5.761   0.629   4.498 -0.4266 -0.2839 -0.7322
 4302TIP3    H112912   5.693   0.563   4.503  0.6817 -1.5595 -1.6801
 4302TIP3    H212913   5.767   0.665   4.587 -1.3775 -1.1127 -0.3235
 4303TIP3   OH212914   2.075   3.489   4.588  0.3299  0.2824 -0.1257
 4303TIP3    H112915   2.042   3.574   4.560  0.6360  0.1915 -0.7762
 4303TIP3    H212916   2.069   3.434   4.510  0.8523 -0.0803  0.0884
 4304TIP3   OH212917   5.451   2.564   2.263 -0.1941 -0.1884 -1.1812
 4304TIP3    H112918   5.395   2.542   2.189 -1.4360  0.7159 -0.5435
 4304TIP3    H212919   5.468   2.658   2.253 -1.4954  0.2555  0.3804
 4305TIP3   OH212920   3.650   2.854   1.859  0.0734  0.1120  1.2149
 4305TIP3    H112921   3.554   2.851   1.862 -0.2322  3.1260 -0.8748
 4305TIP3    H212922   3.672   2.945   1.882  2.4645 -0.5439  1.8011
 4306TIP3   OH212923   5.842   4.647   1.565  0.8108  0.5596  0.2125
 4306TIP3    H112924   5.863   4.601   1.646  0.9645  0.7174  0.2639
 4306TIP3    H212925   5.902   4.722   1.564 -0.3421  1.5248  0.8069
 4307TIP3   OH212926   1.625   3.623   3.332  0.1569  0.2354  0.0668
 4307TIP3    H112927   1.660   3.708   3.359 -0.7122  0.7536 -0.3889
 4307TIP3    H212928   1.536   3.642   3.301 -0.4109 -0.9916  0.8760
 4308TIP3   OH212929   4.307   1.604   0.637 -0.1102  0.4465  0.1372
 4308TIP3    H112930   4.361   1.543   0.586 -0.5134 -1.2381  1.6054
 4308TIP3    H212931   4.258   1.653   0.572  2.3413  1.2606 -1.2056
 4309TIP3   OH212932   0.084   2.955   2.187  0.2097  0.5211  0.0079
 4309TIP3    H112933   0.162   2.990   2.145  1.1957 -1.0555  0.4735
 4309TIP3    H212934   0.044   2.898   2.121  0.3413  0.0656  0.3173
 4310TIP3   OH212935   5.081   3.522   2.125  0.6462 -0.3430 -0.1877
 4310TIP3    H112936   5.107   3.516   2.217  2.7177 -0.1567 -0.7143
 4310TIP3    H212937   4.985   3.519   2.127  0.5116  1.9154  2.1367
 4311TIP3   OH212938   3.992   5.012   3.984  0.1036 -0.4320 -0.0572
 4311TIP3    H112939   4.064   5.063   4.021 -1.3335  0.8892  1.1155
 4311TIP3    H212940   3.985   4.936   4.041  1.6046 -1.4772 -1.1962
 4312TIP3   OH212941   6.308   3.011   3.381  0.3735  0.4567  0.0976
 4312TIP3    H112942   6.303   3.101   3.348 -0.7210  1.3303  2.4635
 4312TIP3    H212943   6.378   3.013   3.446 -1.5771  0.3937  2.2866
 4313TIP3   OH212944   1.159   2.747   2.170 -0.5122 -0.1770 -0.1541
 4313TIP3    H112945   1.129   2.738   2.261  0.7912 -1.1201  0.2007
 4313TIP3    H212946   1.215   2.825   2.171 -0.2443 -0.3707 -0.0810
 4314TIP3   OH212947   0.971   4.005   2.453  0.2417 -0.6306  0.9658
 4314TIP3    H112948   1.032   4.071   2.486 -1.4932  0.4564  2.2022
 4314TIP3    H212949   0.978   4.011   2.358  1.0756  0.4044  1.0695
 4315TIP3   OH212950   0.881   2.899   4.532  0.4493  0.0674  0.6553
 4315TIP3    H112951   0.961   2.847   4.520  1.6170  2.0888 -1.0464
 4315TIP3    H212952   0.906   2.968   4.593 -0.5248 -0.2657  1.4516
 4316TIP3   OH212953   2.376   2.619   2.903  0.4614  0.0920  0.1215
 4316TIP3    H112954   2.360   2.554   2.971 -4.3376  0.8512  0.0551
 4316TIP3    H212955   2.396   2.568   2.825 -0.3212 -1.1570  0.7048
 4317TIP3   OH212956   6.228   0.047   4.585  0.2333  0.1796  0.0553
 4317TIP3    H112957   6.282  -0.030   4.604  0.3551  0.1792 -0.2873
 4317TIP3    H212958   6.281   0.121   4.615  0.5370  0.1975 -0.5174
 4318TIP3   OH212959   5.890   1.276   1.782 -0.6420  0.0788  0.4370
 4318TIP3    H112960   5.931   1.215   1.843  0.4536 -0.3560 -0.6694
 4318TIP3    H212961   5.894   1.360   1.826  1.9636  0.1552  0.2281
 4319TIP3   OH212962   3.521   2.320   1.227  0.0726 -0.0568 -0.3336
 4319TIP3    H112963   3.581   2.348   1.296 -0.7660 -2.2687  1.4153
 4319TIP3    H212964   3.575   2.314   1.149  1.6539  0.0835  0.6911
 4320TIP3   OH212965   4.104   4.456   1.887  0.0351  0.1970  0.0164
 4320TIP3    H112966   4.154   4.430   1.964  0.4338 -2.8599 -1.1252
 4320TIP3    H212967   4.017   4.476   1.921  0.7977  1.2514  1.4872
 4321TIP3   OH212968   6.304   0.224   2.871 -0.7871 -0.1263  0.1003
 4321TIP3    H112969   6.260   0.270   2.942 -0.6696  0.0072  0.0864
 4321TIP3    H212970   6.362   0.289   2.832 -2.1496  0.3297 -1.2726
 4322TIP3   OH212971   4.332   0.059   3.614  0.1540  0.5552 -0.0834
 4322TIP3    H112972   4.333   0.146   3.653 -0.1555  0.1277  0.9013
 4322TIP3    H212973   4.381   0.005   3.675  2.5290  0.4998 -1.8705
 4323TIP3   OH212974   6.121   0.510   0.069 -0.2722 -0.6692 -0.0332
 4323TIP3    H112975   6.030   0.492   0.094 -0.5375 -1.0730 -1.1903
 4323TIP3    H212976   6.118   0.596   0.028  0.4423  0.7294  2.6713
 4324TIP3   OH212977   2.663   4.496   3.934 -0.0332  0.4031  0.4538
 4324TIP3    H112978   2.661   4.511   4.028  1.5211  2.3009  0.2550
 4324TIP3    H212979   2.588   4.545   3.900 -0.8023 -0.5716  0.7101
 4325TIP3   OH212980   4.083   1.529   3.271  0.0308 -0.3667 -0.2359
 4325TIP3    H112981   4.142   1.473   3.221 -0.6279 -1.9198  0.6801
 4325TIP3    H212982   4.092   1.500   3.361 -0.4054  0.9598  0.2667
 4326TIP3   OH212983   5.948   1.797   4.226  0.2364 -0.2993  0.3535
 4326TIP3    H112984   5.933   1.745   4.305 -0.5531 -0.9961 -0.2406
 4326TIP3    H212985   6.035   1.770   4.195  1.1672  0.9701  1.7064
 4327TIP3   OH212986   1.758   3.682   0.477 -0.0712 -0.1849 -0.4708
 4327TIP3    H112987   1.828   3.721   0.529  0.5413 -1.3421 -0.3862
 4327TIP3    H212988   1.747   3.594   0.514 -1.0189 -0.3008 -1.0023
 4328TIP3   OH212989   0.365   4.264   1.976 -0.2280 -0.0129  0.3459
 4328TIP3    H112990   0.405   4.271   1.889  0.5742 -1.2315  0.5941
 4328TIP3    H212991   0.312   4.185   1.972 -1.6911  0.9332  0.4133
 4329TIP3   OH212992   0.923   5.530   4.003 -0.4919  0.1000  0.0728
 4329TIP3    H112993   0.967   5.476   4.069 -1.5412  0.3007  0.9657
 4329TIP3    H212994   0.860   5.582   4.052  0.3011  1.9786 -0.7998
 4330TIP3   OH212995   2.057   3.186   0.229  0.1943 -0.1123  0.6692
 4330TIP3    H112996   2.051   3.282   0.223 -0.0286 -0.1978 -0.5518
 4330TIP3    H212997   2.146   3.166   0.200 -0.3112 -0.3934 -0.7380
 4331TIP3   OH212998   3.719   0.530   3.618  0.3364 -0.3565 -0.0333
 4331TIP3    H112999   3.648   0.593   3.622  0.2567 -0.4452 -0.0612
 4331TIP3    H213000   3.754   0.527   3.707  1.2246  0.7490 -0.3239
 4332TIP3   OH213001   5.169   0.915   3.031 -0.6136  0.7196 -0.1692
 4332TIP3    H113002   5.245   0.968   3.055 -1.2113  1.9453 -0.9199
 4332TIP3    H213003   5.139   0.878   3.115  0.5940  0.4653  0.1824
 4333TIP3   OH213004   4.380   1.424   1.105  0.3150 -0.0714 -0.0669
 4333TIP3    H113005   4.362   1.338   1.067  1.0170  0.5155 -1.8238
 4333TIP3    H213006   4.295   1.468   1.109 -0.2097 -1.1421  1.7464
 4334TIP3   OH213007   0.892   3.752   0.220 -0.1826 -0.0585  0.0545
 4334TIP3    H113008   0.897   3.802   0.301 -2.0014  1.0679 -0.4890
 4334TIP3    H213009   0.976   3.705   0.216  1.9863  3.4726  0.2185
 4335TIP3   OH213010   0.203   3.830   0.577  0.5815 -0.6906  0.2055
 4335TIP3    H113011   0.236   3.759   0.632 -0.3569 -1.0481  0.3206
 4335TIP3    H213012   0.236   3.809   0.490  2.0870 -0.1132  0.6011
 4336TIP3   OH213013   5.446   1.102   1.937 -0.2294  0.5026  0.0502
 4336TIP3    H113014   5.435   1.093   1.842 -1.2476  2.3345 -0.0498
 4336TIP3    H213015   5.517   1.042   1.958 -0.3646 -0.3918 -1.7705
 4337TIP3   OH213016   3.027   2.559   2.692 -0.6289  0.2963 -0.6773
 4337TIP3    H113017   3.093   2.592   2.631  0.2749 -0.1137  0.0542
 4337TIP3    H213018   2.993   2.479   2.650 -0.5555  0.4236 -0.9801
 4338TIP3   OH213019   1.501   1.286   1.869  0.5343  0.0938  0.3451
 4338TIP3    H113020   1.427   1.253   1.819  0.4970 -0.9407  1.0482
 4338TIP3    H213021   1.524   1.368   1.826  0.0869 -0.4227 -0.9568
 4339TIP3   OH213022   6.283   5.591   3.189 -0.3394  0.7499 -0.1826
 4339TIP3    H113023   6.289   5.578   3.284 -0.3757  0.0872 -0.2675
 4339TIP3    H213024   6.266   5.504   3.154  1.0469  0.7405 -0.9170
 4340TIP3   OH213025   5.852   0.038   2.402 -0.0794  0.3737 -0.3124
 4340TIP3    H113026   5.876   0.130   2.396  1.3492  0.0436  0.0429
 4340TIP3    H213027   5.763   0.034   2.366 -0.1761  1.8811 -0.2938
 4341TIP3   OH213028   4.827   5.084   3.710  0.0327  0.0937 -0.4048
 4341TIP3    H113029   4.831   5.119   3.799  0.0286  0.6186 -0.6101
 4341TIP3    H213030   4.893   5.015   3.708  0.6050  0.6303 -0.2366
 4342TIP3   OH213031   0.565   0.541   3.841  0.1914  0.0247 -0.1614
 4342TIP3    H113032   0.590   0.577   3.926  0.6389 -0.0760 -0.2462
 4342TIP3    H213033   0.470   0.542   3.841  0.1929  0.4015  0.1827
 4343TIP3   OH213034   1.164   3.979   3.620  0.0823 -0.4776  0.6691
 4343TIP3    H113035   1.104   4.010   3.551  0.7947 -0.1743  0.1765
 4343TIP3    H213036   1.139   4.030   3.697  2.1444  2.5122 -0.4574
 4344TIP3   OH213037   6.036   3.923   3.068 -0.5143  0.6094  0.6790
 4344TIP3    H113038   6.118   3.902   3.114  0.3891  4.0455  0.9543
 4344TIP3    H213039   6.053   3.901   2.977  0.0689 -0.2814  0.9911
 4345TIP3   OH213040   1.368   2.614   3.146  0.2336 -0.2178  0.0240
 4345TIP3    H113041   1.367   2.660   3.231 -2.1889 -3.1036  1.7482
 4345TIP3    H213042   1.458   2.583   3.137  1.1518  2.1484  0.2759
 4346TIP3   OH213043   0.502   1.329   4.889 -0.2666  0.1670 -0.5942
 4346TIP3    H113044   0.549   1.398   4.936 -0.0557 -0.3739  0.0083
 4346TIP3    H213045   0.565   1.296   4.825  0.9874 -1.9428  1.5420
 4347TIP3   OH213046   5.122   3.388   0.312 -0.1002 -1.1251  0.2453
 4347TIP3    H113047   5.132   3.298   0.281  0.4344 -0.6848 -0.8981
 4347TIP3    H213048   5.161   3.442   0.243 -2.2924  0.1387 -0.0875
 4348TIP3   OH213049   5.656   2.035   2.870 -0.6712  0.1110  0.1402
 4348TIP3    H113050   5.737   2.074   2.902 -0.5847 -1.5342  2.2098
 4348TIP3    H213051   5.683   1.950   2.836 -1.3589  0.1089 -0.4090
 4349TIP3   OH213052   3.596   5.417   3.416  0.3913 -0.1570 -0.4848
 4349TIP3    H113053   3.504   5.395   3.423  0.3102 -0.0195 -1.0278
 4349TIP3    H213054   3.620   5.393   3.327  0.7931  0.1148 -0.4565
 4350TIP3   OH213055   2.896   2.315   2.253 -0.3190  1.0116  0.2469
 4350TIP3    H113056   2.916   2.365   2.173 -0.5526  1.2608  0.3405
 4350TIP3    H213057   2.967   2.252   2.261  0.0998  1.4811  0.2464
 4351TIP3   OH213058   1.792   1.441   3.137  0.0949 -0.1647 -0.3053
 4351TIP3    H113059   1.784   1.375   3.205  2.5380  0.3610  0.5856
 4351TIP3    H213060   1.883   1.436   3.110 -0.5277  0.4368 -2.7744
 4352TIP3   OH213061   3.053   4.906   2.637  0.1396  0.3537 -0.4206
 4352TIP3    H113062   3.066   4.866   2.723 -1.2404  0.6251 -0.0722
 4352TIP3    H213063   3.092   4.993   2.644  1.7016 -0.2928 -0.6777
 4353TIP3   OH213064   5.112   2.792   1.263  0.1871 -0.4474  0.2781
 4353TIP3    H113065   5.185   2.732   1.246  1.4756  0.9351  0.7092
 4353TIP3    H213066   5.088   2.826   1.177  0.6311 -0.2696  0.2217
 4354TIP3   OH213067   2.973   5.646   3.222  0.0832 -0.2601 -0.1857
 4354TIP3    H113068   2.886   5.685   3.216  0.6746  1.1949  0.2448
 4354TIP3    H213069   2.999   5.631   3.131 -0.1630  0.3441 -0.3575
 4355TIP3   OH213070   4.176   1.945   0.470 -0.4439 -0.4888  0.5614
 4355TIP3    H113071   4.170   1.851   0.450 -2.1279 -0.2024 -0.3985
 4355TIP3    H213072   4.247   1.977   0.413  0.1292 -1.1563  0.8815
 4356TIP3   OH213073   2.895   1.847   2.896  0.5532  0.2408 -0.1170
 4356TIP3    H113074   2.909   1.915   2.831 -1.5012 -0.3302 -1.2154
 4356TIP3    H213075   2.944   1.771   2.862  0.2284  0.2136 -0.5190
 4357TIP3   OH213076   1.407   2.135   0.149 -0.2808  0.8934  0.3769
 4357TIP3    H113077   1.316   2.154   0.128 -0.2266  0.6635 -0.0871
 4357TIP3    H213078   1.458   2.177   0.080 -0.1028  0.0814 -0.0086
 4358TIP3   OH213079   3.325   5.287   1.939  0.4147 -0.2711  0.0396
 4358TIP3    H113080   3.335   5.382   1.939 -0.3705 -0.1748 -1.0110
 4358TIP3    H213081   3.362   5.258   1.856  1.2270 -0.9605  0.6320
 4359TIP3   OH213082   3.318   3.011   5.062  0.4400 -0.0424  0.2861
 4359TIP3    H113083   3.224   3.009   5.077 -0.0989 -1.5264 -2.4935
 4359TIP3    H213084   3.351   2.935   5.110  0.0110 -0.2672  0.2308
 4360TIP3   OH213085   3.375   4.194   3.446  0.1496 -0.0257  0.3656
 4360TIP3    H113086   3.289   4.213   3.483  1.1515  1.4506  2.1217
 4360TIP3    H213087   3.388   4.100   3.461 -1.4113 -0.4110 -0.5600
 4361TIP3   OH213088   5.079   5.208   4.050  0.0280  0.0403 -0.2498
 4361TIP3    H113089   5.083   5.230   4.143  0.5542  0.1240 -0.2896
 4361TIP3    H213090   5.144   5.139   4.038  0.3638  0.4123 -0.6549
 4362TIP3   OH213091   3.483   0.547   3.110 -0.3377  0.3195  0.3720
 4362TIP3    H113092   3.549   0.484   3.140  0.4668  1.8754  2.0795
 4362TIP3    H213093   3.404   0.494   3.100  0.7758 -1.3280 -0.2931
 4363TIP3   OH213094   4.647   1.891   1.721 -0.0415 -0.3458 -0.3112
 4363TIP3    H113095   4.568   1.943   1.707 -0.2249 -0.3735  0.5742
 4363TIP3    H213096   4.653   1.834   1.644 -0.5335  0.0962 -0.6809
 4364TIP3   OH213097   0.431   4.065   2.637 -0.0835 -0.2441  0.5242
 4364TIP3    H113098   0.518   4.086   2.670 -0.5837 -1.3948  2.8131
 4364TIP3    H213099   0.376   4.136   2.668 -0.1576 -0.1091  0.0843
 4365TIP3   OH213100   3.072   2.734   4.705 -0.0440  0.3447 -0.2093
 4365TIP3    H113101   3.060   2.639   4.715 -0.9842  0.5856  1.3970
 4365TIP3    H213102   3.165   2.744   4.683  0.0427 -0.9576 -0.5419
 4366TIP3   OH213103   4.796   5.555   4.663 -0.0455 -0.2608  0.4180
 4366TIP3    H113104   4.758   5.642   4.675 -1.2067 -0.7626  0.5183
 4366TIP3    H213105   4.802   5.545   4.568 -0.0096 -0.1202  0.4040
 4367TIP3   OH213106   0.541   2.017   2.954  0.2731 -0.4264 -0.1781
 4367TIP3    H113107   0.617   2.020   2.895  0.5359  0.5352  0.1902
 4367TIP3    H213108   0.532   1.924   2.976  0.4418 -0.7448 -1.3763
 4368TIP3   OH213109   5.859   1.689   3.523  1.2640 -0.1794 -0.0079
 4368TIP3    H113110   5.764   1.701   3.532  1.4797  1.2224  0.6560
 4368TIP3    H213111   5.877   1.608   3.571  0.4415 -0.3100  0.1005
 4369TIP3   OH213112   0.532   1.311   2.723  0.0668 -0.0303  0.1442
 4369TIP3    H113113   0.533   1.384   2.785  0.1596 -0.0976  0.2238
 4369TIP3    H213114   0.512   1.351   2.639 -1.3102 -0.1042  0.4199
 4370TIP3   OH213115   2.848   0.465   1.536  0.0533 -0.4951  0.5962
 4370TIP3    H113116   2.821   0.410   1.462  3.0404  0.6028 -1.5174
 4370TIP3    H213117   2.833   0.555   1.506  1.1119 -0.0274  1.4087
 4371TIP3   OH213118   4.423   0.560   2.352  0.4244  0.5096 -0.5082
 4371TIP3    H113119   4.408   0.636   2.296  1.6735  0.2627 -1.2270
 4371TIP3    H213120   4.493   0.587   2.412 -0.8241  0.7355  0.9110
 4372TIP3   OH213121   3.100   1.530   1.835  0.3057 -0.3657 -0.7542
 4372TIP3    H113122   3.152   1.601   1.797 -1.4734  1.1339 -0.5340
 4372TIP3    H213123   3.164   1.473   1.878  1.8463  0.7563 -1.4815
 4373TIP3   OH213124   5.391   5.355   4.276  0.3144  0.2712  0.0021
 4373TIP3    H113125   5.454   5.364   4.348  0.7212 -0.8127 -0.1916
 4373TIP3    H213126   5.311   5.322   4.317 -0.1686  1.7094  0.2581
 4374TIP3   OH213127   2.306   3.779   0.747 -0.1780  0.2068  0.0846
 4374TIP3    H113128   2.290   3.817   0.833 -1.6437 -0.0113 -0.0667
 4374TIP3    H213129   2.400   3.766   0.743 -0.1017  0.1780  1.6712
 4375TIP3   OH213130   3.501   0.702   3.331 -0.3454 -0.3010 -0.1433
 4375TIP3    H113131   3.471   0.648   3.258 -2.2793 -1.1511  1.2035
 4375TIP3    H213132   3.591   0.725   3.308 -0.3714 -1.8242 -2.0457
 4376TIP3   OH213133   3.547   1.015   0.708 -0.1310 -0.1512  0.4416
 4376TIP3    H113134   3.636   1.049   0.703  1.0857 -2.9841  0.8950
 4376TIP3    H213135   3.534   0.969   0.625  0.2843 -2.7636  1.7032
 4377TIP3   OH213136   1.468   1.134   2.406 -0.2834 -0.0146 -0.4555
 4377TIP3    H113137   1.429   1.189   2.474 -0.7764  0.9337 -1.4513
 4377TIP3    H213138   1.520   1.069   2.453  0.4489  1.4005  0.7823
 4378TIP3   OH213139   3.854   5.259   4.675  0.7288  0.0286 -0.2971
 4378TIP3    H113140   3.844   5.189   4.610  0.2405  0.8107 -1.0932
 4378TIP3    H213141   3.765   5.278   4.704  0.9880 -0.6593  1.0042
 4379TIP3   OH213142   0.860   3.785   1.695  0.0699 -0.3880  0.0586
 4379TIP3    H113143   0.952   3.763   1.688  0.7030  1.3229  1.9723
 4379TIP3    H213144   0.819   3.707   1.732  0.4105 -1.6951 -2.1398
 4380TIP3   OH213145   5.998   1.947   2.305  0.5447 -0.4943 -0.2443
 4380TIP3    H113146   5.911   1.973   2.337  0.2975 -0.9642 -0.5350
 4380TIP3    H213147   6.045   1.918   2.384  0.6143  0.2275 -0.0081
 4381TIP3   OH213148   2.188   0.847   1.654 -0.5616 -0.6958  0.0254
 4381TIP3    H113149   2.241   0.916   1.615  0.1190 -1.2876 -0.1114
 4381TIP3    H213150   2.247   0.802   1.715 -0.7124 -1.7563 -0.5846
 4382TIP3   OH213151   5.443   0.512   4.477 -0.0292 -0.3345  0.1670
 4382TIP3    H113152   5.351   0.497   4.457  0.0846 -0.5462 -0.2228
 4382TIP3    H213153   5.457   0.605   4.463  0.2293 -0.6005 -1.5832
 4383TIP3   OH213154   5.342   5.521   3.979 -0.4943  0.6100  0.1217
 4383TIP3    H113155   5.410   5.460   3.951 -2.4849 -0.3358 -3.3098
 4383TIP3    H213156   5.333   5.506   4.073  1.1933 -2.1988 -0.0385
 4384TIP3   OH213157   1.577   4.197   0.778 -0.4625  0.3080  0.6545
 4384TIP3    H113158   1.628   4.186   0.698  0.7285  1.0009  1.2919
 4384TIP3    H213159   1.641   4.226   0.843 -1.9136  2.6655  1.1367
 4385TIP3   OH213160   0.271   5.544   4.301  0.2127 -0.1546 -0.5187
 4385TIP3    H113161   0.297   5.538   4.209  1.2829 -1.5773 -0.1593
 4385TIP3    H213162   0.220   5.465   4.318 -0.1351  0.1819  0.0721
 4386TIP3   OH213163   4.891   5.195   4.649 -0.1323  0.2036  0.9810
 4386TIP3    H113164   4.906   5.268   4.708  0.6351  0.2984  0.6723
 4386TIP3    H213165   4.960   5.132   4.669 -0.4015 -0.1544  0.7987
 4387TIP3   OH213166   3.942   0.533   1.472  0.7178 -0.1610  0.1601
 4387TIP3    H113167   3.983   0.552   1.388  0.8853 -0.7120  0.1135
 4387TIP3    H213168   4.003   0.474   1.516  0.2755 -0.4825  0.3520
 4388TIP3   OH213169   2.595   4.243   2.658 -0.2716  0.5153  0.0837
 4388TIP3    H113170   2.527   4.233   2.725  0.0504 -0.5916  0.2602
 4388TIP3    H213171   2.550   4.231   2.575 -0.8907  2.9714 -0.0179
 4389TIP3   OH213172   5.815   2.109   0.560 -0.5556  0.2165 -0.3452
 4389TIP3    H113173   5.766   2.171   0.506 -2.0240  0.7233  1.4802
 4389TIP3    H213174   5.796   2.136   0.650  2.1113 -0.3400  0.4729
 4390TIP3   OH213175   4.507   5.450   1.403 -0.2252 -0.4804 -0.2445
 4390TIP3    H113176   4.504   5.358   1.377  0.7356 -1.0697  1.5849
 4390TIP3    H213177   4.415   5.473   1.420 -0.3911 -1.3475  0.0880
 4391TIP3   OH213178   0.183   1.622   1.464 -0.1931 -0.1754 -0.0495
 4391TIP3    H113179   0.274   1.598   1.479 -0.6020 -1.3698  0.6145
 4391TIP3    H213180   0.178   1.714   1.489  0.5433 -0.4613  1.2137
 4392TIP3   OH213181   4.134   3.524   5.108  0.3284  0.7418 -0.1661
 4392TIP3    H113182   4.198   3.535   5.178 -0.1617 -1.1775  0.6373
 4392TIP3    H213183   4.059   3.481   5.150  0.4044 -1.3878 -2.0217
 4393TIP3   OH213184   3.550   1.182   3.261  0.5935 -0.1342  0.1712
 4393TIP3    H113185   3.612   1.161   3.191  1.7986  0.9537  0.8699
 4393TIP3    H213186   3.555   1.277   3.270  0.6832 -0.2713  1.9052
 4394TIP3   OH213187   1.799   0.153   1.820 -0.1237 -0.4372 -0.1026
 4394TIP3    H113188   1.873   0.134   1.876  0.2626 -0.4669 -0.6170
 4394TIP3    H213189   1.809   0.245   1.796 -0.6493 -0.2387  0.4007
 4395TIP3   OH213190   1.001   4.156   3.141 -0.0290  0.4367  0.3419
 4395TIP3    H113191   0.994   4.185   3.231 -0.5616 -1.5031  0.9729
 4395TIP3    H213192   1.093   4.129   3.131 -0.1252  0.0439  0.5083
 4396TIP3   OH213193   2.418   2.862   4.040 -0.0991 -0.6566 -0.3832
 4396TIP3    H113194   2.389   2.949   4.011  0.4682 -0.5621 -0.6854
 4396TIP3    H213195   2.339   2.808   4.039 -0.9468  0.4083  2.0105
 4397TIP3   OH213196   1.023   2.181   5.061 -0.0567 -0.1753  0.9399
 4397TIP3    H113197   0.954   2.135   5.108 -1.0970  1.0108  0.6475
 4397TIP3    H213198   1.082   2.113   5.031 -0.9327 -1.2008  1.4824
 4398TIP3   OH213199   5.261   4.576   5.181 -0.1264  0.0953 -0.9336
 4398TIP3    H113200   5.305   4.526   5.112  0.3041 -0.3107 -0.3766
 4398TIP3    H213201   5.320   4.650   5.198  0.3719 -0.4602 -0.1718
 4399TIP3   OH213202   3.998   4.226   4.613  0.5757 -0.1666  0.2413
 4399TIP3    H113203   3.935   4.177   4.560  1.0967 -2.3256  1.4870
 4399TIP3    H213204   3.950   4.249   4.693  0.4619  1.0747 -0.1548
 4400TIP3   OH213205   3.252   3.957   3.587  0.6352 -0.2108 -0.8403
 4400TIP3    H113206   3.266   4.036   3.639 -0.1953 -1.5002  1.4909
 4400TIP3    H213207   3.336   3.911   3.590 -0.3537 -2.2353  3.0600
 4401TIP3   OH213208   2.601   0.143   4.356 -0.3232 -0.2206 -0.1227
 4401TIP3    H113209   2.650   0.223   4.374 -1.9199  1.0779 -1.3184
 4401TIP3    H213210   2.553   0.126   4.437  1.2567 -0.9638  0.7206
 4402TIP3   OH213211   6.003   3.481   4.304 -0.3102  0.4331 -0.4866
 4402TIP3    H113212   6.041   3.404   4.347  0.1217 -0.4411 -2.3413
 4402TIP3    H213213   6.076   3.543   4.298 -0.5445  0.8443  0.5960
 4403TIP3   OH213214   3.276   1.514   4.234 -0.7738 -0.4388 -0.4090
 4403TIP3    H113215   3.315   1.456   4.299  0.2160  0.3600 -0.2663
 4403TIP3    H213216   3.311   1.483   4.151  0.1151  0.2074 -0.2912
 4404TIP3   OH213217   0.589   1.025   4.556 -0.0892  0.2525  0.1574
 4404TIP3    H113218   0.625   0.997   4.472  0.9475  0.9481  0.3518
 4404TIP3    H213219   0.634   0.970   4.621  0.3331  0.8459  0.3737
 4405TIP3   OH213220   2.240   5.089   3.401  0.0079  0.0158  0.2947
 4405TIP3    H113221   2.332   5.064   3.406  0.0566  0.3468  1.2950
 4405TIP3    H213222   2.198   5.041   3.473 -0.7227 -0.5998 -0.5146
 4406TIP3   OH213223   1.784   0.974   4.384  0.5862 -0.2233  0.1126
 4406TIP3    H113224   1.732   0.985   4.464  1.0109  0.5670  0.2950
 4406TIP3    H213225   1.724   0.932   4.322 -0.2712  0.6323  0.3390
 4407TIP3   OH213226   4.858   5.859   0.115  0.2345 -0.4043 -0.2496
 4407TIP3    H113227   4.802   5.806   0.172  1.9956 -2.0942 -0.0014
 4407TIP3    H213228   4.829   5.838   0.026  0.7956 -1.6779 -0.1466
 4408TIP3   OH213229   6.136   0.913   3.518 -0.1441 -0.3631 -0.5643
 4408TIP3    H113230   6.189   0.985   3.552 -1.4388 -0.4490  1.8483
 4408TIP3    H213231   6.129   0.931   3.424  4.7800 -0.8145 -1.2901
 4409TIP3   OH213232   4.818   2.732   4.124 -0.2376 -0.1189 -0.5053
 4409TIP3    H113233   4.895   2.783   4.149  0.2589 -1.0426 -0.0534
 4409TIP3    H213234   4.764   2.729   4.203 -1.1126  1.1355 -1.0291
 4410TIP3   OH213235   3.120   3.057   2.929 -0.0419  0.0865  0.8932
 4410TIP3    H113236   3.066   3.032   2.854 -1.4513  1.9191  1.2458
 4410TIP3    H213237   3.209   3.036   2.902 -0.4129  1.4338 -1.6362
 4411TIP3   OH213238   5.195   1.595   4.676  0.1981  0.2714 -0.2552
 4411TIP3    H113239   5.102   1.613   4.660  0.3684  1.1970 -0.2474
 4411TIP3    H213240   5.233   1.583   4.589  0.0622 -0.1639 -0.2555
 4412TIP3   OH213241   3.688   5.846   4.312 -0.5288 -0.2570 -0.0903
 4412TIP3    H113242   3.754   5.870   4.248  0.2638 -0.2510  0.7119
 4412TIP3    H213243   3.737   5.810   4.385 -1.5500 -2.4965 -0.4240
 4413TIP3   OH213244   1.795   0.205   0.387 -0.0424 -0.0450  0.1621
 4413TIP3    H113245   1.725   0.265   0.363 -0.6005 -0.6510  0.2424
 4413TIP3    H213246   1.873   0.241   0.346 -0.9721 -1.1553 -2.8251
 4414TIP3   OH213247   4.964   1.891   1.681 -0.4753  0.2668  0.0582
 4414TIP3    H113248   4.919   1.821   1.728 -1.5686  0.5038 -0.6126
 4414TIP3    H213249   5.012   1.845   1.611  2.5325 -0.2940  2.2642
 4415TIP3   OH213250   0.149   3.867   3.990 -0.0974 -0.0568 -0.1508
 4415TIP3    H113251   0.200   3.838   4.066  0.6148  0.2969 -0.4852
 4415TIP3    H213252   0.111   3.786   3.955 -0.3979 -0.2233  0.5595
 4416TIP3   OH213253   3.830   4.891   3.322 -0.3400 -0.0840  0.0792
 4416TIP3    H113254   3.914   4.917   3.360 -0.2602  1.7339 -1.1941
 4416TIP3    H213255   3.782   4.974   3.312 -1.2751 -0.7707 -1.5260
 4417TIP3   OH213256   5.879   4.316   4.889  0.2573 -0.0419  0.2161
 4417TIP3    H113257   5.835   4.314   4.804 -0.2916 -0.0270  0.4929
 4417TIP3    H213258   5.963   4.273   4.874  0.2365  0.1169 -0.3709
 4418TIP3   OH213259   0.537   5.515   2.501  0.4039 -0.3837  0.0064
 4418TIP3    H113260   0.602   5.525   2.570 -0.5214  0.1758  0.8197
 4418TIP3    H213261   0.565   5.576   2.433 -0.2779  1.2631  1.1458
 4419TIP3   OH213262   3.613   0.425   4.473 -0.0630  0.2488 -0.7622
 4419TIP3    H113263   3.533   0.425   4.526  0.3051  1.1298 -0.1976
 4419TIP3    H213264   3.590   0.475   4.395 -0.5427 -0.8743 -1.3661
 4420TIP3   OH213265   3.415   5.802   2.847 -0.5131  0.2487  0.8473
 4420TIP3    H113266   3.322   5.782   2.859 -0.4040 -0.6295  0.2561
 4420TIP3    H213267   3.416   5.881   2.793 -0.9067 -0.3157  0.0032
 4421TIP3   OH213268   5.475   5.031   3.947 -1.1312  0.0187 -0.1916
 4421TIP3    H113269   5.520   5.007   3.866 -1.5936  0.2552 -0.5173
 4421TIP3    H213270   5.506   5.120   3.966 -2.6749  0.8268 -1.2894
 4422TIP3   OH213271   3.404   0.114   1.673  0.4992 -0.4497 -0.6667
 4422TIP3    H113272   3.499   0.112   1.687  0.4671  0.7719 -0.1410
 4422TIP3    H213273   3.393   0.167   1.594  0.1882  0.6843  0.1227
 4423TIP3   OH213274   5.910   4.262   3.942 -0.5942  0.3547  0.4075
 4423TIP3    H113275   5.925   4.244   4.035  1.3021  0.2989  0.1373
 4423TIP3    H213276   5.815   4.253   3.931 -0.8463  0.2080  2.2894
 4424TIP3   OH213277   2.227   3.038   2.363 -0.7355 -0.3071 -0.2046
 4424TIP3    H113278   2.207   3.111   2.304 -2.3303  0.5058  1.2423
 4424TIP3    H213279   2.320   3.019   2.348 -0.7068  0.9177 -1.8021
 4425TIP3   OH213280   3.519   5.658   4.087  0.1306  0.4348 -0.1909
 4425TIP3    H113281   3.590   5.645   4.151  1.6145  2.2651 -1.3460
 4425TIP3    H213282   3.564   5.668   4.003 -1.7349 -1.4069 -1.5016
 4426TIP3   OH213283   1.195   5.713   0.449  0.1475 -0.6945  0.1352
 4426TIP3    H113284   1.152   5.628   0.438 -2.0181  0.3862 -0.3684
 4426TIP3    H213285   1.134   5.764   0.503  1.5319  0.4657  0.6770
 4427TIP3   OH213286   0.706   5.073   1.456 -0.7569  0.3214 -0.2778
 4427TIP3    H113287   0.717   5.162   1.491 -1.6540  0.2868  0.1116
 4427TIP3    H213288   0.741   5.016   1.525  0.0446  0.3677 -0.6290
 4428TIP3   OH213289   0.083   3.308   0.880  0.0530  0.2698  0.0682
 4428TIP3    H113290   0.170   3.278   0.906 -0.6700 -1.6895  0.3793
 4428TIP3    H213291   0.029   3.229   0.881 -2.1596  1.6716  1.6307
 4429TIP3   OH213292   3.251   5.797   2.341  0.0202 -0.2283  0.1646
 4429TIP3    H113293   3.210   5.781   2.257  1.6835 -0.6605 -0.5987
 4429TIP3    H213294   3.192   5.858   2.385 -1.8523 -1.4777 -0.5039
 4430TIP3   OH213295   4.201   0.690   1.672  0.2363  0.3000  0.6738
 4430TIP3    H113296   4.232   0.769   1.627 -0.1371  0.3585  0.5201
 4430TIP3    H213297   4.237   0.618   1.621 -0.2261  0.3653  0.2485
 4431TIP3   OH213298   3.793   2.007   1.574  0.1682 -0.1376 -0.1565
 4431TIP3    H113299   3.784   2.089   1.526 -0.9212 -0.7936 -1.1370
 4431TIP3    H213300   3.855   1.956   1.521  1.1991  0.1979  0.6905
 4432TIP3   OH213301   1.011   0.753   0.559 -0.4158  0.0656  0.0651
 4432TIP3    H113302   0.994   0.766   0.652 -3.0698 -0.6734 -0.2336
 4432TIP3    H213303   1.105   0.762   0.551  0.0205 -0.7222  2.9703
 4433TIP3   OH213304   1.551   5.582   3.044  0.5106 -0.3448 -0.2640
 4433TIP3    H113305   1.499   5.551   3.118  0.2406 -0.4424 -0.4914
 4433TIP3    H213306   1.630   5.619   3.083 -0.4042  1.2113  0.2099
 4434TIP3   OH213307   2.059   2.953   4.893  0.2789 -0.5841  0.0340
 4434TIP3    H113308   2.111   3.022   4.933 -0.1012 -0.8510  1.0263
 4434TIP3    H213309   1.977   2.997   4.868 -0.0683 -0.7168  0.9048
 4435TIP3   OH213310   2.706   3.836   4.854  0.6879 -0.3720  0.0840
 4435TIP3    H113311   2.668   3.848   4.768  0.5655  0.5967  0.2578
 4435TIP3    H213312   2.633   3.809   4.910  0.2261  1.4710  0.4153
 4436TIP3   OH213313   4.105   4.271   0.846  0.0124  0.1000 -0.4862
 4436TIP3    H113314   4.088   4.177   0.843 -0.2636  0.1568 -0.9007
 4436TIP3    H213315   4.169   4.282   0.915 -1.4786 -0.1561  1.0031
 4437TIP3   OH213316   2.309   0.311   3.029  0.5617  0.3764  0.7243
 4437TIP3    H113317   2.296   0.368   3.105 -0.5642 -0.1735  0.9714
 4437TIP3    H213318   2.230   0.324   2.976 -0.3377 -1.8380  1.4023
 4438TIP3   OH213319   6.044   5.099   0.261  0.6064 -0.2065 -0.1871
 4438TIP3    H113320   6.103   5.138   0.196  0.4857 -0.3548 -0.3878
 4438TIP3    H213321   6.046   5.160   0.335  3.0124 -1.4537  0.8815
 4439TIP3   OH213322   4.846   2.124   2.061  0.2754 -0.0144  0.8220
 4439TIP3    H113323   4.920   2.093   2.009 -0.1531 -1.0212  0.7839
 4439TIP3    H213324   4.781   2.055   2.052 -0.9032  1.1056  0.3786
 4440TIP3   OH213325   1.844   4.425   4.445  0.3398  0.1129  0.1816
 4440TIP3    H113326   1.827   4.512   4.482  0.5944  0.0505  0.4455
 4440TIP3    H213327   1.873   4.372   4.520 -0.7954 -0.4735  0.2323
 4441TIP3   OH213328   5.829   5.845   0.036 -0.0777 -0.2754  0.8289
 4441TIP3    H113329   5.829   5.873  -0.055  2.3025  0.7118  1.0515
 4441TIP3    H213330   5.786   5.916   0.083  1.2418  0.5928  0.7705
 4442TIP3   OH213331   0.217   2.185   4.378 -0.0677 -0.3046 -0.0819
 4442TIP3    H113332   0.299   2.226   4.349 -0.4850 -0.5318 -1.6667
 4442TIP3    H213333   0.221   2.097   4.342 -0.0494 -1.0531  1.6779
 4443TIP3   OH213334   3.165   0.583   3.528  0.3728 -0.5037  0.1328
 4443TIP3    H113335   3.174   0.632   3.447 -1.7129  2.2024  1.3975
 4443TIP3    H213336   3.126   0.499   3.502 -3.5671  1.5961 -1.4651
 4444TIP3   OH213337   0.141   3.034   3.596 -0.5167 -0.4670 -0.6665
 4444TIP3    H113338   0.224   3.004   3.559 -0.5993 -1.3042 -0.1885
 4444TIP3    H213339   0.167   3.091   3.669 -0.3379 -1.9813  0.4926
 4445TIP3   OH213340   4.170   3.299   2.868  0.5191  0.4024  0.0135
 4445TIP3    H113341   4.178   3.329   2.778 -1.8194 -0.4840 -0.5598
 4445TIP3    H213342   4.148   3.206   2.862  1.0415  0.1433  1.5228
 4446TIP3   OH213343   1.976   2.038   3.671 -0.2994 -0.0141 -0.2047
 4446TIP3    H113344   1.940   2.051   3.759  2.2867 -0.3953  1.0161
 4446TIP3    H213345   2.000   1.945   3.668 -0.5006 -0.0477 -1.4031
 4447TIP3   OH213346   3.549   3.285   2.787 -0.2166 -0.1634 -0.1052
 4447TIP3    H113347   3.609   3.252   2.854 -0.3480 -0.7909 -0.2859
 4447TIP3    H213348   3.524   3.372   2.818  0.7717  0.0976 -0.0223
 4448TIP3   OH213349   4.251   5.109   3.995  0.7389  0.5095 -0.1176
 4448TIP3    H113350   4.248   5.064   3.911  1.6347 -3.4751  1.7354
 4448TIP3    H213351   4.319   5.175   3.984  0.5280  0.4179 -2.6131
 4449TIP3   OH213352   4.195   2.943   2.209 -0.4921  0.3917 -0.6972
 4449TIP3    H113353   4.277   2.909   2.173 -0.5819  0.0825 -0.6143
 4449TIP3    H213354   4.216   3.032   2.236  0.1520 -0.0941  0.4655
 4450TIP3   OH213355   2.592   4.934   2.281 -0.4122  0.6672  0.2942
 4450TIP3    H113356   2.565   5.011   2.232 -0.4444  0.2854 -0.3024
 4450TIP3    H213357   2.519   4.873   2.272  0.7380 -0.5493 -1.7121
 4451TIP3   OH213358   1.610   0.060   1.644 -0.5120 -0.2532 -0.0404
 4451TIP3    H113359   1.528   0.078   1.690 -0.6716 -0.5403 -0.2074
 4451TIP3    H213360   1.678   0.084   1.706 -0.7268 -0.3622  0.2395
 4452TIP3   OH213361   3.641   1.297   4.872 -0.2854  1.1267  0.1027
 4452TIP3    H113362   3.585   1.313   4.948 -1.2906  1.1768 -0.6227
 4452TIP3    H213363   3.648   1.383   4.829  0.7898  1.2298  0.4710
 4453TIP3   OH213364   5.518   2.253   1.681 -0.0856 -0.2278 -0.9319
 4453TIP3    H113365   5.430   2.290   1.693  0.2591  0.6551 -1.1060
 4453TIP3    H213366   5.572   2.297   1.747  0.3688 -0.2925 -1.2598
 4454TIP3   OH213367   0.533   4.495   2.216 -0.5581  0.0143  0.5646
 4454TIP3    H113368   0.441   4.518   2.202 -0.5774 -0.3293  0.0780
 4454TIP3    H213369   0.535   4.400   2.205  0.3258  0.2547 -2.4403
 4455TIP3   OH213370   5.571   0.862   3.512 -0.2457 -0.0731 -0.2572
 4455TIP3    H113371   5.479   0.876   3.531 -0.1616  2.3911 -1.2028
 4455TIP3    H213372   5.572   0.811   3.431 -0.6638 -2.9946  1.4589
 4456TIP3   OH213373   2.294   3.956   4.200 -0.0994  0.1531  0.5265
 4456TIP3    H113374   2.294   3.968   4.295 -0.0222 -1.4095  0.7412
 4456TIP3    H213375   2.387   3.964   4.175 -0.0230 -0.2529  0.6875
 4457TIP3   OH213376   4.989   2.050   3.251 -0.4181  0.1385 -0.1007
 4457TIP3    H113377   4.960   2.140   3.268 -1.7902 -0.1161 -0.9185
 4457TIP3    H213378   4.929   2.018   3.184  1.7187 -0.4942 -1.8252
 4458TIP3   OH213379   6.062   2.577   5.089 -0.3889 -0.5619 -0.0406
 4458TIP3    H113380   6.009   2.617   5.020  0.5699 -1.6235 -1.4574
 4458TIP3    H213381   6.079   2.488   5.058  1.2717 -0.6045  0.8654
 4459TIP3   OH213382   5.322   3.947   1.579 -0.6721  0.1385 -0.0289
 4459TIP3    H113383   5.272   3.877   1.622 -0.3441 -0.8132 -1.1445
 4459TIP3    H213384   5.356   3.906   1.499  1.2737  0.9668  0.3285
 4460TIP3   OH213385   2.537   1.271   0.502  0.4778 -0.0470 -0.2033
 4460TIP3    H113386   2.570   1.278   0.412 -0.9899  0.6459 -0.7258
 4460TIP3    H213387   2.465   1.209   0.496 -0.2527  0.7292  0.2922
 4461TIP3   OH213388   1.112   5.618   2.834  0.7105 -0.0565  0.2941
 4461TIP3    H113389   1.187   5.640   2.779  0.3564 -0.9747 -0.5860
 4461TIP3    H213390   1.114   5.523   2.840  0.2572 -0.0210  1.2064
 4462TIP3   OH213391   3.623   5.658   0.390  0.1590 -0.6145 -0.4067
 4462TIP3    H113392   3.656   5.708   0.465 -2.4946  1.2884 -0.3500
 4462TIP3    H213393   3.698   5.648   0.332  1.0599  2.7786 -0.0048
 4463TIP3   OH213394   2.256   3.675   1.483 -0.2926 -0.5175 -0.1553
 4463TIP3    H113395   2.332   3.731   1.496 -0.7534  0.1172 -0.1618
 4463TIP3    H213396   2.292   3.586   1.476  0.3098 -0.4746  1.7362
 4464TIP3   OH213397   5.191   3.588   1.309  0.1475  0.2316 -0.1346
 4464TIP3    H113398   5.220   3.498   1.298  1.1174  0.3766  0.9917
 4464TIP3    H213399   5.236   3.637   1.241 -1.4462 -0.3042 -1.6486
 4465TIP3   OH213400   0.686   5.563   3.790 -0.1181 -0.2226  0.4817
 4465TIP3    H113401   0.691   5.512   3.871 -1.3496 -0.8480  0.1967
 4465TIP3    H213402   0.599   5.603   3.793  0.8235  1.9012  0.6934
 4466TIP3   OH213403   5.075   5.398   2.596  0.0479  0.1392  0.0700
 4466TIP3    H113404   5.162   5.437   2.597  1.2347 -2.3263 -0.3077
 4466TIP3    H213405   5.069   5.350   2.679 -1.5841  1.4731  0.7790
 4467TIP3   OH213406   1.799   2.267   3.097  0.3699 -0.4629  0.4214
 4467TIP3    H113407   1.724   2.244   3.151 -0.6251  0.0353 -0.7109
 4467TIP3    H213408   1.831   2.350   3.134 -1.7802  1.1645 -1.1238
 4468TIP3   OH213409   5.739   3.767   3.907 -0.5155  0.1196 -0.0744
 4468TIP3    H113410   5.734   3.816   3.989 -1.8963  1.5715 -0.9748
 4468TIP3    H213411   5.819   3.799   3.865  0.6315 -1.2013  0.9975
 4469TIP3   OH213412   5.743   4.421   1.402 -0.4621 -0.3483  0.4484
 4469TIP3    H113413   5.757   4.516   1.403  1.0224 -0.5380  0.3196
 4469TIP3    H213414   5.810   4.387   1.461 -2.0420 -1.2186  1.8148
 4470TIP3   OH213415   5.975   4.206   0.349  0.1464 -0.1416  0.3413
 4470TIP3    H113416   6.010   4.281   0.300  0.6458 -0.0819  0.7783
 4470TIP3    H213417   6.051   4.151   0.366 -0.4709 -1.5937 -1.4001
 4471TIP3   OH213418   2.849   5.300   4.744  0.3307 -0.3041  0.2698
 4471TIP3    H113419   2.818   5.235   4.806 -1.7072 -0.4322 -0.7838
 4471TIP3    H213420   2.908   5.356   4.794  0.6208 -1.8104  1.6757
 4472TIP3   OH213421   1.148   3.566   4.308 -1.2829 -0.0188  0.5286
 4472TIP3    H113422   1.153   3.471   4.307 -1.2775 -0.0728  2.4175
 4472TIP3    H213423   1.157   3.590   4.400  0.3169  1.9069 -0.0630
 4473TIP3   OH213424   2.814   1.311   3.155  0.0172  0.1290  0.8602
 4473TIP3    H113425   2.832   1.220   3.178  2.0749  0.2426 -0.1161
 4473TIP3    H213426   2.889   1.359   3.186 -0.1884  1.2229 -0.2477
 4474TIP3   OH213427   6.180   5.489   3.568  0.3881 -0.5516 -0.5678
 4474TIP3    H113428   6.222   5.521   3.489  0.3789 -0.0814 -0.3822
 4474TIP3    H213429   6.245   5.431   3.608  0.8632  0.1727 -0.2786
 4475TIP3   OH213430   0.089   5.371   0.394 -0.1512  0.0613 -0.1375
 4475TIP3    H113431   0.123   5.424   0.322 -0.4135  0.8464  0.3024
 4475TIP3    H213432   0.150   5.388   0.466 -0.6606  0.3496  0.2270
 4476TIP3   OH213433   6.129   3.105   1.265 -0.1886 -0.5429 -0.1607
 4476TIP3    H113434   6.188   3.031   1.275 -0.1027 -0.4908 -0.2904
 4476TIP3    H213435   6.185   3.182   1.272  0.0327 -0.4953 -1.9717
 4477TIP3   OH213436   5.472   1.934   3.640  0.1228 -0.2506  0.3624
 4477TIP3    H113437   5.521   2.013   3.662  1.1423  0.0329 -2.4758
 4477TIP3    H213438   5.380   1.957   3.656  0.5184  0.9675  1.0280
 4478TIP3   OH213439   1.170   4.983   2.113 -0.8891  0.0541 -0.3499
 4478TIP3    H113440   1.109   5.053   2.089 -3.6283 -2.5712 -1.7075
 4478TIP3    H213441   1.195   5.003   2.204 -2.1794  2.3053 -0.4171
 4479TIP3   OH213442   3.636   3.069   4.028 -0.5047 -0.0426 -0.0104
 4479TIP3    H113443   3.649   3.163   4.039 -2.7064 -0.0163  4.2436
 4479TIP3    H213444   3.724   3.033   4.028  0.3289  1.8533  0.4354
 4480TIP3   OH213445   1.676   5.053   4.259  0.2369 -0.5803  0.0737
 4480TIP3    H113446   1.645   4.971   4.219 -0.8755  0.0116 -0.3111
 4480TIP3    H213447   1.772   5.049   4.249  0.1907 -1.7706 -0.0545
 4481TIP3   OH213448   0.596   5.015   1.740  0.1430  1.0579  0.0055
 4481TIP3    H113449   0.646   4.955   1.685 -1.1574  0.3010 -0.4201
 4481TIP3    H213450   0.611   4.984   1.829  0.1017  0.5566 -0.1553
 4482TIP3   OH213451   0.810   0.555   3.663 -0.2094  0.2003  0.1363
 4482TIP3    H113452   0.783   0.617   3.595 -2.5032 -2.8509 -2.0158
 4482TIP3    H213453   0.739   0.556   3.727 -0.1391 -0.0012  0.2205
 4483TIP3   OH213454   1.855   2.253   1.191  0.3926  0.1772 -0.2302
 4483TIP3    H113455   1.863   2.348   1.205  0.1368  0.2355 -0.4686
 4483TIP3    H213456   1.927   2.231   1.132  0.1832  0.3011 -0.5324
 4484TIP3   OH213457   4.836   5.873   0.984  0.0406  0.3059 -0.2369
 4484TIP3    H113458   4.906   5.841   0.927 -0.4991 -1.7783  0.1851
 4484TIP3    H213459   4.881   5.924   1.052  1.0636 -0.2548 -0.4812
 4485TIP3   OH213460   5.997   2.239   1.268  0.4234  0.2843 -0.1041
 4485TIP3    H113461   6.072   2.201   1.222  1.6061  0.9966  1.1656
 4485TIP3    H213462   6.024   2.241   1.360 -1.5359 -0.3319  0.5408
 4486TIP3   OH213463   4.558   1.038   3.426 -0.2032  0.3349  0.1070
 4486TIP3    H113464   4.497   1.033   3.499  0.9711 -0.4092  1.0794
 4486TIP3    H213465   4.556   1.130   3.400 -0.0895  0.7854  1.5784
 4487TIP3   OH213466   6.088   0.722   1.054 -0.5785 -0.1243  0.6101
 4487TIP3    H113467   5.999   0.698   1.030 -0.1438 -2.0373  0.7667
 4487TIP3    H213468   6.095   0.702   1.147  0.6350 -2.2260  0.1427
 4488TIP3   OH213469   2.226   4.588   1.045 -0.0009 -0.3329 -0.1154
 4488TIP3    H113470   2.243   4.516   0.984  1.1216 -0.0830 -0.1108
 4488TIP3    H213471   2.200   4.661   0.989 -0.4065 -0.5247 -0.1785
 4489TIP3   OH213472   1.872   4.435   3.394  0.1736  0.1147 -0.5234
 4489TIP3    H113473   1.817   4.359   3.373 -0.3114  0.3119  0.0168
 4489TIP3    H213474   1.890   4.427   3.487 -0.9477  1.3393 -0.1829
 4490TIP3   OH213475   4.879   4.013   1.045 -0.0228  0.2174  0.8251
 4490TIP3    H113476   4.875   3.944   1.112 -0.6780  1.2484  1.8979
 4490TIP3    H213477   4.954   4.066   1.071  1.6217 -1.0523 -1.0310
 4491TIP3   OH213478   4.025   5.022   2.389  0.0496 -0.9483 -0.0435
 4491TIP3    H113479   4.106   5.035   2.439  1.0466  0.5915 -1.9002
 4491TIP3    H213480   4.000   4.931   2.407  0.5155 -0.5957  2.8858
 4492TIP3   OH213481   6.123   4.002   1.170  0.1134  0.7761 -0.2375
 4492TIP3    H113482   6.133   4.091   1.206  0.9428  0.6814 -0.2160
 4492TIP3    H213483   6.158   4.008   1.081  2.5543 -0.0863  0.5932
 4493TIP3   OH213484   1.400   1.820   2.175  0.0486  0.2589 -0.0487
 4493TIP3    H113485   1.463   1.773   2.230 -0.4442  1.5872  1.7646
 4493TIP3    H213486   1.318   1.818   2.226 -0.1496  2.4992 -0.1684
 4494TIP3   OH213487   4.500   5.744   3.650 -0.2667  0.3450 -0.3614
 4494TIP3    H113488   4.461   5.831   3.660 -0.9084  0.0319 -0.0891
 4494TIP3    H213489   4.425   5.686   3.636  0.2247 -0.0063 -1.6707
 4495TIP3   OH213490   3.948   5.697   0.880  0.1131  0.5292 -0.5995
 4495TIP3    H113491   3.937   5.792   0.885  0.1302  0.6244 -1.8773
 4495TIP3    H213492   4.023   5.678   0.937  0.2006  1.3005 -0.4498
 4496TIP3   OH213493   2.054   3.795   4.970  0.2944 -0.0335 -0.0750
 4496TIP3    H113494   2.109   3.872   4.983 -0.7880  0.9191 -0.9017
 4496TIP3    H213495   2.116   3.724   4.953  1.2963  0.8065 -0.0300
 4497TIP3   OH213496   1.570   3.432   2.321  0.0175 -0.2189 -0.0278
 4497TIP3    H113497   1.616   3.492   2.381  0.2914 -1.3447  0.9309
 4497TIP3    H213498   1.608   3.346   2.340 -0.8675 -0.8126 -0.8716
 4498TIP3   OH213499   1.364   4.491   4.888 -0.3864  0.0283  0.4924
 4498TIP3    H113500   1.286   4.515   4.937 -0.2371 -0.2959  0.9035
 4498TIP3    H213501   1.358   4.540   4.806 -1.6806 -0.9756 -0.0526
 4499TIP3   OH213502   1.114   4.179   1.444  0.1457 -0.3888 -0.1408
 4499TIP3    H113503   1.139   4.237   1.517  1.1706  0.0999 -0.8598
 4499TIP3    H213504   1.060   4.111   1.485  1.0357 -0.3547  1.1630
 4500TIP3   OH213505   1.725   5.423   2.610  0.5394 -0.2124  0.9469
 4500TIP3    H113506   1.732   5.485   2.683 -0.6614 -1.0454  1.8091
 4500TIP3    H213507   1.631   5.414   2.595  0.7537 -0.5659 -0.2755
 4501TIP3   OH213508   4.697   1.591   4.759  0.0208 -0.0805 -0.0138
 4501TIP3    H113509   4.755   1.641   4.700 -0.1482 -1.0270 -1.0113
 4501TIP3    H213510   4.756   1.533   4.806  0.1613  0.7083  0.8165
 4502TIP3   OH213511   1.115   1.750   0.518  0.0073  0.4808 -0.3491
 4502TIP3    H113512   1.121   1.673   0.574  0.1184 -1.0747 -2.3479
 4502TIP3    H213513   1.199   1.794   0.529  0.4643 -0.4162 -0.1239
 4503TIP3   OH213514   2.500   4.384   3.051  0.5805 -0.5289 -0.2230
 4503TIP3    H113515   2.479   4.344   2.966  0.6330 -1.0736  0.0142
 4503TIP3    H213516   2.462   4.325   3.115 -2.5375  1.6267  0.1165
 4504TIP3   OH213517   1.272   4.120   1.809 -0.6357  0.2981  0.2445
 4504TIP3    H113518   1.258   4.209   1.842 -0.4876  0.8401 -1.0772
 4504TIP3    H213519   1.211   4.066   1.859  0.0848  0.9312  1.8870
 4505TIP3   OH213520   5.612   0.635   0.784 -0.2978 -0.0963  0.2067
 4505TIP3    H113521   5.553   0.561   0.799  1.2502 -1.3432  0.3573
 4505TIP3    H213522   5.583   0.673   0.701 -0.9670 -1.0044  0.0150
 4506TIP3   OH213523   4.758   0.540   2.775 -0.2200 -0.2620 -0.2903
 4506TIP3    H113524   4.812   0.548   2.854 -1.5440  0.9200  0.5407
 4506TIP3    H213525   4.717   0.454   2.782 -0.2054 -0.2309  0.2441
 4507TIP3   OH213526   2.163   3.328   0.820 -0.3612 -0.9664  0.4081
 4507TIP3    H113527   2.134   3.250   0.868 -0.4082 -0.9694  0.3747
 4507TIP3    H213528   2.135   3.401   0.874  0.1724 -0.9826  0.7191
 4508TIP3   OH213529   6.035   0.991   2.804  0.2382 -0.1016  0.3391
 4508TIP3    H113530   6.119   0.976   2.759  0.6170 -0.1882  1.0616
 4508TIP3    H213531   5.990   1.056   2.749  0.3266 -0.8231 -0.6131
 4509TIP3   OH213532   0.235   1.506   4.784  0.3905  0.5086  0.0354
 4509TIP3    H113533   0.285   1.586   4.771 -0.9222  1.3377 -0.0253
 4509TIP3    H213534   0.247   1.485   4.877  0.9561  0.6150 -0.0125
 4510TIP3   OH213535   2.630   4.853   3.905  0.1131  0.3169  0.6405
 4510TIP3    H113536   2.682   4.931   3.884  1.1031 -0.3944  0.4143
 4510TIP3    H213537   2.571   4.844   3.830  1.9957 -0.8124 -0.8014
 4511TIP3   OH213538   4.950   2.170   2.940  0.1431  0.1132  0.1782
 4511TIP3    H113539   5.022   2.232   2.948  0.4979 -0.4066  1.1036
 4511TIP3    H213540   4.944   2.152   2.846 -0.1210  1.7052 -0.1380
 4512TIP3   OH213541   1.827   3.431   0.047 -0.9020  0.1683 -0.1131
 4512TIP3    H113542   1.767   3.488   0.096 -0.9498 -1.5583  1.9970
 4512TIP3    H213543   1.771   3.361   0.013 -0.3610 -0.5531  0.4477
 4513TIP3   OH213544   2.654   2.731   1.900  0.2604  0.1367  0.5699
 4513TIP3    H113545   2.699   2.694   1.976 -1.2581 -1.4840  0.7315
 4513TIP3    H213546   2.709   2.805   1.874  2.8726 -1.5629  0.8966
 4514TIP3   OH213547   4.542   1.723   0.456 -1.1285  0.0174  0.0480
 4514TIP3    H113548   4.490   1.759   0.528 -1.9825 -1.6274  0.3174
 4514TIP3    H213549   4.538   1.790   0.387 -0.4602  1.5327  1.4228
 4515TIP3   OH213550   0.398   3.663   1.582  0.0063  0.1153 -0.3092
 4515TIP3    H113551   0.390   3.569   1.597 -0.1389 -0.0805 -1.4797
 4515TIP3    H213552   0.486   3.674   1.545 -0.6690  0.1507 -1.9929
 4516TIP3   OH213553   4.019   0.795   0.287 -0.1508  0.0450  0.1240
 4516TIP3    H113554   3.993   0.782   0.378 -2.7806 -0.7320 -0.6564
 4516TIP3    H213555   4.034   0.889   0.279  1.7243 -0.0660  1.6932
 4517TIP3   OH213556   6.157   5.786   1.183 -0.3035  0.1273  0.6108
 4517TIP3    H113557   6.118   5.829   1.107 -0.5090  0.2238  0.7683
 4517TIP3    H213558   6.250   5.777   1.161 -0.6958 -1.7762 -0.5764
 4518TIP3   OH213559   0.812   5.633   0.420 -0.0536 -0.4493 -0.1215
 4518TIP3    H113560   0.756   5.562   0.452 -0.7273  0.1160 -0.0103
 4518TIP3    H213561   0.804   5.630   0.325 -0.6107 -0.1169 -0.0912
 4519TIP3   OH213562   1.456   3.618   4.759  0.7422  0.2142  0.0302
 4519TIP3    H113563   1.523   3.673   4.800 -0.0271  0.7665  0.5649
 4519TIP3    H213564   1.505   3.545   4.720  1.7201  0.9716 -0.1861
 4520TIP3   OH213565   2.740   2.163   3.303 -0.3901  0.1767  0.4230
 4520TIP3    H113566   2.824   2.149   3.260 -0.9002  0.8478 -0.8455
 4520TIP3    H213567   2.711   2.075   3.328  0.3622 -0.1278  0.2444
 4521TIP3   OH213568   1.360   3.921   2.837  0.6874  0.5629 -0.7063
 4521TIP3    H113569   1.313   3.844   2.805 -1.5163  1.1593  0.7912
 4521TIP3    H213570   1.452   3.894   2.839  0.3109 -1.1220 -2.6165
 4522TIP3   OH213571   2.895   4.241   4.640 -0.1462  0.1105 -0.0796
 4522TIP3    H113572   2.862   4.278   4.557 -0.2627 -1.4193 -0.7450
 4522TIP3    H213573   2.817   4.204   4.682  0.4289 -2.3694 -1.0453
 4523TIP3   OH213574   3.345   4.974   4.626 -0.6094  0.2609 -0.2816
 4523TIP3    H113575   3.372   4.939   4.541 -0.5767  1.3579 -0.7464
 4523TIP3    H213576   3.428   4.994   4.671 -0.6195 -0.6607  0.1762
 4524TIP3   OH213577   1.691   0.112   4.277  0.1915 -0.3189  0.0789
 4524TIP3    H113578   1.782   0.084   4.285  0.0882 -0.7427 -0.2422
 4524TIP3    H213579   1.696   0.208   4.269  0.7648 -0.4858 -2.1513
 4525TIP3   OH213580   3.246   4.401   0.336  0.4729  0.0792 -0.3049
 4525TIP3    H113581   3.319   4.349   0.370 -0.9602 -1.9806 -0.2207
 4525TIP3    H213582   3.230   4.467   0.403  1.7962  0.1337 -0.0165
 4526TIP3   OH213583   2.628   5.052   4.746  0.6800 -0.6634 -0.8204
 4526TIP3    H113584   2.635   5.091   4.833 -1.9185 -1.4839 -0.1483
 4526TIP3    H213585   2.719   5.042   4.717  1.5685  1.3452  0.9738
 4527TIP3   OH213586   2.332   0.856   3.564 -0.5760  0.3542  0.2884
 4527TIP3    H113587   2.420   0.831   3.535 -0.0904  1.4762  0.7533
 4527TIP3    H213588   2.292   0.897   3.488 -0.5114  0.3113  0.2309
 4528TIP3   OH213589   5.255   4.184   3.590 -0.0894  0.4360  0.1215
 4528TIP3    H113590   5.200   4.262   3.587 -1.4142 -0.4144  1.2338
 4528TIP3    H213591   5.203   4.116   3.548  1.7059  0.4322 -2.3631
 4529TIP3   OH213592   5.261   1.102   3.893 -0.0392 -0.0453 -0.1699
 4529TIP3    H113593   5.351   1.129   3.876 -0.1813  0.3580 -0.3067
 4529TIP3    H213594   5.241   1.038   3.825  1.0552 -2.2872  1.4739
 4530TIP3   OH213595   0.602   5.378   3.599 -0.5092 -0.2598  0.1642
 4530TIP3    H113596   0.645   5.457   3.565 -1.0511 -0.7974 -1.9580
 4530TIP3    H213597   0.650   5.356   3.679  0.3556  1.5811  0.1849
 4531TIP3   OH213598   4.919   2.435   4.900 -0.0404  0.5841 -0.0560
 4531TIP3    H113599   4.976   2.359   4.911  0.4788  1.0476  0.6212
 4531TIP3    H213600   4.910   2.471   4.989  0.3013  1.7070 -0.4542
 4532TIP3   OH213601   3.139   2.317   0.038  0.1427 -0.3182 -0.0225
 4532TIP3    H113602   3.088   2.398   0.044 -0.2740 -0.6432  0.8991
 4532TIP3    H213603   3.160   2.309  -0.055  0.9620  1.3218 -0.0135
 4533TIP3   OH213604   1.790   1.141   3.774 -0.1130 -0.1906  0.1334
 4533TIP3    H113605   1.825   1.065   3.727 -1.1847 -0.5564 -0.0991
 4533TIP3    H213606   1.783   1.112   3.865 -0.4623 -0.3496  0.0559
 4534TIP3   OH213607   2.491   3.981   2.951  0.4160 -0.1808  0.1529
 4534TIP3    H113608   2.441   3.913   2.997  0.4307  0.4690  1.1653
 4534TIP3    H213609   2.518   3.939   2.869 -2.1359 -0.4188 -0.6664
 4535TIP3   OH213610   2.894   4.217   2.278 -0.3121 -0.4819  0.0842
 4535TIP3    H113611   2.829   4.199   2.346  1.6105 -0.4933  2.0410
 4535TIP3    H213612   2.876   4.307   2.251 -1.0702 -0.4444  0.6577
 4536TIP3   OH213613   4.530   5.525   1.031 -0.1523  0.2104  0.0741
 4536TIP3    H113614   4.453   5.562   0.987 -0.6967  1.4300  1.9473
 4536TIP3    H213615   4.494   5.461   1.092  0.4366 -0.1302  0.0712
 4537TIP3   OH213616   1.708   4.422   3.147  0.1872 -0.5892 -0.1665
 4537TIP3    H113617   1.620   4.386   3.162 -0.1495  0.1290 -0.3524
 4537TIP3    H213618   1.749   4.422   3.233 -0.1526 -0.5320 -0.0027
 4538TIP3   OH213619   1.135   3.244   0.916 -0.2565  0.8029 -0.7162
 4538TIP3    H113620   1.040   3.249   0.910 -0.2845  2.8546  0.6555
 4538TIP3    H213621   1.164   3.233   0.825 -1.7873 -0.4166 -1.1067
 4539TIP3   OH213622   3.125   3.800   2.621  0.2617 -0.5322  0.5658
 4539TIP3    H113623   3.038   3.834   2.603  0.4537 -0.1943  0.2676
 4539TIP3    H213624   3.122   3.708   2.595  0.4304 -0.1561 -0.8712
 4540TIP3   OH213625   1.324   3.157   2.007 -0.3846  0.6869 -0.0319
 4540TIP3    H113626   1.292   3.247   2.002 -0.2220  0.6936 -1.1338
 4540TIP3    H213627   1.365   3.141   1.922  2.9360  0.8008  1.4129
 4541TIP3   OH213628   4.760   5.342   1.247 -0.0412 -0.4278 -0.1231
 4541TIP3    H113629   4.698   5.391   1.302  0.4249 -0.0139  0.0377
 4541TIP3    H213630   4.844   5.353   1.290  0.3721  0.0813 -1.0502
 4542TIP3   OH213631   0.888   2.935   0.789  0.1194 -0.2502  0.0807
 4542TIP3    H113632   0.837   2.980   0.722  0.3273  0.5768  0.4543
 4542TIP3    H213633   0.938   3.005   0.831  0.1306 -0.7811  0.9724
 4543TIP3   OH213634   0.787   5.778   3.664  0.1343  0.1005 -0.1744
 4543TIP3    H113635   0.749   5.702   3.708  0.7729 -1.1701 -1.6947
 4543TIP3    H213636   0.864   5.800   3.717 -0.0234 -0.3567  0.2516
 4544TIP3   OH213637   2.953   1.055   1.734  0.2262 -0.1255 -0.0679
 4544TIP3    H113638   3.028   1.073   1.677 -0.2473 -0.4602 -0.8023
 4544TIP3    H213639   2.907   0.983   1.692  0.4504 -1.0942  1.2973
 4545TIP3   OH213640   4.571   3.516   0.222 -0.3182 -0.2204  0.1607
 4545TIP3    H113641   4.590   3.602   0.261 -2.0069 -0.0075  0.6079
 4545TIP3    H213642   4.477   3.504   0.236 -0.1469 -2.0810 -0.0589
 4546TIP3   OH213643   4.492   1.598   5.057  0.3928 -0.3063 -0.2342
 4546TIP3    H113644   4.461   1.509   5.038 -1.8563  0.3820 -0.0636
 4546TIP3    H213645   4.563   1.612   4.993  2.5157 -3.0099  1.2748
 4547TIP3   OH213646   0.080   1.935   0.677  0.1454  0.5439 -0.4684
 4547TIP3    H113647   0.153   1.896   0.630  0.0449 -0.9239  0.4957
 4547TIP3    H213648   0.004   1.917   0.622  0.3717  1.2452 -1.0239
 4548TIP3   OH213649   6.321   3.586   0.365 -0.3940 -0.3072 -0.5009
 4548TIP3    H113650   6.329   3.552   0.276 -0.4394 -0.0453 -0.6054
 4548TIP3    H213651   6.347   3.513   0.421 -2.0699 -1.0499 -0.6553
 4549TIP3   OH213652   1.630   4.442   1.631  0.1906 -0.1098 -0.2819
 4549TIP3    H113653   1.551   4.463   1.582  0.1363 -1.8048 -0.9616
 4549TIP3    H213654   1.699   4.496   1.591 -0.3570  0.4147 -0.5218
 4550TIP3   OH213655   2.049   3.032   0.493  0.8122 -0.1634  0.3310
 4550TIP3    H113656   2.117   2.972   0.462  2.2928  0.9946  1.2111
 4550TIP3    H213657   2.051   3.105   0.431  0.4101 -0.0929  0.3988
 4551TIP3   OH213658   1.788   5.580   0.628 -0.0794 -0.1107  0.7950
 4551TIP3    H113659   1.723   5.541   0.687 -1.3873 -0.0651 -0.5730
 4551TIP3    H213660   1.752   5.568   0.540  1.2429  0.9253  0.0685
 4552TIP3   OH213661   5.395   3.736   0.635 -0.3170 -0.3504 -0.4664
 4552TIP3    H113662   5.364   3.802   0.573 -1.4712  1.6580  2.0593
 4552TIP3    H213663   5.488   3.725   0.613  0.0484  2.4950 -0.7662
 4553TIP3   OH213664   6.065   1.558   4.669 -0.7965  0.2758 -0.1582
 4553TIP3    H113665   6.109   1.474   4.652 -0.9900 -0.2372  1.6608
 4553TIP3    H213666   6.015   1.575   4.590  0.5256 -0.4934 -1.2174
 4554TIP3   OH213667   4.433   4.056   3.531 -0.0359 -0.0242 -0.2822
 4554TIP3    H113668   4.411   4.097   3.614  0.5354  0.0874 -0.1817
 4554TIP3    H213669   4.458   3.967   3.554  0.7438  0.1921 -0.2478
 4555TIP3   OH213670   5.784   3.320   0.382  0.1956 -0.1034  0.3558
 4555TIP3    H113671   5.711   3.367   0.424 -1.6991 -0.8726 -1.8375
 4555TIP3    H213672   5.796   3.242   0.436 -1.1330 -0.3292  0.3714
 4556TIP3   OH213673   0.144   1.061   3.359 -0.3314  0.4262  0.0863
 4556TIP3    H113674   0.224   1.082   3.407 -0.8684  2.1678  0.2694
 4556TIP3    H213675   0.102   0.992   3.411  1.0188 -0.5308 -0.0271
 4557TIP3   OH213676   4.032   2.381   1.901 -0.2733 -0.3312  0.5297
 4557TIP3    H113677   3.988   2.448   1.847 -0.9906 -0.5228  0.8615
 4557TIP3    H213678   4.018   2.300   1.853  1.2914 -0.1591 -0.2900
 4558TIP3   OH213679   0.514   2.588   2.314 -0.3186  0.3592  0.6014
 4558TIP3    H113680   0.443   2.591   2.379 -0.7112 -0.7386  0.2362
 4558TIP3    H213681   0.576   2.654   2.344 -0.4846 -0.1325  2.1077
 4559TIP3   OH213682   4.459   1.348   4.980  0.1963  0.2427  0.3532
 4559TIP3    H113683   4.449   1.268   5.031 -2.6826  0.3444  0.0696
 4559TIP3    H213684   4.430   1.324   4.892 -0.6318  1.5604  0.2424
 4560TIP3   OH213685   5.830   5.348   3.308 -0.4354 -0.3438 -0.5614
 4560TIP3    H113686   5.831   5.435   3.269  0.4637 -0.3626 -0.5882
 4560TIP3    H213687   5.851   5.288   3.236  2.2095 -0.2996  0.0792
 4561TIP3   OH213688   0.174   4.396   2.885 -0.1219  0.5885 -0.3186
 4561TIP3    H113689   0.124   4.478   2.883  0.9017  1.2384  0.3194
 4561TIP3    H213690   0.134   4.346   2.956 -0.8394  0.4709 -0.7980
 4562TIP3   OH213691   2.399   4.941   3.709  0.0705  0.5619  0.3219
 4562TIP3    H113692   2.385   4.899   3.624 -2.8021 -0.8687  1.3990
 4562TIP3    H213693   2.458   5.014   3.690  0.6165 -0.5195 -2.6333
 4563TIP3   OH213694   3.916   1.675   2.573  0.5838 -0.2693  0.0522
 4563TIP3    H113695   3.903   1.740   2.642  0.1111  0.4836 -0.7275
 4563TIP3    H213696   3.958   1.723   2.502 -3.3261  0.3440 -2.1630
 4564TIP3   OH213697   4.593   2.024   3.878  0.7028  0.1338  0.0257
 4564TIP3    H113698   4.678   1.996   3.843  0.2236 -0.6360 -0.5556
 4564TIP3    H213699   4.555   1.944   3.914 -0.6280  0.0207 -1.5150
 4565TIP3   OH213700   3.526   4.201   4.110  0.1314  0.1842  0.5367
 4565TIP3    H113701   3.435   4.176   4.128  0.4949 -2.4578 -0.7472
 4565TIP3    H213702   3.576   4.123   4.131  2.0199  1.2891  0.3248
 4566TIP3   OH213703   3.447   4.090   1.448  0.4029 -0.1743  0.5375
 4566TIP3    H113704   3.537   4.072   1.474  1.3124  1.0953 -1.4636
 4566TIP3    H213705   3.416   4.007   1.412  0.4719 -0.8319  1.9410
 4567TIP3   OH213706   4.405   3.903   0.091  0.2124 -0.3441 -0.0914
 4567TIP3    H113707   4.432   3.912  -0.001  0.0058 -1.0569 -0.2295
 4567TIP3    H213708   4.322   3.855   0.087 -0.8658  1.4235  0.3531
 4568TIP3   OH213709   1.749   3.518   4.294  0.2525  0.5415 -0.1539
 4568TIP3    H113710   1.713   3.466   4.366  0.6227  1.4304  0.6929
 4568TIP3    H213711   1.738   3.462   4.217  0.6592 -0.7946  0.7211
 4569TIP3   OH213712   0.697   4.108   2.694 -0.4505  0.2717 -0.2329
 4569TIP3    H113713   0.756   4.168   2.648  0.4177 -0.5105 -0.1683
 4569TIP3    H213714   0.740   4.092   2.777  0.2515 -1.8082 -0.9300
 4570TIP3   OH213715   1.870   0.065   2.338  0.2675 -0.1100 -0.1594
 4570TIP3    H113716   1.834  -0.022   2.324 -0.8267  0.3503 -0.3673
 4570TIP3    H213717   1.939   0.074   2.273  1.4802 -1.3923  0.8925
 4571TIP3   OH213718   3.602   3.892   2.583 -0.3539  0.7563 -0.2837
 4571TIP3    H113719   3.602   3.884   2.488 -1.0381  1.3494 -0.3406
 4571TIP3    H213720   3.514   3.920   2.605 -0.1074  0.9480  0.5016
 4572TIP3   OH213721   0.468   2.722   3.569 -0.0872 -0.1456 -0.3836
 4572TIP3    H113722   0.477   2.663   3.644  1.3219  0.9223  0.3321
 4572TIP3    H213723   0.520   2.681   3.500  0.1804 -0.1760 -0.1652
 4573TIP3   OH213724   5.775   1.312   3.194 -0.3083 -0.8985  0.2122
 4573TIP3    H113725   5.714   1.383   3.175 -0.3730 -0.5855  1.4928
 4573TIP3    H213726   5.751   1.242   3.132 -0.0681  0.2617 -1.2428
 4574TIP3   OH213727   1.755   3.886   3.312  0.6882 -0.4060 -0.1278
 4574TIP3    H113728   1.675   3.902   3.362  0.0926 -0.6056 -0.9969
 4574TIP3    H213729   1.730   3.902   3.221  1.3852 -1.3947 -0.5100
 4575TIP3   OH213730   2.435   4.058   0.666  0.2079  0.2870 -0.0095
 4575TIP3    H113731   2.525   4.089   0.653 -0.1730  2.1324  1.3856
 4575TIP3    H213732   2.443   3.990   0.734  0.3364  2.2642  2.0782
 4576TIP3   OH213733   6.272   4.603   2.227  0.2545  0.6588  1.1269
 4576TIP3    H113734   6.329   4.528   2.246  0.1291  0.3056  0.1423
 4576TIP3    H213735   6.291   4.625   2.136  0.9362  2.3994  1.6547
 4577TIP3   OH213736   4.489   3.525   0.739 -0.4688 -0.0332  0.3768
 4577TIP3    H113737   4.443   3.469   0.677  0.8566  0.5236 -1.1884
 4577TIP3    H213738   4.424   3.544   0.807 -2.0294 -0.5398 -0.9019
 4578TIP3   OH213739   5.411   4.913   0.500 -0.3423  0.3857 -0.2640
 4578TIP3    H113740   5.330   4.951   0.467  0.4680  1.5041 -1.0165
 4578TIP3    H213741   5.386   4.825   0.527 -1.7573  0.6235 -0.7000
 4579TIP3   OH213742   5.185   2.435   1.010 -0.1379 -0.7286  0.1899
 4579TIP3    H113743   5.231   2.369   0.958  1.4316  0.0397  0.5132
 4579TIP3    H213744   5.111   2.389   1.049 -1.1826 -1.4173 -2.4293
 4580TIP3   OH213745   5.129   0.876   0.585  0.3138  0.3003 -0.1466
 4580TIP3    H113746   5.095   0.945   0.642  1.5380  1.8700 -1.2603
 4580TIP3    H213747   5.092   0.894   0.499  0.5115 -0.5534 -0.4274
 4581TIP3   OH213748   6.188   0.533   2.174 -0.8527  0.3765 -0.3691
 4581TIP3    H113749   6.146   0.603   2.123 -0.2468  0.6830 -0.4651
 4581TIP3    H213750   6.282   0.553   2.167 -0.7933  1.4550  2.2899
 4582TIP3   OH213751   2.684   3.574   2.890 -0.4887  0.1723 -0.2176
 4582TIP3    H113752   2.663   3.666   2.873  0.0446  0.2702 -0.3706
 4582TIP3    H213753   2.779   3.570   2.886 -0.5068 -0.3861 -0.1921
 4583TIP3   OH213754   5.231   1.818   4.162 -0.4524 -0.3744 -0.6652
 4583TIP3    H113755   5.254   1.726   4.146 -2.2166 -1.4180  1.9389
 4583TIP3    H213756   5.144   1.828   4.123 -1.8925 -1.0303  2.0867
 4584TIP3   OH213757   3.121   0.652   4.562 -0.3392  0.3874 -0.1126
 4584TIP3    H113758   3.075   0.641   4.479 -0.8568 -0.4922  0.2697
 4584TIP3    H213759   3.113   0.745   4.582  0.1714  0.6871 -1.2587
 4585TIP3   OH213760   1.186   4.583  -0.004  0.1832 -0.3421 -0.5486
 4585TIP3    H113761   1.255   4.533  -0.048 -1.4304 -1.8941 -1.4260
 4585TIP3    H213762   1.150   4.522   0.060 -0.4711  0.3955 -0.2064
 4586TIP3   OH213763   1.878   1.964   4.827 -0.1663 -0.0697  0.6459
 4586TIP3    H113764   1.952   2.001   4.874  0.3354 -1.9492  1.4591
 4586TIP3    H213765   1.911   1.880   4.793 -1.6540 -0.5313  0.2600
 4587TIP3   OH213766   2.436   3.450   0.860  0.1848 -0.0899  0.4048
 4587TIP3    H113767   2.421   3.358   0.884  1.9126 -0.5643 -0.1759
 4587TIP3    H213768   2.391   3.461   0.776 -0.9907 -0.0592  1.0201
 4588TIP3   OH213769   3.793   3.299   2.065  0.8158  0.5303  0.0860
 4588TIP3    H113770   3.814   3.359   1.993  1.5299  0.1722 -0.0094
 4588TIP3    H213771   3.818   3.213   2.033  0.7224  0.3095  0.5988
 4589TIP3   OH213772   0.109   0.546   3.178 -0.0300 -0.2984 -0.3263
 4589TIP3    H113773   0.069   0.557   3.091 -0.2510 -1.5733 -0.4073
 4589TIP3    H213774   0.193   0.592   3.171 -0.0697 -0.3309 -1.1943
 4590TIP3   OH213775   1.373   4.544   2.659  0.0044  0.1837  0.0721
 4590TIP3    H113776   1.397   4.451   2.656  1.3552  0.3295  2.9879
 4590TIP3    H213777   1.388   4.576   2.570  1.0125 -2.0392 -0.6264
 4591TIP3   OH213778   5.128   1.584   3.124  0.2716  0.1728 -0.4520
 4591TIP3    H113779   5.038   1.585   3.156  0.1105 -0.2420 -0.8797
 4591TIP3    H213780   5.170   1.512   3.171  0.6336  0.9123  0.3960
 4592TIP3   OH213781   2.908   1.101   4.595 -0.1133  0.6355  0.1627
 4592TIP3    H113782   2.824   1.101   4.550  0.7893 -0.7191 -1.6405
 4592TIP3    H213783   2.962   1.163   4.546  0.8542 -0.7965 -0.6637
 4593TIP3   OH213784   4.811   3.962   2.621 -0.2363 -0.3397 -0.0162
 4593TIP3    H113785   4.872   4.036   2.615 -0.6553 -0.0411 -0.6664
 4593TIP3    H213786   4.724   4.002   2.616 -0.4704 -0.8690 -0.2565
 4594TIP3   OH213787   5.763   0.912   4.405  1.0418  0.0597 -0.1038
 4594TIP3    H113788   5.731   0.971   4.474  0.4553  1.4102 -1.4643
 4594TIP3    H213789   5.769   0.826   4.447 -0.0890  0.6772  1.3989
 4595TIP3   OH213790   3.262   5.395   3.850 -0.5358  0.3316  0.1784
 4595TIP3    H113791   3.294   5.485   3.851  2.3500 -0.5254  2.9046
 4595TIP3    H213792   3.289   5.362   3.764 -3.0099  2.3381 -1.5147
 4596TIP3   OH213793   2.751   0.135   2.987  0.0828 -0.2919 -0.0123
 4596TIP3    H113794   2.660   0.115   3.012  0.2740 -0.3738  0.6443
 4596TIP3    H213795   2.793   0.160   3.069  0.6003 -0.0328 -0.3527
 4597TIP3   OH213796   2.472   0.757   3.272 -0.2005  0.4113  0.4675
 4597TIP3    H113797   2.497   0.842   3.308  0.2571  1.3101 -1.7817
 4597TIP3    H213798   2.551   0.725   3.229 -1.1321  0.2628 -1.2273
 4598TIP3   OH213799   4.804   3.760   3.269  0.3720 -0.0837 -0.5494
 4598TIP3    H113800   4.768   3.763   3.358  0.1993 -1.0876 -0.5754
 4598TIP3    H213801   4.853   3.842   3.261  0.2948  0.0768  0.4346
 4599TIP3   OH213802   2.149   4.302   2.879 -0.4288 -0.0647  0.1894
 4599TIP3    H113803   2.130   4.378   2.823 -0.7971  2.1656  3.1022
 4599TIP3    H213804   2.084   4.307   2.948 -0.0533 -2.7510  0.8153
 4600TIP3   OH213805   4.983   3.871   1.886 -0.0536  0.2055 -0.5211
 4600TIP3    H113806   4.911   3.872   1.824  0.3477 -1.3252 -1.0695
 4600TIP3    H213807   4.946   3.908   1.966 -0.9689  0.9457 -1.2608
 4601TIP3   OH213808   2.718   4.776   3.619  0.2119 -0.1549 -0.3576
 4601TIP3    H113809   2.687   4.685   3.618  0.6943 -0.3346  0.1639
 4601TIP3    H213810   2.651   4.825   3.573 -0.0307 -0.7899 -0.6884
 4602TIP3   OH213811   1.787   0.959   2.358  0.4382  0.3257  0.1218
 4602TIP3    H113812   1.815   1.041   2.398 -0.4708 -0.1064  1.7653
 4602TIP3    H213813   1.850   0.894   2.389  1.5456  0.4476 -1.6995
 4603TIP3   OH213814   3.016   3.416   1.201 -0.7820 -0.0994  0.5017
 4603TIP3    H113815   3.079   3.487   1.213 -0.9789  0.3210 -0.7595
 4603TIP3    H213816   2.958   3.423   1.276  0.0551  0.1591  1.1424
 4604TIP3   OH213817   0.688   2.800   0.422  0.4894  0.2810  1.0119
 4604TIP3    H113818   0.702   2.831   0.332 -0.2414 -0.2605  0.7034
 4604TIP3    H213819   0.724   2.870   0.477 -1.0803  1.6914  0.3360
 4605TIP3   OH213820   0.396   5.286   2.426  0.4966  0.1397 -0.0474
 4605TIP3    H113821   0.451   5.210   2.410  0.0455 -0.0119 -0.9292
 4605TIP3    H213822   0.458   5.357   2.444  1.0849  0.2941 -2.3733
 4606TIP3   OH213823   5.973   5.102   3.165  0.4941 -0.2683  0.1799
 4606TIP3    H113824   5.975   5.061   3.079 -0.0572  0.1578 -0.0400
 4606TIP3    H213825   6.051   5.069   3.209  1.1852  0.0937 -0.7471
 4607TIP3   OH213826   4.741   2.330   2.592  0.0448  0.5981 -0.4302
 4607TIP3    H113827   4.784   2.414   2.576  0.0986  0.2742 -2.2529
 4607TIP3    H213828   4.674   2.350   2.657  2.2123  1.3261  1.7065
 4608TIP3   OH213829   3.086   2.765   1.401 -0.3730  0.3594 -0.0745
 4608TIP3    H113830   3.149   2.837   1.394 -0.3670  0.3869  0.2487
 4608TIP3    H213831   3.072   2.736   1.311  0.0667  0.3817 -0.1491
 4609TIP3   OH213832   4.612   0.995   4.902 -0.1183 -0.1794 -0.4124
 4609TIP3    H113833   4.687   1.038   4.861  0.1243 -0.2117 -0.0044
 4609TIP3    H213834   4.607   1.033   4.990  0.7156 -1.7098  0.3268
 4610TIP3   OH213835   1.453   5.062   0.959  0.4151  0.1786 -0.1515
 4610TIP3    H113836   1.411   4.984   0.995 -0.8078  0.6498 -0.4985
 4610TIP3    H213837   1.460   5.044   0.865 -2.1358  1.3912 -0.6780
 4611TIP3   OH213838   4.918   2.759   1.818 -0.0241 -0.6519  0.0302
 4611TIP3    H113839   4.919   2.838   1.872 -0.7791 -1.0729  0.6784
 4611TIP3    H213840   4.861   2.781   1.745 -2.3410 -1.4042  1.5227
 4612TIP3   OH213841   4.943   2.118   2.674 -0.0238 -0.1008  0.8161
 4612TIP3    H113842   4.898   2.038   2.698 -0.6181  0.4164  1.4539
 4612TIP3    H213843   4.874   2.176   2.642  0.7199 -0.7796 -2.3346
 4613TIP3   OH213844   2.778   5.867   2.071 -0.3333 -0.1804  0.3334
 4613TIP3    H113845   2.707   5.818   2.030  0.8058  0.7505 -3.1217
 4613TIP3    H213846   2.735   5.943   2.110 -1.3626 -0.2805 -0.5630
 4614TIP3   OH213847   5.644   4.168   3.901  0.2638  0.4758 -0.0940
 4614TIP3    H113848   5.599   4.124   3.972 -0.6376 -0.9699 -1.4985
 4614TIP3    H213849   5.632   4.111   3.825  1.6016  1.7102 -1.3093
 4615TIP3   OH213850   6.032   5.496   0.719  0.3318  0.8140 -0.2769
 4615TIP3    H113851   6.106   5.509   0.660  1.3107  0.3629  0.8081
 4615TIP3    H213852   5.957   5.535   0.674  1.1395  0.8789 -1.5938
 4616TIP3   OH213853   5.802   2.553   0.469  0.4704 -0.2962  0.0735
 4616TIP3    H113854   5.832   2.634   0.427  1.0696 -0.2093  0.6540
 4616TIP3    H213855   5.871   2.490   0.452 -0.3629 -0.9386 -1.0757
 4617TIP3   OH213856   0.648   1.247   2.415  0.0974 -0.5438 -0.0115
 4617TIP3    H113857   0.668   1.246   2.322  0.9930 -0.9218  0.1725
 4617TIP3    H213858   0.556   1.273   2.420  0.2712  0.3364 -0.9562
 4618TIP3   OH213859   1.962   1.937   1.012  0.2945 -0.0547 -0.4034
 4618TIP3    H113860   1.980   1.846   0.991  3.2323  0.2199  0.5137
 4618TIP3    H213861   1.932   1.975   0.929  0.0925 -1.5878 -1.0659
 4619TIP3   OH213862   4.029   5.291   4.882 -0.1032 -0.2549 -0.2963
 4619TIP3    H113863   4.057   5.206   4.916  0.4636 -0.3662 -1.0195
 4619TIP3    H213864   3.969   5.269   4.811 -0.5388 -0.0310 -0.0067
 4620TIP3   OH213865   6.183   2.325   0.044 -0.3575  0.4623 -0.3783
 4620TIP3    H113866   6.088   2.333   0.037 -0.5421 -1.8779 -1.2382
 4620TIP3    H213867   6.216   2.362  -0.038 -0.6979 -0.7863 -1.0957
 4621TIP3   OH213868   1.730   2.092   5.016  0.1626 -0.2337 -0.1027
 4621TIP3    H113869   1.815   2.101   5.061 -0.0542  1.1660  0.0599
 4621TIP3    H213870   1.750   2.039   4.940  1.1247 -0.2404  0.1336
 4622TIP3   OH213871   3.635   4.871   2.123 -0.2234 -0.4359  0.2926
 4622TIP3    H113872   3.603   4.937   2.062 -0.0152 -0.6843 -0.0865
 4622TIP3    H213873   3.557   4.822   2.149 -0.4051  0.0668  0.7131
 4623TIP3   OH213874   3.937   0.612   3.172 -0.1218 -0.4623 -0.0570
 4623TIP3    H113875   3.889   0.577   3.097 -1.1336 -0.7779  0.7134
 4623TIP3    H213876   3.923   0.548   3.241 -0.8894  0.7792  0.9875
 4624TIP3   OH213877   3.380   3.381   3.106  0.4434 -0.6967 -0.1347
 4624TIP3    H113878   3.412   3.292   3.095 -1.0833 -1.3070  0.1485
 4624TIP3    H213879   3.287   3.377   3.082  0.1615  0.6543  0.5953
 4625TIP3   OH213880   5.953   0.379   2.746 -0.4872  0.0490  0.9193
 4625TIP3    H113881   5.903   0.376   2.665 -0.1943  0.1978  0.7301
 4625TIP3    H213882   6.031   0.431   2.725 -1.1168  1.3629  1.6865
 4626TIP3   OH213883   5.557   1.512   3.163  0.1069 -0.0711 -0.1841
 4626TIP3    H113884   5.498   1.463   3.221 -0.0964 -0.2437 -0.5403
 4626TIP3    H213885   5.536   1.604   3.180 -0.6980 -0.1484 -0.7688
 4627TIP3   OH213886   3.332   4.948   1.802 -0.5962 -0.8054 -0.4433
 4627TIP3    H113887   3.419   4.920   1.830 -1.1288 -1.6513  0.4016
 4627TIP3    H213888   3.349   5.017   1.738  0.7453 -2.7667 -2.3259
 4628TIP3   OH213889   0.814   5.202   2.122  0.0457  0.3706 -0.3798
 4628TIP3    H113890   0.762   5.239   2.050  1.7071  0.5942 -1.5223
 4628TIP3    H213891   0.754   5.202   2.197 -1.9064 -0.2581 -1.8336
 4629TIP3   OH213892   4.497   2.427   2.138 -0.3303 -0.4524 -0.1396
 4629TIP3    H113893   4.590   2.444   2.147 -0.4858 -0.3053  1.3701
 4629TIP3    H213894   4.472   2.383   2.219 -2.1158  2.0812  0.8067
 4630TIP3   OH213895   1.973   4.570   1.650 -0.0878  0.3851 -0.3788
 4630TIP3    H113896   2.016   4.535   1.729 -1.6824 -0.9142 -0.0288
 4630TIP3    H213897   2.038   4.629   1.612  0.5615  1.4395  2.1575
 4631TIP3   OH213898   3.808   3.882   0.870  0.4429  0.4215 -0.0984
 4631TIP3    H113899   3.827   3.855   0.780 -1.3228 -0.8466 -0.1532
 4631TIP3    H213900   3.713   3.892   0.872  0.1228 -1.9516  2.1951
 4632TIP3   OH213901   3.316   3.428   1.421  0.0972 -0.0436 -0.1059
 4632TIP3    H113902   3.405   3.453   1.447  0.0073 -1.0944  1.3991
 4632TIP3    H213903   3.284   3.501   1.370  1.3704  0.9213  0.4161
 4633TIP3   OH213904   3.755   3.831   4.417  0.1480 -0.5621  0.0299
 4633TIP3    H113905   3.705   3.770   4.473  1.2553 -1.0770  0.4970
 4633TIP3    H213906   3.778   3.779   4.340 -1.3546  0.1421 -0.9322
 4634TIP3   OH213907   3.813   0.216   0.660 -0.8331  0.4824 -0.3875
 4634TIP3    H113908   3.864   0.183   0.734 -1.2262 -0.1152 -0.3780
 4634TIP3    H213909   3.804   0.141   0.602 -1.9980  0.4766 -0.2259
 4635TIP3   OH213910   2.740   0.723   3.158 -0.0996  0.2449 -0.5144
 4635TIP3    H113911   2.767   0.776   3.083 -1.6665  3.1898  0.8403
 4635TIP3    H213912   2.812   0.731   3.220 -0.4406  1.0407 -0.2122
 4636TIP3   OH213913   2.289   5.032   4.904 -0.3396 -0.0427 -0.7505
 4636TIP3    H113914   2.234   5.009   4.978  0.1508  0.7907 -0.1082
 4636TIP3    H213915   2.229   5.035   4.829 -1.0426  0.2147 -0.1868
 4637TIP3   OH213916   3.736   5.121   0.213  0.2405  0.0583 -0.6374
 4637TIP3    H113917   3.770   5.200   0.171 -0.2308 -0.2602 -1.6504
 4637TIP3    H213918   3.738   5.055   0.144  2.8749 -1.5083  0.8161
 4638TIP3   OH213919   2.551   3.394   1.772  0.0958 -0.3787  0.1287
 4638TIP3    H113920   2.481   3.396   1.837  0.1318 -0.2078  0.1652
 4638TIP3    H213921   2.627   3.430   1.819  0.0129  0.1398 -0.1293
 4639TIP3   OH213922   2.311   0.266   2.117 -0.1637 -0.5082  0.2562
 4639TIP3    H113923   2.404   0.264   2.140 -0.1196 -2.1670  0.0557
 4639TIP3    H213924   2.310   0.293   2.025  0.0129  0.7530  0.6038
 4640TIP3   OH213925   2.831   2.979   1.863 -0.2038  0.7417  0.4155
 4640TIP3    H113926   2.873   3.065   1.857 -0.5067  0.8398 -0.5066
 4640TIP3    H213927   2.904   2.918   1.872  0.4434  0.6728 -3.5025
 4641TIP3   OH213928   4.125   3.408   0.371  0.0876 -0.1618 -0.4098
 4641TIP3    H113929   4.097   3.323   0.406  1.4649 -1.2781 -1.8134
 4641TIP3    H213930   4.051   3.466   0.387 -0.8761 -1.6059  0.6891
 4642TIP3   OH213931   0.664   5.514   5.017 -0.3417  0.2327 -0.5130
 4642TIP3    H113932   0.721   5.589   5.002 -0.0523  0.0178 -0.5111
 4642TIP3    H213933   0.587   5.550   5.061  0.1749  0.4048  0.2633
 4643TIP3   OH213934   0.195   0.269   2.056  0.4195  0.4591  0.1022
 4643TIP3    H113935   0.108   0.265   2.097  0.4499 -1.0382  0.0850
 4643TIP3    H213936   0.202   0.359   2.025 -0.8980  0.7707  0.6001
 4644TIP3   OH213937   0.189   5.807   0.803  0.3494  0.1284 -0.1040
 4644TIP3    H113938   0.197   5.864   0.879 -1.9752 -0.9409  1.0623
 4644TIP3    H213939   0.247   5.734   0.821 -0.3113 -0.1993  0.7590
 4645TIP3   OH213940   2.210   1.598   3.060  0.6423 -0.3633  0.4092
 4645TIP3    H113941   2.162   1.599   2.977  0.4527  0.0530  0.5220
 4645TIP3    H213942   2.260   1.517   3.058  0.4295 -0.4851  0.0043
 4646TIP3   OH213943   5.941   2.430   4.701  0.2251 -0.3822 -0.7911
 4646TIP3    H113944   5.849   2.426   4.675 -0.5856 -1.3248  1.9027
 4646TIP3    H213945   5.951   2.517   4.739  0.4965 -0.2366 -1.1877
 4647TIP3   OH213946   5.822   4.349   4.585  0.4511  0.0926 -0.9897
 4647TIP3    H113947   5.883   4.403   4.535  1.9290 -1.6485 -1.1713
 4647TIP3    H213948   5.766   4.308   4.519 -0.5593  1.1841 -0.8613
 4648TIP3   OH213949   4.721   4.543   0.659 -0.7166  0.2347 -0.6246
 4648TIP3    H113950   4.761   4.535   0.745  1.6410  1.5291 -1.5048
 4648TIP3    H213951   4.664   4.619   0.666 -1.9913 -0.7595  0.2509
 4649TIP3   OH213952   1.884   2.505   4.102  0.2046  0.1062 -0.1391
 4649TIP3    H113953   1.946   2.533   4.035 -1.5622  0.8873 -1.5299
 4649TIP3    H213954   1.850   2.586   4.140  1.1455 -0.3206  1.7503
 4650TIP3   OH213955   1.591   3.768   2.554  0.1141  0.3260 -0.1265
 4650TIP3    H113956   1.666   3.710   2.541  0.2852  0.2884  0.9465
 4650TIP3    H213957   1.519   3.726   2.507  0.3524 -0.5060  0.2467
 4651TIP3   OH213958   0.353   1.073   0.490 -0.7220  0.2632 -0.2480
 4651TIP3    H113959   0.437   1.116   0.507 -0.0617 -1.4009  1.0560
 4651TIP3    H213960   0.306   1.077   0.573 -1.2598 -0.1930 -0.5211
 4652TIP3   OH213961   0.563   2.940   0.938  0.4231 -0.9548  0.1692
 4652TIP3    H113962   0.566   2.935   0.842 -0.4841  0.0252  0.0714
 4652TIP3    H213963   0.645   2.981   0.962 -0.1460  0.5857 -0.3603
 4653TIP3   OH213964   1.749   5.721   3.221 -0.7927  0.3914  0.1440
 4653TIP3    H113965   1.696   5.725   3.301 -0.1737  1.4767  0.5202
 4653TIP3    H213966   1.832   5.682   3.251 -1.3252 -1.3024 -0.4394
 4654TIP3   OH213967   5.239   4.495   0.895 -0.1512  0.8530 -0.1431
 4654TIP3    H113968   5.210   4.571   0.944 -1.3371 -0.3748  1.1517
 4654TIP3    H213969   5.335   4.495   0.903 -0.2090  1.6919  0.6154
 4655TIP3   OH213970   3.479   0.584   4.211  0.1389 -0.1515  0.2294
 4655TIP3    H113971   3.403   0.545   4.166  1.1214 -1.4049 -0.4250
 4655TIP3    H213972   3.443   0.658   4.259 -2.0295 -2.2633  2.1698
 4656TIP3   OH213973   1.553   2.266   4.246 -0.6256  0.4211  0.6336
 4656TIP3    H113974   1.587   2.275   4.335 -2.4713 -0.1684  1.4292
 4656TIP3    H213975   1.589   2.183   4.215 -1.3023 -0.1895  1.4592
 4657TIP3   OH213976   4.793   1.800   2.289 -0.1665  0.1575  0.2262
 4657TIP3    H113977   4.706   1.823   2.256  0.3740 -0.0461 -1.3885
 4657TIP3    H213978   4.777   1.724   2.345 -1.1581  0.7859  0.8444
 4658TIP3   OH213979   1.493   0.866   3.023 -0.1242  0.0140  0.2431
 4658TIP3    H113980   1.481   0.912   3.107  0.4546  0.1017  0.2799
 4658TIP3    H213981   1.409   0.822   3.009 -0.0375 -0.4735  1.1586
 4659TIP3   OH213982   0.800   4.424   1.516 -0.0402 -0.0874 -0.5350
 4659TIP3    H113983   0.765   4.336   1.499 -1.9621  0.5043  0.0304
 4659TIP3    H213984   0.803   4.466   1.430  0.7106 -0.6371 -0.7822
 4660TIP3   OH213985   3.679   3.279   3.734 -0.1770  0.3730 -0.0981
 4660TIP3    H113986   3.688   3.185   3.719  0.9952  0.4514  0.0484
 4660TIP3    H213987   3.644   3.313   3.652  0.5971 -0.0190 -0.6032
 4661TIP3   OH213988   3.449   4.651   4.903 -0.3203 -0.0195  0.1349
 4661TIP3    H113989   3.371   4.622   4.855  1.1782 -0.3840 -2.2732
 4661TIP3    H213990   3.462   4.742   4.876  0.9525 -0.4464 -0.8361
 4662TIP3   OH213991   1.277   2.311   2.895 -1.0907 -0.3941 -0.4900
 4662TIP3    H113992   1.305   2.402   2.888 -1.1795 -0.1770  1.3449
 4662TIP3    H213993   1.330   2.264   2.831  2.7686  0.1910  1.9403
 4663TIP3   OH213994   5.599   5.014   4.636 -0.0984  0.3415  0.3587
 4663TIP3    H113995   5.624   5.104   4.616  1.1472 -0.0471  0.1268
 4663TIP3    H213996   5.612   5.006   4.731 -1.7323  0.8490  0.6661
 4664TIP3   OH213997   1.781   4.247   0.589 -0.3485 -0.1740 -0.3390
 4664TIP3    H113998   1.862   4.289   0.618  0.5448 -1.1355 -1.3560
 4664TIP3    H213999   1.745   4.307   0.524  1.3436 -1.2619 -2.3888
 4665TIP3   OH214000   0.979   5.285   1.509  0.1077  0.6084  0.0875
 4665TIP3    H114001   1.050   5.323   1.561 -0.1557  0.0521  0.8561
 4665TIP3    H214002   1.018   5.272   1.422  0.2292  2.5590 -0.1976
 4666TIP3   OH214003   5.151   1.580   1.261 -0.1906 -0.3706  0.3028
 4666TIP3    H114004   5.199   1.501   1.236 -0.1118  0.3601 -2.1454
 4666TIP3    H214005   5.138   1.627   1.178 -0.8959  1.8134  1.5715
 4667TIP3   OH214006   4.924   0.431   4.005  0.2564  0.2481 -0.5841
 4667TIP3    H114007   5.014   0.454   4.030  0.3881 -0.1667 -0.6779
 4667TIP3    H214008   4.934   0.367   3.935 -0.1056  1.4087 -1.7544
 4668TIP3   OH214009   5.886   1.810   1.643 -0.1137 -0.3214  0.3264
 4668TIP3    H114010   5.935   1.728   1.638 -0.7728 -0.7732  0.9040
 4668TIP3    H214011   5.909   1.846   1.729 -0.3508 -0.2525  0.3620
 4669TIP3   OH214012   0.591   3.698   4.437  0.2360  0.2337 -0.1166
 4669TIP3    H114013   0.558   3.776   4.480  0.3773  0.3007 -0.1288
 4669TIP3    H214014   0.527   3.630   4.457  0.6271  0.1033  0.7385
 4670TIP3   OH214015   1.319   1.557   1.559  0.1149 -0.2912  0.2179
 4670TIP3    H114016   1.383   1.613   1.517  0.2981  0.5856  1.6081
 4670TIP3    H214017   1.237   1.607   1.556 -0.5661 -1.4236 -1.5982
 4671TIP3   OH214018   1.538   1.750   4.828  0.1916  0.0809  0.0697
 4671TIP3    H114019   1.511   1.789   4.912  0.6047  0.8332 -0.1408
 4671TIP3    H214020   1.609   1.690   4.851 -1.5063 -1.8170  0.6149
 4672TIP3   OH214021   2.457   5.081   2.533 -0.8756 -0.5909 -0.1536
 4672TIP3    H114022   2.516   5.137   2.482 -0.4631 -0.6319  0.2741
 4672TIP3    H214023   2.444   5.004   2.478  1.0766 -1.4990  0.5680
 4673TIP3   OH214024   1.188   3.463   3.987  0.4095 -0.7631 -0.4704
 4673TIP3    H114025   1.191   3.491   4.078  1.9029 -2.3736  0.0211
 4673TIP3    H214026   1.106   3.413   3.980 -0.6760  0.9441 -0.5584
 4674TIP3   OH214027   1.789   2.455   3.315 -0.4305 -0.5694 -0.3833
 4674TIP3    H114028   1.728   2.396   3.360 -1.6076 -0.0771 -1.2691
 4674TIP3    H214029   1.868   2.453   3.368 -1.5638 -0.4392  1.3924
 4675TIP3   OH214030   1.175   1.593   2.036 -0.1891 -0.1082 -0.4865
 4675TIP3    H114031   1.117   1.670   2.035  0.7982  0.7109  0.8293
 4675TIP3    H214032   1.252   1.620   1.986 -0.7145 -1.0110 -1.8032
 4676TIP3   OH214033   3.874   0.707   0.524  0.4799 -0.7671  0.2726
 4676TIP3    H114034   3.916   0.637   0.575  0.8594  1.1455  2.7418
 4676TIP3    H214035   3.788   0.718   0.564 -0.2306 -0.8672 -1.1538
 4677TIP3   OH214036   6.117   5.313   2.632 -0.5252 -0.0351 -0.0054
 4677TIP3    H114037   6.191   5.291   2.576 -0.0440 -0.2613  0.7022
 4677TIP3    H214038   6.140   5.275   2.717 -0.2389  2.0975  0.9369
 4678TIP3   OH214039   3.401   2.546   4.194  0.2767  0.2067 -0.3451
 4678TIP3    H114040   3.495   2.553   4.214  0.1981  1.0241 -0.2295
 4678TIP3    H214041   3.358   2.569   4.276 -0.0438  2.2536 -1.0506
 4679TIP3   OH214042   4.247   3.630   1.782  0.5279  0.3521  0.2152
 4679TIP3    H114043   4.195   3.559   1.744 -1.6022  0.8195  2.0332
 4679TIP3    H214044   4.236   3.703   1.722  0.9591 -0.2022 -0.5569
 4680TIP3   OH214045   3.324   5.244   4.444  0.1531  0.2165 -0.1209
 4680TIP3    H114046   3.357   5.162   4.406 -1.7080 -0.9013  0.5433
 4680TIP3    H214047   3.230   5.244   4.425 -0.3809  0.8786  2.1425
 4681TIP3   OH214048   0.326   2.602   0.796  0.4298 -0.0681  0.0930
 4681TIP3    H114049   0.272   2.609   0.717  1.9987  2.5448 -0.8926
 4681TIP3    H214050   0.356   2.511   0.797  0.2012 -0.2274 -2.2359
 4682TIP3   OH214051   5.544   0.019   4.639 -0.3391 -0.0457 -0.0360
 4682TIP3    H114052   5.531   0.112   4.656 -1.1826  0.1087 -1.4034
 4682TIP3    H214053   5.567   0.014   4.546 -1.3637 -1.2700 -0.2542
 4683TIP3   OH214054   0.225   2.837   0.092 -0.7694 -0.2478  0.1870
 4683TIP3    H114055   0.307   2.828   0.140 -1.3705 -0.7939  1.1491
 4683TIP3    H214056   0.197   2.747   0.075 -0.7513 -0.0662 -0.8934
 4684TIP3   OH214057   2.465   2.539   5.038  0.4064  0.2799 -0.3908
 4684TIP3    H114058   2.550   2.545   4.993  0.2977  1.4650 -0.4718
 4684TIP3    H214059   2.407   2.498   4.974  0.9837 -0.8869 -0.2089
 4685TIP3   OH214060   4.108   0.306   1.530  0.0237 -0.6297  0.8376
 4685TIP3    H114061   4.184   0.268   1.486 -0.5724 -0.8722 -0.0142
 4685TIP3    H214062   4.110   0.270   1.619  1.5587  0.2915  1.2164
 4686TIP3   OH214063   6.219   0.538   3.925 -0.1629 -0.5365  0.3904
 4686TIP3    H114064   6.286   0.527   3.858  0.2408 -0.1093  0.7179
 4686TIP3    H214065   6.203   0.632   3.927 -0.9295 -0.6581  0.1645
 4687TIP3   OH214066   4.296   3.754   0.504  0.6169  0.1554 -0.3219
 4687TIP3    H114067   4.387   3.725   0.499  0.2371 -0.8419 -3.6055
 4687TIP3    H214068   4.295   3.837   0.457  0.0855  1.1362  1.3214
 4688TIP3   OH214069   0.819   1.032   3.333  0.0090 -0.1570  0.2110
 4688TIP3    H114070   0.828   1.053   3.425  0.0012 -2.0581  0.6978
 4688TIP3    H214071   0.891   0.971   3.315 -1.1801 -1.4294 -0.4717
 4689TIP3   OH214072   5.415   3.756   3.586 -0.0965  0.5167 -0.1243
 4689TIP3    H114073   5.429   3.848   3.608  0.4940  0.9032 -1.9807
 4689TIP3    H214074   5.446   3.747   3.496 -1.2379 -1.2388 -0.4039
 4690TIP3   OH214075   2.797   0.298   2.551 -0.3968  0.3553  0.2667
 4690TIP3    H114076   2.765   0.387   2.539 -0.8124  0.0476 -1.1005
 4690TIP3    H214077   2.890   0.308   2.570 -0.2761  1.0712 -0.6071
 4691TIP3   OH214078   4.130   1.181   5.093  0.1401 -0.0873 -0.1763
 4691TIP3    H114079   4.221   1.151   5.096  0.4771  0.5340 -2.2017
 4691TIP3    H214080   4.132   1.267   5.135  0.5449 -0.0044 -0.3513
 4692TIP3   OH214081   2.489   4.886   3.454 -0.0022 -0.2551  0.1988
 4692TIP3    H114082   2.437   4.817   3.414 -0.8728  0.7007 -0.3817
 4692TIP3    H214083   2.505   4.948   3.382  2.4267 -0.7728  0.2130
 4693TIP3   OH214084   4.591   3.628   2.003  0.4988 -0.2624 -0.2314
 4693TIP3    H114085   4.555   3.705   2.046 -2.0554 -0.7981 -1.2220
 4693TIP3    H214086   4.552   3.554   2.050 -1.2245 -0.8619 -2.4327
 4694TIP3   OH214087   3.148   0.290   3.162  0.1202 -0.2335 -0.0458
 4694TIP3    H114088   3.182   0.206   3.134  1.3979  0.0196  0.6762
 4694TIP3    H214089   3.171   0.351   3.092  1.9333  0.0964  0.7977
 4695TIP3   OH214090   5.437   2.754   2.847 -0.0268  0.1268 -0.5827
 4695TIP3    H114091   5.380   2.679   2.859  0.4057 -0.1667 -0.3494
 4695TIP3    H214092   5.408   2.818   2.912  0.5393 -0.4020  0.2094
 4696TIP3   OH214093   0.394   1.918   1.957 -0.3659  0.3543 -0.4807
 4696TIP3    H114094   0.380   2.005   1.920 -0.8200  0.7683  0.6222
 4696TIP3    H214095   0.472   1.885   1.912  1.2574  2.2986  0.7521
 4697TIP3   OH214096   6.262   4.279   5.044  0.1768 -0.3788  0.6248
 4697TIP3    H114097   6.231   4.214   4.981  1.0444 -1.1416  0.9582
 4697TIP3    H214098   6.238   4.363   5.006 -0.0071 -0.8528 -0.3377
 4698TIP3   OH214099   0.957   4.058   3.471 -0.3789  0.5536  0.0521
 4698TIP3    H114100   0.896   3.985   3.462  0.0558  0.2534 -0.5911
 4698TIP3    H214101   0.908   4.134   3.439 -0.4864  0.3529 -0.2656
 4699TIP3   OH214102   2.301   3.595   3.620  0.2437  0.3458 -0.6989
 4699TIP3    H114103   2.304   3.676   3.568 -2.6108 -0.8397 -2.9850
 4699TIP3    H214104   2.298   3.525   3.554 -1.1205 -1.4149  1.1344
 4700TIP3   OH214105   3.312   3.281   1.122  0.4252  0.2656 -0.3496
 4700TIP3    H114106   3.327   3.191   1.149  1.7645  0.1828 -1.2884
 4700TIP3    H214107   3.265   3.321   1.196 -0.4082 -1.2433 -0.0289
 4701TIP3   OH214108   2.763   3.566   4.602 -0.3551  0.2914  0.1816
 4701TIP3    H114109   2.722   3.492   4.558 -1.9767  1.9997 -1.3248
 4701TIP3    H214110   2.736   3.558   4.694 -2.0751  0.0166 -0.3226
 4702TIP3   OH214111   5.156   3.784   1.686 -0.5808 -0.1867 -0.3519
 4702TIP3    H114112   5.115   3.771   1.771  1.0977 -0.4527  0.4608
 4702TIP3    H214113   5.124   3.710   1.632 -1.1183 -0.3979  0.2435
 4703TIP3   OH214114   2.807   2.837   1.054  0.1471 -0.6069 -0.4546
 4703TIP3    H114115   2.792   2.868   0.964  0.4043  0.4402 -0.1476
 4703TIP3    H214116   2.723   2.800   1.081 -0.2850  0.1975 -0.6943
 4704TIP3   OH214117   3.771   4.678   4.811  0.1027 -0.0343  0.4918
 4704TIP3    H114118   3.798   4.680   4.719  1.4541  0.4688  0.8864
 4704TIP3    H214119   3.830   4.616   4.853  1.1738  1.5680  1.4940
 4705TIP3   OH214120   6.055   4.520   3.874 -0.0459  0.0180  0.0527
 4705TIP3    H114121   6.012   4.444   3.834  2.1335 -1.4714  0.4076
 4705TIP3    H214122   6.029   4.516   3.966 -2.9120  1.9390 -0.5114
 4706TIP3   OH214123   2.985   4.910   0.723  0.3311 -0.0565  0.3719
 4706TIP3    H114124   3.006   5.001   0.702  0.4424 -0.1965 -0.1465
 4706TIP3    H214125   2.991   4.864   0.639  2.1566 -0.9261  0.9240
 4707TIP3   OH214126   3.953   0.328   3.095  0.5125 -0.1295  0.1316
 4707TIP3    H114127   3.931   0.236   3.079 -2.1906  0.4713 -0.1218
 4707TIP3    H214128   3.939   0.370   3.010  0.4287  0.7127  0.5609
 4708TIP3   OH214129   5.382   4.774   3.631  0.0903 -0.0801  0.1645
 4708TIP3    H114130   5.459   4.721   3.652  0.5147 -0.1282 -1.3459
 4708TIP3    H214131   5.311   4.711   3.622  0.2462 -0.2299 -0.0397
 4709TIP3   OH214132   1.539   2.306   2.020 -0.8246  0.5450 -0.1354
 4709TIP3    H114133   1.570   2.318   1.930 -1.3291 -0.9797 -0.5347
 4709TIP3    H214134   1.466   2.244   2.012  0.6967 -1.6025  1.5886
 4710TIP3   OH214135   4.037   4.780   3.812  0.2429  0.2992  0.8273
 4710TIP3    H114136   4.025   4.873   3.831  1.4729  0.8039 -0.6956
 4710TIP3    H214137   3.988   4.766   3.730 -0.5839 -0.6025  1.4457
 4711TIP3   OH214138   0.827   2.263   2.531 -0.1945 -0.5553 -0.1427
 4711TIP3    H114139   0.882   2.322   2.481 -0.5726 -0.0578  0.0220
 4711TIP3    H214140   0.778   2.320   2.591 -0.5815 -1.0271 -0.0001
 4712TIP3   OH214141   0.800   2.431   0.184  0.0980 -0.0697 -0.1609
 4712TIP3    H114142   0.784   2.521   0.154  0.0635 -0.0813 -0.1775
 4712TIP3    H214143   0.879   2.437   0.238  0.7180 -0.2100 -1.0323
 4713TIP3   OH214144   1.256   3.903   3.319  0.2084  0.1418  0.5978
 4713TIP3    H114145   1.261   3.946   3.233  1.0436 -0.4283  0.3396
 4713TIP3    H214146   1.174   3.855   3.317  0.8253 -0.9269 -0.4187
 4714TIP3   OH214147   1.101   1.053   3.995  0.1838 -0.1503  0.0117
 4714TIP3    H114148   1.071   1.096   4.075  0.6358 -1.1256  0.7122
 4714TIP3    H214149   1.065   1.108   3.924 -0.2773  0.6802  0.8647
 4715TIP3   OH214150   5.247   5.965   0.581 -0.3891 -0.8226  0.1847
 4715TIP3    H114151   5.278   5.924   0.661  1.1359  0.3494  0.2472
 4715TIP3    H214152   5.187   6.034   0.610 -0.7644 -1.1587  0.2265
 4716TIP3   OH214153   2.101   5.105   0.408  0.2787  0.5214  0.5118
 4716TIP3    H114154   2.128   5.100   0.500  0.9228  1.6603  0.4111
 4716TIP3    H214155   2.179   5.079   0.359 -0.6614 -2.1208  0.2756
 4717TIP3   OH214156   1.233   3.539   4.606  0.1784 -0.4490 -0.5563
 4717TIP3    H114157   1.250   3.445   4.614  2.5695 -0.2757 -2.3113
 4717TIP3    H214158   1.309   3.580   4.646  0.9520  0.6085 -2.9159
 4718TIP3   OH214159   2.871   3.871   2.487  0.2487  0.0896 -0.6561
 4718TIP3    H114160   2.810   3.804   2.519 -1.0738  1.4896 -0.0869
 4718TIP3    H214161   2.859   3.870   2.392  1.1246 -1.2614 -0.7791
 4719TIP3   OH214162   5.321   4.102   4.324 -0.3094  0.0404 -0.7775
 4719TIP3    H114163   5.313   4.073   4.415 -0.2151 -1.4028 -1.2060
 4719TIP3    H214164   5.363   4.188   4.330 -0.8466  0.2305  0.5696
 4720TIP3   OH214165   3.979   3.174   0.773 -0.1839  0.5319  0.3609
 4720TIP3    H114166   3.914   3.105   0.785  1.6406 -1.6359 -1.3892
 4720TIP3    H214167   3.932   3.255   0.791 -2.8904 -1.0351  0.7881
 4721TIP3   OH214168  -0.013   4.866   1.874  0.0152  0.3009  0.9549
 4721TIP3    H114169   0.052   4.878   1.943  0.8990 -0.7185  0.3316
 4721TIP3    H214170   0.016   4.922   1.803 -0.6467  1.0042  1.2250
 4722TIP3   OH214171   3.255   1.431   0.434  0.3290 -0.4380  0.5528
 4722TIP3    H114172   3.258   1.522   0.463 -1.4664 -0.4466  0.8575
 4722TIP3    H214173   3.341   1.396   0.457  0.7181  0.9311  1.2776
 4723TIP3   OH214174   5.016   3.432   1.871  0.6659  0.0155  0.1880
 4723TIP3    H114175   4.948   3.499   1.859 -0.9059 -1.2542  1.5139
 4723TIP3    H214176   5.066   3.463   1.947 -0.9037 -0.8813  1.6658
 4724TIP3   OH214177   6.130   5.435   2.263  0.2997 -0.0768 -0.2191
 4724TIP3    H114178   6.067   5.365   2.248  1.0011 -0.6508 -0.5593
 4724TIP3    H214179   6.157   5.462   2.175  2.2787 -1.4723 -0.1048
 4725TIP3   OH214180   4.102   5.153   0.636  0.8034  0.6874  0.3795
 4725TIP3    H114181   4.074   5.061   0.632 -2.7962  1.6672  0.0790
 4725TIP3    H214182   4.157   5.164   0.558 -1.1378 -0.5869 -1.2882
 4726TIP3   OH214183   3.580   2.218   1.753  0.3070 -0.1862 -0.4279
 4726TIP3    H114184   3.608   2.270   1.678  2.1387 -0.5062 -0.0072
 4726TIP3    H214185   3.555   2.133   1.715  1.5919 -0.4760 -0.6617
 4727TIP3   OH214186   5.924   2.499   2.848  0.3694  0.5204  0.2820
 4727TIP3    H114187   5.829   2.500   2.859  0.3557  0.6600  0.1531
 4727TIP3    H214188   5.938   2.486   2.754  0.4925 -1.9638  0.5853
 4728TIP3   OH214189   5.203   5.545   3.099  0.3523  0.0697  0.2474
 4728TIP3    H114190   5.283   5.589   3.127  0.0340  1.3245 -0.7529
 4728TIP3    H214191   5.209   5.541   3.004  0.1751 -1.7141  0.2733
 4729TIP3   OH214192   1.904   5.226   0.670 -0.7392 -0.0633 -0.4095
 4729TIP3    H114193   1.988   5.182   0.659 -0.3123  0.4782  0.5093
 4729TIP3    H214194   1.904   5.256   0.761 -1.5501  0.7101 -0.6428
 4730TIP3   OH214195   3.152   3.513   0.864  0.5229 -0.0528 -0.5614
 4730TIP3    H114196   3.129   3.529   0.955 -3.4916 -3.2215 -0.7103
 4730TIP3    H214197   3.204   3.433   0.866  0.2140 -0.2690 -1.0398
 4731TIP3   OH214198   3.141   1.249   1.529  0.4647 -0.5407 -0.1355
 4731TIP3    H114199   3.091   1.270   1.451  0.4106 -2.1237 -0.5562
 4731TIP3    H214200   3.201   1.323   1.539 -1.3541  0.9917 -0.0845
 4732TIP3   OH214201   2.392   1.959   4.195 -0.0429  0.0815 -0.3013
 4732TIP3    H114202   2.459   2.011   4.152  0.2970 -0.9840 -1.0961
 4732TIP3    H214203   2.330   2.023   4.231  0.6588  1.0267 -0.7650
 4733TIP3   OH214204   0.844   3.692   3.066 -0.1820  0.1881 -0.0598
 4733TIP3    H114205   0.852   3.598   3.049  0.5315  0.3308 -0.5748
 4733TIP3    H214206   0.750   3.708   3.073 -0.3775 -0.3385 -1.3079
 4734TIP3   OH214207   0.042   1.349   0.174  0.1243  0.1194  0.9645
 4734TIP3    H114208   0.101   1.351   0.250 -0.8952  2.4634  1.7945
 4734TIP3    H214209  -0.044   1.328   0.210  0.1753 -2.1188 -0.0730
 4735TIP3   OH214210   0.556   2.902   3.264  0.7121  0.0713 -0.0494
 4735TIP3    H114211   0.644   2.927   3.234  0.0486  2.0505 -0.4980
 4735TIP3    H214212   0.506   2.888   3.183  0.9073 -2.5079  0.1695
 4736TIP3   OH214213   0.340   3.706   0.365  0.6226 -0.5675  0.3849
 4736TIP3    H114214   0.434   3.720   0.354  0.5501  0.8197  1.2267
 4736TIP3    H214215   0.323   3.623   0.322  2.7290 -2.2989  2.5969
 4737TIP3   OH214216   4.865   1.149   3.990  0.0622 -0.3183 -0.1299
 4737TIP3    H114217   4.864   1.085   4.061 -1.5829 -0.0578  0.1020
 4737TIP3    H214218   4.944   1.200   4.006 -1.4567  1.3016  2.9717
 4738TIP3   OH214219   5.394   3.202   1.924  0.8652  0.2459  0.3804
 4738TIP3    H114220   5.300   3.201   1.906  1.1342  0.2319 -1.1166
 4738TIP3    H214221   5.436   3.200   1.838  2.2455  0.4195  1.0129
 4739TIP3   OH214222   1.758   3.308   4.473  0.4890  0.2077 -0.0391
 4739TIP3    H114223   1.836   3.351   4.439  0.0730  0.3782 -0.7986
 4739TIP3    H214224   1.765   3.217   4.445 -0.6772  0.6980 -2.1299
 4740TIP3   OH214225   4.469   5.435   2.910 -0.4673  0.1316  0.1420
 4740TIP3    H114226   4.428   5.448   2.825  0.5171  0.3270 -0.3130
 4740TIP3    H214227   4.459   5.518   2.955 -1.7646 -0.2371  0.5742
 4741TIP3   OH214228   2.317   0.534   2.527 -0.1825  0.3108 -0.2275
 4741TIP3    H114229   2.272   0.506   2.447  0.2293 -0.5741 -0.1545
 4741TIP3    H214230   2.402   0.565   2.496 -1.1705  2.9986 -0.4982
 4742TIP3   OH214231   6.074   3.695   4.017  0.4775 -0.1124 -0.4385
 4742TIP3    H114232   6.059   3.738   4.101  1.7379  0.4337 -0.4777
 4742TIP3    H214233   6.054   3.763   3.952 -0.0539 -0.3972 -0.5823
 4743TIP3   OH214234   2.557   2.589   0.384 -0.5559 -0.0061 -0.2825
 4743TIP3    H114235   2.608   2.512   0.360  0.2853  0.4091  0.1084
 4743TIP3    H214236   2.622   2.650   0.420 -1.2634  0.7258 -0.2157
 4744TIP3   OH214237   5.510   5.287   4.033 -0.0595  0.3161 -0.0457
 4744TIP3    H114238   5.445   5.306   4.100 -1.5330  1.4538 -1.6837
 4744TIP3    H214239   5.591   5.326   4.065 -0.5291  0.1724  1.3788
 4745TIP3   OH214240   3.597   5.187   2.114 -0.1295  0.7773  0.1788
 4745TIP3    H114241   3.646   5.214   2.037  0.3899  1.3988  0.7175
 4745TIP3    H214242   3.654   5.125   2.159 -0.3410  0.5828  0.1832
 4746TIP3   OH214243   1.214   1.789   4.207  0.3403 -0.1382 -0.0680
 4746TIP3    H114244   1.124   1.799   4.175  0.3209  0.0306  0.0419
 4746TIP3    H214245   1.262   1.863   4.169 -0.0141  0.9328  1.4948
 4747TIP3   OH214246   6.036   0.339   2.291  0.3041  0.4811  0.0268
 4747TIP3    H114247   6.094   0.341   2.367 -0.5047 -0.6382  0.6925
 4747TIP3    H214248   6.079   0.396   2.227  1.5126  0.6362  0.9442
 4748TIP3   OH214249   2.700   5.731   3.087  0.0083 -0.4505  0.7558
 4748TIP3    H114250   2.718   5.747   2.994  0.8474 -0.6200  0.8803
 4748TIP3    H214251   2.645   5.805   3.114  0.4850  0.0597  0.3394
 4749TIP3   OH214252   2.629   4.711   1.429 -0.1569  0.0818  0.4820
 4749TIP3    H114253   2.634   4.800   1.393 -1.0056 -0.8483 -2.1808
 4749TIP3    H214254   2.719   4.679   1.426 -0.1896  0.0426 -0.9473
 4750TIP3   OH214255   6.153   2.571   4.401 -0.3191 -0.3442 -0.3697
 4750TIP3    H114256   6.105   2.489   4.414 -0.5379 -0.0050  1.0159
 4750TIP3    H214257   6.228   2.545   4.346 -0.1701 -1.5556  0.3646
 4751TIP3   OH214258   0.145   3.526   2.296  0.2334  0.0036 -0.1141
 4751TIP3    H114259   0.117   3.448   2.248  0.9578 -0.5021  0.2659
 4751TIP3    H214260   0.172   3.492   2.381 -0.4291  0.8106  0.4261
 4752TIP3   OH214261   1.056   4.128   0.515  0.1604  0.1510  0.1507
 4752TIP3    H114262   1.040   4.222   0.525  1.3097  0.6317 -1.9526
 4752TIP3    H214263   1.109   4.105   0.592  0.7073  1.4520  0.1948
 4753TIP3   OH214264   1.489   0.039   2.336 -0.3901 -0.5063  0.2185
 4753TIP3    H114265   1.490   0.030   2.432  1.0585 -2.1152  0.1239
 4753TIP3    H214266   1.568   0.089   2.316  0.9367 -2.6090 -0.2138
 4754TIP3   OH214267   2.365   0.180   3.459  0.7465  0.4204  0.1661
 4754TIP3    H114268   2.295   0.127   3.421 -0.2083  1.0793  0.9466
 4754TIP3    H214269   2.444   0.152   3.413 -0.3420  1.3053 -2.4082
 4755TIP3   OH214270   1.463   5.953   0.762  0.0875  0.0060 -0.3109
 4755TIP3    H114271   1.534   5.899   0.729  1.0126  1.5465 -0.9468
 4755TIP3    H214272   1.384   5.901   0.748  0.9096 -1.0685 -1.0967
 4756TIP3   OH214273   1.666   5.704   4.165  1.0583 -0.4163 -0.2472
 4756TIP3    H114274   1.643   5.643   4.234 -1.0691 -1.2323 -1.5630
 4756TIP3    H214275   1.698   5.782   4.211 -0.0479 -1.0114  1.6446
 4757TIP3   OH214276   4.358   5.246   1.857 -0.4616 -0.5468  0.2167
 4757TIP3    H114277   4.340   5.223   1.948  0.9281 -2.3823  0.0708
 4757TIP3    H214278   4.357   5.342   1.856 -3.7586 -0.4389  1.4305
 4758TIP3   OH214279   4.826   1.639   2.586  0.2318  0.1999  0.0759
 4758TIP3    H114280   4.823   1.582   2.509 -1.4466  1.8038 -1.1450
 4758TIP3    H214281   4.905   1.691   2.574 -0.0676  0.5040 -0.6547
 4759TIP3   OH214282   6.277   2.546   1.624 -0.5372  0.5716 -0.1092
 4759TIP3    H114283   6.221   2.525   1.549 -2.8556  0.0162  1.6696
 4759TIP3    H214284   6.234   2.622   1.665  1.1323  1.3629  0.2533
 4760TIP3   OH214285   1.671   2.623   3.747  0.2109 -0.4433  0.6332
 4760TIP3    H114286   1.595   2.594   3.797 -0.1087  0.0159  0.4270
 4760TIP3    H214287   1.637   2.640   3.659 -0.1124  2.4408  1.1860
 4761TIP3   OH214288   6.023   0.189   1.829 -0.2037 -0.1996  0.2451
 4761TIP3    H114289   5.973   0.262   1.792 -0.0457  0.6417  1.6491
 4761TIP3    H214290   5.998   0.188   1.921  3.8607  1.6074  1.5663
 4762TIP3   OH214291   1.060   5.876   1.431 -0.4710  0.2884  0.1597
 4762TIP3    H114292   1.142   5.895   1.385  0.2297 -2.3496  0.1384
 4762TIP3    H214293   1.083   5.883   1.524 -0.0925 -0.7299  0.1598
 4763TIP3   OH214294   3.607   4.180   2.789  0.1021 -0.6063 -0.9747
 4763TIP3    H114295   3.519   4.142   2.786  0.4318 -1.3640 -1.3846
 4763TIP3    H214296   3.659   4.116   2.837  0.4648 -0.2414 -0.8767
 4764TIP3   OH214297   0.591   4.390   0.932  0.2261  0.4751  0.2116
 4764TIP3    H114298   0.616   4.407   0.842 -0.2499 -1.2127 -0.2914
 4764TIP3    H214299   0.497   4.368   0.927  0.1775  0.4301  1.1140
 4765TIP3   OH214300   4.076   2.598   2.462  0.3022 -0.2778 -0.1266
 4765TIP3    H114301   4.012   2.653   2.418 -0.2183  0.9925  2.0451
 4765TIP3    H214302   4.150   2.594   2.402 -0.6205  0.7442 -1.3857
 4766TIP3   OH214303   3.860   2.481   0.816  0.1819  0.0773  0.1296
 4766TIP3    H114304   3.903   2.543   0.757  2.7238 -0.8944  0.8179
 4766TIP3    H214305   3.846   2.403   0.762 -2.4895  0.9388 -0.5776
 4767TIP3   OH214306   5.841   2.667   2.510  0.5682 -0.3212  0.1905
 4767TIP3    H114307   5.823   2.575   2.532  0.1311 -0.6925 -1.5130
 4767TIP3    H214308   5.785   2.718   2.569 -0.3180 -1.2166  0.1586
 4768TIP3   OH214309   0.387   5.373   5.090  0.1744  1.1691 -0.0399
 4768TIP3    H114310   0.419   5.462   5.075  1.7408  0.5010 -0.9266
 4768TIP3    H214311   0.329   5.355   5.017 -0.1893  1.4849  0.1724
 4769TIP3   OH214312   5.086   3.385   0.832  0.4696 -0.2401 -0.4976
 4769TIP3    H114313   5.043   3.468   0.815 -0.7615 -0.9972 -1.2235
 4769TIP3    H214314   5.138   3.369   0.753 -0.3760 -0.7915 -0.9621
 4770TIP3   OH214315   3.518   4.996   0.358 -0.0601 -0.1308 -0.4509
 4770TIP3    H114316   3.594   5.038   0.318 -0.7963  1.1269 -0.5993
 4770TIP3    H214317   3.444   5.022   0.303 -0.5983 -1.4123 -0.3742
 4771TIP3   OH214318   2.154   3.682   2.770  0.0518 -0.6738 -0.0648
 4771TIP3    H114319   2.137   3.776   2.771 -2.2955 -1.0396 -0.9094
 4771TIP3    H214320   2.142   3.655   2.861  0.6112 -0.1874  0.1592
 4772TIP3   OH214321   5.039   3.567   1.544  0.1424 -0.2208 -0.5340
 4772TIP3    H114322   5.060   3.544   1.453  1.0714 -0.1805 -0.3355
 4772TIP3    H214323   4.959   3.517   1.563 -1.3957  1.4910 -2.0883
 4773TIP3   OH214324   0.779   5.870   4.390 -0.2955 -0.4218 -0.2998
 4773TIP3    H114325   0.721   5.892   4.317  0.4586 -0.0074 -0.7865
 4773TIP3    H214326   0.725   5.886   4.468 -0.6241  0.6218 -0.7172
 4774TIP3   OH214327   1.524   4.894   1.387  0.2435 -0.2985 -0.1034
 4774TIP3    H114328   1.596   4.886   1.324  0.3875 -1.7715  0.2074
 4774TIP3    H214329   1.568   4.902   1.472  0.0392 -0.4222  0.0142
 4775TIP3   OH214330   1.124   1.054   4.921  0.1323 -0.4738 -0.4070
 4775TIP3    H114331   1.211   1.074   4.886  1.8642 -2.5088  2.3853
 4775TIP3    H214332   1.095   0.978   4.870 -0.1023  0.2195 -1.3542
 4776TIP3   OH214333   1.093   0.843   4.746 -0.2032  0.1603  0.3240
 4776TIP3    H114334   1.186   0.835   4.723 -0.0004  0.6053  0.9478
 4776TIP3    H214335   1.047   0.839   4.663  0.3472 -0.5292  0.0450
 4777TIP3   OH214336   1.561   5.776   1.286  0.0048 -0.3130 -0.4843
 4777TIP3    H114337   1.567   5.707   1.219 -1.2973 -0.6523 -0.2678
 4777TIP3    H214338   1.487   5.829   1.259 -0.4461 -0.3683  0.6172
 4778TIP3   OH214339   1.042   1.013   0.479  0.4318 -0.3615  0.4061
 4778TIP3    H114340   1.135   1.000   0.457  0.2761 -1.3933  0.2850
 4778TIP3    H214341   1.013   0.927   0.510 -0.4656 -0.0259  0.5173
 4779TIP3   OH214342   4.727   3.624   3.041  0.1439  0.3236 -0.0232
 4779TIP3    H114343   4.749   3.673   2.962  2.5664 -0.5818 -0.0165
 4779TIP3    H214344   4.766   3.675   3.112  2.5729 -1.4033 -0.0052
 4780TIP3   OH214345   3.695   5.973   0.414  0.2818 -0.1800 -0.1591
 4780TIP3    H114346   3.726   5.972   0.324  1.3165  2.2096  0.1085
 4780TIP3    H214347   3.775   5.979   0.467 -0.3580 -0.5654  0.8958
 4781TIP3   OH214348   3.960   1.165   3.342  0.0715  0.5801  0.9946
 4781TIP3    H114349   3.896   1.204   3.283 -0.3376 -0.4519  0.7320
 4781TIP3    H214350   4.044   1.182   3.301 -0.2989 -2.1324 -1.2211
 4782TIP3   OH214351   2.857   5.745   4.857  0.0679  0.2967  0.0384
 4782TIP3    H114352   2.832   5.721   4.768 -0.7276  1.0184  0.0575
 4782TIP3    H214353   2.918   5.676   4.884 -0.1994 -0.2896 -0.8199
 4783TIP3   OH214354   0.312   5.330   1.010  0.6222  0.9152 -0.1538
 4783TIP3    H114355   0.287   5.270   0.940  0.2673  1.3406 -0.3930
 4783TIP3    H214356   0.370   5.278   1.066  1.7570  0.8832 -1.3188
 4784TIP3   OH214357   2.489   1.737   1.771  0.2020  0.0289 -0.0804
 4784TIP3    H114358   2.396   1.716   1.758 -0.3722  1.9264  0.6719
 4784TIP3    H214359   2.532   1.651   1.781 -1.4477 -0.8836 -0.4603
 4785TIP3   OH214360   2.504   0.535   0.077  0.0233  0.0550 -0.2215
 4785TIP3    H114361   2.538   0.471   0.014 -2.4797  0.8065 -2.5088
 4785TIP3    H214362   2.549   0.617   0.054  1.3345 -0.2669  1.0378
 4786TIP3   OH214363   4.608   3.249   4.224  0.1860 -0.2212  0.4237
 4786TIP3    H114364   4.563   3.188   4.165  0.3153  0.7514 -0.7161
 4786TIP3    H214365   4.608   3.204   4.309 -2.9989 -0.2481  0.5420
 4787TIP3   OH214366   0.579   0.829   0.707 -0.3017  0.0881 -0.2691
 4787TIP3    H114367   0.639   0.899   0.681 -1.3955  1.2626  0.2774
 4787TIP3    H214368   0.493   0.871   0.710 -0.6383 -0.6074  2.5057
 4788TIP3   OH214369   2.435   0.844   0.874  0.4675  0.0492  0.3320
 4788TIP3    H114370   2.481   0.761   0.860  0.7448 -0.0805  1.8740
 4788TIP3    H214371   2.343   0.823   0.861  0.6463 -0.1746 -0.6583
 4789TIP3   OH214372   1.339   3.000   2.235 -0.2362 -0.2521  0.1875
 4789TIP3    H114373   1.341   3.039   2.148 -0.3275 -0.4231  0.1090
 4789TIP3    H214374   1.290   3.063   2.288  2.7626  1.6372  0.9995
 4790TIP3   OH214375   4.208   2.469   2.650 -0.0331  0.4421  0.0960
 4790TIP3    H114376   4.144   2.517   2.598 -0.3424  0.6418  0.6473
 4790TIP3    H214377   4.213   2.382   2.609 -2.4060 -0.3981  1.3934
 4791TIP3   OH214378   6.193   4.228   2.323  0.0978  0.4519  0.4933
 4791TIP3    H114379   6.189   4.135   2.303 -0.0223  0.5110  0.2395
 4791TIP3    H214380   6.106   4.248   2.359 -0.2853  0.7194 -0.5653
 4792TIP3   OH214381   4.309   5.616   5.026 -0.0393  0.0121  0.0643
 4792TIP3    H114382   4.366   5.600   4.951 -0.7971  0.6046 -0.6553
 4792TIP3    H214383   4.245   5.544   5.025  0.8543 -0.8319  1.0579
 4793TIP3   OH214384   5.413   1.994   4.591  0.3664 -0.2559 -0.7222
 4793TIP3    H114385   5.340   1.968   4.647  0.8104  0.7431  0.3668
 4793TIP3    H214386   5.374   2.053   4.526  0.3800  1.3625  0.6760
 4794TIP3   OH214387   3.738   3.199   2.966  0.8871 -0.6926  0.6964
 4794TIP3    H114388   3.809   3.263   2.965  1.3237 -1.1769  0.3830
 4794TIP3    H214389   3.721   3.183   3.059 -0.6616  1.4364  0.8537
 4795TIP3   OH214390   5.553   1.796   4.426 -1.0129 -0.3644 -0.7219
 4795TIP3    H114391   5.595   1.856   4.364  0.0054 -0.7301 -0.4099
 4795TIP3    H214392   5.512   1.853   4.491 -0.7139  0.0087 -0.8571
 4796TIP3   OH214393   5.866   1.571   3.891 -0.3956  0.1090  0.3952
 4796TIP3    H114394   5.961   1.560   3.901 -0.4144 -1.2645 -0.5524
 4796TIP3    H214395   5.852   1.665   3.887  0.8941  0.3354  0.8728
 4797TIP3   OH214396   4.839   1.371   3.029  0.2357  0.3361 -0.4271
 4797TIP3    H114397   4.881   1.299   3.077 -1.7613 -1.5048 -1.2754
 4797TIP3    H214398   4.902   1.395   2.962  1.3751  0.1154  0.5348
 4798TIP3   OH214399   6.077   5.578   4.140  0.3340 -0.0636 -0.3285
 4798TIP3    H114400   6.039   5.666   4.140  0.2345 -0.0860  0.7549
 4798TIP3    H214401   6.057   5.543   4.053  0.2161  0.9098 -0.7086
 4799TIP3   OH214402   5.219   0.121   3.695 -0.7881  0.3031  0.1639
 4799TIP3    H114403   5.256   0.041   3.732  0.7781  0.1499 -1.5987
 4799TIP3    H214404   5.290   0.186   3.702 -1.2935  0.9322 -0.3717
 4800TIP3   OH214405   2.882   0.298   0.912  0.0869  0.0833 -0.4897
 4800TIP3    H114406   2.914   0.213   0.881  0.9047  1.1595 -2.8730
 4800TIP3    H214407   2.961   0.345   0.939 -0.2570  0.3765 -0.0002
 4801TIP3   OH214408   0.766   3.635   3.790 -0.3938  0.0937  0.5121
 4801TIP3    H114409   0.860   3.650   3.802  0.1141 -2.4183  0.1397
 4801TIP3    H214410   0.749   3.663   3.700  0.0702  0.2440  0.4680
 4802TIP3   OH214411   0.063   3.921   4.817 -0.0245 -0.0473 -0.0176
 4802TIP3    H114412   0.004   3.846   4.803 -0.1325 -0.1771  1.0218
 4802TIP3    H214413   0.101   3.905   4.904 -0.5065  1.4086  0.4816
 4803TIP3   OH214414   2.285   1.975   3.669  0.4291  0.4782 -0.3219
 4803TIP3    H114415   2.225   1.957   3.597  0.0330  0.9997 -0.1341
 4803TIP3    H214416   2.288   1.894   3.719 -0.3284  0.5202 -0.1968
 4804TIP3   OH214417   2.336   0.302   5.045  0.0892 -0.6906  0.5242
 4804TIP3    H114418   2.248   0.298   5.082 -0.4359  0.4404 -0.5273
 4804TIP3    H214419   2.330   0.368   4.976  2.3285  1.2929  2.0283
 4805TIP3   OH214420   1.952   3.927   2.970 -0.1039 -0.0293 -0.3669
 4805TIP3    H114421   1.927   3.835   2.954  1.2497 -0.4413 -0.2231
 4805TIP3    H214422   2.028   3.941   2.914  0.6053  0.5494  0.7053
 4806TIP3   OH214423   5.850   0.421   2.508 -0.6834 -0.0250  0.1650
 4806TIP3    H114424   5.894   0.370   2.439 -3.2663 -1.9823 -0.2068
 4806TIP3    H214425   5.816   0.498   2.463 -0.1517  0.0033 -0.1899
 4807TIP3   OH214426   3.379   3.904   4.534  0.3476 -0.1251  0.0569
 4807TIP3    H114427   3.305   3.886   4.591  0.9207  0.4683  1.0141
 4807TIP3    H214428   3.385   3.827   4.477 -0.6904 -0.3931  0.2946
 4808TIP3   OH214429   5.391   3.745   3.078 -0.0370  0.4179  0.5384
 4808TIP3    H114430   5.412   3.764   3.170  0.1837  2.9219  0.0392
 4808TIP3    H214431   5.296   3.750   3.074 -0.0514  0.2384  0.6452
 4809TIP3   OH214432   6.070   1.301   0.166  0.7103 -0.0990  0.9379
 4809TIP3    H114433   6.022   1.295   0.248 -3.0224 -3.9123 -1.1387
 4809TIP3    H214434   6.049   1.389   0.133 -0.8791  0.1038  2.3510
 4810TIP3   OH214435   3.799   0.784   4.386  0.0603  0.4751  0.3450
 4810TIP3    H114436   3.829   0.819   4.302 -0.8154 -1.7552 -0.9885
 4810TIP3    H214437   3.719   0.832   4.405  0.0171  0.6948 -0.3499
 4811TIP3   OH214438   1.341   3.043   1.727 -0.4839  0.4285  0.0793
 4811TIP3    H114439   1.363   2.969   1.670  1.2547  1.6588 -0.9310
 4811TIP3    H214440   1.325   3.116   1.668 -1.8871  0.9843  1.0776
 4812TIP3   OH214441   4.463   0.934   2.355  0.0479 -0.6472 -0.7842
 4812TIP3    H114442   4.452   0.939   2.450 -3.1322 -2.3786 -0.8792
 4812TIP3    H214443   4.386   0.978   2.320  0.3921 -1.3156 -2.4890
 4813TIP3   OH214444   4.304   2.155   3.822  0.3006  0.1685 -0.0544
 4813TIP3    H114445   4.279   2.245   3.800  0.6395  0.8422  2.1029
 4813TIP3    H214446   4.247   2.100   3.768  1.1746  1.6221 -2.6216
 4814TIP3   OH214447   4.214   2.772   1.023  0.1103 -0.7429 -0.1980
 4814TIP3    H114448   4.239   2.833   0.953  2.4965 -1.3288  0.0423
 4814TIP3    H214449   4.234   2.686   0.988  0.1164 -1.1315  0.7357
 4815TIP3   OH214450   5.566   5.355   0.397 -0.0082  0.4626  0.6858
 4815TIP3    H114451   5.567   5.447   0.368  1.4644  0.6230  1.1605
 4815TIP3    H214452   5.535   5.307   0.321  2.7747  0.9815 -0.9368
 4816TIP3   OH214453   1.881   2.030   2.709  0.3392 -0.3898 -0.0219
 4816TIP3    H114454   1.945   2.037   2.780  0.6130 -0.0557 -0.2958
 4816TIP3    H214455   1.888   2.114   2.663  1.1948 -1.1212 -1.2938
 4817TIP3   OH214456   2.580   5.646   4.446  0.3033  0.8668 -0.2142
 4817TIP3    H114457   2.570   5.552   4.434  1.2644  0.5929  0.9100
 4817TIP3    H214458   2.490   5.679   4.455 -0.0843  0.2099 -1.5255
 4818TIP3   OH214459   3.965   1.467   0.555 -0.2500  0.3842 -0.1806
 4818TIP3    H114460   4.018   1.547   0.552 -0.9656  0.8892  0.2901
 4818TIP3    H214461   3.893   1.489   0.614  0.6933 -1.3364  1.7223
 4819TIP3   OH214462   0.407   1.292   1.875  0.2745 -0.4157 -0.4003
 4819TIP3    H114463   0.336   1.356   1.867 -0.5507 -1.3253 -0.6036
 4819TIP3    H214464   0.486   1.341   1.853 -0.7564 -0.5081 -5.3906
 4820TIP3   OH214465   1.071   1.033   2.520  0.4256 -0.6050  0.3068
 4820TIP3    H114466   1.103   0.943   2.520 -0.1126 -0.8212  1.6006
 4820TIP3    H214467   1.144   1.085   2.556  0.3392 -0.7004  0.6280
 4821TIP3   OH214468   3.272   5.071   0.232 -0.0063  0.2038 -0.3202
 4821TIP3    H114469   3.228   5.156   0.227 -0.6047 -0.1692 -1.7796
 4821TIP3    H214470   3.213   5.016   0.283  0.9032  0.9414  1.6127
 4822TIP3   OH214471   4.190   0.447   1.908 -0.0435  0.1905  0.1202
 4822TIP3    H114472   4.139   0.507   1.853 -1.8129 -1.4401 -0.1185
 4822TIP3    H214473   4.281   0.462   1.882 -0.4257  2.6175 -0.0274
 4823TIP3   OH214474   1.014   3.224   0.004  0.1993  0.1023  0.3436
 4823TIP3    H114475   1.104   3.246  -0.020 -0.4081  1.5999 -0.7381
 4823TIP3    H214476   1.022   3.174   0.085  2.1152 -1.6302 -0.8121
 4824TIP3   OH214477   3.942   2.672   4.530  0.6550 -0.2507  0.2726
 4824TIP3    H114478   3.944   2.601   4.466 -0.5581 -0.1397  0.0964
 4824TIP3    H214479   4.033   2.701   4.535  0.6472  0.5411 -2.3117
 4825TIP3   OH214480   6.293   2.059   5.068 -0.0600 -0.3026  0.2621
 4825TIP3    H114481   6.339   2.029   5.146 -0.0151  0.3987  0.5124
 4825TIP3    H214482   6.210   2.012   5.068  0.3119 -0.9700  0.2461
 4826TIP3   OH214483   3.255   5.521   5.050 -0.2021  0.2161 -0.0869
 4826TIP3    H114484   3.289   5.576   4.979  0.1635 -1.1754 -1.0273
 4826TIP3    H214485   3.330   5.466   5.075 -1.2925 -1.8634 -1.1692
 4827TIP3   OH214486   2.855   2.322   1.303 -0.1885 -0.0654  0.0995
 4827TIP3    H114487   2.842   2.231   1.330  1.7176 -0.3505  0.1996
 4827TIP3    H214488   2.903   2.362   1.375  2.2581 -0.0303 -1.4135
 4828TIP3   OH214489   2.624   2.933   3.852  0.6345  0.2145 -0.2414
 4828TIP3    H114490   2.558   2.902   3.915 -0.5686  2.1536 -0.4756
 4828TIP3    H214491   2.692   2.866   3.855 -1.9624 -2.7072 -1.0766
 4829TIP3   OH214492   5.502   2.954   2.674 -0.1787 -0.1187 -0.0480
 4829TIP3    H114493   5.465   3.027   2.722 -1.0316 -1.8127  2.0460
 4829TIP3    H214494   5.493   2.879   2.733  1.3641 -1.7748 -1.7616
 4830TIP3   OH214495   1.235   4.425   2.973 -0.2361  0.4079 -0.7504
 4830TIP3    H114496   1.314   4.411   3.026 -1.6812 -0.9296  1.2153
 4830TIP3    H214497   1.182   4.487   3.025 -1.9053 -1.3070 -0.2893
 4831TIP3   OH214498   0.769   5.287   1.687  0.0394 -0.0971 -0.4757
 4831TIP3    H114499   0.841   5.256   1.631  0.8282 -0.9515  0.9385
 4831TIP3    H214500   0.775   5.382   1.683 -0.3850 -0.1217 -2.3875
 4832TIP3   OH214501   0.920   3.956   0.042  0.5061 -0.1926  0.7815
 4832TIP3    H114502   0.906   3.877   0.094  0.3116  0.5142  1.8251
 4832TIP3    H214503   0.833   3.991   0.027  0.5847 -0.2185  0.2192
 4833TIP3   OH214504   1.759   0.585   2.045 -0.2897 -0.2876  0.3025
 4833TIP3    H114505   1.667   0.568   2.027 -0.0007 -1.3732 -0.2231
 4833TIP3    H214506   1.761   0.675   2.079 -1.3505  0.3466 -1.2050
 4834TIP3   OH214507   1.348   0.318   1.198  0.1905  0.1417  0.0189
 4834TIP3    H114508   1.426   0.303   1.252 -0.9489 -1.1547  1.3771
 4834TIP3    H214509   1.305   0.233   1.194 -1.9379  1.1414  0.5823
 4835TIP3   OH214510   4.039   4.950   1.082  0.3644 -0.4398  0.7697
 4835TIP3    H114511   4.108   4.887   1.101  0.2099 -0.8208  0.1099
 4835TIP3    H214512   3.968   4.898   1.043  1.1651  0.4046 -2.0627
 4836TIP3   OH214513   0.532   5.810   0.637 -0.0663 -0.1061 -0.1957
 4836TIP3    H114514   0.495   5.722   0.631 -0.7232 -0.0045  1.8045
 4836TIP3    H214515   0.550   5.822   0.730  0.3682  1.7432 -0.4885
 4837TIP3   OH214516   0.211   2.223   3.958 -0.8678 -0.5626 -0.0441
 4837TIP3    H114517   0.132   2.274   3.976 -0.5967 -0.3161  0.4648
 4837TIP3    H214518   0.193   2.136   3.993 -0.0188  0.1375  2.3272
 4838TIP3   OH214519   0.466   2.997   1.218  0.2021  0.9959 -0.6157
 4838TIP3    H114520   0.550   2.972   1.257 -0.6373 -0.4560  0.3728
 4838TIP3    H214521   0.478   2.986   1.124  0.6874 -0.7557 -0.3876
 4839TIP3   OH214522   3.651   5.363   1.028 -0.0860 -0.5506 -0.2760
 4839TIP3    H114523   3.746   5.361   1.019 -0.0318  0.1010  0.1102
 4839TIP3    H214524   3.618   5.319   0.950  0.5099 -0.0597 -0.8088
 4840TIP3   OH214525   2.911   0.570   0.122  0.0906 -0.3898 -0.4491
 4840TIP3    H114526   2.976   0.538   0.185 -1.6894  0.2441  1.8303
 4840TIP3    H214527   2.921   0.665   0.123 -0.1242 -0.3588 -0.9596
 4841TIP3   OH214528   1.123   3.805   2.650  0.4097 -0.1174  0.2748
 4841TIP3    H114529   1.106   3.883   2.702  0.6545 -0.5473  1.0205
 4841TIP3    H214530   1.038   3.781   2.614  0.2329  0.1829  0.4864
 4842TIP3   OH214531   3.482   3.667   3.725 -0.0951  0.2970 -0.1620
 4842TIP3    H114532   3.449   3.741   3.674  0.1888 -0.6062 -1.7039
 4842TIP3    H214533   3.575   3.685   3.736  0.3617 -0.6116 -2.0553
 4843TIP3   OH214534   5.744   1.132   4.766 -0.5613 -0.4321 -0.6103
 4843TIP3    H114535   5.659   1.095   4.746 -0.5267  0.2716 -2.2107
 4843TIP3    H214536   5.806   1.061   4.748 -0.7037 -0.5437 -0.6596
 4844TIP3   OH214537   4.879   0.742   0.766 -0.0788 -0.5288  0.1075
 4844TIP3    H114538   4.803   0.789   0.800  0.9815  0.9266  0.5724
 4844TIP3    H214539   4.845   0.691   0.693 -1.7818 -1.0961  1.2230
 4845TIP3   OH214540   1.865   1.703   5.084  0.2183 -0.3302 -0.3744
 4845TIP3    H114541   1.839   1.618   5.048 -0.8087  0.0253 -0.4988
 4845TIP3    H214542   1.953   1.718   5.050  0.0553 -0.9387 -1.0768
 4846TIP3   OH214543   2.233   1.288   0.351 -0.9336  0.6968 -0.2446
 4846TIP3    H114544   2.268   1.205   0.382  1.5927  1.0302 -1.9056
 4846TIP3    H214545   2.207   1.334   0.431  0.4573 -0.5023  0.9646
 4847TIP3   OH214546   6.088   5.771   2.357  0.0375  0.7472 -0.4234
 4847TIP3    H114547   6.124   5.688   2.389  1.1051  0.4554 -2.2763
 4847TIP3    H214548   6.035   5.746   2.281 -0.0795  1.7030 -0.6644
 4848TIP3   OH214549   4.016   2.118   0.247  0.0938 -0.6389 -0.5177
 4848TIP3    H114550   4.109   2.141   0.244  0.4154 -1.6072  1.0118
 4848TIP3    H214551   3.971   2.194   0.210  1.4112  0.3985 -0.0513
 4849TIP3   OH214552   0.309   2.930   4.189  0.4146 -0.2300  0.1401
 4849TIP3    H114553   0.331   2.973   4.106  0.4457 -0.8852 -0.2031
 4849TIP3    H214554   0.374   2.860   4.197  0.1180 -0.4666  0.4786
 4850TIP3   OH214555   5.114   3.176   1.862 -0.4308  0.3050  0.0685
 4850TIP3    H114556   5.084   3.267   1.866 -2.6751 -0.4024  0.5130
 4850TIP3    H214557   5.044   3.126   1.904  0.7275 -1.6450 -0.2403
 4851TIP3   OH214558   1.826   2.865   3.781 -0.4565  0.2347  0.1016
 4851TIP3    H114559   1.795   2.936   3.725 -1.4844 -0.4514 -0.2324
 4851TIP3    H214560   1.779   2.788   3.750  0.7388 -0.6302  0.3577
 4852TIP3   OH214561   0.910   0.282   0.617 -0.5334 -0.2720 -0.0792
 4852TIP3    H114562   0.885   0.280   0.525  0.3383 -2.0281 -0.3088
 4852TIP3    H214563   0.999   0.319   0.617 -0.8342  0.4701  0.1498
 4853TIP3   OH214564   1.285   3.738   0.287  0.6262  0.3424 -0.1545
 4853TIP3    H114565   1.304   3.733   0.193  1.6110  2.4606 -0.1188
 4853TIP3    H214566   1.285   3.832   0.307 -0.5165 -0.0203  1.7936
 4854TIP3   OH214567   2.111   4.785   0.891  0.1495  0.0543 -0.0583
 4854TIP3    H114568   2.125   4.746   0.805  1.7504 -1.0768  0.6557
 4854TIP3    H214569   2.021   4.818   0.889 -0.8300 -2.4696 -1.1834
 4855TIP3   OH214570   3.460   5.452   4.552 -0.1150  0.1873  0.0209
 4855TIP3    H114571   3.390   5.400   4.512 -0.7652  1.3549 -0.3876
 4855TIP3    H214572   3.527   5.457   4.483 -1.4351  2.5994 -1.1949
 4856TIP3   OH214573   4.176   3.680   0.925  0.3651  1.0076 -0.3700
 4856TIP3    H114574   4.219   3.595   0.934  0.3143  0.9914 -0.2860
 4856TIP3    H214575   4.142   3.680   0.835 -1.3935  0.1193  0.2600
 4857TIP3   OH214576   4.165   3.535   2.311  0.3939  0.2105 -0.3041
 4857TIP3    H114577   4.190   3.493   2.229 -0.5337 -0.1275 -0.4261
 4857TIP3    H214578   4.241   3.524   2.368  0.5972 -0.6199 -0.7214
 4858TIP3   OH214579   3.604   3.449   0.361  0.0027 -0.3000  0.1845
 4858TIP3    H114580   3.578   3.521   0.305 -0.4970 -0.5608  0.0785
 4858TIP3    H214581   3.684   3.480   0.404 -1.1520  0.9981  1.4688
 4859TIP3   OH214582   5.813   2.867   2.936 -0.2970  0.2135  0.1714
 4859TIP3    H114583   5.734   2.906   2.975 -0.2214 -0.0706  0.6209
 4859TIP3    H214584   5.786   2.780   2.908 -0.0781  0.0070  0.5851
 4860TIP3   OH214585   2.367   0.616   2.797 -0.0499 -0.8015  0.3022
 4860TIP3    H114586   2.460   0.637   2.800  0.3951 -2.6384  1.8725
 4860TIP3    H214587   2.354   0.577   2.710  0.9612 -1.6531  0.5071
 4861TIP3   OH214588   3.863   5.766   4.513  0.2928 -0.2671 -0.0546
 4861TIP3    H114589   3.932   5.701   4.522 -1.1568 -1.5288  3.3516
 4861TIP3    H214590   3.867   5.817   4.594 -1.7821  0.6237 -0.4449
 4862TIP3   OH214591   2.618   5.703   4.995 -0.3203  0.0757 -0.3549
 4862TIP3    H114592   2.544   5.760   4.978 -1.5132 -0.5623  2.2717
 4862TIP3    H214593   2.689   5.739   4.942 -2.4213  0.7451 -2.9242
 4863TIP3   OH214594   4.863   1.850   0.156  0.1847  0.3031 -0.6136
 4863TIP3    H114595   4.823   1.896   0.082 -0.7246  1.6746  0.6784
 4863TIP3    H214596   4.846   1.906   0.231 -0.7030 -1.9995  1.0244
 4864TIP3   OH214597   2.765   5.886   3.863  0.4503  0.3538 -0.4266
 4864TIP3    H114598   2.784   5.866   3.955  1.2337 -0.2735 -0.7163
 4864TIP3    H214599   2.670   5.896   3.860  0.2957 -0.7351  0.2478
 4865TIP3   OH214600   0.549   4.671   2.505  0.3180 -0.2771 -0.4487
 4865TIP3    H114601   0.561   4.662   2.600 -0.0153 -2.1096 -0.5362
 4865TIP3    H214602   0.576   4.586   2.470 -1.2552 -0.2607 -1.8018
 4866TIP3   OH214603   5.996   3.403   0.546 -0.1730  0.3932 -0.6655
 4866TIP3    H114604   5.941   3.436   0.617 -0.7078 -0.9471 -0.4260
 4866TIP3    H214605   6.073   3.367   0.590 -0.6713 -0.7679 -0.7116
 4867TIP3   OH214606   3.913   5.871   4.770  0.2663 -0.1358  0.1969
 4867TIP3    H114607   3.985   5.933   4.761  0.7974 -0.8939 -0.9435
 4867TIP3    H214608   3.941   5.811   4.838  2.0924 -2.1904 -2.1869
 4868TIP3   OH214609   4.917   2.199   1.307  0.0839 -0.1108 -0.2120
 4868TIP3    H114610   4.888   2.108   1.296  1.5118 -0.4380 -1.6223
 4868TIP3    H214611   4.956   2.201   1.394 -1.8235 -0.2834  0.6958
 4869TIP3   OH214612   2.533   2.951   0.446  0.6441  0.0663 -0.5690
 4869TIP3    H114613   2.538   2.917   0.357 -0.3358  0.5943 -0.8379
 4869TIP3    H214614   2.581   3.034   0.443 -1.1123  1.1134 -1.1433
 4870TIP3   OH214615   4.613   5.932   3.328  0.2479  0.5626 -0.6302
 4870TIP3    H114616   4.682   5.993   3.354  0.7609 -0.8021  1.3799
 4870TIP3    H214617   4.536   5.961   3.378 -0.3375  1.3133 -1.9160
 4871TIP3   OH214618   3.845   3.448   1.834 -1.0398 -0.2369  0.3873
 4871TIP3    H114619   3.790   3.449   1.755  0.0307  1.2809 -0.3810
 4871TIP3    H214620   3.934   3.456   1.801 -0.6120  1.0687  1.7699
 4872TIP3   OH214621   3.173   2.272   0.718 -0.2375  0.0681  0.4945
 4872TIP3    H114622   3.108   2.343   0.717  0.4751  0.7208 -0.3958
 4872TIP3    H214623   3.245   2.306   0.771  0.5268  0.4133 -0.7274
 4873TIP3   OH214624   0.017   0.856   4.261  0.8336  0.3643 -0.6998
 4873TIP3    H114625  -0.009   0.836   4.351 -0.5210 -0.2001 -1.1865
 4873TIP3    H214626   0.042   0.772   4.223  3.2372  0.8363 -0.3517
 4874TIP3   OH214627   2.373   4.760   2.213  0.3021  0.0742  0.0112
 4874TIP3    H114628   2.332   4.841   2.243 -0.2933 -0.1516 -0.1873
 4874TIP3    H214629   2.346   4.694   2.277 -0.2423 -0.2238 -0.5187
 4875TIP3   OH214630   1.377   3.986   2.412  0.3578 -0.2603 -0.1459
 4875TIP3    H114631   1.313   4.054   2.432  1.7252  1.1959 -0.5461
 4875TIP3    H214632   1.335   3.905   2.441 -1.0617  0.8081  0.9358
 4876TIP3   OH214633   4.941   0.349   4.578  0.3738 -0.2400  0.1843
 4876TIP3    H114634   4.861   0.401   4.582  0.8395  0.6340 -1.2246
 4876TIP3    H214635   4.936   0.292   4.655 -1.5267 -0.1120  0.2124
 4877TIP3   OH214636   5.924   5.057   4.634 -0.1418  0.5940 -0.6063
 4877TIP3    H114637   5.920   4.964   4.657 -2.2140  0.6535 -0.5216
 4877TIP3    H214638   5.862   5.099   4.694  1.1103  2.1205 -0.3279
 4878TIP3   OH214639   1.876   3.800   4.732  0.0877 -0.4866  0.3288
 4878TIP3    H114640   1.890   3.858   4.657 -1.8690 -0.5052 -0.0894
 4878TIP3    H214641   1.937   3.833   4.799  1.3262 -0.0067 -0.9975
 4879TIP3   OH214642   4.146   0.247   2.383  0.0278 -0.1921 -0.1920
 4879TIP3    H114643   4.106   0.234   2.297  0.6525 -0.0077 -0.5146
 4879TIP3    H214644   4.239   0.258   2.365  0.2905 -0.9977  0.5851
 4880TIP3   OH214645   4.438   0.226   3.208  0.2066 -0.2830  0.0603
 4880TIP3    H114646   4.414   0.144   3.166  0.0775  0.0232 -0.4824
 4880TIP3    H214647   4.354   0.265   3.233  0.2385 -0.1046 -0.1040
 4881TIP3   OH214648   5.192   4.206   0.468  0.1378  0.3157  0.2991
 4881TIP3    H114649   5.152   4.136   0.519  1.6082 -0.4398  0.4731
 4881TIP3    H214650   5.153   4.286   0.504 -0.1297 -0.3029  1.4468
 4882TIP3   OH214651   1.901   5.336   1.338 -0.2708 -0.0698  0.5376
 4882TIP3    H114652   1.816   5.293   1.331 -0.1917 -0.0210 -1.1234
 4882TIP3    H214653   1.881   5.424   1.370 -0.9678  0.2616 -0.7698
 4883TIP3   OH214654   4.510   3.857   2.984  0.2720 -0.2464 -0.2477
 4883TIP3    H114655   4.449   3.820   2.920  0.1335  0.7714 -0.7115
 4883TIP3    H214656   4.597   3.831   2.952  0.1031 -2.6113  0.9757
 4884TIP3   OH214657   4.659  -0.017   3.056  0.5659  0.3457 -0.1187
 4884TIP3    H114658   4.742   0.030   3.063  0.7818  0.3501 -2.2804
 4884TIP3    H214659   4.601   0.042   3.008  0.2907 -0.8530 -1.3219
 4885TIP3   OH214660   4.037   0.735   2.212 -0.4284  0.1703  0.4934
 4885TIP3    H114661   4.093   0.809   2.188  0.6397 -0.8358 -0.2230
 4885TIP3    H214662   4.074   0.703   2.295 -1.2024  0.7344  1.0689
 4886TIP3   OH214663   3.251   5.717   0.122  0.1722 -0.0435 -0.1868
 4886TIP3    H114664   3.189   5.785   0.150  1.1040  0.2863  1.2059
 4886TIP3    H214665   3.197   5.646   0.089 -0.8544  1.0795 -1.0063
 4887TIP3   OH214666   4.912   1.946   4.492 -0.1531  0.4920  0.0750
 4887TIP3    H114667   4.891   1.990   4.575  1.2358  0.3381  0.5253
 4887TIP3    H214668   4.937   2.018   4.433 -1.5612  0.6461 -0.3723
 4888TIP3   OH214669   0.263   1.587   0.138  0.8781 -0.4725 -0.8189
 4888TIP3    H114670   0.214   1.561   0.060  0.9576 -1.0171 -0.6925
 4888TIP3    H214671   0.223   1.670   0.165 -0.0977 -0.9900 -0.6161
 4889TIP3   OH214672   3.553   5.971   4.098 -0.3637  0.4599  0.2381
 4889TIP3    H114673   3.478   5.912   4.096  1.0328 -1.4634  0.9544
 4889TIP3    H214674   3.628   5.914   4.114  1.3520  2.2205 -1.0435
 4890TIP3   OH214675   6.263   1.313   2.242  0.0802 -0.0199 -0.2465
 4890TIP3    H114676   6.174   1.336   2.268  0.1748  0.9319 -0.7167
 4890TIP3    H214677   6.303   1.396   2.216  0.8504 -0.5443 -0.8020
 4891TIP3   OH214678   5.842   2.151   4.644 -0.5498  0.5110 -0.3149
 4891TIP3    H114679   5.801   2.217   4.588 -0.1960  0.3042 -0.8262
 4891TIP3    H214680   5.844   2.190   4.731 -1.0848  0.8471 -0.4527
 4892TIP3   OH214681   5.450   3.703   2.366  0.6558 -0.3756 -0.7220
 4892TIP3    H114682   5.473   3.619   2.407 -1.4323  0.1010  1.6811
 4892TIP3    H214683   5.505   3.767   2.413 -0.2228 -0.0580 -0.1007
 4893TIP3   OH214684   4.563   3.661   0.502  0.5521  0.1947 -0.2490
 4893TIP3    H114685   4.645   3.701   0.531  1.2172 -2.0907  1.2470
 4893TIP3    H214686   4.526   3.622   0.581 -1.2064 -0.1603 -1.2068
 4894TIP3   OH214687   4.519   0.752   3.411  0.1045  0.6153  0.1104
 4894TIP3    H114688   4.517   0.847   3.421 -0.4912  0.4800  1.4045
 4894TIP3    H214689   4.579   0.721   3.479  1.4144  0.1420 -1.1967
 4895TIP3   OH214690   0.515   2.744   2.052  0.2218 -0.2874  0.0612
 4895TIP3    H114691   0.562   2.693   2.118  0.6594 -1.4871 -1.1370
 4895TIP3    H214692   0.583   2.768   1.989 -0.0821  1.3391  0.3088
 4896TIP3   OH214693   4.558   4.897   0.880  0.0982 -0.5358  0.2345
 4896TIP3    H114694   4.495   4.965   0.855  0.8180  0.6098  1.4172
 4896TIP3    H214695   4.579   4.917   0.971  4.7112  1.2486 -0.9285
 4897TIP3   OH214696   0.146   2.389   4.565  0.2164 -0.0511 -0.2223
 4897TIP3    H114697   0.183   2.456   4.507  1.9506 -0.9421 -0.2152
 4897TIP3    H214698   0.166   2.306   4.521  0.8716 -0.7084  1.2700
 4898TIP3   OH214699   0.060   4.390   2.338 -0.1765  0.3776 -0.5182
 4898TIP3    H114700  -0.012   4.330   2.319 -0.4104  0.7505 -0.8219
 4898TIP3    H214701   0.115   4.343   2.401 -1.9462  1.0097  1.5833
 4899TIP3   OH214702   5.342   3.985   2.253 -0.1533  0.1270 -0.3126
 4899TIP3    H114703   5.346   4.000   2.348 -2.3350 -0.1930 -0.1183
 4899TIP3    H214704   5.425   3.940   2.233 -0.7606 -2.3153  1.9416
 4900TIP3   OH214705   4.805   3.509   3.629 -0.2961  0.4170 -0.0662
 4900TIP3    H114706   4.738   3.577   3.640 -0.1242  0.3923  1.3787
 4900TIP3    H214707   4.885   3.549   3.665  0.0380 -0.2026 -0.1103
 4901TIP3   OH214708   5.777   2.227   4.923  0.1994 -0.6480 -0.3030
 4901TIP3    H114709   5.714   2.180   4.978 -0.6576 -0.1360 -0.8261
 4901TIP3    H214710   5.857   2.174   4.928 -0.0629 -0.9674  0.8808
 4902TIP3   OH214711   5.121   1.643   0.344 -0.3698  0.2041  0.1282
 4902TIP3    H114712   5.146   1.715   0.285 -1.2804  0.3654 -0.0806
 4902TIP3    H214713   5.197   1.585   0.344  0.1578  0.8752 -0.1588
 4903TIP3   OH214714   0.296   3.205   3.855 -0.4871  0.1597 -0.1101
 4903TIP3    H114715   0.222   3.230   3.910 -0.2812 -1.3715  0.9272
 4903TIP3    H214716   0.327   3.122   3.892  0.6356 -0.1403 -1.6065
 4904TIP3   OH214717   2.066   4.462   1.888  0.3595 -0.2636 -0.0898
 4904TIP3    H114718   2.061   4.370   1.860 -0.3360 -0.3833  0.4169
 4904TIP3    H214719   2.119   4.460   1.968  0.8479 -0.1399 -0.4027
 4905TIP3   OH214720   1.042   3.565   4.913 -0.3480 -0.1859  1.0836
 4905TIP3    H114721   1.126   3.520   4.906 -1.4961 -2.2917 -0.4735
 4905TIP3    H214722   1.060   3.654   4.884  1.3650 -0.5388  0.9336
 4906TIP3   OH214723   6.008   1.132   1.581 -0.1131 -0.1725  0.2392
 4906TIP3    H114724   5.944   1.187   1.625  1.6967  0.8854  1.6504
 4906TIP3    H214725   6.074   1.112   1.647  2.0396  0.3953 -1.5784
 4907TIP3   OH214726   4.082   5.862   4.284 -0.5184  0.6557 -0.1668
 4907TIP3    H114727   4.162   5.831   4.325 -1.7097 -0.9545  1.1075
 4907TIP3    H214728   4.013   5.839   4.346 -2.1490  0.4521 -1.9553
 4908TIP3   OH214729   1.671   4.199   3.675 -0.3574  0.9092 -0.4657
 4908TIP3    H114730   1.762   4.226   3.687  0.0879 -1.0581  1.1428
 4908TIP3    H214731   1.632   4.204   3.763 -0.6915 -1.8549 -0.3824
 4909TIP3   OH214732   5.786   5.482   1.997  0.3163 -0.5676 -0.3051
 4909TIP3    H114733   5.823   5.477   1.909  2.1451  2.8746  0.1018
 4909TIP3    H214734   5.692   5.486   1.984  0.6074  2.0641 -2.3947
 4910TIP3   OH214735   0.371   4.951   0.120  0.0896  0.5499 -0.3461
 4910TIP3    H114736   0.410   5.038   0.113  1.4091 -0.0966 -1.5750
 4910TIP3    H214737   0.317   4.942   0.041 -0.5822  0.4878  0.1089
 4911TIP3   OH214738   3.077   3.670   5.183  0.4578 -0.1325 -0.4406
 4911TIP3    H114739   3.039   3.592   5.143 -2.4102 -0.1858  2.0312
 4911TIP3    H214740   3.003   3.730   5.193  1.6039  1.0173  1.9236
 4912TIP3   OH214741   4.852   1.562   4.377 -0.3037 -0.3711 -0.8837
 4912TIP3    H114742   4.817   1.641   4.335 -1.9216 -0.8485 -0.4938
 4912TIP3    H214743   4.774   1.512   4.402  0.6694 -2.4208 -1.7236
 4913TIP3   OH214744   4.824   4.476   0.378 -0.4396  0.2184 -0.2179
 4913TIP3    H114745   4.788   4.529   0.449 -1.7197 -0.5319 -0.2834
 4913TIP3    H214746   4.765   4.401   0.371  0.3607 -0.3466 -1.2691
 4914TIP3   OH214747   2.215   1.454   2.216 -0.3276  0.4744  0.4515
 4914TIP3    H114748   2.134   1.502   2.199  0.6360  2.0231 -0.0123
 4914TIP3    H214749   2.265   1.462   2.134 -0.1081 -1.3497  0.3563
 4915TIP3   OH214750   3.124   3.677   0.626  0.3469  0.4537  0.2951
 4915TIP3    H114751   3.167   3.699   0.543 -0.3655  1.5404  0.2001
 4915TIP3    H214752   3.178   3.607   0.663  0.3751 -0.4539 -1.3419
 4916TIP3   OH214753   5.042   2.741   2.681 -0.5511  0.3078  0.3685
 4916TIP3    H114754   5.039   2.728   2.776  0.8627  1.7922  0.6618
 4916TIP3    H214755   5.047   2.836   2.670 -2.2868  0.2729 -1.2832
 4917TIP3   OH214756   5.951  -0.018   0.928 -0.2582 -0.7564 -0.7493
 4917TIP3    H114757   5.865  -0.040   0.966  0.7131 -2.2013  0.7796
 4917TIP3    H214758   5.980   0.058   0.977 -0.9723  0.2316 -1.8141
 4918TIP3   OH214759   5.030   3.167   3.480 -0.5034  0.1912  0.2755
 4918TIP3    H114760   5.069   3.240   3.433  1.7397 -0.0848  1.5895
 4918TIP3    H214761   4.945   3.200   3.509 -0.2287  1.7078 -0.5243
 4919TIP3   OH214762   2.634   0.569   0.686  0.0308 -0.1489 -0.0971
 4919TIP3    H114763   2.569   0.499   0.684  0.3398 -0.4493  0.1963
 4919TIP3    H214764   2.698   0.544   0.620 -0.5238  0.5296 -0.9288
 4920TIP3   OH214765   2.041   5.876   0.366 -0.2433 -0.0125  0.1149
 4920TIP3    H114766   2.030   5.854   0.459  1.2784  0.8485  0.5268
 4920TIP3    H214767   1.952   5.880   0.332 -0.9536  1.6427  2.0037
 4921TIP3   OH214768   5.579   4.613   3.691  0.0064 -0.3978 -0.0378
 4921TIP3    H114769   5.612   4.627   3.779  2.7227  0.2246 -1.0625
 4921TIP3    H214770   5.591   4.519   3.675 -1.6719 -0.7718  0.6193
 4922TIP3   OH214771   0.051   3.228   4.961  0.0283  0.1289  0.1611
 4922TIP3    H114772   0.070   3.157   5.022  1.1857  0.7807  0.5823
 4922TIP3    H214773   0.129   3.236   4.907  0.3218  1.6920  0.7562
 4923TIP3   OH214774   0.176   4.655   4.410 -0.6054  0.3127  0.3348
 4923TIP3    H114775   0.166   4.741   4.451 -0.6207  0.3825  0.1852
 4923TIP3    H214776   0.213   4.600   4.479 -3.3255 -0.3492  1.4405
 4924TIP3   OH214777   5.060   0.523   0.733  0.7158  0.0265  0.1848
 4924TIP3    H114778   5.030   0.614   0.732  2.2536  0.5601 -0.2028
 4924TIP3    H214779   5.009   0.482   0.803 -1.1367  0.7551 -0.6785
 4925TIP3   OH214780   0.664   1.270   4.672  0.6957  0.3136  0.3895
 4925TIP3    H114781   0.635   1.205   4.609  0.4020 -0.7046  1.5331
 4925TIP3    H214782   0.739   1.229   4.717  0.4510  0.7135  1.1894
 4926TIP3   OH214783   4.574   1.464   0.226 -0.2036  0.1543  0.2182
 4926TIP3    H114784   4.583   1.559   0.217 -4.6721  0.7498 -0.1097
 4926TIP3    H214785   4.575   1.431   0.136 -3.7789  0.6988 -0.1340
 4927TIP3   OH214786   5.484   2.414   2.495  0.6415 -0.3588 -0.0268
 4927TIP3    H114787   5.515   2.335   2.452  1.5660  0.3082 -0.6095
 4927TIP3    H214788   5.469   2.476   2.424  2.6046  0.9015  0.5693
 4928TIP3   OH214789   3.488   3.644   0.192  0.2163  0.5276 -0.6782
 4928TIP3    H114790   3.399   3.607   0.187  0.6616 -0.4478 -1.8127
 4928TIP3    H214791   3.514   3.656   0.101  1.6879 -0.3191 -0.3980
 4929TIP3   OH214792   2.506   1.481   4.361  0.0857 -0.2988  0.0433
 4929TIP3    H114793   2.530   1.573   4.355  1.2919 -0.6073 -0.0613
 4929TIP3    H214794   2.572   1.442   4.418 -0.4015 -1.1098  0.0799
 4930TIP3   OH214795   0.326   5.773   1.699  0.5459 -0.5361 -0.2817
 4930TIP3    H114796   0.313   5.838   1.768  1.2262 -0.6875  0.0030
 4930TIP3    H214797   0.361   5.823   1.625 -1.9296 -0.0551 -1.2021
 4931TIP3   OH214798   3.184   4.666   2.948 -0.0704 -0.3058  0.9355
 4931TIP3    H114799   3.258   4.616   2.983  0.9389 -1.4711 -2.5275
 4931TIP3    H214800   3.108   4.610   2.963  0.1086 -0.2690  2.1441
 4932TIP3   OH214801   2.555   3.871   3.369  0.2875 -0.6721  0.4698
 4932TIP3    H114802   2.473   3.867   3.417 -0.8738  0.6443 -1.3083
 4932TIP3    H214803   2.621   3.844   3.433 -1.1865  0.7674  2.7292
 4933TIP3   OH214804   3.876   5.482   2.482  0.5438 -0.1809 -0.1572
 4933TIP3    H114805   3.863   5.511   2.573  3.6634 -0.1174  0.3794
 4933TIP3    H214806   3.842   5.392   2.481  0.0910 -0.0402  0.9591
 4934TIP3   OH214807   3.656   4.727   4.229  0.2899  0.3636 -0.0800
 4934TIP3    H114808   3.722   4.751   4.164 -1.2291  2.4665 -0.9532
 4934TIP3    H214809   3.654   4.631   4.226 -1.1237  0.2841 -4.7452
 4935TIP3   OH214810   0.368   5.529   3.748  0.2685  0.2484 -0.1850
 4935TIP3    H114811   0.360   5.582   3.670 -0.4171  1.3330  0.6044
 4935TIP3    H214812   0.428   5.458   3.723  1.0473  1.2693 -1.3138
 4936TIP3   OH214813   5.939   3.450   1.429  0.4209 -0.1331  0.4616
 4936TIP3    H114814   5.852   3.447   1.468 -0.3783  2.7612 -0.8011
 4936TIP3    H214815   5.961   3.359   1.413 -3.3319 -0.9921 -1.0401
 4937TIP3   OH214816   3.280   1.664   4.940  0.2601  0.3475 -0.0925
 4937TIP3    H114817   3.206   1.627   4.892  0.2738 -1.0801  0.9250
 4937TIP3    H214818   3.259   1.651   5.032  2.0163 -0.6850  0.2173
 4938TIP3   OH214819   0.064   5.341   1.107  0.8599  0.4702  0.6217
 4938TIP3    H114820   0.014   5.401   1.051  0.6462  0.6412  0.9947
 4938TIP3    H214821   0.154   5.374   1.102  0.6167  1.3061  1.4424
 4939TIP3   OH214822   6.317   3.123   1.895 -0.3274 -0.6445 -0.3598
 4939TIP3    H114823   6.315   3.110   1.800 -3.4932  0.5765 -0.5701
 4939TIP3    H214824   6.392   3.181   1.909  0.2838 -0.9420 -2.0817
 4940TIP3   OH214825   2.274   3.120   1.953  0.1799 -0.0213  0.0132
 4940TIP3    H114826   2.340   3.052   1.958 -1.2436 -1.4728 -0.0742
 4940TIP3    H214827   2.323   3.202   1.953  1.9312 -1.0349  0.2573
 4941TIP3   OH214828   5.165   3.545   0.611  0.5925  0.3965  0.1246
 4941TIP3    H114829   5.208   3.466   0.580  2.8489  1.7262 -0.3638
 4941TIP3    H214830   5.226   3.616   0.590 -1.2429  2.2674  0.7010
 4942TIP3   OH214831   2.871   3.068   1.513  0.3227 -0.1153  0.0936
 4942TIP3    H114832   2.888   3.072   1.419  1.4645 -1.6977  0.1936
 4942TIP3    H214833   2.787   3.112   1.524  0.4780  0.6836 -1.5629
 4943TIP3   OH214834   0.446   0.532   0.674  0.7253  0.0869  0.0636
 4943TIP3    H114835   0.405   0.446   0.677  0.0976  0.4009  1.0152
 4943TIP3    H214836   0.375   0.592   0.654  0.3216  0.8124  3.1100
 4944TIP3   OH214837   6.254   3.240   0.023 -0.1451  0.0745  0.2014
 4944TIP3    H114838   6.308   3.166  -0.004 -0.7676 -0.1722 -0.4004
 4944TIP3    H214839   6.164   3.213   0.001 -0.6806 -0.0584  2.3447
 4945TIP3   OH214840   3.420   3.893   3.259  0.5369  0.1748  0.2206
 4945TIP3    H114841   3.326   3.910   3.250  1.1104  3.6168 -0.7406
 4945TIP3    H214842   3.436   3.818   3.203 -1.4032  0.5336 -0.9120
 4946TIP3   OH214843   1.458   3.821   3.989 -0.8771 -0.5367 -0.1281
 4946TIP3    H114844   1.548   3.846   4.008 -0.7740 -0.3779 -0.8061
 4946TIP3    H214845   1.459   3.794   3.898 -1.2237 -1.9457  0.2607
 4947TIP3   OH214846   4.807   5.079   0.157 -0.0505 -0.0901  0.5680
 4947TIP3    H114847   4.877   5.144   0.161  0.6014 -0.7013 -0.4291
 4947TIP3    H214848   4.730   5.127   0.127 -0.0906  0.5905  1.6872
 4948TIP3   OH214849   3.168   2.003   0.733 -0.2710  0.5356  0.3090
 4948TIP3    H114850   3.187   2.096   0.747 -0.0683  0.6575 -0.6630
 4948TIP3    H214851   3.148   1.997   0.639  0.5535 -0.5358  0.1817
 4949TIP3   OH214852   4.007   1.034   2.352  0.4962 -0.4467  0.5479
 4949TIP3    H114853   3.918   1.069   2.356  0.1544 -1.3013  0.6130
 4949TIP3    H214854   4.027   1.009   2.442  1.2454  0.7905  0.7421
 4950TIP3   OH214855   5.658   4.214   4.365 -0.0042 -0.3154  0.1191
 4950TIP3    H114856   5.634   4.179   4.451 -0.1661 -1.5175 -0.3916
 4950TIP3    H214857   5.575   4.242   4.327 -0.4460 -2.6237 -0.8372
 4951TIP3   OH214858   0.323   4.941   1.650 -0.5780 -0.1822  0.0453
 4951TIP3    H114859   0.407   4.979   1.675 -0.6967 -0.0707  0.2812
 4951TIP3    H214860   0.309   4.971   1.559 -1.1213  1.1568  0.5385
 4952TIP3   OH214861   4.162   4.814   5.147  0.6517  0.5285 -0.0801
 4952TIP3    H114862   4.173   4.909   5.151 -2.3992  0.9270  1.5374
 4952TIP3    H214863   4.185   4.784   5.235  1.6551 -0.3000 -0.5995
 4953TIP3   OH214864   5.508   5.543   1.931  0.1709 -0.0552 -0.1184
 4953TIP3    H114865   5.455   5.558   1.853  2.0037 -0.4554 -1.5020
 4953TIP3    H214866   5.465   5.594   1.999 -1.3705  0.4741 -1.4215
 4954TIP3   OH214867   0.431   1.735   5.115  0.0817  0.0865  0.2321
 4954TIP3    H114868   0.372   1.776   5.051  1.0022 -0.4018 -0.9580
 4954TIP3    H214869   0.372   1.707   5.185 -0.9900  0.4832 -0.4658
 4955TIP3   OH214870   1.805   3.019   3.062  0.1401  0.6243 -0.0030
 4955TIP3    H114871   1.900   3.029   3.055  0.1062  1.5394  0.6501
 4955TIP3    H214872   1.788   2.930   3.033  1.5554 -0.6859  2.8565
 4956TIP3   OH214873   1.296   2.847   4.992 -0.0088 -0.9986 -1.0126
 4956TIP3    H114874   1.336   2.815   4.912  0.4347 -1.8978 -0.4500
 4956TIP3    H214875   1.253   2.770   5.030  2.6561 -1.5034  1.3432
 4957TIP3   OH214876   0.414   4.351   4.037 -0.5187  0.1642 -0.5845
 4957TIP3    H114877   0.339   4.359   3.978 -0.9654 -2.1766 -0.4654
 4957TIP3    H214878   0.399   4.417   4.104 -2.5330 -0.2557 -0.5489
 4958TIP3   OH214879   1.368   0.447   2.472  0.6869 -0.6025  0.0067
 4958TIP3    H114880   1.343   0.459   2.380  0.0855 -0.0527  0.2333
 4958TIP3    H214881   1.344   0.529   2.514  0.6743 -0.9621  0.7171
 4959TIP3   OH214882   1.625   3.967   5.160  0.1660  0.1291 -0.1479
 4959TIP3    H114883   1.565   3.894   5.140  0.0936  0.2141 -0.2402
 4959TIP3    H214884   1.572   4.027   5.212 -0.0065  0.4905 -0.7391
 4960TIP3   OH214885   4.359   0.309   0.081 -0.2587 -0.0259 -0.4866
 4960TIP3    H114886   4.336   0.233   0.136  0.8841 -0.0482 -0.0048
 4960TIP3    H214887   4.425   0.356   0.132 -0.2405  0.7662 -1.2167
 4961TIP3   OH214888   0.112   4.070   3.817 -0.4940 -0.0283 -0.6637
 4961TIP3    H114889   0.166   4.032   3.886 -2.0108  0.4362  0.8357
 4961TIP3    H214890   0.129   4.015   3.740  2.7841  0.6662 -0.5588
 4962TIP3   OH214891   5.659   5.835   2.150 -0.0807  0.2330 -0.3418
 4962TIP3    H114892   5.693   5.898   2.213  1.6498 -0.3607 -0.6303
 4962TIP3    H214893   5.568   5.862   2.136 -0.5345  0.4082  2.3559
 4963TIP3   OH214894   0.744   3.637  -0.020  0.3731  0.2192  0.7196
 4963TIP3    H114895   0.653   3.622   0.004 -0.1351  1.6254 -0.2112
 4963TIP3    H214896   0.779   3.691   0.051 -0.1140  1.3682  0.1120
 4964TIP3   OH214897   3.176   2.507   3.137 -0.3239  0.2635 -0.1358
 4964TIP3    H114898   3.213   2.559   3.065  0.7643 -1.3536 -0.7925
 4964TIP3    H214899   3.096   2.470   3.101  1.5441 -2.7283 -1.5717
 4965TIP3   OH214900   2.733   3.374   2.066 -0.1583  0.3777  0.4065
 4965TIP3    H114901   2.669   3.445   2.061 -0.2514  0.2382 -0.7337
 4965TIP3    H214902   2.817   3.418   2.079 -0.6136  0.4873  3.8284
 4966TIP3   OH214903   3.840   4.107   0.507  0.1047 -0.1361  0.5661
 4966TIP3    H114904   3.840   4.114   0.602 -1.6235 -1.0849  0.6785
 4966TIP3    H214905   3.810   4.193   0.476 -1.2719 -0.4363  0.9937
 4967TIP3   OH214906   1.810   1.162   1.559  0.2423  0.6253  0.0466
 4967TIP3    H114907   1.719   1.185   1.579  0.5704  1.1322  1.0195
 4967TIP3    H214908   1.812   1.067   1.559 -0.4476  0.6015 -0.7446
 4968TIP3   OH214909   3.885   0.516   4.801  0.7275  0.1242  0.3782
 4968TIP3    H114910   3.908   0.451   4.735 -0.9162  1.4427 -1.6034
 4968TIP3    H214911   3.895   0.600   4.757  0.4150  1.1031  2.0983
 4969TIP3   OH214912   6.223   5.069   0.859 -0.0371  0.6167  0.2027
 4969TIP3    H114913   6.173   5.129   0.803  0.8483  1.8864  0.6944
 4969TIP3    H214914   6.238   4.992   0.805 -1.9165  0.4771 -0.1730
 4970TIP3   OH214915   2.409   4.687   0.180 -0.0641  0.1954 -0.2772
 4970TIP3    H114916   2.453   4.739   0.247 -0.4150  0.3346 -0.1536
 4970TIP3    H214917   2.320   4.676   0.212  0.7194 -2.9810  1.1373
 4971TIP3   OH214918   4.546   2.385   1.338  0.1682 -0.5564 -0.3227
 4971TIP3    H114919   4.467   2.439   1.330  0.0184 -0.9481 -1.8036
 4971TIP3    H214920   4.545   2.355   1.429 -0.2946  1.0665  0.2557
 4972TIP3   OH214921   0.041   2.852   4.103  0.0447 -0.2428 -0.4135
 4972TIP3    H114922   0.064   2.874   4.012  2.0694 -2.1686 -0.4618
 4972TIP3    H214923   0.121   2.871   4.152 -0.5486 -0.6007  0.7172
 4973TIP3   OH214924   5.277   3.735   4.430 -0.1370 -0.3642 -0.3774
 4973TIP3    H114925   5.350   3.689   4.390  0.1669 -0.2524  0.0358
 4973TIP3    H214926   5.245   3.676   4.498 -0.4886 -0.4484 -0.6111
 4974TIP3   OH214927   2.993   5.775   3.677  0.1871  0.5052 -0.2290
 4974TIP3    H114928   3.087   5.779   3.696  0.2782  1.3042 -0.8327
 4974TIP3    H214929   2.951   5.781   3.763  0.6754  0.7146 -0.0017
 4975TIP3   OH214930   2.821   4.955   2.419  0.1049 -0.0461  0.3492
 4975TIP3    H114931   2.800   4.969   2.511 -0.1531 -1.4721  0.5328
 4975TIP3    H214932   2.736   4.958   2.374  0.0845 -0.5584  0.3438
 4976TIP3   OH214933   1.767   4.555   3.946  0.0602  0.0690 -0.4801
 4976TIP3    H114934   1.755   4.496   4.021  1.4392 -0.0720 -0.3392
 4976TIP3    H214935   1.678   4.574   3.916 -0.4962 -0.3853  0.7921
 4977TIP3   OH214936   0.962   1.878   3.638  0.0124  0.0388  0.0469
 4977TIP3    H114937   0.953   1.951   3.576  0.6296 -0.3026 -0.4501
 4977TIP3    H214938   0.962   1.920   3.724 -0.4085  0.5558 -0.2011
 4978TIP3   OH214939   3.140   0.547   1.965 -0.0669  0.1293 -0.1013
 4978TIP3    H114940   3.072   0.554   1.898  0.3323  1.2758 -0.4058
 4978TIP3    H214941   3.219   0.522   1.916  0.5488  2.2787 -0.3142
 4979TIP3   OH214942   1.334   4.175   3.428 -0.1762 -0.3604 -0.2764
 4979TIP3    H114943   1.365   4.202   3.341  0.1259 -0.3463 -0.1655
 4979TIP3    H214944   1.297   4.088   3.414 -0.6207 -0.1351 -0.5230
 4980TIP3   OH214945   2.086   0.893   4.301 -0.8463 -0.5005 -0.2761
 4980TIP3    H114946   2.077   0.932   4.214 -1.1045  0.9917  0.3890
 4980TIP3    H214947   2.030   0.947   4.357  0.4946 -0.4890  1.1054
 4981TIP3   OH214948   2.151   3.951   0.569 -0.2627 -0.5196 -0.8656
 4981TIP3    H114949   2.193   3.887   0.626 -0.4859 -0.8092 -1.0236
 4981TIP3    H214950   2.220   4.015   0.550 -0.4891  0.2061  0.6410
 4982TIP3   OH214951   3.075   1.778   4.219  0.5207  0.2573 -0.1043
 4982TIP3    H114952   3.029   1.811   4.296  2.6261  4.0648 -0.1982
 4982TIP3    H214953   3.079   1.684   4.231 -2.6441  0.2761  2.4070
 4983TIP3   OH214954   1.931   1.742   4.221  0.2204 -0.0741 -0.4345
 4983TIP3    H114955   1.941   1.685   4.144 -0.8587 -0.8678 -0.0102
 4983TIP3    H214956   1.844   1.779   4.212 -0.0056 -0.3446  0.5048
 4984TIP3   OH214957   5.377   0.004   1.237  0.0566  0.2439  0.5556
 4984TIP3    H114958   5.423   0.058   1.172  0.0625 -1.1386 -0.6364
 4984TIP3    H214959   5.323   0.066   1.286  1.5232  1.6006  0.5335
 4985TIP3   OH214960   2.068   4.582   3.247  0.6976 -0.4948  0.4358
 4985TIP3    H114961   1.993   4.545   3.295  1.7178 -0.3525  2.2451
 4985TIP3    H214962   2.028   4.633   3.177 -0.8496 -1.8072  0.2922
 4986TIP3   OH214963   5.940   3.571   1.794 -0.5235 -0.2220  0.5330
 4986TIP3    H114964   5.922   3.547   1.885 -1.6956 -1.0470  0.1121
 4986TIP3    H214965   5.854   3.593   1.758  0.1103  1.6329  0.0181
 4987TIP3   OH214966   0.058   0.572   1.065  0.2585  0.2067  0.2472
 4987TIP3    H114967   0.083   0.576   1.157  0.5151 -0.0163  0.1889
 4987TIP3    H214968   0.139   0.548   1.019 -0.2369 -1.4248  0.1519
 4988TIP3   OH214969   2.259   4.419   2.102  0.5801 -0.1397 -0.2537
 4988TIP3    H114970   2.199   4.365   2.154 -0.3183  0.3348 -0.7604
 4988TIP3    H214971   2.317   4.459   2.167  0.5880 -0.8958  0.2178
 4989TIP3   OH214972   5.576   5.541   4.640 -0.3745  0.2841  0.2038
 4989TIP3    H114973   5.577   5.576   4.729 -0.9178  0.0423  0.3100
 4989TIP3    H214974   5.605   5.613   4.585 -2.6890  1.3436  0.2721
 4990TIP3   OH214975   0.948   1.103   3.587  0.2966  0.2884  0.0813
 4990TIP3    H114976   0.945   1.147   3.672 -2.4097 -2.6494  1.7870
 4990TIP3    H214977   1.009   1.154   3.535 -1.0995  4.8072  2.3284
 4991TIP3   OH214978   5.887   1.594   1.312 -0.3503  0.6055 -0.3254
 4991TIP3    H114979   5.950   1.660   1.342 -2.3087  2.2346  0.3921
 4991TIP3    H214980   5.891   1.526   1.379  0.7598  0.5901 -0.3851
 4992TIP3   OH214981   3.377   5.697   0.842 -0.6664  0.1800 -0.4180
 4992TIP3    H114982   3.471   5.706   0.861 -0.8033  0.9838 -0.0978
 4992TIP3    H214983   3.342   5.786   0.849 -1.4825 -0.1355 -0.3795
 4993TIP3   OH214984   6.186   2.455   0.308 -0.1457  0.4468 -0.0212
 4993TIP3    H114985   6.186   2.405   0.226 -0.4391 -0.1597  0.3410
 4993TIP3    H214986   6.106   2.427   0.353 -0.1879  1.0654  0.2988
 4994TIP3   OH214987   4.705   4.248   1.565  0.3923 -0.8521  0.7216
 4994TIP3    H114988   4.752   4.168   1.540 -1.1058 -1.4766 -0.2134
 4994TIP3    H214989   4.626   4.217   1.608 -0.8204  0.0755 -0.7542
 4995TIP3   OH214990   0.225   0.610   1.906  0.1583  0.1811 -0.0108
 4995TIP3    H114991   0.181   0.568   1.832  0.3047  0.0946 -0.0488
 4995TIP3    H214992   0.249   0.697   1.873 -2.2800  1.2388  0.8081
 4996TIP3   OH214993   5.209   4.991   0.333 -0.4311 -0.3667 -0.1055
 4996TIP3    H114994   5.181   4.900   0.322 -0.6551 -0.2107 -0.9074
 4996TIP3    H214995   5.219   5.024   0.244  1.5605 -0.1830  0.1263
 4997TIP3   OH214996   2.925   1.054   3.162  0.3352 -0.3838  0.1677
 4997TIP3    H114997   2.898   0.980   3.109 -0.0203  0.1554 -0.4141
 4997TIP3    H214998   2.903   1.029   3.252 -1.0238 -0.4444 -0.1604
 4998TIP3   OH214999   5.621   5.036   2.598  0.8083 -0.5525 -0.2302
 4998TIP3    H115000   5.706   5.062   2.634  0.7595 -0.0497 -0.4683
 4998TIP3    H215001   5.613   5.086   2.517 -0.0157 -0.0911  0.1236
 4999TIP3   OH215002   4.568   2.034   4.490 -0.0777 -0.1979  0.3236
 4999TIP3    H115003   4.644   2.093   4.485 -0.5971  0.4011 -2.6268
 4999TIP3    H215004   4.528   2.041   4.403 -2.3428 -2.0720  1.1400
 5000TIP3   OH215005   4.835   3.029   0.697 -0.6401  0.3759  0.8385
 5000TIP3    H115006   4.783   3.105   0.673 -0.2224  1.0659  2.0319
 5000TIP3    H215007   4.926   3.061   0.697 -0.3920 -0.3067  0.6761
 5001TIP3   OH215008   1.708   2.093   0.277 -0.2401  0.0819  1.1715
 5001TIP3    H115009   1.660   2.176   0.288  1.0426  1.0091  0.1431
 5001TIP3    H215010   1.641   2.025   0.287 -1.5306  1.2717  1.0017
 5002TIP3   OH215011   5.842   4.800   4.725  0.7315  0.2031  0.0061
 5002TIP3    H115012   5.784   4.727   4.704 -0.5611  1.0711  0.4424
 5002TIP3    H215013   5.909   4.762   4.781 -1.2199 -0.2557  2.1899
 5003TIP3   OH215014   5.184   0.437   3.126  1.0072  0.6150  0.4157
 5003TIP3    H115015   5.187   0.424   3.032  1.3485  1.3350  0.3188
 5003TIP3    H215016   5.211   0.353   3.163 -0.2798 -0.0425 -0.0960
 5004TIP3   OH215017   4.060   1.431   2.367 -0.1958 -0.7684 -0.1448
 5004TIP3    H115018   4.010   1.378   2.429 -0.3576 -0.2853  0.1497
 5004TIP3    H215019   4.085   1.509   2.418 -0.3177 -0.3738 -0.6822
 5005TIP3   OH215020   1.199   0.136   5.040  0.4859  0.1598  0.4477
 5005TIP3    H115021   1.283   0.163   5.002  0.7429  0.7544  1.4123
 5005TIP3    H215022   1.185   0.196   5.113 -0.4985 -0.3111  0.6590
 5006TIP3   OH215023   4.864   3.345   1.018 -0.1782  0.1479  0.1062
 5006TIP3    H115024   4.939   3.347   0.958 -0.4272 -0.0672 -0.2171
 5006TIP3    H215025   4.892   3.396   1.094  0.7586 -0.9377  0.5259
 5007TIP3   OH215026   1.664   0.284   2.618  0.1376  0.2155  0.0102
 5007TIP3    H115027   1.653   0.375   2.646  2.5031  0.3206  0.7592
 5007TIP3    H215028   1.617   0.280   2.534  1.2353  2.5451 -0.8183
 5008TIP3   OH215029   0.885   3.540   1.161  0.1771 -0.5578 -0.6882
 5008TIP3    H115030   0.895   3.547   1.066  0.9195 -0.7779 -0.6329
 5008TIP3    H215031   0.964   3.495   1.190  0.3774  0.3125  0.1486
 5009TIP3   OH215032   1.519   4.832   0.283 -0.5556  0.3679 -0.3046
 5009TIP3    H115033   1.555   4.866   0.201 -0.2142  0.7431 -0.0025
 5009TIP3    H215034   1.499   4.909   0.335  0.4642  0.1257  0.4840
 5010TIP3   OH215035   2.629   4.931   1.179 -0.8117 -0.8680 -0.0574
 5010TIP3    H115036   2.619   4.909   1.086 -1.3800  2.4310 -0.8807
 5010TIP3    H215037   2.718   4.902   1.200 -0.1079 -0.3719 -2.0778
 5011TIP3   OH215038   6.162   4.938   0.445  0.4892 -0.1612  0.0460
 5011TIP3    H115039   6.247   4.971   0.471  0.9999 -1.4947  0.1402
 5011TIP3    H215040   6.134   4.996   0.374  1.0355  0.8487  0.6361
 5012TIP3   OH215041   5.016   0.904   0.086  0.3344  0.1174  0.1935
 5012TIP3    H115042   5.093   0.848   0.084  0.5002  0.3360  0.4950
 5012TIP3    H215043   5.039   0.979   0.031 -0.1324 -0.4171 -0.7701
 5013TIP3   OH215044   5.285   3.962   5.155  0.4146  0.1119 -0.6230
 5013TIP3    H115045   5.331   3.975   5.072 -0.8402 -0.9334 -1.5286
 5013TIP3    H215046   5.333   4.015   5.218  2.3440 -0.3136 -1.6749
 5014TIP3   OH215047   3.656   0.695   4.686  0.2900  0.3224 -0.7387
 5014TIP3    H115048   3.561   0.694   4.677  0.1586  1.0620  0.3712
 5014TIP3    H215049   3.686   0.617   4.639 -1.1785 -2.0646  1.9539
 5015TIP3   OH215050   4.092   3.378   4.761  0.4163  0.5899 -0.1245
 5015TIP3    H115051   4.164   3.434   4.790  0.3588  0.0423  1.1754
 5015TIP3    H215052   4.020   3.399   4.822 -0.2919  0.6235 -0.9575
 5016TIP3   OH215053   1.325   5.647   5.033  0.2862 -0.5083  0.1894
 5016TIP3    H115054   1.240   5.615   5.064  0.3423  0.7875  1.8450
 5016TIP3    H215055   1.387   5.578   5.057  0.0688 -0.2746  1.5304
 5017TIP3   OH215056   2.861   1.928   2.344  0.7311  0.2526  0.2774
 5017TIP3    H115057   2.937   1.983   2.320  1.1797 -0.6583 -0.4945
 5017TIP3    H215058   2.894   1.839   2.336 -0.0972 -0.1373  1.1386
 5018TIP3   OH215059   3.083   3.084   2.455  0.2309  0.1825  0.3007
 5018TIP3    H115060   3.020   3.053   2.389  0.8256  0.7533 -0.5587
 5018TIP3    H215061   3.160   3.030   2.440  0.7131  0.9825 -0.1350
 5019TIP3   OH215062   3.510   0.726   3.609  0.6766  0.1126 -0.3804
 5019TIP3    H115063   3.491   0.735   3.516  1.7321 -0.1666 -0.6439
 5019TIP3    H215064   3.425   0.732   3.652  0.2090  0.5561 -1.3345
 5020TIP3   OH215065   6.309   3.320   2.688  0.0040  0.3185  0.7270
 5020TIP3    H115066   6.264   3.265   2.751 -1.4160  2.1863  1.4513
 5020TIP3    H215067   6.271   3.296   2.603  3.2203 -3.5376  0.0553
 5021TIP3   OH215068   1.001   4.633   1.639  0.1764  0.0622 -0.3523
 5021TIP3    H115069   0.948   4.576   1.585  0.0578 -0.4177  0.2578
 5021TIP3    H215070   0.953   4.640   1.722  1.3624 -0.9336  0.4612
 5022TIP3   OH215071   5.725   3.111   3.342 -0.0614  0.0629  0.0664
 5022TIP3    H115072   5.770   3.170   3.402  0.6145  0.5758 -0.8989
 5022TIP3    H215073   5.634   3.112   3.370  0.0646  1.0533  0.4923
 5023TIP3   OH215074   0.336   5.989   3.951 -0.5087  0.0288  0.4670
 5023TIP3    H115075   0.310   5.899   3.932  1.7934 -0.7809  0.8115
 5023TIP3    H215076   0.260   6.027   3.996 -2.5825 -0.8329 -2.0558
 5024TIP3   OH215077   0.061   5.023   4.331  0.3068 -0.3008  0.1476
 5024TIP3    H115078  -0.031   5.023   4.360 -0.0071  1.5592 -0.6547
 5024TIP3    H215079   0.057   4.993   4.240  0.4396  0.1174  0.0022
 5025TIP3   OH215080   6.106   0.477   1.600  0.0832  0.5680 -0.1651
 5025TIP3    H115081   6.128   0.389   1.571  0.5445  0.8594 -0.7390
 5025TIP3    H215082   6.016   0.491   1.570  0.0353  0.3233 -0.1393
 5026TIP3   OH215083   5.184   3.898   3.861 -0.9281  0.4741 -0.0299
 5026TIP3    H115084   5.190   3.810   3.898 -2.0434 -0.1532 -1.2630
 5026TIP3    H215085   5.258   3.903   3.801 -0.3733  0.7077  0.6547
 5027TIP3   OH215086   0.425   3.692   3.371 -0.1017  0.3029  0.1582
 5027TIP3    H115087   0.387   3.666   3.455  0.3011  1.7295  0.8256
 5027TIP3    H215088   0.351   3.720   3.318 -0.2603  0.4372  0.4487
 5028TIP3   OH215089   2.090   5.581   2.146  0.4190 -0.1230 -0.7024
 5028TIP3    H115090   2.082   5.661   2.094  0.1436  0.0246 -0.4379
 5028TIP3    H215091   2.101   5.613   2.236  1.6583 -0.3602 -0.7563
 5029TIP3   OH215092   5.223   3.587   0.159  0.2039  0.2475  0.1447
 5029TIP3    H115093   5.167   3.665   0.167 -1.1197 -0.6722  0.1517
 5029TIP3    H215094   5.219   3.565   0.066  1.9055  1.1106 -0.1637
 5030TIP3   OH215095   2.480   3.767   2.373 -0.3073 -0.4433  0.3561
 5030TIP3    H115096   2.418   3.826   2.329 -0.6520 -0.3063  1.0122
 5030TIP3    H215097   2.425   3.707   2.423  0.0069 -1.8148 -0.8797
 5031TIP3   OH215098   2.671   0.954   1.873 -0.1153  0.4697 -0.3563
 5031TIP3    H115099   2.744   1.014   1.891  0.0283  0.5627 -1.1719
 5031TIP3    H215100   2.598   0.987   1.925 -0.5504  2.4132 -2.0723
 5032TIP3   OH215101   4.456   2.944   4.339 -0.0575 -0.4236 -0.5679
 5032TIP3    H115102   4.437   2.960   4.246  1.0783 -1.6444 -1.0493
 5032TIP3    H215103   4.400   2.869   4.361 -0.4894  0.0072 -0.2044
 5033TIP3   OH215104   1.851   0.676   4.354  0.6962 -0.4113  0.2195
 5033TIP3    H115105   1.759   0.700   4.344  1.0966  0.5989 -1.4552
 5033TIP3    H215106   1.895   0.718   4.280  2.4276 -1.3205  0.6758
 5034TIP3   OH215107   3.679   2.172   4.929 -0.5598  0.5889 -0.3196
 5034TIP3    H115108   3.756   2.215   4.890 -0.8383  1.5261  0.1258
 5034TIP3    H215109   3.679   2.084   4.891  0.2119  0.8749 -1.0238
 5035TIP3   OH215110   0.698   1.584   1.654  0.4454  0.5435  0.7713
 5035TIP3    H115111   0.774   1.559   1.602 -1.3528 -0.0542 -1.7715
 5035TIP3    H215112   0.673   1.670   1.621  0.1855  0.8618  1.7733
 5036TIP3   OH215113   4.642   4.270   1.019  0.4189  0.2963  0.0831
 5036TIP3    H115114   4.688   4.243   1.099 -1.6483 -0.2454  1.1668
 5036TIP3    H215115   4.599   4.191   0.988  0.4949  0.7027 -1.0948
 5037TIP3   OH215116   1.216   4.854   4.806 -0.2942 -0.3539  0.6584
 5037TIP3    H115117   1.121   4.852   4.814 -0.5209 -1.4130 -1.6047
 5037TIP3    H215118   1.237   4.946   4.788 -0.9254 -0.1779  0.8201
 5038TIP3   OH215119   5.959   4.950   1.915 -0.5470 -0.3473  0.0830
 5038TIP3    H115120   5.964   4.968   2.009  0.8300 -1.0653  0.1812
 5038TIP3    H215121   6.021   5.011   1.876  0.6972 -1.6511 -0.0677
 5039TIP3   OH215122   2.605   5.708   1.247  0.1344  0.2729 -0.2922
 5039TIP3    H115123   2.540   5.673   1.307  1.3568 -0.0788  0.8763
 5039TIP3    H215124   2.641   5.631   1.203  1.7641  0.1188  1.1875
 5040TIP3   OH215125   5.655   4.460   3.348 -0.1566 -0.2418  0.3906
 5040TIP3    H115126   5.574   4.509   3.338 -0.0182  0.6830  2.9087
 5040TIP3    H215127   5.722   4.527   3.366  0.9732 -1.0523 -0.6661
 5041TIP3   OH215128   6.372   1.739   5.120 -0.0632 -0.0957  0.1375
 5041TIP3    H115129   6.278   1.748   5.108 -0.2555 -1.7928  0.1073
 5041TIP3    H215130   6.382   1.656   5.168  1.4144 -0.0239 -0.0040
 5042TIP3   OH215131   1.782   5.493   4.897 -0.1922 -0.2984  0.3056
 5042TIP3    H115132   1.770   5.459   4.986  0.4857  0.2464  0.6226
 5042TIP3    H215133   1.699   5.534   4.876 -0.3808 -0.4844  0.6665
 5043TIP3   OH215134   0.919   3.316   0.569 -0.0383  0.8947 -0.1766
 5043TIP3    H115135   0.891   3.279   0.485  1.6241 -0.5562 -0.1659
 5043TIP3    H215136   0.869   3.397   0.578 -2.0502 -0.1236 -1.4092
 5044TIP3   OH215137   1.280   4.618   4.671 -0.4332 -0.4222  0.8229
 5044TIP3    H115138   1.246   4.701   4.705 -0.2845 -0.2196  0.4754
 5044TIP3    H215139   1.242   4.610   4.584 -0.5152 -0.7625  0.8889
 5045TIP3   OH215140   3.141   0.814   5.077  0.4464  0.2754 -0.2078
 5045TIP3    H115141   3.158   0.874   5.005 -1.8253  1.6808  0.3357
 5045TIP3    H215142   3.066   0.762   5.049  1.0221 -0.8245  0.2179
 5046TIP3   OH215143   0.579   4.625   4.976  0.3453 -0.0870  0.2301
 5046TIP3    H115144   0.600   4.624   5.069  1.6553 -0.8694 -0.0492
 5046TIP3    H215145   0.641   4.565   4.936 -1.7953 -1.7193 -0.8539
 5047TIP3   OH215146   3.981   5.419   2.093  0.6119 -0.2675  0.6647
 5047TIP3    H115147   4.032   5.400   2.172  0.3016  0.2441  0.9928
 5047TIP3    H215148   3.929   5.341   2.078  2.7374 -1.5261 -0.6755
 5048TIP3   OH215149   5.531   1.419   4.657 -0.0740 -0.1175  0.3592
 5048TIP3    H115150   5.483   1.497   4.684  0.0698  0.8328 -1.8664
 5048TIP3    H215151   5.621   1.434   4.686 -0.3062 -0.0497  1.0463
 5049TIP3   OH215152   2.896   4.633   1.495  0.4837  0.0860 -0.0769
 5049TIP3    H115153   2.952   4.624   1.571  1.0108  0.7903 -0.3711
 5049TIP3    H215154   2.939   4.582   1.427 -0.4591 -1.3014  0.3241
 5050TIP3   OH215155   0.138   4.694   3.914  0.5269  0.0201  0.0734
 5050TIP3    H115156   0.094   4.611   3.927 -1.0597  0.8893  0.4698
 5050TIP3    H215157   0.196   4.702   3.990  1.1899 -0.9925 -0.3010
 5051TIP3   OH215158   0.542   4.134   4.170 -0.2703  0.0773 -0.0786
 5051TIP3    H115159   0.602   4.181   4.228  0.4858  0.1887 -0.9432
 5051TIP3    H215160   0.497   4.203   4.121 -1.0597 -0.0084  0.4977
 5052TIP3   OH215161   4.520   3.425   3.170  0.2930  0.2444  0.5348
 5052TIP3    H115162   4.608   3.456   3.148  0.3740 -0.0192  0.4833
 5052TIP3    H215163   4.464   3.502   3.160  0.4797  0.3538  0.3269
 5053TIP3   OH215164   5.966   3.498   1.162  0.1327 -0.0438 -0.4540
 5053TIP3    H115165   5.974   3.496   1.257  0.8678  1.2241 -0.4617
 5053TIP3    H215166   6.054   3.477   1.130 -0.2168 -0.9160 -0.8704
 5054TIP3   OH215167   4.176   1.864   2.012  0.4282  0.2356  0.4677
 5054TIP3    H115168   4.229   1.835   2.087 -1.0156  1.4459  2.0582
 5054TIP3    H215169   4.237   1.868   1.939  1.8886 -1.1024  1.5477
 5055TIP3   OH215170   6.307   3.718   3.316  0.1329  0.5790  0.6729
 5055TIP3    H115171   6.278   3.705   3.225 -0.6095  0.3271  0.9340
 5055TIP3    H215172   6.345   3.634   3.341  0.7815  0.8025  0.4386
 5056TIP3   OH215173   2.675   3.104   0.760  0.2544  0.2664  0.3635
 5056TIP3    H115174   2.700   3.196   0.773 -0.1702  0.6111 -0.9767
 5056TIP3    H215175   2.591   3.109   0.714  1.5598 -0.6998 -2.3601
 5057TIP3   OH215176   1.465  -0.009   1.026  0.2859  0.0615  0.1256
 5057TIP3    H115177   1.416   0.050   1.084 -1.8510 -0.1568 -1.3242
 5057TIP3    H215178   1.426   0.005   0.940  1.4213 -1.6836 -0.7292
 5058TIP3   OH215179   1.060   3.091   1.559 -0.1021 -0.0495 -0.3925
 5058TIP3    H115180   1.074   3.135   1.474  2.1855  0.2636  0.0573
 5058TIP3    H215181   1.076   2.999   1.540 -1.0297 -0.1819 -0.5669
 5059TIP3   OH215182   5.213   3.626   3.924 -0.4803 -0.2727  0.0211
 5059TIP3    H115183   5.308   3.616   3.912 -0.2880  1.5461 -0.1827
 5059TIP3    H215184   5.197   3.591   4.012  0.1581 -1.7188 -0.4065
 5060TIP3   OH215185   5.002  -0.019   4.140 -0.1508 -0.4083  0.0064
 5060TIP3    H115186   4.957   0.044   4.196  0.3009  0.9225 -1.0576
 5060TIP3    H215187   5.053   0.035   4.079 -1.0576 -1.7192 -2.0623
 5061TIP3   OH215188   0.346   3.189   0.910  0.4095 -0.5152  0.7752
 5061TIP3    H115189   0.424   3.144   0.941  1.4581  1.0754  0.5765
 5061TIP3    H215190   0.358   3.194   0.815 -0.5152 -1.2781  0.6067
 5062TIP3   OH215191   5.979   1.739   1.071  0.0688 -0.6875 -0.4239
 5062TIP3    H115192   6.046   1.701   1.127 -0.3606 -0.8022  0.0183
 5062TIP3    H215193   5.901   1.744   1.126  0.0740  0.7146 -0.4999
 5063TIP3   OH215194   4.870   5.875   0.569 -0.0440 -0.4799  0.6092
 5063TIP3    H115195   4.862   5.935   0.495 -0.7117  1.1220  1.9238
 5063TIP3    H215196   4.947   5.821   0.548  0.3495  0.5833 -0.7889
 5064TIP3   OH215197   0.987   3.442   2.074  0.7230 -0.4299 -0.2655
 5064TIP3    H115198   0.966   3.395   1.994 -0.1552  0.4642 -0.5805
 5064TIP3    H215199   1.082   3.431   2.084  0.6121 -1.8012 -0.6014
 5065TIP3   OH215200   2.242   4.419   4.834 -0.4613  0.1935 -0.3218
 5065TIP3    H115201   2.192   4.338   4.837 -1.2984  0.7012 -0.1430
 5065TIP3    H215202   2.219   4.465   4.914  0.9255  0.0956  0.1669
 5066TIP3   OH215203   2.103   0.518   1.750  0.8399 -0.6729  0.1689
 5066TIP3    H115204   2.012   0.501   1.727  0.9859  0.0695 -1.0669
 5066TIP3    H215205   2.123   0.601   1.707  2.1734 -0.9510  0.2110
 5067TIP3   OH215206   2.049   2.237   3.491  0.1162 -0.1802 -0.3796
 5067TIP3    H115207   1.996   2.306   3.530  0.3677  0.0150 -0.3797
 5067TIP3    H215208   2.034   2.161   3.547  0.6589  0.1624  0.2543
 5068TIP3   OH215209   4.559   3.135   4.488 -0.0431  0.2102 -0.5973
 5068TIP3    H115210   4.492   3.073   4.460 -0.1848  1.0796 -2.3225
 5068TIP3    H215211   4.633   3.080   4.514 -1.3773 -0.7623  1.3534
 5069TIP3   OH215212   0.677   0.327   4.758  0.1153  0.4343 -0.1427
 5069TIP3    H115213   0.676   0.247   4.706  0.8382  0.4019 -0.1154
 5069TIP3    H215214   0.766   0.332   4.792 -0.1966  0.7461  0.6414
 5070TIP3   OH215215   0.012   1.787   1.203  0.1395 -0.4611 -0.4612
 5070TIP3    H115216   0.101   1.796   1.236 -0.2860 -0.4817  0.7354
 5070TIP3    H215217   0.001   1.861   1.143  0.0435  1.2399  1.5353
 5071TIP3   OH215218   0.026   5.090   0.467  0.5399 -0.2175 -0.6387
 5071TIP3    H115219   0.073   5.054   0.541 -0.3283 -0.5286 -0.2280
 5071TIP3    H215220   0.016   5.183   0.488 -0.1874 -0.4109 -0.0960
 5072TIP3   OH215221   0.314   2.972   2.010  0.1881 -0.5774 -0.1689
 5072TIP3    H115222   0.349   3.061   2.003 -0.0423 -0.6235 -3.3050
 5072TIP3    H215223   0.391   2.917   2.025  0.6829 -0.0803 -0.8196
 5073TIP3   OH215224   1.334   3.366   5.157 -0.1006 -0.6044 -0.0072
 5073TIP3    H115225   1.289   3.417   5.091  0.2585 -1.9394 -1.3281
 5073TIP3    H215226   1.402   3.319   5.109  0.5504 -1.1592  1.4036
 5074TIP3   OH215227   2.937   1.942   4.886  0.2023 -0.5402 -0.5108
 5074TIP3    H115228   2.970   1.985   4.965  1.2065 -1.1292 -0.5804
 5074TIP3    H215229   2.869   1.882   4.918  1.1466 -1.3558  0.0436
 5075TIP3   OH215230   3.422   0.710   2.336 -0.5966 -0.1790 -0.1185
 5075TIP3    H115231   3.509   0.712   2.295 -0.9703 -2.6127 -1.1995
 5075TIP3    H215232   3.426   0.778   2.403  2.7688 -1.3009  1.0541
 5076TIP3   OH215233   1.816   3.054   0.272  0.0966  0.4790 -0.2675
 5076TIP3    H115234   1.769   3.062   0.189  0.5609 -0.9463 -0.7048
 5076TIP3    H215235   1.903   3.090   0.255  0.6410 -1.0110 -0.8394
 5077TIP3   OH215236   6.216   4.499   4.881 -0.0965 -0.4500  0.3846
 5077TIP3    H115237   6.189   4.497   4.789 -0.0222  0.2326  0.3410
 5077TIP3    H215238   6.178   4.580   4.915 -1.4384 -1.4649  1.3760
 5078TIP3   OH215239   1.794   1.444   5.003 -0.5767  0.1727 -0.0587
 5078TIP3    H115240   1.810   1.408   4.916  2.2812  0.4855  0.2397
 5078TIP3    H215241   1.822   1.375   5.064 -1.5192  0.3648  0.6244
 5079TIP3   OH215242   2.815   5.420   1.096 -0.5822 -0.0397 -0.3159
 5079TIP3    H115243   2.731   5.379   1.074 -0.6039  0.0392 -0.3803
 5079TIP3    H215244   2.835   5.476   1.021 -0.9027  0.6184  0.0789
 5080TIP3   OH215245   4.960   1.036   2.607  0.6006  0.4180 -0.4141
 5080TIP3    H115246   4.952   0.941   2.603  0.4483  0.4632 -2.0506
 5080TIP3    H215247   5.032   1.056   2.546 -0.4126  1.4374 -1.3377
 5081TIP3   OH215248   2.339   2.357   3.716  0.4412 -0.2717  0.5622
 5081TIP3    H115249   2.379   2.278   3.681 -1.0608 -1.7111  1.8981
 5081TIP3    H215250   2.335   2.342   3.810 -3.1839 -0.3025  0.5437
 5082TIP3   OH215251   6.350   1.298   3.517  0.3016 -0.1910  0.1246
 5082TIP3    H115252   6.263   1.275   3.550 -0.3362  0.9165 -0.6906
 5082TIP3    H215253   6.352   1.260   3.429  0.2630  0.5676 -0.2142
 5083TIP3   OH215254   3.768   1.784   1.076 -0.1187 -0.1481  0.2712
 5083TIP3    H115255   3.728   1.795   1.162  0.8009 -0.9200  0.8225
 5083TIP3    H215256   3.829   1.857   1.068 -2.3590  1.7242 -1.0680
 5084TIP3   OH215257   1.519   2.640   0.485  0.4564 -0.2045  0.0530
 5084TIP3    H115258   1.475   2.714   0.529  0.3837  0.9592 -1.8631
 5084TIP3    H215259   1.448   2.578   0.468  0.4930 -0.6993  1.5557
 5085TIP3   OH215260   0.426   1.404   4.414 -0.7289  0.4726  0.0482
 5085TIP3    H115261   0.382   1.361   4.487 -1.0883 -1.5322 -1.2512
 5085TIP3    H215262   0.466   1.482   4.452 -0.6723 -0.6279  2.4325
 5086TIP3   OH215263   4.937   0.963   3.785  0.1302 -0.3643  0.0591
 5086TIP3    H115264   4.931   1.000   3.697  2.3484  1.8799  0.7364
 5086TIP3    H215265   4.899   1.030   3.841  1.3023 -0.4897  1.0444
 5087TIP3   OH215266   2.332   1.134   2.276 -0.3908  0.5814  0.2911
 5087TIP3    H115267   2.258   1.161   2.329  0.6458  0.7947  1.6971
 5087TIP3    H215268   2.407   1.138   2.336  0.3253 -2.4716 -0.1975
 5088TIP3   OH215269   1.991   0.905   0.041 -0.0796 -0.3552 -0.3773
 5088TIP3    H115270   1.920   0.956   0.000 -0.3026  1.0464  1.6050
 5088TIP3    H215271   2.065   0.917  -0.018 -0.3839  1.6137 -0.4359
 5089TIP3   OH215272   4.756   2.547   1.423  0.2160  0.3342  0.4334
 5089TIP3    H115273   4.677   2.494   1.412 -0.2026  1.1827 -0.8202
 5089TIP3    H215274   4.828   2.486   1.405 -0.1697 -0.2736  0.8936
 5090TIP3   OH215275   2.022   2.739   4.319 -0.2310 -0.1428 -0.2956
 5090TIP3    H115276   2.040   2.737   4.413 -0.0867 -0.2550 -0.3249
 5090TIP3    H215277   1.927   2.748   4.313 -0.2259  0.0178 -0.1383
 5091TIP3   OH215278   3.595   0.239   0.789 -0.2385  0.0269  0.3677
 5091TIP3    H115279   3.679   0.251   0.744 -0.9500  0.1727 -0.9806
 5091TIP3    H215280   3.576   0.146   0.778 -0.8286  0.2329 -0.4089
 5092TIP3   OH215281   1.267   5.289   4.045  0.4789 -1.3424 -0.1020
 5092TIP3    H115282   1.296   5.330   4.126  0.8348 -2.5627  0.4089
 5092TIP3    H215283   1.310   5.203   4.045 -0.8801 -2.0527 -0.7391
 5093TIP3   OH215284   4.544   3.162   2.309 -0.3249 -0.4397 -0.2347
 5093TIP3    H115285   4.608   3.105   2.352 -1.1695 -0.7248  0.6911
 5093TIP3    H215286   4.459   3.123   2.332 -0.8781  0.6991 -0.3129
 5094TIP3   OH215287   2.385   0.163   0.550  0.1989 -0.0539  0.6029
 5094TIP3    H115288   2.419   0.179   0.462  1.2286  0.6862  1.1116
 5094TIP3    H215289   2.415   0.239   0.601  1.0392 -1.2480  1.9722
 5095TIP3   OH215290   1.508   4.688   3.881 -0.1398  0.8651 -0.2039
 5095TIP3    H115291   1.573   4.727   3.822  0.6628 -0.5270 -0.2945
 5095TIP3    H215292   1.433   4.667   3.825  0.6930 -0.6310 -0.8396
 5096TIP3   OH215293   3.644  -0.004   4.952  0.3604  0.1036 -0.2960
 5096TIP3    H115294   3.595   0.049   4.889 -1.0087 -1.0831 -0.2777
 5096TIP3    H215295   3.587  -0.009   5.029  0.6090 -1.0761 -0.1633
 5097TIP3   OH215296   0.356   2.484   4.714  0.2653  0.5159  0.0625
 5097TIP3    H115297   0.307   2.530   4.782  1.1453 -0.6085  1.5318
 5097TIP3    H215298   0.295   2.420   4.678  0.3895 -0.4130  1.4078
 5098TIP3   OH215299   4.390   2.648   4.412 -0.1823 -0.2063  0.1769
 5098TIP3    H115300   4.393   2.554   4.432 -1.7901 -0.2370  0.3932
 5098TIP3    H215301   4.480   2.669   4.387  0.2113 -1.8079  0.0810
 5099TIP3   OH215302   4.886   0.267   2.557 -0.6584  0.0146 -1.3191
 5099TIP3    H115303   4.825   0.242   2.626 -0.6697  1.0011 -0.9499
 5099TIP3    H215304   4.833   0.322   2.498 -0.6434 -0.7959 -2.1001
 5100TIP3   OH215305   6.000   4.088   2.566  0.0167  0.2561  0.0479
 5100TIP3    H115306   6.077   4.122   2.611  1.4488 -0.5808 -1.6563
 5100TIP3    H215307   5.991   3.998   2.597  0.7950 -0.2056 -0.9820
 5101TIP3   OH215308   0.371   0.927   3.978 -0.2318  0.1758  0.1016
 5101TIP3    H115309   0.461   0.957   3.969 -0.1638  0.1321  0.6039
 5101TIP3    H215310   0.362   0.906   4.071 -0.9178  0.6929  0.1585
 5102TIP3   OH215311   1.832   0.212   2.822  0.1683 -0.1101  0.1523
 5102TIP3    H115312   1.760   0.204   2.884 -0.6571 -0.2056 -0.7806
 5102TIP3    H215313   1.791   0.243   2.741  0.9470 -1.4039 -0.7935
 5103TIP3   OH215314   1.083   2.823   3.192  0.3524 -0.2740 -0.9287
 5103TIP3    H115315   1.108   2.873   3.270 -1.6057  0.3603 -0.6657
 5103TIP3    H215316   1.105   2.881   3.119 -0.1816  0.2228 -0.7078
 5104TIP3   OH215317   3.463   5.361   0.438  0.1835 -0.8791  0.2018
 5104TIP3    H115318   3.459   5.407   0.354  0.4996 -0.5595  0.3587
 5104TIP3    H215319   3.539   5.398   0.483 -1.3193  0.6984  1.6166
 5105TIP3   OH215320   5.047   0.675   3.759  0.0237 -0.1209  0.4960
 5105TIP3    H115321   5.055   0.582   3.740 -0.3834  0.2463 -1.7369
 5105TIP3    H215322   5.089   0.719   3.685 -1.4797  1.4869  0.5173
 5106TIP3   OH215323   4.012   0.202   1.803 -0.2707  0.3350  0.6762
 5106TIP3    H115324   4.056   0.260   1.866 -1.1197  0.3939  1.2185
 5106TIP3    H215325   3.921   0.230   1.803 -0.9225 -1.6323  1.6816
 5107TIP3   OH215326   1.454   0.972   0.336 -0.2165  0.0001  0.1850
 5107TIP3    H115327   1.545   0.995   0.351 -0.3717  0.5948  0.2648
 5107TIP3    H215328   1.420   0.948   0.423 -0.1875 -0.0194  0.1906
 5108TIP3   OH215329   3.154   2.217   2.913  0.0639  0.0600  0.3427
 5108TIP3    H115330   3.204   2.294   2.887 -0.6258  0.7328  0.9754
 5108TIP3    H215331   3.138   2.229   3.007 -1.3723 -0.0677  0.1447
 5109TIP3   OH215332   3.842   2.802   2.801 -0.5790  0.4309  0.1511
 5109TIP3    H115333   3.794   2.737   2.750 -0.3306  1.0076 -0.8713
 5109TIP3    H215334   3.934   2.784   2.781 -0.5419  1.8819 -1.2304
 5110TIP3   OH215335   4.430   2.816   2.136  0.1266  0.0479  0.0224
 5110TIP3    H115336   4.521   2.792   2.155 -0.3205 -0.8899  1.0589
 5110TIP3    H215337   4.428   2.828   2.041  1.6867  1.6465  0.1300
 5111TIP3   OH215338   4.416   5.071   2.810  0.0281  1.1230 -0.1956
 5111TIP3    H115339   4.457   5.106   2.732 -3.2291  1.9977 -1.6790
 5111TIP3    H215340   4.408   4.977   2.793  1.1210  0.9872  0.0028
 5112TIP3   OH215341   5.456   4.485   1.828 -1.1450 -0.6813 -0.3221
 5112TIP3    H115342   5.463   4.403   1.779  1.2878  0.4927 -2.2070
 5112TIP3    H215343   5.405   4.543   1.771 -1.3175 -0.3575  0.1581
 5113TIP3   OH215344   2.144   4.784   1.599 -0.1628 -0.4678 -0.1365
 5113TIP3    H115345   2.175   4.816   1.685  2.0323 -0.5330 -0.8356
 5113TIP3    H215346   2.112   4.863   1.555 -3.2243 -0.7033  1.3806
 5114TIP3   OH215347   5.300   3.426   1.656 -0.1103  0.5650 -0.0061
 5114TIP3    H115348   5.327   3.503   1.605 -1.9185  0.4785 -1.1947
 5114TIP3    H215349   5.240   3.461   1.722  0.6828  0.4241  0.7925
 5115TIP3   OH215350   2.023   0.458   1.134  0.1582 -0.2934  0.5171
 5115TIP3    H115351   2.043   0.501   1.051  0.5438 -1.0540  0.2025
 5115TIP3    H215352   2.085   0.496   1.196  0.2736 -0.1485  0.3150
 5116TIP3   OH215353   3.638   4.569   5.118 -0.6945 -0.1611 -0.5285
 5116TIP3    H115354   3.587   4.590   5.040 -0.4698 -0.3574 -0.7290
 5116TIP3    H215355   3.649   4.474   5.115 -0.8185 -0.1888 -0.1760
 5117TIP3   OH215356   6.082   4.405   0.203  0.5702 -0.5021  0.1886
 5117TIP3    H115357   6.149   4.421   0.137  0.0551 -1.3136 -0.5610
 5117TIP3    H215358   6.054   4.492   0.231  0.9870 -0.1468 -0.4652
 5118TIP3   OH215359   0.091   4.587   1.961 -0.2905 -0.9187 -0.2595
 5118TIP3    H115360   0.129   4.623   1.881 -0.8848  0.2123 -0.0478
 5118TIP3    H215361   0.148   4.513   1.983  0.9218 -0.1649 -0.7504
 5119TIP3   OH215362   5.415   5.952   0.330  0.6035  0.1262 -0.0060
 5119TIP3    H115363   5.425   6.047   0.335  2.4950 -0.0734  0.4780
 5119TIP3    H215364   5.347   5.932   0.394  0.3780  1.1070  0.0872
 5120TIP3   OH215365   0.466   4.006   1.588 -0.4283 -0.3621 -0.0335
 5120TIP3    H115366   0.521   3.931   1.564 -0.4643 -0.6896  0.8528
 5120TIP3    H215367   0.376   3.975   1.575 -0.4286  0.1726 -1.4806
 5121TIP3   OH215368   5.422   0.660   2.700  0.7171 -0.4621  0.1534
 5121TIP3    H115369   5.334   0.694   2.720  0.9530  0.5836 -0.4717
 5121TIP3    H215370   5.422   0.651   2.605  1.3509 -0.2751  0.1362
 5122TIP3   OH215371   5.447   1.482   2.632  0.0427 -0.1296  0.4196
 5122TIP3    H115372   5.479   1.456   2.718  2.7717  0.5116 -0.3171
 5122TIP3    H215373   5.376   1.420   2.614 -0.8819 -0.0387  3.2404
 5123TIP3   OH215374   5.971   2.594   0.873  0.2158 -0.3302 -0.4382
 5123TIP3    H115375   5.955   2.618   0.964  0.6719  1.4905 -0.7877
 5123TIP3    H215376   5.883   2.586   0.835  0.0191 -1.2853  0.1775
 5124TIP3   OH215377   5.520   0.224   5.065  0.2902 -0.1089 -0.0983
 5124TIP3    H115378   5.578   0.175   5.124 -1.3760 -1.5287  0.4538
 5124TIP3    H215379   5.548   0.315   5.074  1.5979 -0.5852  1.1044
 5125TIP3   OH215380   5.423   1.785   1.269 -0.1416  0.4062  0.0231
 5125TIP3    H115381   5.400   1.729   1.194  1.8818 -2.1452  1.1720
 5125TIP3    H215382   5.511   1.757   1.294 -1.0529  0.4838  3.9109
 5126TIP3   OH215383   0.062   3.681   1.296  0.0732 -0.0041  0.2142
 5126TIP3    H115384  -0.026   3.674   1.333 -0.3235 -0.8031 -0.8236
 5126TIP3    H215385   0.070   3.773   1.270 -0.4694  0.0620  0.2705
 5127TIP3   OH215386   0.908   4.398   2.131 -0.1024  0.0054 -0.1645
 5127TIP3    H115387   0.877   4.466   2.191  0.3929 -0.2911  0.4367
 5127TIP3    H215388   0.828   4.355   2.100 -0.6490  2.4977 -2.5884
 5128TIP3   OH215389   5.357   2.738   0.151  0.4629  0.2709  0.2007
 5128TIP3    H115390   5.282   2.725   0.210 -0.3897 -0.6890 -1.0562
 5128TIP3    H215391   5.434   2.720   0.206 -0.2251  0.7877  1.3763
 5129TIP3   OH215392   5.845   4.192   1.153 -0.1869 -0.1190 -0.0492
 5129TIP3    H115393   5.920   4.250   1.153 -0.8763  0.7866 -0.2478
 5129TIP3    H215394   5.815   4.191   1.244 -0.2421 -0.0807 -0.0670
 5130TIP3   OH215395   2.660   5.956   1.037 -0.2503 -0.6550  0.7168
 5130TIP3    H115396   2.740   5.996   1.071  0.5805 -0.7044 -1.0947
 5130TIP3    H215397   2.623   5.909   1.112 -0.0297  1.5399  2.2808
 5131TIP3   OH215398   2.568   0.009   1.877  0.0130  0.3868 -0.0483
 5131TIP3    H115399   2.601   0.081   1.930  0.4325  1.3970 -1.6049
 5131TIP3    H215400   2.647  -0.037   1.847 -0.2636 -1.1058  1.3808
 5132TIP3   OH215401   2.064   3.800   1.256 -0.2776 -0.3505  0.1187
 5132TIP3    H115402   2.093   3.730   1.314 -1.7200 -0.4161  0.7960
 5132TIP3    H215403   2.102   3.879   1.294 -0.8832 -0.4421  0.9280
 5133TIP3   OH215404   3.013   4.918   4.838  0.5966 -0.3497 -0.7132
 5133TIP3    H115405   3.076   4.958   4.897  2.6455 -1.4074 -2.0591
 5133TIP3    H215406   3.017   4.971   4.758  0.1045 -0.6665 -0.9531
 5134TIP3   OH215407   5.044   4.493   0.538  0.0850 -0.3744  0.1335
 5134TIP3    H115408   4.983   4.483   0.466 -0.2398 -2.4043  0.6386
 5134TIP3    H215409   4.989   4.498   0.616  0.4899  0.1698  0.3925
 5135TIP3   OH215410   2.459   5.770   2.561 -0.4592 -0.1158 -0.6493
 5135TIP3    H115411   2.369   5.780   2.591  0.1588 -3.3546  2.9967
 5135TIP3    H215412   2.505   5.846   2.595 -1.1512 -0.2854  0.7048
 5136TIP3   OH215413   3.560   5.611   3.209 -0.1022  1.0460 -0.1341
 5136TIP3    H115414   3.571   5.597   3.115  0.6688  0.9814 -0.0345
 5136TIP3    H215415   3.634   5.566   3.250 -0.0883  1.5992  0.4646
 5137TIP3   OH215416   3.841   3.653   2.027 -0.2011 -0.2514  0.2190
 5137TIP3    H115417   3.867   3.582   1.969  1.5416  0.5180 -0.0107
 5137TIP3    H215418   3.759   3.686   1.989 -0.0227 -0.8991 -0.7777
 5138TIP3   OH215419   1.923   2.890   4.047  0.0880 -0.0700 -0.0140
 5138TIP3    H115420   1.890   2.876   3.958 -0.4267  2.4828 -0.3156
 5138TIP3    H215421   1.865   2.839   4.102 -1.3829  0.5067 -0.9614
 5139TIP3   OH215422   5.650   5.282   4.592 -0.3489  0.4317  0.6503
 5139TIP3    H115423   5.729   5.280   4.537 -0.5789  1.1162  0.2905
 5139TIP3    H215424   5.629   5.375   4.601 -0.1738  0.3683  2.1161
 5140TIP3   OH215425   1.702   5.152   1.350  0.4581 -0.1292 -0.1759
 5140TIP3    H115426   1.769   5.096   1.388 -0.5873 -1.1141  0.2575
 5140TIP3    H215427   1.634   5.091   1.321 -0.6176  0.8984  0.1325
 5141TIP3   OH215428   3.788   1.919   3.043  0.4421  0.2731  0.3906
 5141TIP3    H115429   3.764   1.928   2.951  3.0825  0.5679 -0.3583
 5141TIP3    H215430   3.841   1.840   3.046  1.5655  1.0311  1.3480
 5142TIP3   OH215431   4.469   1.293   0.006 -0.0039  0.3363 -0.2295
 5142TIP3    H115432   4.482   1.220   0.066  0.5389  0.0620 -0.6742
 5142TIP3    H215433   4.374   1.309   0.008 -0.1029 -0.2610  0.0006
 5143TIP3   OH215434   5.905   5.106   1.383 -0.4715 -0.4992  0.3892
 5143TIP3    H115435   5.914   5.193   1.423  0.1671 -0.7422  0.7874
 5143TIP3    H215436   5.989   5.091   1.340 -1.2464 -0.1144 -1.3311
 5144TIP3   OH215437   6.300   3.972   0.953 -0.2231  0.0074 -1.1312
 5144TIP3    H115438   6.292   3.888   0.907  0.0809 -1.3735  1.2017
 5144TIP3    H215439   6.393   3.979   0.973 -0.3918  0.4252 -0.4747
 5145TIP3   OH215440   0.469   2.907   3.011  0.4682 -0.3217 -0.0688
 5145TIP3    H115441   0.521   2.845   2.961  0.1187 -0.5787 -0.1178
 5145TIP3    H215442   0.519   2.989   3.009  1.9530 -1.1101  1.7018
 5146TIP3   OH215443   3.930   3.195   0.444 -0.0174  0.1965  0.5278
 5146TIP3    H115444   3.899   3.274   0.487 -0.7542 -0.3655  1.0503
 5146TIP3    H215445   3.879   3.190   0.362  0.3289  0.4814  0.2934
 5147TIP3   OH215446   1.654   2.853   0.241 -0.0806  0.2994  0.0135
 5147TIP3    H115447   1.714   2.926   0.252 -0.3039  0.4855  0.0009
 5147TIP3    H215448   1.686   2.786   0.302  0.1742  0.3745 -0.0394
 5148TIP3   OH215449   5.329   5.658   1.736 -0.0229  0.3452 -0.1527
 5148TIP3    H115450   5.318   5.747   1.768  0.0172 -0.2625  1.6652
 5148TIP3    H215451   5.265   5.649   1.666 -3.1847  0.5198  2.4707
 5149TIP3   OH215452   3.346   3.954   2.627  0.0567 -0.5976  0.4035
 5149TIP3    H115453   3.270   3.897   2.637  0.8783 -2.0858 -1.3271
 5149TIP3    H215454   3.329   4.004   2.548  0.2648  0.1050  0.7911
 5150TIP3   OH215455   0.407   3.953   4.941 -0.0029  0.0925  0.0501
 5150TIP3    H115456   0.502   3.956   4.936  0.2232 -2.1724  1.4346
 5150TIP3    H215457   0.383   3.869   4.901 -1.4544  0.7011 -0.4433
 5151TIP3   OH215458   1.294   0.521   3.611  0.8984  0.0331 -0.5611
 5151TIP3    H115459   1.205   0.497   3.583  0.6531  0.7008 -0.3755
 5151TIP3    H215460   1.318   0.595   3.556  1.1619  0.1486 -0.2925
 5152TIP3   OH215461   5.570   2.939   5.060 -0.1906  0.7629 -0.9692
 5152TIP3    H115462   5.512   2.968   4.990 -0.1340  1.4692 -0.7314
 5152TIP3    H215463   5.544   2.991   5.136  0.3697  0.6764 -0.7123
 5153TIP3   OH215464   2.409   0.619   5.083 -0.1684 -0.0129  0.7385
 5153TIP3    H115465   2.380   0.580   5.166 -0.5236  0.2144  0.7239
 5153TIP3    H215466   2.346   0.588   5.018 -1.1960  1.5126  0.9276
 5154TIP3   OH215467   0.461   4.582   1.098 -0.1397  0.6176  0.1127
 5154TIP3    H115468   0.466   4.561   1.005 -0.5373  2.9767 -0.5224
 5154TIP3    H215469   0.394   4.523   1.133 -0.7492  0.4240 -1.3412
 5155TIP3   OH215470   5.618   2.794   1.184  0.1307  0.3950 -0.3848
 5155TIP3    H115471   5.563   2.818   1.259 -0.6258  2.3023 -1.4964
 5155TIP3    H215472   5.593   2.704   1.164 -1.2256  0.5817  0.3334
 5156TIP3   OH215473   0.517   5.326   0.729  0.2073  0.2074 -0.3067
 5156TIP3    H115474   0.430   5.361   0.712  0.1962  0.1372 -0.3993
 5156TIP3    H215475   0.534   5.345   0.821 -1.5915 -3.3610  0.9411
 5157TIP3   OH215476   0.620   0.344   0.074 -0.5133  0.4397 -0.4494
 5157TIP3    H115477   0.662   0.414   0.124  0.8089  0.3261 -1.3469
 5157TIP3    H215478   0.555   0.307   0.134 -0.4758  1.7047  0.4138
 5158TIP3   OH215479   3.037   2.710   1.141  0.5227 -0.3143  0.1345
 5158TIP3    H115480   2.958   2.757   1.113  0.0803 -0.2006  1.5396
 5158TIP3    H215481   3.014   2.617   1.131  0.5731 -0.2716 -0.4117
 5159TIP3   OH215482   1.673   2.520   4.489 -0.1435 -0.1273 -0.1577
 5159TIP3    H115483   1.731   2.449   4.516 -0.9410 -0.6483  0.2214
 5159TIP3    H215484   1.732   2.588   4.455  0.6492 -0.8103 -0.1707
 5160TIP3   OH215485   1.258   4.779   1.295  0.0582 -0.1020  0.8064
 5160TIP3    H115486   1.350   4.755   1.284 -0.2689 -1.0737  0.0418
 5160TIP3    H215487   1.217   4.702   1.333 -0.7102 -0.2054 -0.1788
 5161TIP3   OH215488   2.437   2.797   1.733  0.1674 -0.4004 -0.4112
 5161TIP3    H115489   2.400   2.713   1.705  0.7464 -0.6664 -0.3916
 5161TIP3    H215490   2.523   2.774   1.769  0.8423  0.3372 -1.5093
 5162TIP3   OH215491   3.019   2.447   1.124  0.2488  0.0261 -0.0288
 5162TIP3    H115492   2.948   2.405   1.172  0.9764 -0.9477  0.2190
 5162TIP3    H215493   3.077   2.375   1.099  1.8924  0.9306  1.0233
 5163TIP3   OH215494   4.506   0.806   0.245  0.2282 -0.0246  0.3145
 5163TIP3    H115495   4.500   0.737   0.311  0.3741 -0.7400 -0.3955
 5163TIP3    H215496   4.519   0.759   0.163  0.6159  0.8663 -0.1516
 5164TIP3   OH215497   1.693   2.797   4.845  0.3060  0.1188 -0.4674
 5164TIP3    H115498   1.665   2.727   4.787 -1.0196  0.6345 -0.4905
 5164TIP3    H215499   1.655   2.775   4.930 -1.0210  1.2929 -0.7096
 5165TIP3   OH215500   1.606   5.507   1.392 -0.0303  1.1288 -0.0345
 5165TIP3    H115501   1.524   5.458   1.397 -0.3401  1.7303  1.7681
 5165TIP3    H215502   1.587   5.589   1.437  1.3948  1.5223 -0.1069
 5166TIP3   OH215503   0.301   3.705   2.956  0.1975 -0.5461  0.4456
 5166TIP3    H115504   0.394   3.690   2.974  0.0789 -1.1690  0.5520
 5166TIP3    H215505   0.296   3.715   2.861  0.3245 -0.8954  0.4006
 5167TIP3   OH215506   4.972   1.510   2.121  0.3024  0.7213 -0.3659
 5167TIP3    H115507   5.066   1.500   2.136  0.6272  1.1343 -1.9089
 5167TIP3    H215508   4.945   1.426   2.081  0.0277  0.6282  0.0124
 5168TIP3   OH215509   1.856   3.744   3.527  0.0053 -0.2269  0.2751
 5168TIP3    H115510   1.917   3.740   3.454 -0.9601 -1.3555 -0.5145
 5168TIP3    H215511   1.814   3.830   3.519  1.1251  0.3649  0.5540
 5169TIP3   OH215512   4.226   0.299   3.781 -0.3615 -0.1615 -0.0248
 5169TIP3    H115513   4.257   0.233   3.843  1.0738  1.3518  0.9678
 5169TIP3    H215514   4.137   0.273   3.760 -0.2814 -1.6837  1.3346
 5170TIP3   OH215515   6.060   1.848   3.572  0.0132  0.0592  0.0162
 5170TIP3    H115516   6.110   1.817   3.497  1.2166  0.7350  0.5199
 5170TIP3    H215517   5.984   1.790   3.575  0.3073 -0.4396 -1.2758
 5171TIP3   OH215518   0.862   2.526   1.242 -0.1365 -0.9322 -0.5392
 5171TIP3    H115519   0.889   2.613   1.273  0.7761 -1.4720  0.2311
 5171TIP3    H215520   0.790   2.544   1.181  0.3804  0.3980 -0.7998
 5172TIP3   OH215521   3.522   2.427   0.177 -0.4111 -0.0825 -0.3574
 5172TIP3    H115522   3.578   2.353   0.154 -1.1758 -1.3311  1.4658
 5172TIP3    H215523   3.581   2.502   0.183  0.4892 -0.6604 -1.6389
 5173TIP3   OH215524   5.209   2.010   2.975 -0.5176  0.1917 -0.0591
 5173TIP3    H115525   5.115   2.000   2.989 -0.6329  2.8628  1.6981
 5173TIP3    H215526   5.217   2.067   2.899 -0.4350  1.6845  1.0279
 5174TIP3   OH215527   5.870   4.850   0.232  0.3551  0.0938  0.6783
 5174TIP3    H115528   5.812   4.789   0.186  1.0029 -0.9556  1.2140
 5174TIP3    H215529   5.893   4.804   0.313  3.0719 -0.1651 -0.1417
 5175TIP3   OH215530   1.805   2.783   2.945  0.7081  0.0710 -0.5817
 5175TIP3    H115531   1.884   2.785   2.891  1.1739  1.0249  0.1102
 5175TIP3    H215532   1.818   2.709   3.004  1.3353  0.5439 -0.1186
 5176TIP3   OH215533   1.673   2.163   4.474 -0.0428 -0.2823 -0.2018
 5176TIP3    H115534   1.665   2.087   4.531  0.0821 -0.5787 -0.5690
 5176TIP3    H215535   1.724   2.131   4.399  0.6741  0.3688 -0.0027
 5177TIP3   OH215536   3.647   2.994   4.491 -1.4751 -0.0229 -0.7285
 5177TIP3    H115537   3.653   3.088   4.502 -0.3193  0.3397 -3.5996
 5177TIP3    H215538   3.569   2.981   4.438 -0.2172 -0.3687 -2.5754
 5178TIP3   OH215539   3.057   3.470   2.609 -0.0208  0.0308 -0.5924
 5178TIP3    H115540   3.115   3.473   2.685  0.2165  0.7764 -0.7902
 5178TIP3    H215541   3.116   3.471   2.534 -0.1792 -2.4148 -0.8267
 5179TIP3   OH215542   1.121   3.416   3.402  0.4640 -0.1786 -0.1876
 5179TIP3    H115543   1.044   3.419   3.346  0.5549 -0.8084 -0.3510
 5179TIP3    H215544   1.124   3.502   3.444 -2.0157 -1.0534  2.0898
 5180TIP3   OH215545   1.572   0.543   4.430 -0.1693 -0.0550  0.2429
 5180TIP3    H115546   1.586   0.448   4.429 -0.0104 -0.0481  0.9801
 5180TIP3    H215547   1.518   0.560   4.353 -0.8743 -0.8585  0.5450
 5181TIP3   OH215548   0.736   1.995   0.412 -0.2653  0.0075 -0.7309
 5181TIP3    H115549   0.671   2.041   0.358  0.8451  0.5512 -1.6603
 5181TIP3    H215550   0.690   1.917   0.442 -1.7875  1.0487 -0.1924
 5182TIP3   OH215551   1.201   0.467   1.438 -0.4153  0.3798  0.3121
 5182TIP3    H115552   1.156   0.425   1.511 -1.1208 -1.7153 -1.2230
 5182TIP3    H215553   1.262   0.400   1.406  2.2816  2.3437  0.9004
 5183TIP3   OH215554   0.798   0.344   4.017 -0.6130  0.2594 -0.5142
 5183TIP3    H115555   0.841   0.347   4.102  0.7607  1.0708 -1.1929
 5183TIP3    H215556   0.733   0.414   4.021  1.6583  2.5874 -1.1731
 5184TIP3   OH215557   3.803   1.957   0.320 -0.7109  0.1635 -0.4165
 5184TIP3    H115558   3.741   2.026   0.343 -2.0658 -1.6942  1.9742
 5184TIP3    H215559   3.885   2.003   0.302 -0.9989  2.3300  2.9291
 5185TIP3   OH215560   0.814   3.080   1.801  0.2416 -0.0936 -0.4495
 5185TIP3    H115561   0.870   3.071   1.723  1.3707 -0.4202  0.3791
 5185TIP3    H215562   0.812   2.993   1.840 -1.7306 -0.3574 -1.0102
 5186TIP3   OH215563   5.603   4.100   2.694 -0.4547 -0.4003 -0.8453
 5186TIP3    H115564   5.625   4.191   2.714 -1.5787 -0.3351  0.2503
 5186TIP3    H215565   5.585   4.061   2.780 -1.7504 -1.1614 -1.4334
 5187TIP3   OH215566   2.772   5.181   2.603 -0.2317  0.1867  0.5269
 5187TIP3    H115567   2.784   5.232   2.683  0.1310  0.2747  0.4164
 5187TIP3    H215568   2.856   5.186   2.558 -1.1851  2.4867 -1.2460
 5188TIP3   OH215569   1.819   0.936   2.746  0.2535  0.5634  0.7205
 5188TIP3    H115570   1.755   0.907   2.681  0.3306  1.4350  0.2321
 5188TIP3    H215571   1.883   0.865   2.751 -0.1174  0.2001  0.3416
 5189TIP3   OH215572   2.533   1.182   5.008  0.2735  0.2548 -0.3699
 5189TIP3    H115573   2.504   1.220   5.091 -0.2800 -0.0957 -0.3968
 5189TIP3    H215574   2.627   1.196   5.007  0.2482  0.5027  0.1933
 5190TIP3   OH215575   0.278   5.470   2.615 -0.4304 -1.0057  0.1555
 5190TIP3    H115576   0.251   5.387   2.655 -4.2000 -1.8422 -3.4225
 5190TIP3    H215577   0.310   5.446   2.529  1.5708  1.1134  0.2370
 5191TIP3   OH215578   3.495   5.469   2.923 -0.1986  0.3656 -0.3965
 5191TIP3    H115579   3.501   5.523   2.845  0.2826  0.4160 -0.3252
 5191TIP3    H215580   3.401   5.456   2.936 -0.3090  0.9990 -0.5387
 5192TIP3   OH215581   6.062   1.364   1.440  0.0317 -0.1294 -0.2426
 5192TIP3    H115582   6.021   1.278   1.449  0.8925 -0.4747  0.5633
 5192TIP3    H215583   6.086   1.371   1.348 -1.7413  0.0618 -0.7394
 5193TIP3   OH215584   4.247   0.508   0.354 -0.3705  0.5412 -0.5888
 5193TIP3    H115585   4.237   0.564   0.431 -1.2017 -0.0648 -0.2372
 5193TIP3    H215586   4.319   0.547   0.305  1.1291  0.1858  1.1724
 5194TIP3   OH215587   4.437   5.244   3.580 -0.3155 -0.1827  0.7653
 5194TIP3    H115588   4.413   5.182   3.649  1.3541  0.3296  1.8703
 5194TIP3    H215589   4.490   5.310   3.624 -0.1355  0.7994 -0.8201
 5195TIP3   OH215590   0.502   1.952   3.593  0.1531 -0.2356 -0.3609
 5195TIP3    H115591   0.451   1.918   3.666 -0.8964 -0.5375 -1.2089
 5195TIP3    H215592   0.558   1.880   3.566 -1.4321 -1.0665 -1.5879
 5196TIP3   OH215593   4.051   4.511   1.466  0.3951  0.1791 -0.2253
 5196TIP3    H115594   3.996   4.576   1.422 -0.9478 -0.7355  0.0824
 5196TIP3    H215595   4.132   4.559   1.486 -0.4617  1.6843 -0.2408
 5197TIP3   OH215596   3.768   0.303   1.865 -0.1982  0.0915 -0.1369
 5197TIP3    H115597   3.777   0.396   1.844  0.2116  0.3297  0.9867
 5197TIP3    H215598   3.749   0.302   1.959 -1.1023 -0.9310 -0.3169
 5198TIP3   OH215599   4.999   4.508   4.828 -0.7029 -0.8521  0.0968
 5198TIP3    H115600   5.029   4.496   4.738 -0.8392 -0.6049  0.0162
 5198TIP3    H215601   4.950   4.590   4.826 -0.9113 -0.9697  0.3470
 5199TIP3   OH215602   4.568   0.991   2.124 -0.0497 -0.6097  0.0292
 5199TIP3    H115603   4.508   0.963   2.055 -0.2816  0.0613 -0.0536
 5199TIP3    H215604   4.522   0.970   2.206 -0.3545 -0.2014 -0.0336
 5200TIP3   OH215605   1.427   2.154   3.770  0.6608 -0.4934  0.3102
 5200TIP3    H115606   1.449   2.073   3.814  1.7050 -0.4158 -0.0306
 5200TIP3    H215607   1.376   2.127   3.694  3.4428 -1.1786 -1.4817
 5201TIP3   OH215608   5.594   1.706   3.506  0.3676  0.0654  0.1511
 5201TIP3    H115609   5.569   1.701   3.414 -0.6937 -0.6490  0.4562
 5201TIP3    H215610   5.554   1.786   3.538  0.5602  0.2052  0.0399
 5202TIP3   OH215611   2.564   3.972   4.076  0.1850  0.1106 -0.3763
 5202TIP3    H115612   2.640   4.018   4.113 -0.5766 -0.1775  1.6839
 5202TIP3    H215613   2.531   4.032   4.008  0.2692  1.8580  1.0305
 5203TIP3   OH215614   0.079   3.500   3.426 -0.1703 -0.0151 -0.1646
 5203TIP3    H115615   0.151   3.501   3.489  0.3766 -0.6014 -0.7654
 5203TIP3    H215616   0.012   3.444   3.466  0.7595 -1.5781 -0.6995
 5204TIP3   OH215617   5.797   2.930   1.045 -0.0469 -0.1641 -0.1072
 5204TIP3    H115618   5.729   2.901   1.106 -0.3507  0.7212 -0.0234
 5204TIP3    H215619   5.759   2.917   0.958 -0.8872  1.6490 -0.0417
 5205TIP3   OH215620   0.393   5.057   4.086 -0.3495 -0.2752  0.6451
 5205TIP3    H115621   0.349   5.109   4.019 -0.3837  0.0702  0.9334
 5205TIP3    H215622   0.468   5.018   4.041 -0.8546 -0.7414  0.1863
 5206TIP3   OH215623   3.451   0.514   2.756  0.0858 -0.1488 -0.6252
 5206TIP3    H115624   3.403   0.465   2.823 -1.6609  0.0524 -1.6937
 5206TIP3    H215625   3.537   0.472   2.754 -0.3951 -1.2525  0.5615
 5207TIP3   OH215626   3.450   1.911   4.850  0.0970 -0.1455 -0.1085
 5207TIP3    H115627   3.406   1.826   4.860  2.3806 -1.3645  0.1578
 5207TIP3    H215628   3.391   1.973   4.893 -1.9006 -1.4607 -0.7691
 5208TIP3   OH215629   4.579   0.354   3.495  0.5284  0.1066  0.5087
 5208TIP3    H115630   4.581   0.269   3.452 -0.2182 -0.0974  0.8555
 5208TIP3    H215631   4.495   0.392   3.468  0.7402  0.6250  0.5636
 5209TIP3   OH215632   1.855   5.333   4.694  0.3064 -0.0076  0.0320
 5209TIP3    H115633   1.808   5.397   4.747  2.1310  1.5644 -0.1519
 5209TIP3    H215634   1.941   5.325   4.736  0.5551 -1.4000 -0.6799
 5210TIP3   OH215635   0.446   5.609   2.164 -0.2982 -0.3256 -0.2204
 5210TIP3    H115636   0.401   5.526   2.150  0.2230 -0.6583  0.0499
 5210TIP3    H215637   0.532   5.597   2.123 -0.5397  0.3932 -0.9619
 5211TIP3   OH215638   4.713   1.667   0.769  0.0304  0.0444  0.2654
 5211TIP3    H115639   4.637   1.618   0.800 -0.6891  0.0825 -1.3174
 5211TIP3    H215640   4.705   1.753   0.809 -0.7676  0.0483  0.1076
 5212TIP3   OH215641   3.486   2.483   1.845  0.3429 -0.0215  0.3229
 5212TIP3    H115642   3.521   2.394   1.849  0.9116  0.1352 -0.7718
 5212TIP3    H215643   3.482   2.504   1.752  0.3951  1.1721  0.5633
 5213TIP3   OH215644   4.943   0.596   4.793 -0.2058 -0.2978 -0.3395
 5213TIP3    H115645   4.874   0.537   4.766  2.0822 -2.2453 -2.4418
 5213TIP3    H215646   4.985   0.553   4.868 -1.4143  1.0841  1.2179
 5214TIP3   OH215647   1.836   0.470   3.076 -0.0087  0.6816  0.6345
 5214TIP3    H115648   1.853   0.563   3.090  0.6152  0.9099 -1.3702
 5214TIP3    H215649   1.741   0.461   3.085 -0.3501  1.9530 -1.2370
 5215TIP3   OH215650   1.639   1.378   1.367  0.1657 -0.7365 -0.1347
 5215TIP3    H115651   1.672   1.418   1.287 -1.5165  1.4258  0.1662
 5215TIP3    H215652   1.697   1.410   1.436  0.2143 -0.7043 -0.1901
 5216TIP3   OH215653   1.924   4.097   1.556 -0.1218 -0.1740  0.7232
 5216TIP3    H115654   1.860   4.086   1.486 -1.4815 -0.3662  1.9481
 5216TIP3    H215655   2.009   4.089   1.512 -0.9087  0.2356 -0.9726
 5217TIP3   OH215656   3.349   4.316   1.944  0.8749 -0.0391 -0.5373
 5217TIP3    H115657   3.336   4.243   1.883 -0.8786  0.0886 -0.3449
 5217TIP3    H215658   3.264   4.331   1.984  1.6662  0.8071  0.9380
 5218TIP3   OH215659   4.436   5.511   4.000  0.0491  0.8811  0.6142
 5218TIP3    H115660   4.352   5.552   4.017 -0.9933 -1.4970  1.5334
 5218TIP3    H215661   4.422   5.458   3.921  0.1498 -0.8406  1.7118
 5219TIP3   OH215662   4.530   0.172   2.928  0.3157  0.4602 -0.1356
 5219TIP3    H115663   4.609   0.183   2.874  0.6936 -0.2644  0.2493
 5219TIP3    H215664   4.458   0.197   2.870  0.7575  0.2264 -0.8065
 5220TIP3   OH215665   2.050   1.809   2.376 -0.0646 -0.0019 -0.1319
 5220TIP3    H115666   2.112   1.882   2.385 -1.7908  1.2893  2.5527
 5220TIP3    H215667   2.038   1.777   2.465 -0.6107 -2.5748 -1.0503
 5221TIP3   OH215668   3.475   0.766   2.947 -0.2185  0.0248 -0.7921
 5221TIP3    H115669   3.505   0.692   3.001  1.8211  0.9131 -0.6243
 5221TIP3    H215670   3.396   0.733   2.904 -2.2004 -0.6711  2.9206
 5222TIP3   OH215671   1.108   2.068   0.625 -0.1839  0.2628 -0.0214
 5222TIP3    H115672   1.096   1.977   0.599  1.1998  0.5190 -1.7948
 5222TIP3    H215673   1.019   2.102   0.634 -0.7425 -0.8448 -1.0156
 5223TIP3   OH215674   3.281   1.246   3.901  0.0020 -0.2218 -0.4934
 5223TIP3    H115675   3.293   1.340   3.888 -0.0427  0.0032  0.9107
 5223TIP3    H215676   3.214   1.221   3.837 -1.2738  1.0684  0.2783
 5224TIP3   OH215677   0.705   4.242   2.047  0.2345 -0.3471  0.3279
 5224TIP3    H115678   0.764   4.197   1.986 -0.7027 -1.4756  0.2161
 5224TIP3    H215679   0.625   4.257   1.996  0.8253  2.4048  0.0365
 5225TIP3   OH215680   5.718   2.871   0.756  0.3743  0.1318  0.3282
 5225TIP3    H115681   5.801   2.862   0.710  0.3674 -0.0773  0.3556
 5225TIP3    H215682   5.691   2.961   0.738 -1.1280 -0.7712 -2.6512
 5226TIP3   OH215683   2.808   4.313   2.849 -0.1458  0.0916  0.4539
 5226TIP3    H115684   2.779   4.266   2.927 -1.0149 -1.1421 -0.5758
 5226TIP3    H215685   2.734   4.306   2.787  0.0594  2.0227 -0.0873
 5227TIP3   OH215686   6.049   1.582   1.610  0.3301  0.5415  0.2336
 5227TIP3    H115687   6.077   1.501   1.567  2.3493  1.7356 -0.8286
 5227TIP3    H215688   6.074   1.570   1.702  0.1717 -0.2084  0.1873
 5228TIP3   OH215689   3.560   4.447   2.828  0.0884  0.6857 -0.1865
 5228TIP3    H115690   3.581   4.356   2.806 -0.4765  0.7450 -1.0015
 5228TIP3    H215691   3.577   4.453   2.922  0.3134 -0.2113 -0.1598
 5229TIP3   OH215692   5.867   1.307   4.957  0.6407 -0.1169  0.3076
 5229TIP3    H115693   5.868   1.229   5.013  0.2933  0.1882  0.7416
 5229TIP3    H215694   5.822   1.278   4.877 -0.4915 -0.0782  0.9047
 5230TIP3   OH215695   4.361   4.238   4.243  0.1356  0.1587  0.4474
 5230TIP3    H115696   4.290   4.303   4.249  0.5290  0.5780  0.5760
 5230TIP3    H215697   4.342   4.191   4.162  0.0628  0.6983  0.1396
 5231TIP3   OH215698   5.613   0.656   4.206 -0.3514 -0.1565 -0.1870
 5231TIP3    H115699   5.679   0.715   4.170  1.0365 -2.3689 -1.5420
 5231TIP3    H215700   5.664   0.593   4.258 -1.2659 -2.1558 -1.5887
 5232TIP3   OH215701   3.535   4.786   1.448 -0.3264  0.7492 -0.5192
 5232TIP3    H115702   3.526   4.722   1.377  0.1234  1.0548 -0.8566
 5232TIP3    H215703   3.445   4.808   1.472 -0.5454 -1.3107  0.8101
 5233TIP3   OH215704   3.103   0.067   4.257 -0.5152  0.2364 -0.4217
 5233TIP3    H115705   3.015   0.031   4.247  0.1568 -1.3087 -1.3093
 5233TIP3    H215706   3.091   0.149   4.304 -2.2396 -0.8086  1.0929
 5234TIP3   OH215707   1.608   2.447   1.778 -0.1043 -0.4007 -0.6430
 5234TIP3    H115708   1.646   2.399   1.704  0.5113  1.8267 -1.8459
 5234TIP3    H215709   1.536   2.496   1.740 -1.4299 -1.1411  0.7840
 5235TIP3   OH215710   0.072   1.274   2.628  0.0752 -0.9074 -0.1624
 5235TIP3    H115711   0.106   1.363   2.640 -0.5980 -0.5675 -0.6914
 5235TIP3    H215712   0.049   1.245   2.716 -0.2727 -0.3171 -0.0524
 5236TIP3   OH215713   2.759   0.561   3.499 -0.4194  1.2457  0.1313
 5236TIP3    H115714   2.810   0.595   3.573 -1.2489  0.1453  1.2508
 5236TIP3    H215715   2.826   0.531   3.437  0.2905  2.1541  0.4252
 5237TIP3   OH215716   3.396   2.077   1.211 -0.5554  0.2891  0.2732
 5237TIP3    H115717   3.442   2.021   1.274 -1.7958 -0.6656  0.3520
 5237TIP3    H215718   3.430   2.165   1.229 -0.4186 -0.0485  1.8631
 5238TIP3   OH215719   0.906   4.305   1.756 -0.2293 -0.0746  0.5113
 5238TIP3    H115720   0.875   4.331   1.669 -0.5771 -0.8305  0.4019
 5238TIP3    H215721   0.879   4.213   1.765  1.1169 -0.4694  0.8051
 5239TIP3   OH215722   2.450   2.308   3.175 -0.0388  0.4935  0.0152
 5239TIP3    H115723   2.538   2.326   3.141 -0.0543  0.9140  0.1863
 5239TIP3    H215724   2.449   2.214   3.191  0.2597  0.4309 -0.3317
 5240TIP3   OH215725   3.785   5.255   4.264  0.6424 -0.0056  0.2549
 5240TIP3    H115726   3.788   5.171   4.310  0.2659 -0.0252  0.2504
 5240TIP3    H215727   3.815   5.319   4.329 -0.5395  0.0633  0.7679
 5241TIP3   OH215728   5.127   4.241   0.831 -0.0464 -0.1996  0.2684
 5241TIP3    H115729   5.169   4.327   0.838 -1.2224  0.3088  1.8353
 5241TIP3    H215730   5.118   4.211   0.921  0.4013 -2.0285 -0.2591
 5242TIP3   OH215731   5.341   1.432   3.832 -0.1972 -0.0312  0.8249
 5242TIP3    H115732   5.387   1.457   3.751  1.0394 -1.1574  1.1507
 5242TIP3    H215733   5.249   1.450   3.813  0.0025 -0.7270 -1.0310
 5243TIP3   OH215734   3.452   2.001   0.653 -0.5714 -0.3136  0.7859
 5243TIP3    H115735   3.499   2.030   0.575 -2.2955 -1.8186 -0.9176
 5243TIP3    H215736   3.473   1.908   0.661  0.3591  0.0140  2.7635
 5244TIP3   OH215737   2.670   1.696   2.797 -0.4632 -0.0101 -0.3940
 5244TIP3    H115738   2.651   1.648   2.878 -2.0170  0.7941 -0.2449
 5244TIP3    H215739   2.728   1.768   2.824  0.4747 -0.7683 -0.3296
 5245TIP3   OH215740   2.103   5.012   2.064  0.0473  0.3329 -0.4579
 5245TIP3    H115741   2.017   5.052   2.075 -0.7383 -1.6028  0.9533
 5245TIP3    H215742   2.142   5.012   2.152  1.2718  0.6619 -0.9707
 5246TIP3   OH215743   0.263   3.297   4.831  0.2613  0.1572 -0.3092
 5246TIP3    H115744   0.273   3.349   4.751  1.0265  2.0372  0.9258
 5246TIP3    H215745   0.347   3.252   4.841  0.0153 -0.4089 -0.7772
 5247TIP3   OH215746   5.892   5.864   4.863  0.5027 -0.0680  0.3283
 5247TIP3    H115747   5.844   5.928   4.812  0.5979 -0.7175 -0.6133
 5247TIP3    H215748   5.826   5.820   4.916  0.3428  0.3462  0.4708
 5248TIP3   OH215749   5.355   3.223   0.968  0.1447 -0.1459  0.4045
 5248TIP3    H115750   5.269   3.179   0.963 -0.1639  0.5101 -0.0814
 5248TIP3    H215751   5.402   3.173   1.035 -0.4847 -0.7409  0.4222
 5249TIP3   OH215752   4.753   0.149   1.657 -0.1500  0.3713  0.3152
 5249TIP3    H115753   4.840   0.120   1.684 -0.0266  0.6551  0.2285
 5249TIP3    H215754   4.704   0.068   1.643  1.1140  0.0282 -3.0149
 5250TIP3   OH215755   0.577   5.735   0.297 -0.0790  0.1252 -0.6104
 5250TIP3    H115756   0.608   5.819   0.263  3.2518 -0.7720 -0.1467
 5250TIP3    H215757   0.591   5.741   0.392 -0.6852 -0.6426 -0.4636
 5251TIP3   OH215758   3.063   3.992   4.418 -0.0435  0.0492 -0.8019
 5251TIP3    H115759   3.123   4.066   4.432 -0.6640  0.2768  0.8390
 5251TIP3    H215760   3.107   3.939   4.351  1.7575  0.4707 -0.0286
 5252TIP3   OH215761   1.059   0.167   2.337  0.5608  0.1055 -0.1525
 5252TIP3    H115762   1.098   0.181   2.424  0.4123 -0.7288  0.0617
 5252TIP3    H215763   0.999   0.241   2.326  0.7175  0.3226  0.3763
 5253TIP3   OH215764   1.105   4.682   2.314 -0.6526 -0.5614 -0.2161
 5253TIP3    H115765   1.117   4.678   2.219  2.2443  0.2816  0.0152
 5253TIP3    H215766   1.069   4.769   2.330  0.5965  0.0310 -0.4729
 5254TIP3   OH215767   3.358   2.990   2.803  0.2180  0.0013  0.0013
 5254TIP3    H115768   3.445   3.028   2.814 -0.5681  2.0049 -0.4393
 5254TIP3    H215769   3.316   3.043   2.736 -0.5466 -2.4229 -1.5708
 5255TIP3   OH215770   5.151   3.771   4.185 -0.4038  0.3530 -0.2613
 5255TIP3    H115771   5.189   3.777   4.272 -1.9600 -1.1406  0.5863
 5255TIP3    H215772   5.191   3.842   4.136  0.1774  1.5124  1.7918
 5256TIP3   OH215773   5.734   4.642   2.970 -0.0636  0.2715 -0.4681
 5256TIP3    H115774   5.761   4.703   3.038 -2.8792 -0.4015  1.4113
 5256TIP3    H215775   5.653   4.679   2.935 -1.3499 -1.8243  0.0918
 5257TIP3   OH215776   0.893   5.591   1.288 -0.0841 -0.4491  0.5399
 5257TIP3    H115777   0.965   5.571   1.348 -0.2755 -2.3800  0.1686
 5257TIP3    H215778   0.815   5.588   1.342  0.0868  2.3352  1.0938
 5258TIP3   OH215779   2.052   1.911   1.617  0.0798  0.5227  0.0510
 5258TIP3    H115780   2.010   1.983   1.569  0.1200  0.9508  0.6454
 5258TIP3    H215781   1.997   1.899   1.694  1.5975  1.7751  1.3715
 5259TIP3   OH215782   2.787   2.745   0.494 -0.5732 -0.3812 -0.6376
 5259TIP3    H115783   2.821   2.827   0.458  0.8021 -0.9339 -0.6353
 5259TIP3    H215784   2.770   2.764   0.586  1.2257 -0.5151 -0.2570
 5260TIP3   OH215785   2.845   1.032   2.082 -0.2230  0.0257 -0.4058
 5260TIP3    H115786   2.761   1.043   2.126 -0.0557  0.2590 -0.1415
 5260TIP3    H215787   2.900   1.103   2.115  1.2245 -2.0923  2.1479
 5261TIP3   OH215788   1.368   5.789   2.305  0.5387  0.1807  0.2563
 5261TIP3    H115789   1.400   5.849   2.237  1.8201 -1.3477 -0.5554
 5261TIP3    H215790   1.447   5.764   2.353 -0.1248 -0.1199  1.2200
 5262TIP3   OH215791   2.704   3.499   3.368 -0.0839  0.6623  0.2983
 5262TIP3    H115792   2.794   3.514   3.341 -0.5611  0.4062 -1.5580
 5262TIP3    H215793   2.695   3.403   3.369 -0.7191  0.6912 -0.9815
 5263TIP3   OH215794   3.092   2.447   4.790  0.0743 -0.2665  0.1611
 5263TIP3    H115795   3.142   2.393   4.729 -0.3216  0.1275 -0.5279
 5263TIP3    H215796   3.000   2.425   4.771 -0.0309 -1.7097  2.0741
 5264TIP3   OH215797   3.752   4.128   3.656 -0.4788 -0.4602  0.1005
 5264TIP3    H115798   3.732   4.158   3.745 -0.2877  1.1491 -0.3641
 5264TIP3    H215799   3.847   4.124   3.652 -0.4628  0.1258 -0.2209
 5265TIP3   OH215800   5.488   0.366   4.723 -0.1706 -0.0040  0.0061
 5265TIP3    H115801   5.570   0.336   4.684  1.8506  1.9398  2.3921
 5265TIP3    H215802   5.454   0.431   4.661  1.1021  0.4898 -0.2008
 5266TIP3   OH215803   1.490   5.260   5.154 -0.7303 -0.0928  0.1021
 5266TIP3    H115804   1.449   5.202   5.090  2.0367 -0.2492 -1.6607
 5266TIP3    H215805   1.544   5.203   5.208 -0.2265  0.4810  0.2196
 5267TIP3   OH215806   3.992   5.792   2.298  0.3547 -0.8260  0.3187
 5267TIP3    H115807   4.034   5.860   2.246  0.4698 -1.1651 -0.0381
 5267TIP3    H215808   4.022   5.710   2.259 -1.6258 -1.0957 -0.7705
 5268TIP3   OH215809   0.473   5.519   0.178 -0.1906 -0.5017 -0.0484
 5268TIP3    H115810   0.529   5.590   0.208  0.5180 -1.7247  1.6806
 5268TIP3    H215811   0.385   5.557   0.175  0.3278  0.7195 -0.2591
 5269TIP3   OH215812   4.272   4.016   3.926  0.0710  0.0455 -0.0507
 5269TIP3    H115813   4.263   3.923   3.909  0.3138 -0.0138  0.1358
 5269TIP3    H215814   4.239   4.027   4.016 -2.0542  0.4938 -0.8307
 5270TIP3   OH215815   2.330   1.923   4.815 -0.3955  0.3903  0.8289
 5270TIP3    H115816   2.335   1.983   4.741 -0.9578  0.9463  1.2300
 5270TIP3    H215817   2.410   1.870   4.809 -0.3003  0.6195 -0.0024
 5271TIP3   OH215818   3.426   1.498   2.173 -0.6231 -0.4791 -0.1704
 5271TIP3    H115819   3.403   1.539   2.090  0.4326  0.6180  0.0579
 5271TIP3    H215820   3.351   1.516   2.230 -0.1561  1.2682 -0.0498
 5272TIP3   OH215821   4.379   3.159   4.094 -0.3405  0.1328 -0.2202
 5272TIP3    H115822   4.300   3.126   4.137  0.7156 -2.6610 -0.2556
 5272TIP3    H215823   4.347   3.230   4.038 -3.0349 -1.5870 -1.0397
 5273TIP3   OH215824   4.730   5.746   0.754  0.3027  0.4745  0.0966
 5273TIP3    H115825   4.718   5.809   0.825  0.9306 -0.0330  0.6672
 5273TIP3    H215826   4.790   5.789   0.693  0.2218  0.6772  0.1588
 5274TIP3   OH215827   1.766   3.919   1.395  0.0081  0.0157 -0.1921
 5274TIP3    H115828   1.844   3.872   1.426 -0.0947 -0.9623 -1.3523
 5274TIP3    H215829   1.702   3.908   1.466  0.9847  1.0754  0.9065
 5275TIP3   OH215830   6.017   2.076   4.063  0.0696 -0.5441 -0.0382
 5275TIP3    H115831   6.045   2.128   3.987 -0.9822 -0.7934 -0.6198
 5275TIP3    H215832   6.044   1.987   4.042 -1.0143 -0.7658 -0.5496
 5276TIP3   OH215833   1.378   2.099   0.418 -0.5098  0.2222  0.0799
 5276TIP3    H115834   1.364   2.005   0.426 -1.0270  0.3970  1.5281
 5276TIP3    H215835   1.364   2.117   0.325 -0.0432 -1.1717 -0.2882
 5277TIP3   OH215836   4.634   2.646   3.507 -0.1777 -1.0094 -0.0516
 5277TIP3    H115837   4.716   2.616   3.547 -0.1868 -1.9147 -0.6700
 5277TIP3    H215838   4.650   2.738   3.486  0.3591 -0.9320  0.6620
 5278TIP3   OH215839   4.770   4.008   4.728  0.2322 -0.1313  0.3036
 5278TIP3    H115840   4.824   4.019   4.649 -0.8456  1.7854 -0.2227
 5278TIP3    H215841   4.683   3.985   4.695  0.1231 -0.7850  1.0210
 5279TIP3   OH215842   0.628   2.347   2.218  0.3712 -0.0635 -0.3543
 5279TIP3    H115843   0.639   2.295   2.297  1.0964 -0.9821 -1.0338
 5279TIP3    H215844   0.608   2.435   2.249  0.8076 -0.3779  0.8521
 5280TIP3   OH215845   5.881   4.614   4.935  0.0128  0.1417 -0.1614
 5280TIP3    H115846   5.908   4.524   4.917 -0.7546 -0.4607  1.4586
 5280TIP3    H215847   5.795   4.622   4.893  0.4324  0.3766 -0.9749
 5281TIP3   OH215848   6.334   2.602   3.140  0.3607 -0.6215 -0.1255
 5281TIP3    H115849   6.344   2.693   3.112  0.7805 -0.6957 -0.2269
 5281TIP3    H215850   6.264   2.605   3.205  0.1298 -0.2808 -0.3860
 5282TIP3   OH215851   1.978   5.421   2.844 -0.2240 -0.1511  0.5264
 5282TIP3    H115852   1.913   5.489   2.826 -0.7322 -1.0014 -1.0414
 5282TIP3    H215853   2.055   5.447   2.792 -1.1255 -1.7546 -1.8140
 5283TIP3   OH215854   3.383   1.521   2.804  0.2773  0.3380  0.1116
 5283TIP3    H115855   3.343   1.480   2.727  0.8152 -0.5342  0.2817
 5283TIP3    H215856   3.377   1.615   2.788 -0.3536  0.1786 -0.6150
 5284TIP3   OH215857   1.781   1.553   1.198 -0.4241  0.1285  0.1300
 5284TIP3    H115858   1.842   1.487   1.165 -0.7253  0.2982 -0.7989
 5284TIP3    H215859   1.835   1.630   1.215 -0.5966  1.0664 -2.8473
 5285TIP3   OH215860   5.605   2.627   3.591  0.2254 -0.5051 -0.2873
 5285TIP3    H115861   5.640   2.700   3.539 -1.3157  1.9164  1.8247
 5285TIP3    H215862   5.676   2.562   3.592  1.1377  0.2443 -3.4522
 5286TIP3   OH215863   0.502   0.211   1.422 -0.2979  0.5038 -0.4969
 5286TIP3    H115864   0.533   0.274   1.358 -1.8438  2.1433  0.2680
 5286TIP3    H215865   0.548   0.234   1.503 -1.4033  1.2159 -0.0307
 5287TIP3   OH215866   2.480   0.559   1.093 -0.6226 -0.0136  0.0681
 5287TIP3    H115867   2.551   0.597   1.145 -1.7580  0.6503  1.1763
 5287TIP3    H215868   2.523   0.491   1.041  1.6862  3.1717 -2.6399
 5288TIP3   OH215869   2.166   4.306   0.338  0.2946  0.5968 -0.1583
 5288TIP3    H115870   2.227   4.248   0.383 -0.5105 -0.8868 -0.8922
 5288TIP3    H215871   2.084   4.297   0.386 -0.6537 -1.2282 -1.9752
 5289TIP3   OH215872   2.114   2.353   2.771  0.1082  0.4381 -0.4991
 5289TIP3    H115873   2.076   2.278   2.817  0.1601  1.1210  0.6897
 5289TIP3    H215874   2.040   2.411   2.755 -0.0592 -0.1610 -2.0655
 5290TIP3   OH215875   2.905   4.815   1.156 -0.2531  0.2537  0.2781
 5290TIP3    H115876   2.990   4.772   1.167 -0.3577  0.1824  0.8452
 5290TIP3    H215877   2.864   4.768   1.083 -0.6591 -1.1067  1.3290
 5291TIP3   OH215878   2.949   3.200   4.032  0.1260  0.7706 -0.6315
 5291TIP3    H115879   2.906   3.260   3.971  1.6769  0.5556 -2.0173
 5291TIP3    H215880   2.998   3.140   3.976 -0.7656 -1.3528  0.7506
 5292TIP3   OH215881   2.399   4.134   3.951  0.3836 -0.3532 -0.5858
 5292TIP3    H115882   2.336   4.196   3.988 -0.1652 -2.1185  1.6449
 5292TIP3    H215883   2.356   4.099   3.873 -1.1304 -1.0159  0.5092
 5293TIP3   OH215884   2.778   1.961   3.872 -0.3100 -0.1743 -0.1654
 5293TIP3    H115885   2.793   1.948   3.778 -1.0878 -0.2458 -0.2815
 5293TIP3    H215886   2.866   1.963   3.910  0.1347  1.8535 -1.1435
 5294TIP3   OH215887   4.775   2.131   3.637  0.1102 -0.2999 -0.3374
 5294TIP3    H115888   4.866   2.116   3.611 -0.0452 -0.6339 -0.6854
 5294TIP3    H215889   4.724   2.066   3.589 -0.2500 -0.5139  0.3261
 5295TIP3   OH215890   5.549   5.798   3.385 -0.2011  0.2164 -0.5291
 5295TIP3    H115891   5.503   5.738   3.444 -0.1174 -0.3606 -1.0405
 5295TIP3    H215892   5.603   5.851   3.444  0.3343 -0.7457 -0.1159
 5296TIP3   OH215893   0.458   5.919   0.058 -0.5390 -0.6949 -0.2116
 5296TIP3    H115894   0.407   5.905   0.138  1.2720 -0.8619  0.9774
 5296TIP3    H215895   0.543   5.951   0.089  0.4447 -1.3795 -2.0390
 5297TIP3   OH215896   0.974   1.276   0.615 -0.1154  0.2483  0.6357
 5297TIP3    H115897   1.015   1.194   0.642  1.0882  0.9980  1.2255
 5297TIP3    H215898   1.029   1.308   0.544 -0.3284  0.7398  0.6874
 5298TIP3   OH215899   4.670   2.517   0.247 -0.0229 -0.0126 -0.5106
 5298TIP3    H115900   4.590   2.567   0.232 -1.0124 -0.6497  2.0483
 5298TIP3    H215901   4.740   2.571   0.209 -1.3608  1.9006 -0.3917
 5299TIP3   OH215902   1.979   4.957   4.421 -0.0478  0.3914  0.0043
 5299TIP3    H115903   2.055   4.908   4.453 -0.2980 -0.5960 -0.8807
 5299TIP3    H215904   1.918   4.890   4.390 -0.3970  1.2538 -1.2424
 5300TIP3   OH215905   0.069   4.151   1.764  0.3357  0.1305  0.2556
 5300TIP3    H115906   0.016   4.231   1.766 -0.6243 -0.4216 -1.2654
 5300TIP3    H215907   0.029   4.094   1.829  0.3851  0.5134  0.6233
 5301TIP3   OH215908   1.499   1.477   3.375  0.1922 -0.0639  0.7554
 5301TIP3    H115909   1.512   1.383   3.359  1.1508  0.2898 -0.7620
 5301TIP3    H215910   1.522   1.488   3.468 -2.0615 -1.6458  1.5827
 5302TIP3   OH215911   1.021   4.522   3.145 -0.2989 -0.4359  0.0505
 5302TIP3    H115912   1.009   4.429   3.125 -1.3928  0.0428 -1.8022
 5302TIP3    H215913   0.932   4.554   3.159  0.2042 -0.0441  2.7456
 5303TIP3   OH215914   6.080   4.155   1.853 -0.1912 -0.1267 -0.0306
 5303TIP3    H115915   6.028   4.173   1.931  0.1775  0.6643  0.0401
 5303TIP3    H215916   6.136   4.232   1.842 -0.9616  0.2629 -1.6719
 5304TIP3   OH215917   0.356   0.827   2.105  0.0898 -0.2375  0.8128
 5304TIP3    H115918   0.337   0.835   2.011  0.1848 -0.2496  0.7921
 5304TIP3    H215919   0.289   0.880   2.148 -0.0979 -0.4239  0.7509
 5305TIP3   OH215920   1.594   0.685   3.276 -0.4778  0.3203  0.2635
 5305TIP3    H115921   1.575   0.593   3.297 -1.3295  0.6353  0.9322
 5305TIP3    H215922   1.521   0.734   3.315  0.4940  1.3748  0.7980
 5306TIP3   OH215923   2.549   2.727   1.146  0.5330  0.2579 -0.3318
 5306TIP3    H115924   2.501   2.777   1.080  0.2117  1.0706  0.5057
 5306TIP3    H215925   2.486   2.714   1.217  0.5638 -1.4501 -0.5559
 5307TIP3   OH215926   2.545   3.740   4.480  0.2411  0.0025 -0.0343
 5307TIP3    H115927   2.525   3.722   4.389  1.9487 -1.9362 -0.0832
 5307TIP3    H215928   2.636   3.769   4.480  0.5705 -0.9305  1.1073
 5308TIP3   OH215929   3.656   5.898   2.672  0.0860 -0.4301  0.5686
 5308TIP3    H115930   3.594   5.967   2.698 -1.1387 -1.4077  0.3640
 5308TIP3    H215931   3.636   5.882   2.580  0.3610 -1.0427  0.6160
 5309TIP3   OH215932   3.554   1.710   1.997 -0.1873 -0.0134 -0.1379
 5309TIP3    H115933   3.612   1.780   1.967 -0.4377  0.6036  0.7909
 5309TIP3    H215934   3.499   1.751   2.064  0.1203 -1.2596  0.9143
 5310TIP3   OH215935   2.601   1.029   1.483 -0.1414  0.6656  0.1402
 5310TIP3    H115936   2.684   1.044   1.438  0.5046 -1.3055  0.5968
 5310TIP3    H215937   2.596   1.100   1.547  1.3982  0.5986  0.3737
 5311TIP3   OH215938   4.646   1.522   4.160 -0.2249  0.1337  0.3642
 5311TIP3    H115939   4.555   1.537   4.132  0.0516  2.1678  0.3817
 5311TIP3    H215940   4.638   1.482   4.247 -1.1622  1.7304  1.0619
 5312TIP3   OH215941   2.862   0.222   3.245 -0.5521  0.4470 -0.0795
 5312TIP3    H115942   2.934   0.214   3.307 -0.8171 -2.5202 -0.0473
 5312TIP3    H215943   2.892   0.289   3.183  2.8388 -1.4785 -0.7705
 5313TIP3   OH215944   6.190   2.529   0.722 -0.3105 -0.2454 -0.2475
 5313TIP3    H115945   6.116   2.566   0.770  0.5494 -0.0582  0.9740
 5313TIP3    H215946   6.224   2.460   0.779  0.5636 -0.2131 -0.7064
 5314TIP3   OH215947   4.155   0.570   4.072  0.1930  0.4069 -0.2811
 5314TIP3    H115948   4.184   0.592   4.161  1.2577 -0.4156 -0.4087
 5314TIP3    H215949   4.097   0.495   4.083 -0.6246  1.0323 -0.1875
 5315TIP3   OH215950   1.329   1.967   1.074  0.1394  0.3534 -0.6608
 5315TIP3    H115951   1.243   2.001   1.048 -0.0174  0.8112  0.3967
 5315TIP3    H215952   1.350   2.014   1.155  1.1268 -0.1746 -0.5940
 5316TIP3   OH215953   4.905   1.263   1.488 -0.2926  0.5105  0.2587
 5316TIP3    H115954   4.947   1.284   1.405  1.3999 -0.2202  0.8803
 5316TIP3    H215955   4.894   1.168   1.486  0.4197  0.3888  1.1254
 5317TIP3   OH215956   3.312   4.477   1.128  0.3531  0.4295 -0.4283
 5317TIP3    H115957   3.381   4.481   1.195 -0.0815 -0.3342  0.0920
 5317TIP3    H215958   3.306   4.384   1.106 -0.2870  0.5261 -0.6999
 5318TIP3   OH215959   4.986   4.159   1.448  0.0086  0.3325 -0.4665
 5318TIP3    H115960   5.003   4.146   1.541  0.3927  0.2447 -0.5475
 5318TIP3    H215961   5.071   4.185   1.412 -0.3302  1.2401 -0.6360
 5319TIP3   OH215962   4.846   4.444   4.111  0.0559 -0.0158  0.0207
 5319TIP3    H115963   4.787   4.435   4.185  0.4314  2.6130  0.7290
 5319TIP3    H215964   4.909   4.511   4.138  2.1084 -1.2013 -1.5069
 5320TIP3   OH215965   5.338   3.497   1.011 -0.4961  0.4000  0.3836
 5320TIP3    H115966   5.330   3.426   0.947 -0.2093 -1.1215  1.9526
 5320TIP3    H215967   5.260   3.550   0.998 -1.2520 -0.8038 -0.1618
 5321TIP3   OH215968   4.471   2.775   2.825  0.2891  0.6773  0.1956
 5321TIP3    H115969   4.429   2.767   2.740  2.2423  0.8183 -0.8519
 5321TIP3    H215970   4.414   2.834   2.875 -2.0048 -1.0967 -0.2063
 5322TIP3   OH215971   4.404   0.531   3.788 -0.3484 -0.1734  0.1362
 5322TIP3    H115972   4.488   0.491   3.764  0.0816  0.8946 -0.2038
 5322TIP3    H215973   4.345   0.457   3.802  0.5649 -0.9315  0.0609
 5323TIP3   OH215974   5.755   0.720   1.263 -0.3125  0.4146  0.3628
 5323TIP3    H115975   5.705   0.659   1.317  1.6621  0.0655  1.9215
 5323TIP3    H215976   5.800   0.777   1.326 -0.9315  2.5696 -1.0178
 5324TIP3   OH215977   2.331   4.027   1.701 -0.2712  0.6766  0.7920
 5324TIP3    H115978   2.292   4.078   1.772 -1.8534  1.7310 -0.7490
 5324TIP3    H215979   2.417   4.066   1.688 -0.7359  1.7522  0.8601
 5325TIP3   OH215980   3.678   0.379   3.192 -0.3197  0.1205 -0.1666
 5325TIP3    H115981   3.754   0.405   3.243 -0.6416  1.3120 -0.2735
 5325TIP3    H215982   3.713   0.320   3.125  0.2231 -0.8049  0.8962
 5326TIP3   OH215983   6.096   1.530   3.411 -0.1043  0.9237 -0.3142
 5326TIP3    H115984   6.153   1.490   3.345  2.1245  1.2217  1.3050
 5326TIP3    H215985   6.120   1.622   3.410 -1.3542  1.2654 -0.2993
 5327TIP3   OH215986   3.573   0.935   4.402 -0.0538 -0.3919  0.8053
 5327TIP3    H115987   3.557   1.027   4.424  0.2166 -0.6590  2.2401
 5327TIP3    H215988   3.485   0.897   4.395 -0.1882  0.1168 -0.5529
 5328TIP3   OH215989   0.644   0.598   0.210  0.0288 -0.1215  0.2822
 5328TIP3    H115990   0.690   0.641   0.282  1.4146  0.3727 -0.8534
 5328TIP3    H215991   0.673   0.644   0.132 -0.0485 -1.7970 -0.7853
 5329TIP3   OH215992   0.750   3.049   1.453  0.1905  0.2985 -0.0804
 5329TIP3    H115993   0.705   3.127   1.486  0.5629 -0.3008  1.9953
 5329TIP3    H215994   0.818   3.083   1.396 -1.8871  1.2936 -2.1645
 5330TIP3   OH215995   4.995   5.061   2.935  0.1521 -0.0139  0.2461
 5330TIP3    H115996   5.015   5.121   2.864 -1.2008 -0.6447 -0.7137
 5330TIP3    H215997   4.930   5.002   2.899  0.5367 -1.2977  1.5525
 5331TIP3   OH215998   1.097   5.050   3.485  0.7326 -0.7608  0.0017
 5331TIP3    H115999   1.125   4.992   3.556  0.5264 -2.4483 -1.2423
 5331TIP3    H216000   1.175   5.103   3.465  0.6085  0.2237  1.8721
 5332TIP3   OH216001   6.270   0.187   1.724 -0.4230  0.1585 -0.0644
 5332TIP3    H116002   6.323   0.131   1.781  0.4977  0.9769 -0.1095
 5332TIP3    H216003   6.180   0.166   1.749 -0.1074 -1.2757 -0.0128
 5333TIP3   OH216004   2.187   5.634   1.170 -0.2208  0.0740  0.2518
 5333TIP3    H116005   2.094   5.643   1.147 -0.3472 -0.9059  0.3014
 5333TIP3    H216006   2.232   5.702   1.120 -0.6813 -0.9468 -1.6451
 5334TIP3   OH216007   3.913   0.401   4.537  0.1446  0.2226  0.6648
 5334TIP3    H116008   3.940   0.310   4.553 -0.7051  0.1647  1.9783
 5334TIP3    H216009   3.819   0.394   4.520 -0.0596  0.9049  1.4470
 5335TIP3   OH216010   0.419   1.917   2.653  0.1130 -0.0530  0.2801
 5335TIP3    H116011   0.348   1.889   2.710 -0.1048  0.1890  0.1294
 5335TIP3    H216012   0.499   1.897   2.702 -0.0449 -0.7059  0.2767
 5336TIP3   OH216013   6.015   2.874   3.636 -0.1554  0.0813 -0.3553
 5336TIP3    H116014   6.037   2.794   3.587 -0.5066  0.0352 -0.4377
 5336TIP3    H216015   5.987   2.843   3.721  2.3882  0.2429  0.6345
 5337TIP3   OH216016   4.695   3.217   3.880  0.0957  0.7264  0.6116
 5337TIP3    H116017   4.740   3.167   3.948  1.1972 -1.4496 -1.5267
 5337TIP3    H216018   4.751   3.206   3.803 -2.7519  0.1407 -1.5386
 5338TIP3   OH216019   1.762   4.689   1.552  0.1275  0.1613 -0.0273
 5338TIP3    H116020   1.810   4.725   1.478 -0.1883 -0.8920 -0.7516
 5338TIP3    H216021   1.829   4.644   1.604  0.1246 -0.2607 -0.3884
 5339TIP3   OH216022   1.695   4.232   3.372 -0.3234  0.3345  0.4898
 5339TIP3    H116023   1.653   4.166   3.317 -1.8427  2.1536 -0.6542
 5339TIP3    H216024   1.671   4.208   3.461  1.3085 -2.0726  0.3736
 5340TIP3   OH216025   5.593   1.012   4.583 -0.2659  0.4380 -0.0790
 5340TIP3    H116026   5.532   1.081   4.607 -1.1281  0.2050 -1.4847
 5340TIP3    H216027   5.537   0.940   4.554  0.6414 -0.5184  0.4874
 5341TIP3   OH216028   5.525   4.582   0.672  0.5677  0.1990 -0.2716
 5341TIP3    H116029   5.505   4.519   0.742  0.7271  1.1222  0.6286
 5341TIP3    H216030   5.582   4.646   0.714  1.6443  0.1357 -1.5806
 5342TIP3   OH216031   3.635   4.690   0.073  0.5489 -0.1020  0.6685
 5342TIP3    H116032   3.614   4.675   0.166 -0.6458 -1.6825  0.1919
 5342TIP3    H216033   3.623   4.784   0.061  2.0670  0.3718  2.4070
 5343TIP3   OH216034   3.581   4.468   4.142  0.4134  0.2771  0.0703
 5343TIP3    H116035   3.572   4.373   4.133 -0.9169  0.2568  1.2202
 5343TIP3    H216036   3.521   4.504   4.076 -0.3907  0.2830  0.7937
 5344TIP3   OH216037   3.616   0.973   4.767 -0.0673  0.0206 -0.7580
 5344TIP3    H116038   3.631   0.894   4.715  1.2737  1.0680 -2.0689
 5344TIP3    H216039   3.690   1.029   4.745 -0.6431  1.3846  0.6536
 5345TIP3   OH216040   5.019   4.910   3.176  0.4830  0.3318 -0.4154
 5345TIP3    H116041   4.990   4.961   3.252  0.5289  1.0900 -0.8973
 5345TIP3    H216042   5.004   4.967   3.101 -0.8806 -0.9254 -1.1497
 5346TIP3   OH216043   2.479   3.783   1.634  0.0826  0.2053 -0.1737
 5346TIP3    H116044   2.519   3.867   1.614 -2.1382  1.2001 -0.6825
 5346TIP3    H216045   2.476   3.780   1.730 -0.6447  1.1151 -0.1654
 5347TIP3   OH216046   4.560   5.820   1.597  0.2530 -0.1198 -0.0031
 5347TIP3    H116047   4.560   5.868   1.680 -0.4075 -0.1022 -0.0140
 5347TIP3    H216048   4.469   5.820   1.569  0.5451  0.2939 -0.9779
 5348TIP3   OH216049   5.013   0.682   1.002  0.3540  0.8363  0.0528
 5348TIP3    H116050   4.971   0.598   0.986  0.9533  0.6148 -0.4062
 5348TIP3    H216051   4.975   0.741   0.937  0.4900  0.7244 -0.1307
 5349TIP3   OH216052   1.904   2.490   0.046 -0.6049 -0.5358 -0.0167
 5349TIP3    H116053   1.853   2.571   0.039  0.5978  0.1307 -1.4846
 5349TIP3    H216054   1.946   2.496   0.132 -0.8214  0.2111  0.0447
 5350TIP3   OH216055   5.240   4.416   2.305  0.2200 -0.4994  0.1200
 5350TIP3    H116056   5.182   4.361   2.358 -0.8325  1.3640  1.0023
 5350TIP3    H216057   5.313   4.437   2.364 -0.6717  1.1132  0.7074
 5351TIP3   OH216058   2.022   2.743   0.979  0.2466  0.1225  0.7349
 5351TIP3    H116059   1.994   2.815   0.922  1.4453  0.5997  0.6985
 5351TIP3    H216060   2.033   2.784   1.064 -1.6229 -0.6088  1.3654
 5352TIP3   OH216061   6.188   2.967   2.343  0.1195 -0.1610 -0.1004
 5352TIP3    H116062   6.115   2.957   2.282  0.1575 -0.4165 -0.1051
 5352TIP3    H216063   6.266   2.948   2.291  0.1077 -0.9833  0.1719
 5353TIP3   OH216064   1.887   4.465   0.165 -0.0486  0.4033 -0.8472
 5353TIP3    H116065   1.846   4.381   0.186  1.4097  0.0751  0.9869
 5353TIP3    H216066   1.821   4.512   0.115 -1.6386 -1.0861 -0.2544
 5354TIP3   OH216067   3.677   4.021   3.102  0.0656  0.2590  0.2964
 5354TIP3    H116068   3.691   3.966   3.025  0.4823 -1.1115  1.3193
 5354TIP3    H216069   3.582   4.031   3.108 -0.1256 -1.6512  0.9414
 5355TIP3   OH216070   5.259   1.631   2.122 -0.0747  0.2294  0.3013
 5355TIP3    H116071   5.250   1.648   2.028  1.0860  0.4314  0.2104
 5355TIP3    H216072   5.242   1.715   2.164  0.2376  0.3427  0.2073
 5356TIP3   OH216073   3.618   1.491   1.880 -0.4818  0.2541 -0.1362
 5356TIP3    H116074   3.607   1.423   1.947 -1.2645  0.4015 -0.1077
 5356TIP3    H216075   3.603   1.573   1.927 -0.4541  0.3915 -0.3663
 5357TIP3   OH216076   1.518   5.333   0.994  0.0197 -0.0928 -0.6300
 5357TIP3    H116077   1.504   5.238   0.996  0.7044 -0.2366  2.2741
 5357TIP3    H216078   1.470   5.366   1.070  0.8719  1.7090 -0.8171
 5358TIP3   OH216079   2.568   0.680   2.044 -0.4093 -0.0542 -0.0190
 5358TIP3    H116080   2.641   0.666   1.984  0.8401  0.0882  1.4167
 5358TIP3    H216081   2.563   0.775   2.055 -0.3548 -0.1015  0.4338
 5359TIP3   OH216082   1.272   3.480   2.032  0.7139 -0.0710  0.0037
 5359TIP3    H116083   1.251   3.451   1.944  1.4543 -1.8528  0.3673
 5359TIP3    H216084   1.367   3.488   2.033  0.8196 -1.2147  0.9486
 5360TIP3   OH216085   0.961   1.827   1.748  0.7790 -0.7684 -0.0849
 5360TIP3    H116086   0.947   1.789   1.836  0.5512 -0.9261 -0.1861
 5360TIP3    H216087   0.887   1.887   1.737  0.6776 -0.9229 -0.2602
 5361TIP3   OH216088   4.608   1.317   0.646  0.3099 -0.2553 -0.0773
 5361TIP3    H116089   4.689   1.324   0.697 -0.2341 -1.1187  0.9552
 5361TIP3    H216090   4.633   1.267   0.568  1.0507  0.6622 -0.4379
 5362TIP3   OH216091   5.964   0.129   3.544 -0.2404 -0.1233 -0.2585
 5362TIP3    H116092   5.959   0.034   3.536 -0.2383 -0.1801  0.3826
 5362TIP3    H216093   5.936   0.162   3.459 -0.8265 -0.6849 -0.2857
 5363TIP3   OH216094   2.080   3.097   0.974  0.0581  0.4245  0.5400
 5363TIP3    H116095   1.986   3.104   0.958 -0.0661 -1.1869  0.3846
 5363TIP3    H216096   2.088   3.028   1.040  1.1921 -0.5056 -0.5105
 5364TIP3   OH216097   0.381   1.217   4.047  0.0978 -0.6644 -0.0858
 5364TIP3    H116098   0.319   1.145   4.035  0.6287 -1.1039 -0.2198
 5364TIP3    H216099   0.334   1.281   4.101 -1.2222 -0.0469 -1.8919
 5365TIP3   OH216100   1.552   3.206   0.902  0.2152 -0.2217 -0.4241
 5365TIP3    H116101   1.487   3.155   0.854 -1.5096  0.9748  0.5336
 5365TIP3    H216102   1.521   3.297   0.896  1.0742  0.2255  1.1658
 5366TIP3   OH216103   0.071   5.296   2.066  0.1120 -0.1400 -0.0066
 5366TIP3    H116104   0.022   5.329   1.991  1.2927  1.2676 -0.2300
 5366TIP3    H216105   0.010   5.240   2.113 -1.9882  2.1176  0.1742
 5367TIP3   OH216106   1.408   3.033   0.129 -0.7309 -0.1084 -0.1835
 5367TIP3    H116107   1.369   3.003   0.211 -1.7789 -1.1075 -1.0053
 5367TIP3    H216108   1.493   2.989   0.125 -0.2929  0.6222  0.7553
 5368TIP3   OH216109   5.983   0.070   2.822 -0.5584 -0.5610  0.0574
 5368TIP3    H116110   5.934   0.046   2.744 -1.4884  0.3153  0.3549
 5368TIP3    H216111   5.959   0.161   2.839  2.6613  0.6269 -0.9203
 5369TIP3   OH216112   3.346   2.887   1.569  0.7336 -0.7298  0.0637
 5369TIP3    H116113   3.278   2.954   1.556  1.3141 -0.2028 -0.2833
 5369TIP3    H216114   3.427   2.930   1.543  1.3255 -1.0985  1.2390
 5370TIP3   OH216115   4.496   4.468   2.815  0.2456 -0.3408 -0.0537
 5370TIP3    H116116   4.566   4.524   2.850 -1.0565  1.4973 -0.2078
 5370TIP3    H216117   4.536   4.424   2.740  0.7190  2.3478 -1.5355
 5371TIP3   OH216118   0.455   1.824   0.154  0.1816 -0.3086 -0.0907
 5371TIP3    H116119   0.531   1.773   0.127  0.2097 -0.0442 -0.5195
 5371TIP3    H216120   0.405   1.837   0.073 -0.4926 -0.7653  0.2425
 5372TIP3   OH216121   5.905   4.211   4.238 -0.1522 -0.4949 -0.3669
 5372TIP3    H116122   5.816   4.199   4.270  0.5871  0.8175  2.6332
 5372TIP3    H216123   5.959   4.158   4.297  1.2951  1.7267  0.4591
 5373TIP3   OH216124   1.347   2.159   5.139  0.0729 -0.4766 -0.3437
 5373TIP3    H116125   1.290   2.122   5.072  0.9124 -1.5461 -0.5161
 5373TIP3    H216126   1.314   2.123   5.222  0.7929 -1.5564 -0.4964
 5374TIP3   OH216127   4.167   1.734   2.450  0.5869 -0.4681  0.3887
 5374TIP3    H116128   4.227   1.788   2.399 -0.1965  0.7432  0.7196
 5374TIP3    H216129   4.218   1.705   2.525  0.8613  0.2398  0.4749
 5375TIP3   OH216130   0.680   1.774   3.536  0.3805 -0.6549  0.3640
 5375TIP3    H116131   0.775   1.779   3.545  0.4385  0.0235 -0.4824
 5375TIP3    H216132   0.664   1.789   3.442 -0.7408  2.8620  0.9654
 5376TIP3   OH216133   3.427   3.326   3.369  0.4997 -0.0009  0.0805
 5376TIP3    H116134   3.376   3.248   3.390  0.0598  0.2012 -0.2232
 5376TIP3    H216135   3.408   3.342   3.276  0.9198  0.2201  0.0338
 5377TIP3   OH216136   3.458   2.941   0.274  0.1346 -0.6796  0.2592
 5377TIP3    H116137   3.472   3.035   0.277  2.8528 -0.9414 -1.1544
 5377TIP3    H216138   3.406   2.927   0.195  0.1211 -0.3895  0.2162
 5378TIP3   OH216139   6.153   0.785   0.473  0.5742  0.1924  0.2898
 5378TIP3    H116140   6.202   0.838   0.536 -0.1874  2.4919 -0.9319
 5378TIP3    H216141   6.068   0.772   0.514  0.1806  1.4405 -0.0620
 5379TIP3   OH216142   4.123   1.589   1.711 -0.3750  0.4143  0.2735
 5379TIP3    H116143   4.067   1.530   1.661 -0.4309  2.2802 -2.0655
 5379TIP3    H216144   4.212   1.559   1.694 -0.4307  0.6439 -0.4725
 5380TIP3   OH216145   3.417   3.652   3.096 -0.2553 -0.2381  0.1216
 5380TIP3    H116146   3.423   3.689   3.008 -0.6212  0.1354  0.2517
 5380TIP3    H216147   3.398   3.559   3.081 -0.7896 -0.0861 -0.1911
 5381TIP3   OH216148   5.842   4.881   2.416  0.4517 -0.8399 -0.3816
 5381TIP3    H116149   5.777   4.899   2.484  1.3679 -1.2304  0.6253
 5381TIP3    H216150   5.923   4.921   2.449  0.9138 -1.0245 -1.2556
 5382TIP3   OH216151   1.108   1.546   0.695  0.1323 -0.0616 -0.2687
 5382TIP3    H116152   1.155   1.572   0.774  0.1647  0.0139 -0.3123
 5382TIP3    H216153   1.123   1.452   0.687 -1.9176 -0.5870  1.2086
 5383TIP3   OH216154   4.698   4.094   3.813 -1.1722 -0.7405  0.0193
 5383TIP3    H116155   4.683   4.111   3.906 -2.6919 -0.5361 -0.2324
 5383TIP3    H216156   4.707   4.180   3.774  1.9786 -0.8270  0.2702
 5384TIP3   OH216157   5.533   3.318   1.436 -0.8239 -0.5750  0.2571
 5384TIP3    H116158   5.572   3.273   1.361 -0.5722  1.5942 -0.9847
 5384TIP3    H216159   5.607   3.362   1.479 -1.1540 -0.7609  1.0350
 5385TIP3   OH216160   3.025   1.338   0.657 -0.5447 -0.3305  0.2644
 5385TIP3    H116161   2.960   1.273   0.628  0.4386 -0.4539 -1.8685
 5385TIP3    H216162   3.046   1.387   0.578  0.5942  0.9536  1.3163
 5386TIP3   OH216163   3.381   1.524   3.967  0.5118 -0.2583  0.6955
 5386TIP3    H116164   3.318   1.541   3.898  1.3126 -1.0636 -0.2643
 5386TIP3    H216165   3.465   1.514   3.922  1.2391  0.2094  1.8820
 5387TIP3   OH216166   5.165   2.407   2.333  0.6621  0.0707 -0.4968
 5387TIP3    H116167   5.215   2.470   2.384 -0.8089 -0.4279  1.6957
 5387TIP3    H216168   5.214   2.325   2.341 -0.5054 -0.4797  1.8634
 5388TIP3   OH216169   6.307   5.324   1.384 -0.0053  0.0245  0.1063
 5388TIP3    H116170   6.347   5.339   1.298  0.0588 -3.4422 -0.6322
 5388TIP3    H216171   6.379   5.335   1.446 -0.2624  3.5589 -0.0349
 5389TIP3   OH216172   4.114   5.951   0.834  0.2082 -0.0060 -0.1780
 5389TIP3    H116173   4.165   6.024   0.869  1.6148 -0.8503 -0.3847
 5389TIP3    H216174   4.027   5.960   0.874  0.1560  2.1123 -0.6753
 5390TIP3   OH216175   2.437   1.673   3.435  0.4288 -0.7959  0.3363
 5390TIP3    H116176   2.405   1.622   3.510 -1.1905 -0.8342 -0.3313
 5390TIP3    H216177   2.359   1.688   3.382  1.4749 -0.4660 -1.1747
 5391TIP3   OH216178   0.887   1.622   2.808  0.4770  0.3885 -0.2154
 5391TIP3    H116179   0.869   1.575   2.726  0.3366 -1.3405  0.7635
 5391TIP3    H216180   0.978   1.600   2.828 -0.4377 -2.1096  1.8107
 5392TIP3   OH216181   3.524   5.482   1.365 -0.5852  0.2869 -0.1455
 5392TIP3    H116182   3.544   5.575   1.351  2.3682 -0.3059 -0.6406
 5392TIP3    H216183   3.547   5.467   1.457  2.2292 -0.5259 -0.8585
 5393TIP3   OH216184   4.756   2.527   1.068  0.5771  0.0312  0.1170
 5393TIP3    H116185   4.727   2.491   0.984  1.7868  1.2776 -0.8712
 5393TIP3    H216186   4.686   2.587   1.094  0.6994  0.4804 -0.5677
 5394TIP3   OH216187   5.875   5.653   3.929  0.4169 -0.1873  0.2846
 5394TIP3    H116188   5.908   5.630   3.842  0.0524 -0.2429  0.1612
 5394TIP3    H216189   5.938   5.718   3.962 -0.3233  1.0498 -0.6709
 5395TIP3   OH216190   2.393   5.093   1.137 -0.8806 -0.1420  0.0612
 5395TIP3    H116191   2.450   5.016   1.145 -1.1927 -0.5471 -1.2321
 5395TIP3    H216192   2.304   5.057   1.145 -1.0361  0.6241  3.1773
 5396TIP3   OH216193   1.245   0.055   2.896 -0.1434 -0.7819 -0.4469
 5396TIP3    H116194   1.170   0.109   2.872 -0.6195 -0.1456  2.1305
 5396TIP3    H216195   1.301   0.113   2.948  1.0292 -1.8675 -0.4258
 5397TIP3   OH216196   4.997   4.266   4.522 -0.0069 -0.4218  0.1543
 5397TIP3    H116197   4.985   4.181   4.563  2.0822 -0.7923  0.0645
 5397TIP3    H216198   4.989   4.249   4.428 -0.4966 -0.3290  0.1726
 5398TIP3   OH216199   2.041   1.560   4.438  0.1648 -0.0890 -0.4582
 5398TIP3    H116200   2.118   1.513   4.406  0.2692  0.3722 -0.9066
 5398TIP3    H216201   2.004   1.600   4.359 -0.8931 -0.8175 -0.3446
 5399TIP3   OH216202   0.914   3.060   2.847 -0.1556 -0.1796  0.0356
 5399TIP3    H116203   0.840   3.023   2.895 -0.4578  0.1567 -0.1679
 5399TIP3    H216204   0.990   3.043   2.903 -0.2417 -1.3775 -0.2008
 5400TIP3   OH216205   3.323   1.780   2.709  0.2422 -0.3173 -0.7099
 5400TIP3    H116206   3.328   1.874   2.725 -0.1374 -0.3305 -0.4888
 5400TIP3    H216207   3.350   1.769   2.618 -1.4864  0.2108 -1.3274
 5401TIP3   OH216208   5.399  -0.001   4.984  0.5009 -0.1321  0.7579
 5401TIP3    H116209   5.436   0.086   4.999  1.7612 -0.8587  2.1583
 5401TIP3    H216210   5.469  -0.049   4.939 -0.1198 -0.4822  0.1523
 5402TIP3   OH216211   0.951   5.174   2.368 -0.0299  0.2952 -0.7916
 5402TIP3    H116212   0.856   5.181   2.360 -0.1701 -1.2340 -0.7790
 5402TIP3    H216213   0.984   5.260   2.342 -1.4878  1.4510  0.9159
 5403TIP3   OH216214   2.001   1.308   2.073  0.4947  0.3231 -0.2474
 5403TIP3    H116215   2.052   1.239   2.031 -0.6699 -0.5199 -0.3363
 5403TIP3    H216216   2.050   1.331   2.152  0.7873 -0.7674 -0.1080
 5404TIP3   OH216217   5.033   5.081   2.649 -0.4939 -0.1427  0.1111
 5404TIP3    H116218   4.982   5.113   2.575 -0.8429 -3.3122 -1.2206
 5404TIP3    H216219   5.120   5.063   2.612 -0.6581 -1.7124  0.4106
 5405TIP3   OH216220   3.488   5.892   3.232 -0.0153 -0.1856 -0.0190
 5405TIP3    H116221   3.411   5.896   3.288 -0.4757 -0.2135 -0.6415
 5405TIP3    H216222   3.497   5.799   3.209 -0.4572 -0.0395 -0.8349
 5406TIP3   OH216223   2.165   1.913   0.327 -0.1069  0.1020 -0.5684
 5406TIP3    H116224   2.216   1.925   0.247 -2.0010 -0.9107 -2.0187
 5406TIP3    H216225   2.207   1.970   0.391  2.5651 -0.3781 -1.7372
 5407TIP3   OH216226   2.862   0.866   2.953 -0.3533 -0.1366 -0.2764
 5407TIP3    H116227   2.897   0.832   2.871  0.3217 -0.4279  0.1212
 5407TIP3    H216228   2.777   0.904   2.929  0.0358  0.1885 -1.1775
 5408TIP3   OH216229   5.779   4.316   5.137 -0.0659  0.0103 -0.0821
 5408TIP3    H116230   5.809   4.318   5.046 -0.3877  0.5811 -0.1819
 5408TIP3    H216231   5.845   4.266   5.184  1.6143  2.0610 -0.0924
 5409TIP3   OH216232   3.068   5.032   1.133  0.1761  0.2847 -0.2989
 5409TIP3    H116233   3.000   4.969   1.156  1.7722 -0.7030  2.2001
 5409TIP3    H216234   3.104   5.001   1.050 -0.5712 -0.7655 -0.2392
 5410TIP3   OH216235   1.945   1.845   1.850  0.2195  0.2397  0.4256
 5410TIP3    H116236   2.009   1.775   1.862  0.8421  0.6432 -0.4493
 5410TIP3    H216237   1.929   1.879   1.938  0.1122 -0.8216  0.8276
 5411TIP3   OH216238   1.710   2.383   1.548 -0.1930  0.2491  0.0893
 5411TIP3    H116239   1.666   2.442   1.486 -1.2421 -0.8402 -0.2456
 5411TIP3    H216240   1.747   2.314   1.493 -1.5705 -1.0049  0.6699
 5412TIP3   OH216241   2.308   1.973   1.745 -0.3707  0.3062 -0.1197
 5412TIP3    H116242   2.232   1.953   1.691 -1.1413 -0.3852  1.1574
 5412TIP3    H216243   2.271   2.011   1.825  0.5051 -1.0756  1.0045
 5413TIP3   OH216244   5.310   0.520   0.802 -0.4561  0.4920  0.1658
 5413TIP3    H116245   5.306   0.605   0.847 -0.8126  0.7464 -0.3503
 5413TIP3    H216246   5.221   0.505   0.771 -0.1463  0.4671 -0.7304
 5414TIP3   OH216247   1.357   4.495   0.653 -0.2372  0.1280  0.2536
 5414TIP3    H116248   1.383   4.522   0.565 -1.0903  0.1865  0.0013
 5414TIP3    H216249   1.437   4.496   0.704  0.9212 -2.8884 -1.2594
 5415TIP3   OH216250   5.031   5.256   0.085  0.6482  0.4065  0.5314
 5415TIP3    H116251   5.121   5.278   0.107  1.2833 -0.5832 -0.9510
 5415TIP3    H216252   4.987   5.341   0.076  0.8077  0.8871  3.4955
 5416TIP3   OH216253   2.805   2.356   2.793 -0.3180  0.0773 -0.3140
 5416TIP3    H116254   2.757   2.437   2.775  0.5981  0.5337 -0.8016
 5416TIP3    H216255   2.876   2.356   2.728  0.4121 -0.5057  0.4612
 5417TIP3   OH216256   3.715   0.197   4.062 -0.1688 -0.1653 -0.1072
 5417TIP3    H116257   3.668   0.183   4.144  0.1880 -0.3896  0.0632
 5417TIP3    H216258   3.679   0.133   4.001  0.6265 -1.0434  0.3227
 5418TIP3   OH216259   0.630   4.474   0.671 -0.0255 -0.1869 -0.6088
 5418TIP3    H116260   0.641   4.491   0.577 -0.4924 -0.8850 -0.7960
 5418TIP3    H216261   0.637   4.561   0.711 -0.5147  0.2145 -1.3585
 5419TIP3   OH216262   5.304   5.574   2.602  0.0484 -0.0731  0.4315
 5419TIP3    H116263   5.351   5.658   2.598  0.4724 -0.3296 -0.2339
 5419TIP3    H216264   5.366   5.511   2.565  0.7393 -1.1698  3.1984
 5420TIP3   OH216265   2.038   3.634   2.382 -0.3531  0.0025  0.4003
 5420TIP3    H116266   2.129   3.642   2.412 -0.5155 -1.1187  1.2522
 5420TIP3    H216267   2.023   3.714   2.332  0.7408  0.7647  1.2223
 5421TIP3   OH216268   1.443   5.652   0.218 -0.2834  0.5280  0.1802
 5421TIP3    H116269   1.397   5.596   0.155 -1.1454 -1.1432  2.2050
 5421TIP3    H216270   1.374   5.706   0.257 -0.6585 -1.8275  3.0614
 5422TIP3   OH216271   1.564   5.465   0.748 -0.6833 -0.1530  0.0761
 5422TIP3    H116272   1.499   5.412   0.702  0.4412 -0.5869 -1.0834
 5422TIP3    H216273   1.580   5.419   0.830  1.2914 -2.4831 -1.4876
 5423TIP3   OH216274   5.113   4.691   3.281  0.7910  0.1907  0.5986
 5423TIP3    H116275   5.092   4.707   3.373 -2.1053 -0.1233  0.0948
 5423TIP3    H216276   5.080   4.768   3.235  0.3903 -0.5274 -0.3444
 5424TIP3   OH216277   6.374   2.583   2.071 -0.8341  0.4949  0.5823
 5424TIP3    H116278   6.372   2.668   2.028 -0.4554  0.9213  1.3773
 5424TIP3    H216279   6.284   2.552   2.067 -0.5454 -0.2236 -1.9151
 5425TIP3   OH216280   2.083   2.150   4.860 -0.1739  0.2873 -0.1763
 5425TIP3    H116281   2.056   2.242   4.863  0.1561  0.3835 -0.0228
 5425TIP3    H216282   2.178   2.153   4.872 -0.0281 -0.0110 -1.1793
 5426TIP3   OH216283   0.221   0.152   2.570 -0.5321 -0.6233 -0.0263
 5426TIP3    H116284   0.189   0.239   2.594 -0.8585 -0.8805  0.4964
 5426TIP3    H216285   0.155   0.118   2.510 -0.2011 -0.3540 -0.5436
 5427TIP3   OH216286   3.358   0.094   4.487 -0.0618 -0.6232  0.0050
 5427TIP3    H116287   3.356   0.106   4.392  1.0553 -1.2717 -0.1249
 5427TIP3    H216288   3.267   0.102   4.515 -0.2645  0.7441 -0.9602
 5428TIP3   OH216289   5.226   4.625   4.034  0.5549  0.2501 -0.2378
 5428TIP3    H116290   5.208   4.536   4.065 -1.2238  0.5819 -0.1966
 5428TIP3    H216291   5.175   4.681   4.093  1.3307  1.2789 -0.5189
 5429TIP3   OH216292   0.198   1.963   4.086 -0.2350 -0.1110  0.6662
 5429TIP3    H116293   0.106   1.979   4.108 -0.5182 -0.9069  0.0759
 5429TIP3    H216294   0.208   1.868   4.088  0.1680 -0.1257 -0.8466
 5430TIP3   OH216295   4.536   3.016   3.867  0.0671  0.1423  0.3507
 5430TIP3    H116296   4.470   3.019   3.936  1.1846 -0.4877  1.4853
 5430TIP3    H216297   4.565   3.107   3.859  0.2509  0.1562  1.0527
 5431TIP3   OH216298   1.646   4.277   1.899 -0.7571 -0.0982 -0.0664
 5431TIP3    H116299   1.621   4.319   1.817 -0.4803 -1.8807 -1.1127
 5431TIP3    H216300   1.741   4.271   1.896 -0.8081 -1.1352 -0.1442
 5432TIP3   OH216301   4.877   1.594   3.202  0.2704  0.3462 -0.1115
 5432TIP3    H116302   4.817   1.642   3.259  1.8597  0.9104  1.1504
 5432TIP3    H216303   4.823   1.569   3.126 -1.1155  2.3399  0.1389
 5433TIP3   OH216304   2.222   0.653   1.118  0.5106  0.1209  0.3713
 5433TIP3    H116305   2.304   0.616   1.085  0.2960 -1.5396  1.5220
 5433TIP3    H216306   2.249   0.726   1.173  1.0850  0.6995 -0.6562
 5434TIP3   OH216307   2.718   3.641   2.559 -0.0463  0.3212  0.1783
 5434TIP3    H116308   2.740   3.607   2.646  0.3441 -0.8285 -0.3462
 5434TIP3    H216309   2.644   3.588   2.531 -0.7131  1.2574  0.1402
 5435TIP3   OH216310   1.111   4.652   2.665  0.0410 -0.4982  0.0035
 5435TIP3    H116311   1.158   4.732   2.639 -1.8668 -0.3031 -3.3690
 5435TIP3    H216312   1.180   4.586   2.673  1.2692  0.5546 -1.3350
 5436TIP3   OH216313   4.673   1.231   3.259 -0.2199  0.5319  0.2215
 5436TIP3    H116314   4.759   1.222   3.299  0.8867 -0.7516 -2.2309
 5436TIP3    H216315   4.660   1.150   3.210 -2.8705  0.6733  0.5497
 5437TIP3   OH216316   5.661   3.691   0.497  0.5064 -0.4774 -0.1097
 5437TIP3    H116317   5.645   3.698   0.403  0.7725 -0.6714 -0.1692
 5437TIP3    H216318   5.745   3.735   0.510 -0.6225  1.7011  0.3882
 5438TIP3   OH216319   5.414   2.635   1.587 -0.0469  0.0199  0.4272
 5438TIP3    H116320   5.324   2.607   1.604 -0.7829  2.2146  0.3350
 5438TIP3    H216321   5.451   2.650   1.674 -1.0527  2.8461  0.4431
 5439TIP3   OH216322   3.758   2.159   2.836 -0.4557  0.2637  0.4956
 5439TIP3    H116323   3.846   2.122   2.840 -0.8936 -0.7022  2.0474
 5439TIP3    H216324   3.770   2.252   2.857  0.1296  0.0102  1.3118
 5440TIP3   OH216325   3.996   4.269   2.560  0.2922 -0.1173  0.3249
 5440TIP3    H116326   3.941   4.252   2.483  0.0963  0.0121  0.4333
 5440TIP3    H216327   3.939   4.320   2.618  0.0443 -1.1837  1.0450
 5441TIP3   OH216328   3.909   1.480   1.571 -0.3356  1.2320 -0.1678
 5441TIP3    H116329   3.888   1.485   1.478 -0.9512 -0.4389 -0.1532
 5441TIP3    H216330   3.827   1.502   1.615 -1.8051 -3.3176 -0.1098
 5442TIP3   OH216331   0.417   5.620   0.903  0.2102  0.9363  0.3373
 5442TIP3    H116332   0.487   5.555   0.906 -1.1788 -0.8163 -1.8675
 5442TIP3    H216333   0.354   5.589   0.968  0.0888  0.7301  0.1245
 5443TIP3   OH216334   6.129   5.803   3.961 -0.1986 -0.3222  0.2340
 5443TIP3    H116335   6.154   5.758   3.881  0.9235  0.4809  0.1118
 5443TIP3    H216336   6.198   5.781   4.023  0.1134  0.8458  0.3128
 5444TIP3   OH216337   4.194   0.339   3.232  0.7806 -0.1467  0.0129
 5444TIP3    H116338   4.233   0.426   3.245  1.8170 -0.4905 -0.7021
 5444TIP3    H216339   4.118   0.355   3.175  1.3219  0.2194 -0.6207
 5445TIP3   OH216340   4.971   3.329   4.641  0.4766 -0.4566 -0.2136
 5445TIP3    H116341   4.996   3.237   4.636 -0.9797 -0.8221 -1.9815
 5445TIP3    H216342   4.968   3.358   4.550 -0.0807  1.0551  0.2526
 5446TIP3   OH216343   0.353   3.666   0.738  0.1329  0.2313  0.8240
 5446TIP3    H116344   0.414   3.739   0.733 -1.1272  1.2546 -2.5925
 5446TIP3    H216345   0.394   3.596   0.687 -1.5927  1.1444 -2.0541
 5447TIP3   OH216346   4.676   4.034   0.834 -0.0740  0.1140 -0.0037
 5447TIP3    H116347   4.704   4.117   0.796  0.1658  0.4656  0.9271
 5447TIP3    H216348   4.745   4.011   0.897 -0.5992 -0.3154  0.4307
 5448TIP3   OH216349   4.046   1.924   1.393  0.4161  0.3250 -0.1221
 5448TIP3    H116350   4.067   1.975   1.471 -0.9159  0.8367 -0.0763
 5448TIP3    H216351   4.111   1.853   1.393  0.3067  0.1736  1.5818
 5449TIP3   OH216352   5.504   3.608   3.949  0.1399  0.1125  0.4357
 5449TIP3    H116353   5.557   3.529   3.957 -0.3383 -0.1539  1.1719
 5449TIP3    H216354   5.564   3.675   3.918  0.7594 -0.3377  0.6481
 5450TIP3   OH216355   0.744   3.022   0.586 -0.0256  0.0220 -0.2842
 5450TIP3    H116356   0.737   3.076   0.507  0.5462  0.6922  0.1077
 5450TIP3    H216357   0.654   3.014   0.618 -0.1120  0.7997 -0.3140
 5451TIP3   OH216358   4.088   5.650   1.665  0.2678 -0.5720  0.0638
 5451TIP3    H116359   4.082   5.640   1.760 -1.3238 -0.1566  0.0353
 5451TIP3    H216360   4.009   5.608   1.631 -0.5878  1.6018 -0.8626
 5452TIP3   OH216361   0.668   2.455   4.160 -0.1291  0.5537 -0.3271
 5452TIP3    H116362   0.751   2.433   4.117  0.1709  0.8844  0.0616
 5452TIP3    H216363   0.618   2.374   4.161  0.7047  0.0287  0.5516
 5453TIP3   OH216364   4.468   3.311   2.588  0.1149 -0.0064  0.2363
 5453TIP3    H116365   4.398   3.250   2.613  0.5322 -0.0068  1.4810
 5453TIP3    H216366   4.549   3.265   2.610  0.5092  0.1599 -0.8076
 5454TIP3   OH216367   0.974   1.354   4.496 -0.3745 -0.2353  0.1483
 5454TIP3    H116368   1.036   1.396   4.437  0.1980 -1.9711 -0.5484
 5454TIP3    H216369   0.888   1.381   4.464 -0.0493  1.4735  0.5841
 5455TIP3   OH216370   5.695   1.743   4.886  0.2402  0.4279  0.6514
 5455TIP3    H116371   5.620   1.683   4.885  0.6783 -0.1693 -1.4680
 5455TIP3    H216372   5.668   1.816   4.830 -0.1053  2.0688  2.8424
 5456TIP3   OH216373   3.401   2.615   1.571  0.0239 -0.1831 -0.0253
 5456TIP3    H116374   3.395   2.698   1.525  0.5377  0.2644  0.6950
 5456TIP3    H216375   3.479   2.573   1.535 -1.7583 -1.6602 -2.4283
 5457TIP3   OH216376   3.833   4.506   1.959 -0.1720 -0.7310 -0.0260
 5457TIP3    H116377   3.764   4.440   1.949 -1.8111  0.9873 -0.6676
 5457TIP3    H216378   3.865   4.521   1.871 -0.3950 -0.1059 -0.0075
 5458TIP3   OH216379   5.405   0.687   2.410  0.1773  0.9338 -0.2371
 5458TIP3    H116380   5.377   0.778   2.423  1.3122  1.2529  0.1261
 5458TIP3    H216381   5.438   0.685   2.320 -1.1549  0.5143 -0.7251
 5459TIP3   OH216382   2.322   2.114   2.965 -0.4633 -0.2098 -0.2243
 5459TIP3    H116383   2.334   2.063   3.045 -1.0284  0.4560  0.2954
 5459TIP3    H216384   2.355   2.201   2.986 -2.0510  0.4127 -0.1853
 5460TIP3   OH216385   2.993   5.574   0.486  0.1032  0.8189 -0.4188
 5460TIP3    H116386   2.923   5.524   0.526  0.8055  1.1787  1.3450
 5460TIP3    H216387   3.074   5.533   0.518  0.6941  1.4168 -1.0913
 5461TIP3   OH216388   3.820   2.883   0.516  0.0797 -0.1078 -0.0563
 5461TIP3    H116389   3.838   2.969   0.477 -1.3072  0.3140  0.1714
 5461TIP3    H216390   3.771   2.836   0.448 -2.5820  0.7244  1.1231
 5462TIP3   OH216391   4.118   3.998   0.901  0.1094 -0.3469  0.0518
 5462TIP3    H116392   4.130   3.959   0.814  2.9422 -0.8766  0.6014
 5462TIP3    H216393   4.095   3.925   0.958 -0.7704 -0.1561 -0.0435
 5463TIP3   OH216394   3.041   0.328   2.686 -0.3467 -0.0278  0.4935
 5463TIP3    H116395   2.998   0.251   2.724 -2.6352  0.3465 -1.1539
 5463TIP3    H216396   3.117   0.292   2.640  0.7373 -0.8141  2.7270
 5464TIP3   OH216397   4.603   1.206   2.485  0.3016  0.2642  0.6650
 5464TIP3    H116398   4.657   1.175   2.557 -0.8332  0.0794  1.4645
 5464TIP3    H216399   4.513   1.196   2.516 -0.1969  0.8058 -0.5237
 5465TIP3   OH216400   6.145   4.090   1.557  0.2274  0.6519 -0.0473
 5465TIP3    H116401   6.211   4.039   1.604  0.2220 -1.2348 -1.9664
 5465TIP3    H216402   6.188   4.117   1.476 -1.2477 -0.4308 -1.2389
 5466TIP3   OH216403   4.374   4.877   4.012 -0.0718  0.0782 -0.1424
 5466TIP3    H116404   4.333   4.957   4.046 -0.3833  0.2646 -0.9242
 5466TIP3    H216405   4.345   4.808   4.071  1.3809  0.7405  1.4258
 5467TIP3   OH216406   3.722   2.679   0.363 -0.3022  0.4822 -0.4161
 5467TIP3    H116407   3.771   2.600   0.338 -1.3564  0.0422 -1.1772
 5467TIP3    H216408   3.661   2.650   0.430 -1.4243  0.3799 -1.4383
 5468TIP3   OH216409   5.189   0.493   2.077  0.2153  0.2435  0.4649
 5468TIP3    H116410   5.124   0.533   2.135 -0.7125  0.6931 -0.8298
 5468TIP3    H216411   5.156   0.510   1.989  1.0261 -1.3348 -0.1898
 5469TIP3   OH216412   3.352   2.181   2.331  0.0117 -0.4788  0.4105
 5469TIP3    H116413   3.393   2.177   2.418 -0.1423 -0.5938  0.4774
 5469TIP3    H216414   3.426   2.187   2.270  0.1025  0.4871  0.6002
 5470TIP3   OH216415   0.163   0.273   0.757 -0.0169 -0.1326  0.1873
 5470TIP3    H116416   0.144   0.366   0.745 -0.1758 -0.1950 -0.0609
 5470TIP3    H216417   0.191   0.243   0.670  2.1849  0.1731  0.7442
 5471TIP3   OH216418   0.547   1.348   1.377  0.4223  0.4547 -0.4724
 5471TIP3    H116419   0.487   1.283   1.341  1.1108 -0.6416  0.2741
 5471TIP3    H216420   0.493   1.398   1.439 -0.0432  0.3783 -0.8104
 5472TIP3   OH216421   3.063   0.756   1.701 -0.1784 -0.2966 -0.6575
 5472TIP3    H116422   3.074   0.792   1.789  0.6563 -1.3722 -0.2942
 5472TIP3    H216423   2.972   0.776   1.678  0.1163  1.5933 -0.3141
 5473TIP3   OH216424   1.528   5.666   4.675  0.1514 -0.1871  0.1751
 5473TIP3    H116425   1.579   5.638   4.599  1.3331 -0.9533  1.1902
 5473TIP3    H216426   1.437   5.654   4.649  0.4969  0.2117 -1.3400
 5474TIP3   OH216427   1.702   3.900   0.276  0.0715 -0.1695 -0.5495
 5474TIP3    H116428   1.791   3.917   0.245  0.1430  3.2740  1.1136
 5474TIP3    H216429   1.711   3.824   0.334  2.0273  0.2848 -0.1847
 5475TIP3   OH216430   0.051   2.550   3.789  0.1285 -0.1662  0.4819
 5475TIP3    H116431   0.025   2.473   3.738 -2.8376 -0.0408  1.6065
 5475TIP3    H216432   0.034   2.624   3.731  0.7976 -0.2240  0.2038
 5476TIP3   OH216433   2.447   1.551   2.751 -0.3839 -0.3362 -0.2577
 5476TIP3    H116434   2.522   1.610   2.750  0.6834 -1.6325 -0.8059
 5476TIP3    H216435   2.378   1.599   2.796  1.4306  0.0985  2.2634
 5477TIP3   OH216436   6.208   3.642   0.689 -0.0790 -0.7384  0.1969
 5477TIP3    H116437   6.239   3.568   0.637 -1.2620 -1.1528  0.0571
 5477TIP3    H216438   6.277   3.656   0.754  0.4950 -1.4876 -0.2399
 5478TIP3   OH216439   5.575   2.169   1.298 -0.0085 -0.2390  0.9082
 5478TIP3    H116440   5.557   2.255   1.260 -0.2528 -0.2603  0.9725
 5478TIP3    H216441   5.514   2.110   1.253 -3.3277  0.3534  4.0859
 5479TIP3   OH216442   5.387   0.939   4.188 -0.4293  0.0405  0.0595
 5479TIP3    H116443   5.341   1.022   4.177 -2.2313 -0.7394  1.1699
 5479TIP3    H216444   5.480   0.962   4.188 -0.8671  1.9634 -0.1780
 5480TIP3   OH216445   2.796   4.595   3.424 -0.2138  0.0282  0.0659
 5480TIP3    H116446   2.804   4.527   3.491 -2.7118 -0.8567 -0.4157
 5480TIP3    H216447   2.803   4.677   3.472 -0.8082 -0.5833  1.2515
 5481TIP3   OH216448   2.833   5.322   1.619 -0.3558  0.5926  0.6126
 5481TIP3    H116449   2.764   5.325   1.553 -0.2587 -1.0549  0.4071
 5481TIP3    H216450   2.906   5.370   1.579  0.8135 -2.8865 -1.8929
 5482TIP3   OH216451   5.034   2.999   4.275 -0.2479  0.4221 -0.7916
 5482TIP3    H116452   5.050   2.909   4.248  1.6620  0.5657 -0.2946
 5482TIP3    H216453   4.972   2.992   4.347 -1.9474 -0.2855 -2.2560
 5483TIP3   OH216454   2.469   3.640   3.273  0.0186  0.4740  0.2283
 5483TIP3    H116455   2.492   3.730   3.293  0.8563  0.3993 -0.3588
 5483TIP3    H216456   2.537   3.587   3.316 -0.6633  0.0921  0.8720
 5484TIP3   OH216457   1.867   3.949   4.499  0.3795  0.0136  0.1290
 5484TIP3    H116458   1.881   4.042   4.520 -1.5886  0.1956  0.9216
 5484TIP3    H216459   1.921   3.933   4.422 -1.0867  2.5439 -1.5842
 5485TIP3   OH216460   5.747   3.137   2.307 -0.5040  0.5570 -0.3945
 5485TIP3    H116461   5.656   3.151   2.281 -0.5927  0.4644 -0.1347
 5485TIP3    H216462   5.796   3.204   2.259 -0.5743 -0.0635 -1.3727
 5486TIP3   OH216463   5.314   4.101   2.561  0.0196 -0.3481  0.3641
 5486TIP3    H116464   5.376   4.174   2.556  0.0088 -0.2942  0.9706
 5486TIP3    H216465   5.239   4.130   2.509  0.6367 -0.5641 -0.6845
 5487TIP3   OH216466   2.776   4.021   4.274  0.7134  0.0009 -0.1674
 5487TIP3    H116467   2.837   4.085   4.239 -1.1516  1.8440 -0.2212
 5487TIP3    H216468   2.820   3.985   4.351  1.1189  2.6769  0.9416
 5488TIP3   OH216469   0.132   5.306   4.360  0.1142  0.5249 -1.1877
 5488TIP3    H116470   0.106   5.214   4.355 -1.7201  0.5208  3.5328
 5488TIP3    H216471   0.050   5.355   4.358  0.8783  1.8731 -0.9544
 5489TIP3   OH216472   5.120   2.222   4.912  0.1026 -0.7580  0.3441
 5489TIP3    H116473   5.102   2.136   4.950  0.0111 -0.3880  1.1655
 5489TIP3    H216474   5.174   2.265   4.978  0.4226 -0.3048 -0.2117
 5490TIP3   OH216475   0.354   5.147   0.445 -0.4366  0.5521  0.2565
 5490TIP3    H116476   0.317   5.059   0.438  1.5812 -0.3934  0.6886
 5490TIP3    H216477   0.355   5.179   0.355 -0.9291  0.0063  0.0497
 5491TIP3   OH216478   4.384   1.314   2.705 -0.3120  0.4512  0.4121
 5491TIP3    H116479   4.346   1.401   2.711 -1.9000 -0.2748  1.9229
 5491TIP3    H216480   4.473   1.323   2.740  0.2914  1.8080 -1.3303
 5492TIP3   OH216481   4.825   3.226   3.629  0.3954 -0.1479 -0.0975
 5492TIP3    H116482   4.821   3.320   3.648  0.5845 -0.1217 -0.1773
 5492TIP3    H216483   4.740   3.206   3.589  0.3472 -0.0138 -0.0636
 5493TIP3   OH216484   2.810   3.283   1.069  0.2688 -0.3862 -0.4747
 5493TIP3    H116485   2.906   3.281   1.073  0.4136  1.6423 -1.7797
 5493TIP3    H216486   2.785   3.345   1.137 -0.1137 -0.5711 -0.4467
 5494TIP3   OH216487   2.067   3.320   1.843  0.5940 -0.1981 -0.0234
 5494TIP3    H116488   1.990   3.327   1.899  0.2460  0.0215 -0.5256
 5494TIP3    H216489   2.064   3.398   1.788  0.3563 -0.9239 -1.0622
 5495TIP3   OH216490   5.518   5.430   3.421  0.2014 -0.0752 -0.8594
 5495TIP3    H116491   5.537   5.474   3.338  0.9468 -0.3787 -0.8602
 5495TIP3    H216492   5.583   5.466   3.482 -0.6172  0.4682 -0.2889
 5496TIP3   OH216493   3.396   0.008   1.324  0.5990 -0.2384  0.0819
 5496TIP3    H116494   3.401   0.102   1.339 -0.6931  0.3037 -2.2722
 5496TIP3    H216495   3.437  -0.005   1.239 -0.5823 -1.5536 -0.3382
 5497TIP3   OH216496   0.100   4.784   0.063 -0.1459  0.0870  0.1785
 5497TIP3    H116497   0.130   4.693   0.070 -0.4415  0.0931  2.0780
 5497TIP3    H216498   0.124   4.823   0.147 -0.6629  1.5832 -0.3401
 5498TIP3   OH216499   4.440   0.927   2.630  0.2535  0.1819  0.1893
 5498TIP3    H116500   4.520   0.963   2.670  0.4354  0.9056 -0.7687
 5498TIP3    H216501   4.371   0.948   2.692  1.0487 -2.3828  2.1192
 5499TIP3   OH216502   5.678   0.880   2.528  0.0541 -0.4171  0.1230
 5499TIP3    H116503   5.679   0.814   2.458 -0.4205 -0.3724  0.0687
 5499TIP3    H216504   5.752   0.938   2.507  0.1613 -0.6369 -0.1167
 5500TIP3   OH216505   3.252   3.142   0.742  0.4853 -0.7379 -0.4764
 5500TIP3    H116506   3.332   3.092   0.727  0.8634  0.2413 -1.9852
 5500TIP3    H216507   3.263   3.221   0.689 -0.9337  0.0131  0.2975
 5501TIP3   OH216508   4.095   3.710   4.875  0.0498 -0.0422 -0.3406
 5501TIP3    H116509   4.096   3.666   4.960 -0.0361  0.6683  0.0363
 5501TIP3    H216510   4.160   3.663   4.823 -0.5665 -1.0833 -0.1968
 5502TIP3   OH216511   3.909   1.553   4.269 -0.1435 -0.1750  0.0023
 5502TIP3    H116512   3.906   1.648   4.280  2.0510 -0.1368  0.5852
 5502TIP3    H216513   3.951   1.540   4.184 -2.5629 -0.6702 -1.2215
 5503TIP3   OH216514   1.596   0.052   3.203 -0.6793 -0.3673  0.3434
 5503TIP3    H116515   1.609   0.124   3.264  0.4221  1.0132 -1.4234
 5503TIP3    H216516   1.678   0.002   3.207  0.0763  0.6755 -1.1223
 5504TIP3   OH216517   5.438   2.147   3.027 -0.4757 -0.6545  0.6238
 5504TIP3    H116518   5.372   2.083   3.001 -0.8227 -0.1454  0.2339
 5504TIP3    H216519   5.520   2.115   2.990 -0.8945 -0.1241 -0.8299
 5505TIP3   OH216520   1.557   0.579   3.861 -0.5236  0.0553  0.0669
 5505TIP3    H116521   1.473   0.609   3.894 -0.6836 -0.3224  0.0106
 5505TIP3    H216522   1.604   0.659   3.837 -1.1360  0.2419 -0.5608
 5506TIP3   OH216523   1.611   1.882  -0.010  0.4445  0.5773 -0.1872
 5506TIP3    H116524   1.602   1.791  -0.038  0.5136  1.0269 -1.7943
 5506TIP3    H216525   1.583   1.882   0.081 -0.6439 -0.8565 -0.4793
 5507TIP3   OH216526   5.730   5.036   3.228  0.2207 -0.3639  0.0743
 5507TIP3    H116527   5.691   5.110   3.181  1.1310  0.5127  0.6552
 5507TIP3    H216528   5.824   5.055   3.228  0.5078 -1.7111 -0.0651
 5508TIP3   OH216529   4.664   5.398   1.642  0.1080  0.3781  0.0089
 5508TIP3    H116530   4.758   5.417   1.635  0.4864 -1.4766 -0.6058
 5508TIP3    H216531   4.628   5.420   1.556  0.4283 -0.9652 -0.4960
 5509TIP3   OH216532   5.841   0.244   2.109 -1.0982 -0.3036  0.4379
 5509TIP3    H116533   5.754   0.271   2.137 -0.8070  1.4915 -0.2768
 5509TIP3    H216534   5.901   0.295   2.163 -0.4707 -1.3872  0.7978
 5510TIP3   OH216535   1.459   4.452   4.435  0.6038  0.3623 -0.2162
 5510TIP3    H116536   1.475   4.542   4.407  1.9868 -0.0095 -0.7094
 5510TIP3    H216537   1.429   4.407   4.356  1.8151 -0.0363 -0.4827
 5511TIP3   OH216538   3.621   3.951   4.189  0.0079 -0.1777  0.2942
 5511TIP3    H116539   3.644   3.929   4.280 -1.1944  1.5848  1.0774
 5511TIP3    H216540   3.577   3.872   4.156 -1.0519 -0.2609  1.8118
 5512TIP3   OH216541   0.014   2.580   4.208 -0.2558 -0.0144 -0.1083
 5512TIP3    H116542   0.013   2.667   4.169 -0.4348  0.3841  0.7748
 5512TIP3    H216543   0.090   2.580   4.266 -0.9096 -0.0556  0.7627
 5513TIP3   OH216544   4.852   2.644   3.244 -0.3343 -0.1740 -0.5675
 5513TIP3    H116545   4.780   2.680   3.191  0.6792  1.3792 -0.9728
 5513TIP3    H216546   4.851   2.696   3.324 -0.7938 -1.3898  0.2454
 5514TIP3   OH216547   5.752   5.097   0.358  0.4237  0.6324 -0.1375
 5514TIP3    H116548   5.803   5.020   0.333 -0.6590  0.3201 -1.5171
 5514TIP3    H216549   5.749   5.151   0.279 -0.7954  0.9696  0.1193
 5515TIP3   OH216550   3.850   0.429   3.388  0.2934  0.1056 -0.3218
 5515TIP3    H116551   3.899   0.365   3.440  1.0825  0.8721 -0.1116
 5515TIP3    H216552   3.789   0.469   3.450  0.1861 -0.0338 -0.3342
 5516TIP3   OH216553   0.256   2.765   3.815 -0.3137  0.1062 -0.1488
 5516TIP3    H116554   0.224   2.684   3.853 -0.2482  0.1661  0.0349
 5516TIP3    H216555   0.304   2.737   3.736 -1.6472  0.0944 -0.9804
 5517TIP3   OH216556   2.534   3.639   5.090 -0.4489 -0.5452 -0.5724
 5517TIP3    H116557   2.475   3.654   5.017  0.9649  0.1280 -1.6204
 5517TIP3    H216558   2.493   3.686   5.163 -1.0016  0.2779 -1.3860
 5518TIP3   OH216559   4.410   0.768   4.592  0.0460  0.1850  0.0608
 5518TIP3    H116560   4.394   0.803   4.504  0.2470  0.6725  0.2163
 5518TIP3    H216561   4.334   0.713   4.610  0.1282 -0.1336 -0.5231
 5519TIP3   OH216562   4.913   4.561   0.844 -0.2133 -0.5725 -0.2083
 5519TIP3    H116563   4.985   4.614   0.878  0.8451 -0.8295 -1.9464
 5519TIP3    H216564   4.925   4.476   0.885 -0.6712 -0.1140  0.9481
 5520TIP3   OH216565   1.090   4.556   5.000  0.3190  0.4002 -0.4037
 5520TIP3    H116566   1.059   4.530   5.087  0.1418  1.2048 -0.2158
 5520TIP3    H216567   1.045   4.638   4.982  0.8771  0.5957 -0.9608
 5521TIP3   OH216568   2.003   1.001   5.116 -0.4486 -0.3699 -0.6998
 5521TIP3    H116569   1.998   0.919   5.165 -3.3890  0.1369  0.0548
 5521TIP3    H216570   2.092   1.033   5.130  0.0219 -2.2615  0.9555
 5522TIP3   OH216571   5.484   0.232   1.076 -0.3942  0.0114  0.1500
 5522TIP3    H116572   5.403   0.275   1.050 -0.6812 -0.1906  0.7073
 5522TIP3    H216573   5.549   0.265   1.014 -1.5272 -2.3386 -2.4776
 5523TIP3   OH216574   3.877   0.463   2.877 -0.2555 -0.1955 -0.6838
 5523TIP3    H116575   3.825   0.543   2.885  0.5221  0.2184  0.5872
 5523TIP3    H216576   3.966   0.495   2.863 -0.2033 -0.8798 -1.9814
 5524TIP3   OH216577   3.133   0.929   4.580  0.4477  0.3645 -0.0870
 5524TIP3    H116578   3.054   0.983   4.586 -0.2774 -0.7379  0.5645
 5524TIP3    H216579   3.196   0.984   4.533 -0.6161  1.3598 -0.3912
 5525TIP3   OH216580   5.321   2.261   0.844  0.5264 -0.3095  0.6688
 5525TIP3    H116581   5.265   2.200   0.795  0.3856  0.5282 -0.2470
 5525TIP3    H216582   5.365   2.206   0.909 -1.0662 -1.0700  1.1755
 5526TIP3   OH216583   1.621   5.686   3.468 -0.3985 -0.5295  0.0447
 5526TIP3    H116584   1.573   5.761   3.504 -0.8664 -1.1311  0.6992
 5526TIP3    H216585   1.646   5.635   3.545 -1.0887 -1.6516 -0.4475
 5527TIP3   OH216586   0.923   4.000   1.518 -0.4808 -0.1069 -0.2328
 5527TIP3    H116587   0.884   3.949   1.590  0.0966 -0.4683 -0.1647
 5527TIP3    H216588   0.935   3.936   1.448 -0.1678  0.0343 -0.3092
 5528TIP3   OH216589   3.376   5.273   3.292  0.2950 -0.5412  0.4716
 5528TIP3    H116590   3.392   5.295   3.200  0.9346 -0.2520  0.6424
 5528TIP3    H216591   3.284   5.295   3.306  0.5290  0.6896  0.2404
 5529TIP3   OH216592   0.350   2.104   1.288 -0.0335 -0.3529 -0.6473
 5529TIP3    H116593   0.405   2.052   1.230  1.6391  2.4833 -1.7862
 5529TIP3    H216594   0.412   2.149   1.347 -1.2481  1.2677 -0.5318
 5530TIP3   OH216595   4.864   3.837   3.928  0.2716 -0.4224 -0.1127
 5530TIP3    H116596   4.850   3.926   3.897  1.7194 -0.3398 -0.6078
 5530TIP3    H216597   4.795   3.823   3.993  0.1113  1.0986  0.0801
 5531TIP3   OH216598   1.941   5.011   2.737  0.2415 -0.3132  0.4539
 5531TIP3    H116599   2.033   5.009   2.763  0.3911 -1.1258 -0.0694
 5531TIP3    H216600   1.906   5.092   2.774  0.6763 -0.9373  2.3223
 5532TIP3   OH216601   2.109   4.918   3.609  0.2833 -0.2802 -0.1238
 5532TIP3    H116602   2.050   4.845   3.591 -0.9640 -0.1618  2.9324
 5532TIP3    H216603   2.145   4.899   3.695  1.4469  1.7695 -0.0972
 5533TIP3   OH216604   1.632   5.545   1.129  0.0723 -0.0219 -0.9031
 5533TIP3    H116605   1.620   5.507   1.216 -0.6523 -0.9997 -1.4029
 5533TIP3    H216606   1.593   5.481   1.070 -0.0061  0.9185 -1.8999
 5534TIP3   OH216607   2.641   3.230   3.389 -0.1998  0.2685 -0.0272
 5534TIP3    H116608   2.637   3.191   3.477 -0.1145 -0.1745 -0.2162
 5534TIP3    H216609   2.671   3.159   3.333  0.2834  0.7048 -0.3296
 5535TIP3   OH216610   3.325   1.438   1.616 -0.2236  0.2083 -0.0365
 5535TIP3    H116611   3.353   1.523   1.584  2.0379  0.0230  1.1967
 5535TIP3    H216612   3.308   1.452   1.710 -4.4837  0.2568 -0.6201
 5536TIP3   OH216613   2.717   2.101   1.578  0.1653  0.1379  0.1700
 5536TIP3    H116614   2.740   2.076   1.489 -1.4139 -0.8020 -0.0071
 5536TIP3    H216615   2.733   2.023   1.630 -3.8618 -1.1893 -0.2209
 5537TIP3   OH216616   3.411   5.470   0.188 -1.0289  0.0213 -0.2242
 5537TIP3    H116617   3.443   5.443   0.102  0.8918  0.3072  0.3574
 5537TIP3    H216618   3.349   5.540   0.169  0.5524  1.1999 -1.3526
 5538TIP3   OH216619   1.280   1.399   4.104  0.4351  0.5916 -0.3633
 5538TIP3    H116620   1.362   1.395   4.055  1.0240 -2.8921  0.6571
 5538TIP3    H216621   1.212   1.386   4.038  0.7877  1.7307 -0.9762
 5539TIP3   OH216622   5.257   2.998   3.476  0.1274  0.0269 -0.3363
 5539TIP3    H116623   5.269   2.942   3.399 -0.4255  0.9761 -1.1334
 5539TIP3    H216624   5.174   3.043   3.460 -0.8592 -0.9861  1.5989
 5540TIP3   OH216625   4.595   2.256   0.258  0.0077 -0.3384  0.0360
 5540TIP3    H116626   4.626   2.346   0.252  0.1632 -0.2732  1.5268
 5540TIP3    H216627   4.526   2.250   0.192  0.6116  0.6073 -0.6975
 5541TIP3   OH216628   4.072   3.760   3.533  0.1450 -0.0136  0.5480
 5541TIP3    H116629   4.051   3.851   3.551  1.8251  0.6935 -0.7864
 5541TIP3    H216630   4.003   3.730   3.474  0.0003  0.6377  0.3789
 5542TIP3   OH216631   6.201   5.713   1.460  0.1616 -0.1390  0.0131
 5542TIP3    H116632   6.291   5.690   1.480  0.5912  1.4909  0.1108
 5542TIP3    H216633   6.193   5.698   1.365  0.8860  0.7341 -0.2018
 5543TIP3   OH216634   3.474   2.541   0.538 -0.0876  0.3393 -0.3735
 5543TIP3    H116635   3.407   2.553   0.471 -1.2978 -1.5028  0.4011
 5543TIP3    H216636   3.478   2.446   0.551 -0.7009  0.6351  2.8714
 5544TIP3   OH216637   2.265   3.361   1.340  0.1985 -0.0545  0.4034
 5544TIP3    H116638   2.355   3.356   1.372  1.4250 -0.5574 -2.7564
 5544TIP3    H216639   2.273   3.394   1.251 -2.7236 -0.6332 -0.1696
 5545TIP3   OH216640   2.797   4.879   1.567  0.7876  0.0908  0.4910
 5545TIP3    H116641   2.851   4.905   1.642 -0.2680 -1.0896  1.6975
 5545TIP3    H216642   2.834   4.796   1.538  1.3718  0.6791 -0.5203
 5546TIP3   OH216643   1.651   5.052   4.870  0.4617 -0.5649 -0.0529
 5546TIP3    H116644   1.724   5.056   4.933  1.4230 -0.2081 -1.1564
 5546TIP3    H216645   1.691   5.075   4.786 -1.2467  1.3214 -0.4288
 5547TIP3   OH216646   5.275   0.393   0.480  0.7738 -0.8871  0.7046
 5547TIP3    H116647   5.364   0.390   0.516  1.4560 -0.9642 -0.8849
 5547TIP3    H216648   5.256   0.486   0.470  0.1270 -0.8264  2.2573
 5548TIP3   OH216649   5.328   1.730   1.826 -0.4804  0.0989  0.8611
 5548TIP3    H116650   5.414   1.769   1.839 -0.6111  0.4983  0.5894
 5548TIP3    H216651   5.275   1.801   1.789  0.0081 -1.0192 -2.3275
 5549TIP3   OH216652   2.417   4.091   4.668  0.0392  0.6588  0.2661
 5549TIP3    H116653   2.510   4.111   4.671  0.0101  0.8393  0.0165
 5549TIP3    H216654   2.380   4.157   4.609  0.1519 -0.9419 -1.7030
 5550TIP3   OH216655   0.597   1.532   4.587 -0.0841 -0.5941  0.2457
 5550TIP3    H116656   0.575   1.586   4.663  3.1281  0.3124  0.6771
 5550TIP3    H216657   0.609   1.444   4.623  1.5337 -0.1459  0.8757
 5551TIP3   OH216658   5.766   3.277   1.856 -0.5723 -0.5758 -0.0627
 5551TIP3    H116659   5.692   3.332   1.831  0.5470  0.8762 -0.3311
 5551TIP3    H216660   5.806   3.252   1.773 -0.1205 -0.4331  0.1114
 5552TIP3   OH216661   2.074   1.396   3.330 -0.0160 -0.3364  0.6924
 5552TIP3    H116662   2.103   1.314   3.368  0.0880  0.1069  1.5932
 5552TIP3    H216663   2.084   1.384   3.235  1.0504 -0.9566  0.8706
 5553TIP3   OH216664   5.891   5.440   0.942 -0.4298  1.1052  0.1737
 5553TIP3    H116665   5.796   5.429   0.935 -0.4076  1.5242 -0.8178
 5553TIP3    H216666   5.922   5.442   0.852  1.1868 -4.4092  0.2366
 5554TIP3   OH216667   5.113   3.399   3.353  0.2393 -0.0031  0.0122
 5554TIP3    H116668   5.037   3.456   3.339  0.1008 -0.3938 -0.8855
 5554TIP3    H216669   5.145   3.423   3.440 -0.8864  0.1852  0.3872
 5555TIP3   OH216670   5.487   4.404   2.972 -0.4686  0.3110  0.1365
 5555TIP3    H116671   5.510   4.350   3.047 -1.5291 -2.1708 -1.2085
 5555TIP3    H216672   5.440   4.478   3.010  1.8333  0.8823  2.1153
 5556TIP3   OH216673   2.063   2.495   1.612  0.5363  0.0488  0.3976
 5556TIP3    H116674   1.987   2.484   1.669  0.3314  0.1258  0.1410
 5556TIP3    H216675   2.075   2.408   1.573  0.3366  0.1374  0.1366
 5557TIP3   OH216676   4.065   3.072   3.957  0.2053 -0.0527  0.3794
 5557TIP3    H116677   4.000   3.017   3.999  0.6863 -0.4162  0.6459
 5557TIP3    H216678   4.148   3.026   3.968  0.8099  1.2335  1.5899
 5558TIP3   OH216679   4.664   0.463   4.606  0.1967  0.1081 -0.1669
 5558TIP3    H116680   4.622   0.383   4.638 -0.1401  0.0460 -0.7564
 5558TIP3    H216681   4.654   0.526   4.677  0.4631 -0.3725  0.3028
 5559TIP3   OH216682   3.700   5.624   0.968  0.3010  0.1436 -0.7828
 5559TIP3    H116683   3.789   5.617   0.934  0.6977 -2.1001  0.4674
 5559TIP3    H216684   3.687   5.542   1.017 -1.1607  1.9465  2.0953
 5560TIP3   OH216685   4.001   3.671   2.917  1.3360  0.2224 -0.0876
 5560TIP3    H116686   3.993   3.763   2.891 -1.5405 -0.2134 -1.1425
 5560TIP3    H216687   4.066   3.671   2.987  1.3071  3.0771  0.0549
 5561TIP3   OH216688   2.422   2.933   1.002  0.3727 -0.5660  0.2819
 5561TIP3    H116689   2.351   2.992   0.978  0.1862 -0.9963 -0.2405
 5561TIP3    H216690   2.433   2.946   1.096  0.7850  0.7915  0.0648
 5562TIP3   OH216691   2.728   5.730   4.243  0.5474 -0.2390  0.2648
 5562TIP3    H116692   2.659   5.723   4.309  0.7565 -0.4067  0.4662
 5562TIP3    H216693   2.762   5.819   4.254  0.8127 -0.3785  0.6180
 5563TIP3   OH216694   3.332   0.221   3.550 -0.1669  0.9760  0.2847
 5563TIP3    H116695   3.403   0.275   3.513  0.4633 -0.5344 -0.8190
 5563TIP3    H216696   3.365   0.194   3.635  1.5070 -1.2432 -0.9478
 5564TIP3   OH216697   3.796   4.555   0.637 -0.4277  0.0868 -0.2700
 5564TIP3    H116698   3.823   4.646   0.650 -1.7566  0.1243  3.4295
 5564TIP3    H216699   3.837   4.507   0.709 -1.5962 -1.8197 -0.7880
 5565TIP3   OH216700   1.985   1.702   1.447 -0.3698 -0.5655 -0.7689
 5565TIP3    H116701   2.039   1.757   1.504  1.3891 -3.2876  0.4226
 5565TIP3    H216702   1.950   1.762   1.381  2.6208  1.7085 -0.5094
 5566TIP3   OH216703   0.488   2.645   3.920  0.5876 -0.0482 -0.3627
 5566TIP3    H116704   0.469   2.656   4.013 -1.8180 -1.6221 -0.5797
 5566TIP3    H216705   0.523   2.730   3.893 -0.7601  1.1986  1.5208
 5567TIP3   OH216706   2.795   0.017   0.176  0.3630 -0.2954 -0.5898
 5567TIP3    H116707   2.812   0.036   0.269  0.6162 -1.8068 -0.3045
 5567TIP3    H216708   2.866   0.062   0.130  0.5828 -0.0212 -0.0046
 5568TIP3   OH216709   5.087   0.190   2.311  0.3278 -0.0140 -0.0072
 5568TIP3    H116710   5.149   0.174   2.383 -0.6606  0.5798  1.0174
 5568TIP3    H216711   5.142   0.202   2.234  1.3735 -2.1935  0.3195
 5569TIP3   OH216712   4.224   3.277   0.005 -0.3133 -0.2259 -0.3701
 5569TIP3    H116713   4.133   3.269  -0.023 -0.5539 -0.9860  0.5474
 5569TIP3    H216714   4.239   3.200   0.061 -0.1363  1.5351  2.2027
 5570TIP3   OH216715   2.076   0.962   4.034  0.1748  0.1312 -0.2646
 5570TIP3    H116716   2.022   1.032   3.996  0.0264  0.7088  0.9380
 5570TIP3    H216717   2.145   0.948   3.970  2.2441  3.8318  0.8242
 5571TIP3   OH216718   0.610   5.104   0.585 -0.3534 -0.2951 -0.3581
 5571TIP3    H116719   0.530   5.105   0.533 -1.0570 -0.0684  0.6898
 5571TIP3    H216720   0.603   5.181   0.641 -0.1180 -1.0648  0.7756
 5572TIP3   OH216721   0.122   0.951   2.988  0.2422 -0.4946 -0.0017
 5572TIP3    H116722   0.134   0.942   2.893  0.1632  1.4013 -0.2171
 5572TIP3    H216723   0.151   1.040   3.008 -2.1461  0.0680  1.3477
 5573TIP3   OH216724   3.299   3.932   1.098  0.3101  0.6933  0.0466
 5573TIP3    H116725   3.352   3.886   1.033  0.6968  0.7385  0.3270
 5573TIP3    H216726   3.218   3.953   1.052  0.3824  0.2868 -0.2709
 5574TIP3   OH216727   1.725   1.019   0.324 -0.1825 -0.2240  0.6426
 5574TIP3    H116728   1.810   1.017   0.367  0.1135  0.9705  0.1532
 5574TIP3    H216729   1.712   0.930   0.291  0.0698 -0.8810  2.2249
 5575TIP3   OH216730   5.666   0.869   1.956  0.3892 -0.0846  0.1299
 5575TIP3    H116731   5.603   0.819   1.905  0.3413 -0.9358  0.9977
 5575TIP3    H216732   5.751   0.835   1.931  0.5364  1.0663 -1.0427
 5576TIP3   OH216733   1.892   0.257   3.244  0.3686 -0.0098 -0.2960
 5576TIP3    H116734   1.887   0.328   3.181  0.5202  0.4238  0.1713
 5576TIP3    H216735   1.934   0.185   3.197 -1.8841 -0.6348 -1.5075
 5577TIP3   OH216736   2.132   0.250   4.350 -0.0410  0.2443  0.7638
 5577TIP3    H116737   2.085   0.169   4.329 -0.3394  0.7366 -0.5336
 5577TIP3    H216738   2.071   0.299   4.406 -0.8403  0.5965 -0.3846
 5578TIP3   OH216739   3.081   4.837   1.703  0.4322  0.0151 -0.3811
 5578TIP3    H116740   3.098   4.745   1.727  2.1188  0.3805 -0.0388
 5578TIP3    H216741   3.151   4.886   1.747 -0.8502  1.5554  0.0087
 5579TIP3   OH216742   5.822   5.301   2.240  0.2411  0.8188  0.2607
 5579TIP3    H116743   5.847   5.330   2.152 -0.3387  2.1118  0.4954
 5579TIP3    H216744   5.837   5.207   2.240  1.1141  0.9397 -0.9304
 5580TIP3   OH216745   3.696   3.413   5.198  0.3340 -0.3956  0.1708
 5580TIP3    H116746   3.672   3.503   5.176  1.6850 -0.0947 -0.1920
 5580TIP3    H216747   3.629   3.359   5.157  0.0398  0.3985 -0.4280
 5581TIP3   OH216748   5.118   4.456   1.807  0.4218  0.4668  0.7334
 5581TIP3    H116749   5.162   4.380   1.770  1.7664  0.9801  1.2240
 5581TIP3    H216750   5.038   4.465   1.755 -0.0433 -1.5805  1.0014
 5582TIP3   OH216751   5.350   5.284   1.541 -0.2669  0.1595 -0.3168
 5582TIP3    H116752   5.361   5.189   1.536  1.5524  0.3415 -0.5389
 5582TIP3    H216753   5.433   5.315   1.577  0.0685  1.8510 -2.4256
 5583TIP3   OH216754   5.593   5.068   1.656 -0.5743 -0.5093 -0.4680
 5583TIP3    H116755   5.614   5.033   1.569 -0.7670 -0.6590 -0.4565
 5583TIP3    H216756   5.558   4.992   1.704  1.7187 -1.0205  0.5090
 5584TIP3   OH216757   5.149   0.657   1.389 -0.1756 -0.5152  0.0732
 5584TIP3    H116758   5.091   0.724   1.354  1.1583  0.2936 -0.6825
 5584TIP3    H216759   5.091   0.590   1.423 -1.5417  0.5794 -0.0267
 5585TIP3   OH216760   3.538   4.380   4.381 -0.0560 -0.4634  0.7695
 5585TIP3    H116761   3.559   4.406   4.291  0.0280  0.1685  0.9684
 5585TIP3    H216762   3.474   4.445   4.410 -0.1773 -0.7418  1.1290
 5586TIP3   OH216763   3.337   5.038   3.945  0.2360 -0.0289  0.2774
 5586TIP3    H116764   3.348   5.087   3.863  0.9894 -0.7764 -0.0829
 5586TIP3    H216765   3.249   5.001   3.940  0.5866 -0.7712 -0.5921
 5587TIP3   OH216766   1.192   0.637   1.918 -0.3811 -0.3666 -0.4244
 5587TIP3    H116767   1.263   0.600   1.865  0.1231  1.3403 -1.0184
 5587TIP3    H216768   1.226   0.721   1.949 -1.4438 -0.3891  0.9046
 5588TIP3   OH216769   0.918   0.385   5.142  0.1211 -0.2523  0.4806
 5588TIP3    H116770   0.955   0.298   5.148  0.9182  0.1685  2.0108
 5588TIP3    H216771   0.964   0.436   5.208  0.1850  1.5300 -0.8545
 5589TIP3   OH216772   2.494   5.333   3.492 -0.5123  0.2924  0.5905
 5589TIP3    H116773   2.418   5.333   3.434  0.3854  0.2831 -0.6227
 5589TIP3    H216774   2.546   5.408   3.463  0.8017 -0.7359  0.1957
 5590TIP3   OH216775   4.791   0.223   2.842 -0.0949  0.0767  0.0408
 5590TIP3    H116776   4.860   0.158   2.830 -0.8809 -1.5646  3.1115
 5590TIP3    H216777   4.810   0.263   2.927 -1.1439  1.9295 -0.5406
 5591TIP3   OH216778   0.192   0.393   4.812  0.3431  0.0186 -0.3736
 5591TIP3    H116779   0.281   0.407   4.844 -0.0628  2.0703  0.0429
 5591TIP3    H216780   0.195   0.425   4.721  0.4032 -1.5097 -0.9386
 5592TIP3   OH216781   4.499   5.691   2.482 -0.1943 -1.0008 -0.0456
 5592TIP3    H116782   4.471   5.721   2.396 -1.0828  0.2644  0.6610
 5592TIP3    H216783   4.432   5.723   2.542  2.6866  2.2575  1.7649
 5593TIP3   OH216784   5.208   0.565   1.801  0.0113  0.2973  0.0085
 5593TIP3    H116785   5.123   0.589   1.763  0.2973 -0.5823 -1.2591
 5593TIP3    H216786   5.217   0.472   1.783  1.0982  0.2998  0.4404
 5594TIP3   OH216787   6.058   3.806   4.485  0.3490  0.0226 -0.6481
 5594TIP3    H116788   6.149   3.828   4.502  0.5624  0.2922 -1.9933
 5594TIP3    H216789   6.056   3.780   4.393 -0.6090 -1.8073 -0.1639
 5595TIP3   OH216790   4.228   1.859   3.082  0.2330  0.6567  0.0364
 5595TIP3    H116791   4.266   1.813   3.158 -1.4444  0.6089  0.8981
 5595TIP3    H216792   4.165   1.920   3.121 -3.0285 -1.5333 -1.3155
 5596TIP3   OH216793   2.088   3.179   2.144  0.1127  0.0339 -0.1126
 5596TIP3    H116794   2.086   3.274   2.154 -2.7067 -0.0780  1.6659
 5596TIP3    H216795   2.146   3.163   2.070  0.9131  3.0999 -0.2506
 5597TIP3   OH216796   4.197   4.836   0.762  0.5326 -0.0967 -0.3055
 5597TIP3    H116797   4.259   4.907   0.781 -0.5264  0.7036  0.3502
 5597TIP3    H216798   4.228   4.762   0.813 -0.4110  1.0494  2.0875
 5598TIP3   OH216799   3.912   5.757  -0.007  0.7218  0.5100 -0.7035
 5598TIP3    H116800   3.819   5.739  -0.022  0.4843  1.4701 -0.4392
 5598TIP3    H216801   3.912   5.829   0.057  1.6540 -0.0915 -0.0033
 5599TIP3   OH216802   0.829   1.365   2.613 -0.2956  0.3791 -0.5215
 5599TIP3    H116803   0.760   1.335   2.555 -0.6880  1.5454 -0.6894
 5599TIP3    H216804   0.818   1.312   2.692 -1.0031  0.1311 -0.7741
 5600TIP3   OH216805   0.731   1.171   1.464  0.1371  0.0589 -0.6958
 5600TIP3    H116806   0.813   1.220   1.461  0.2671 -0.1122  0.0053
 5600TIP3    H216807   0.663   1.238   1.453  0.3577  0.2329 -1.0062
 5601TIP3   OH216808   1.250   0.899   1.276  0.0317 -0.2907  0.2958
 5601TIP3    H116809   1.256   0.914   1.370 -0.1793  2.9974 -0.0967
 5601TIP3    H216810   1.320   0.952   1.238  0.7212 -2.2804 -1.4244
 5602TIP3   OH216811   3.649   1.010   1.781  0.8258  0.4328 -0.1330
 5602TIP3    H116812   3.598   0.930   1.794  2.4401 -0.2611  3.1500
 5602TIP3    H216813   3.726   0.982   1.731 -0.4802  0.8791 -2.5249
 5603TIP3   OH216814   1.706   5.020   0.088 -0.2191  0.0406 -0.9825
 5603TIP3    H116815   1.666   5.100   0.122 -1.3242 -0.6570 -0.5921
 5603TIP3    H216816   1.794   5.019   0.126 -1.3026 -0.5700  1.7428
 5604TIP3   OH216817   1.292   5.828   3.547 -0.4107 -0.2001  0.2221
 5604TIP3    H116818   1.304   5.792   3.635 -0.5789  0.1724  0.4006
 5604TIP3    H216819   1.200   5.854   3.544 -0.5050 -0.5912 -0.2094
 5605TIP3   OH216820   1.147   5.855   1.935  0.9724 -0.4540  0.7653
 5605TIP3    H116821   1.157   5.844   1.840 -0.4394  0.5288  0.4729
 5605TIP3    H216822   1.218   5.914   1.960 -0.3243  1.6147 -0.2126
 5606TIP3   OH216823   3.048   1.396   1.261 -0.1940  0.1640 -0.3564
 5606TIP3    H116824   2.985   1.354   1.203 -0.8960  0.5640  0.1025
 5606TIP3    H216825   3.132   1.354   1.240 -0.7423 -0.9293 -0.4271
 5607TIP3   OH216826   1.761   3.453   1.061 -0.2647 -0.4315  0.3560
 5607TIP3    H116827   1.750   3.547   1.077 -1.7401 -0.5554  0.2535
 5607TIP3    H216828   1.756   3.445   0.966  1.8766 -0.4204  0.2024
 5608TIP3   OH216829   4.550   4.002   0.583 -0.0691 -0.0773  0.6171
 5608TIP3    H116830   4.558   3.995   0.678  0.0236  0.0133  0.6169
 5608TIP3    H216831   4.621   3.947   0.548  0.8987  1.1054  0.6195
 5609TIP3   OH216832   4.127   2.582   3.024 -0.5215  0.0934  0.7270
 5609TIP3    H116833   4.219   2.604   3.040 -0.3231  0.2321 -0.4926
 5609TIP3    H216834   4.100   2.535   3.103  0.5631  0.1370  1.1512
 5610TIP3   OH216835   0.132   1.371   1.405 -0.1931 -0.5075 -0.3182
 5610TIP3    H116836   0.133   1.466   1.421  2.9088  0.0035 -2.5658
 5610TIP3    H216837   0.134   1.363   1.310 -2.9599 -2.9778 -0.3104
 5611TIP3   OH216838   2.328   0.769   4.629  0.0851  0.6537 -0.3407
 5611TIP3    H116839   2.309   0.790   4.720  0.9091  0.3908 -0.1004
 5611TIP3    H216840   2.242   0.751   4.590 -0.0788 -2.0189  1.0684
 5612TIP3   OH216841   3.510   4.550   0.585 -0.7336  0.2105  0.0506
 5612TIP3    H116842   3.506   4.468   0.536 -0.9247  0.2563 -0.0106
 5612TIP3    H216843   3.601   4.557   0.613 -0.3357  0.7628 -1.3047
 5613TIP3   OH216844   2.839   1.924   3.165  0.4104  0.0082  0.0937
 5613TIP3    H116845   2.746   1.946   3.158  0.2332  0.0893  2.1272
 5613TIP3    H216846   2.869   1.917   3.074 -1.0624  2.0898 -0.6212
 5614TIP3   OH216847   0.056   3.462   0.596 -0.0666  0.4405  0.6716
 5614TIP3    H116848   0.116   3.484   0.667  1.0640 -0.0204 -0.1051
 5614TIP3    H216849   0.092   3.382   0.559  0.7263  1.8732 -1.8785
 5615TIP3   OH216850   2.034   4.591   2.351  0.1472 -0.1736  0.0732
 5615TIP3    H116851   2.000   4.617   2.265  1.0735 -1.3541 -0.6777
 5615TIP3    H216852   2.046   4.674   2.398 -4.7532  0.3460  0.8737
 5616TIP3   OH216853   5.561   0.349   2.652  0.6914 -0.0862 -0.1935
 5616TIP3    H116854   5.653   0.367   2.631  0.1062 -0.0977 -3.1844
 5616TIP3    H216855   5.515   0.430   2.629 -0.3663 -1.0068 -1.4790
 5617TIP3   OH216856   3.545   2.976   0.990 -0.5234 -0.2548 -0.2505
 5617TIP3    H116857   3.480   2.909   1.013 -1.7252  0.9495  0.0574
 5617TIP3    H216858   3.564   2.960   0.898 -1.1096 -0.7675 -0.2914
 5618TIP3   OH216859   5.384   4.408   4.992 -1.1459 -0.2097 -0.1473
 5618TIP3    H116860   5.299   4.364   4.998 -1.2064  0.0328  0.9490
 5618TIP3    H216861   5.425   4.393   5.077 -1.1270  1.7581  0.2390
 5619TIP3   OH216862   1.028   0.895   1.057  0.6288  0.1015 -0.1740
 5619TIP3    H116863   1.056   0.816   1.103  0.0439  0.4195  0.7547
 5619TIP3    H216864   1.106   0.951   1.056  1.7968 -1.3731 -2.9568
 5620TIP3   OH216865   2.427   1.828   4.493  0.1689  0.5029  0.0087
 5620TIP3    H116866   2.483   1.832   4.571 -1.1801  1.3824  0.9541
 5620TIP3    H216867   2.474   1.880   4.428  0.3854  1.3845  0.8452
 5621TIP3   OH216868   3.750   2.765   3.104  0.0600  0.0230  0.1716
 5621TIP3    H116869   3.778   2.718   3.025  0.5534  2.2645 -1.0575
 5621TIP3    H216870   3.824   2.822   3.125 -0.7960  0.7832  1.1990
 5622TIP3   OH216871   4.820   0.505   3.425 -0.1127  0.5222  0.0616
 5622TIP3    H116872   4.768   0.559   3.485 -0.9649  3.4046 -2.9877
 5622TIP3    H216873   4.761   0.435   3.397  0.0626 -0.4156  1.8721
 5623TIP3   OH216874   5.758   4.287   1.833 -0.2180 -0.3090  0.0888
 5623TIP3    H116875   5.698   4.223   1.795  0.3366 -0.6986 -0.1463
 5623TIP3    H216876   5.767   4.260   1.925 -0.4151 -0.2387  0.1290
 5624TIP3   OH216877   1.979   1.555   3.572  0.3152 -0.0877  0.5178
 5624TIP3    H116878   1.889   1.585   3.583 -0.1750 -2.0235  2.4161
 5624TIP3    H216879   1.991   1.549   3.477 -1.3906  0.6358  0.2240
 5625TIP3   OH216880   1.215   3.601   2.864  0.2023 -0.8786  0.1330
 5625TIP3    H116881   1.160   3.659   2.810 -0.2723 -1.9596 -0.5806
 5625TIP3    H216882   1.157   3.529   2.888  0.6063 -0.7708  1.5383
 5626TIP3   OH216883   5.031   1.792   2.045  0.2432  0.0785  0.4742
 5626TIP3    H116884   4.987   1.738   1.979 -0.4629 -0.7852  1.6041
 5626TIP3    H216885   4.976   1.783   2.123 -0.0221  2.6172  0.6801
 5627TIP3   OH216886   4.583   1.291   2.934 -0.4343  0.0672  0.1765
 5627TIP3    H116887   4.649   1.313   2.998 -0.0653  2.5819 -0.9677
 5627TIP3    H216888   4.598   1.351   2.861 -1.4993 -1.9233 -1.8358
 5628TIP3   OH216889   3.794   1.186   1.581 -0.2202 -0.2376  0.2486
 5628TIP3    H116890   3.700   1.194   1.596 -0.4509  1.2834 -1.6532
 5628TIP3    H216891   3.821   1.271   1.546  1.9832 -0.4646  1.1765
 5629TIP3   OH216892   1.590   0.260   3.383 -0.4965 -0.3032  0.3662
 5629TIP3    H116893   1.675   0.297   3.408 -0.1622 -0.3083 -0.6972
 5629TIP3    H216894   1.529   0.290   3.451 -0.0521  1.4237  0.0371
 5630TIP3   OH216895   2.710   1.244   2.774 -0.2515  0.2458 -0.1610
 5630TIP3    H116896   2.792   1.225   2.730  0.1873 -0.2508  0.8184
 5630TIP3    H216897   2.725   1.326   2.820 -0.0307 -0.2233  0.6277
 5631TIP3   OH216898   4.558   0.109   4.256 -0.2309 -0.3484  0.2198
 5631TIP3    H116899   4.579   0.197   4.226  1.3300 -0.1997  1.6063
 5631TIP3    H216900   4.640   0.076   4.293 -1.5753 -1.0999  2.7648
 5632TIP3   OH216901   5.331   4.147   0.242 -0.0976 -0.4554  0.2996
 5632TIP3    H116902   5.359   4.055   0.240  1.5683  0.0062  1.3745
 5632TIP3    H216903   5.274   4.153   0.318 -1.0633 -0.7945 -0.3676
 5633TIP3   OH216904   5.317   0.199  -0.018 -0.1830 -0.0035 -0.1631
 5633TIP3    H116905   5.235   0.159  -0.047  0.1842 -1.2584  0.4219
 5633TIP3    H216906   5.315   0.190   0.078  0.5235  0.1726 -0.1242
 5634TIP3   OH216907   0.874   3.628   3.401  0.4823 -0.1374 -0.4490
 5634TIP3    H116908   0.878   3.646   3.307 -1.3927 -1.0882 -0.7538
 5634TIP3    H216909   0.945   3.680   3.438 -0.5988  2.6388 -2.0131
 5635TIP3   OH216910   0.116   3.836   3.523  0.5056  0.4898  0.2990
 5635TIP3    H116911   0.062   3.778   3.470 -0.2671  0.0348  1.5538
 5635TIP3    H216912   0.176   3.778   3.569  0.4083  0.7775  0.7927
 5636TIP3   OH216913   1.992   4.362   2.564  0.3092 -0.0562  0.2619
 5636TIP3    H116914   1.966   4.433   2.623  2.8094 -0.2625  1.7889
 5636TIP3    H216915   2.020   4.406   2.484  1.1149  0.6490  0.9161
 5637TIP3   OH216916   3.226   0.520   3.881  0.3731  0.2719 -0.3666
 5637TIP3    H116917   3.226   0.477   3.967  0.1922  0.9188 -0.0409
 5637TIP3    H216918   3.182   0.458   3.823 -0.3494  0.2353  0.2111
 5638TIP3   OH216919   5.378   4.470   2.744  0.2581  0.0345  0.0301
 5638TIP3    H116920   5.396   4.559   2.775 -0.0085  0.2386 -0.3866
 5638TIP3    H216921   5.372   4.418   2.824 -2.7764  0.9664  0.5721
 5639TIP3   OH216922   2.878   1.770   4.524 -0.1803  0.0174  0.1358
 5639TIP3    H116923   2.856   1.734   4.610 -2.3226 -2.2991 -1.2527
 5639TIP3    H216924   2.828   1.852   4.519  0.9099  0.8151  1.4707
 5640TIP3   OH216925   5.019   0.770   4.599 -0.5529 -0.3964 -0.5400
 5640TIP3    H116926   4.990   0.705   4.664 -0.1596 -0.4637 -0.4279
 5640TIP3    H216927   4.979   0.741   4.517  0.1887 -1.1968 -0.6374
 5641TIP3   OH216928   6.131   4.144   4.846 -0.1016  0.0669  0.2489
 5641TIP3    H116929   6.184   4.140   4.766 -0.1812  1.7466  0.0884
 5641TIP3    H216930   6.088   4.058   4.850  1.6743 -0.9041 -0.2496
 5642TIP3   OH216931   6.118   1.217   1.991  0.0914 -0.1263 -0.4010
 5642TIP3    H116932   6.167   1.200   2.071 -0.4604 -1.5254 -0.3394
 5642TIP3    H216933   6.104   1.131   1.952 -0.8285  0.4060 -1.2994
 5643TIP3   OH216934  -0.014   3.378   4.664  0.4036  0.1633 -0.1186
 5643TIP3    H116935   0.040   3.359   4.588  0.6388  0.5832 -0.0583
 5643TIP3    H216936   0.029   3.332   4.736  0.7935  0.6521 -0.0339
 5644TIP3   OH216937   0.786   4.137   0.712  0.3136  0.4001  0.4017
 5644TIP3    H116938   0.830   4.193   0.648  0.4349  1.9398  1.7649
 5644TIP3    H216939   0.772   4.193   0.787  0.6800 -1.4969  1.9665
 5645TIP3   OH216940   3.105   2.524   5.061 -0.1476  0.1537  0.0439
 5645TIP3    H116941   3.186   2.490   5.099  0.8964  0.7717 -1.5303
 5645TIP3    H216942   3.105   2.490   4.972 -2.2890 -0.8528  0.3588
 5646TIP3   OH216943   3.813   4.749   3.614 -0.1830 -0.3326  0.4145
 5646TIP3    H116944   3.857   4.669   3.584 -0.4522 -0.2478 -0.2059
 5646TIP3    H216945   3.763   4.779   3.538  1.3846  1.4575  0.0192
 5647TIP3   OH216946   5.670   3.252   4.269  0.3705 -0.4464  0.0338
 5647TIP3    H116947   5.748   3.257   4.214  0.6244 -1.3484  0.3007
 5647TIP3    H216948   5.683   3.318   4.336  2.6593 -2.9266  2.2681
 5648TIP3   OH216949   0.324   4.088   0.533  0.7584  0.4300 -0.6932
 5648TIP3    H116950   0.269   4.135   0.471  1.0126  1.6474 -0.0280
 5648TIP3    H216951   0.274   4.009   0.554 -1.4749  2.1729  1.0158
 5649TIP3   OH216952   0.401   5.944   4.969  0.0050 -0.2750 -0.2288
 5649TIP3    H116953   0.366   5.889   4.899 -2.6020  0.4651  0.3818
 5649TIP3    H216954   0.373   6.032   4.946 -0.2430  0.0759  1.3547
 5650TIP3   OH216955   5.703   0.183   3.661  0.1716 -0.5351  0.6038
 5650TIP3    H116956   5.777   0.216   3.610  0.1874  1.1017  1.6002
 5650TIP3    H216957   5.739   0.168   3.748  0.2558 -3.7237  0.1155
 5651TIP3   OH216958   1.019   4.445   0.420 -0.1746 -0.3246  0.6883
 5651TIP3    H116959   0.933   4.432   0.379 -0.1490  0.1023  0.4915
 5651TIP3    H216960   1.082   4.428   0.350 -0.1429  0.9187  0.3882
 5652TIP3   OH216961   2.894   1.006   1.034  0.7097 -0.3910  0.3717
 5652TIP3    H116962   2.807   0.965   1.040  0.0901  0.8727  0.4506
 5652TIP3    H216963   2.955   0.936   1.054 -0.1808 -1.7997 -1.4619
 5653TIP3   OH216964   0.236   5.742   3.867 -0.4366 -0.1788  0.5441
 5653TIP3    H116965   0.149   5.718   3.837 -1.0599  3.0271 -0.6809
 5653TIP3    H216966   0.291   5.667   3.845 -2.3966 -1.2029 -1.1892
 5654TIP3   OH216967   4.393   1.549   4.072 -0.0171  0.3771 -0.3358
 5654TIP3    H116968   4.325   1.586   4.129  0.1436 -0.4302  0.4218
 5654TIP3    H216969   4.360   1.461   4.052 -0.5953  1.0287 -2.4356
 5655TIP3   OH216970   1.102   2.080   2.683  0.1949 -0.0382 -0.3080
 5655TIP3    H116971   1.105   1.985   2.673 -0.7879  0.0023 -1.0819
 5655TIP3    H216972   1.053   2.111   2.607 -1.0368  0.9433  0.8437
 5656TIP3   OH216973   2.567   2.054   1.848 -0.9334 -0.1469 -0.2845
 5656TIP3    H116974   2.508   2.116   1.891 -0.4829  0.1241 -0.0472
 5656TIP3    H216975   2.648   2.104   1.835 -0.3553 -0.8641  0.4562
 5657TIP3   OH216976   4.848   2.522   3.883 -0.1433 -0.4859 -0.0367
 5657TIP3    H116977   4.854   2.449   3.944  1.1973  0.4568  1.0163
 5657TIP3    H216978   4.885   2.488   3.801 -2.4133 -1.9135 -0.5636
 5658TIP3   OH216979   1.646   0.417   5.125 -0.3915  0.0798  0.8086
 5658TIP3    H116980   1.564   0.462   5.143 -0.9786 -0.7685  0.3276
 5658TIP3    H216981   1.702   0.483   5.084 -1.1488  0.4302  0.3249
 5659TIP3   OH216982   2.231   4.930   1.812  0.0582 -1.0433  0.2937
 5659TIP3    H116983   2.196   4.961   1.895 -1.0397 -0.6248 -0.2987
 5659TIP3    H216984   2.318   4.970   1.805 -0.9450  1.2282 -0.0270
 5660TIP3   OH216985   6.153   0.671   1.324  0.0232  0.3393 -0.1956
 5660TIP3    H116986   6.115   0.583   1.323  0.3707  0.1780 -1.4977
 5660TIP3    H216987   6.248   0.656   1.320  0.0779  0.7688 -0.5919
 5661TIP3   OH216988   5.017   4.681   2.414 -0.6045  0.3036 -0.3232
 5661TIP3    H116989   5.090   4.705   2.357 -0.4856 -0.9502 -0.7185
 5661TIP3    H216990   5.053   4.684   2.502  0.0163 -0.6018 -0.5391
 5662TIP3   OH216991   0.999   3.743   5.168  0.0244 -0.5846  0.2063
 5662TIP3    H116992   1.060   3.799   5.119 -1.6711 -0.6785 -2.1916
 5662TIP3    H216993   1.048   3.661   5.180  0.7934 -0.2861 -0.6922
 5663TIP3   OH216994   1.981   5.590   3.330  0.6098 -0.2574  0.2100
 5663TIP3    H116995   1.962   5.547   3.414  0.9952 -0.9819 -0.0709
 5663TIP3    H216996   2.005   5.519   3.271  0.7391  0.2921 -0.4130
 5664TIP3   OH216997   0.861   5.755   2.562  0.2070  0.4399 -0.5420
 5664TIP3    H116998   0.935   5.773   2.619 -0.4776 -0.2475  0.6044
 5664TIP3    H216999   0.898   5.752   2.474  1.3156  1.3407 -0.1202
 5665TIP3   OH217000   1.340   0.031   4.086  0.0114  0.4887  0.0235
 5665TIP3    H117001   1.369   0.063   4.000  2.2984  0.5253  0.7419
 5665TIP3    H217002   1.246   0.047   4.087 -0.4807 -1.2061 -3.2227
 5666TIP3   OH217003   0.342   0.958   3.653  0.3439  0.5006 -0.3876
 5666TIP3    H117004   0.280   0.897   3.614  1.9237 -1.1045 -0.5436
 5666TIP3    H217005   0.302   1.044   3.643 -1.4362 -0.3839 -1.2221
 5667TIP3   OH217006   0.866   3.218   4.111 -0.4776  0.1864 -0.2720
 5667TIP3    H117007   0.853   3.155   4.182  0.8655  0.1112 -0.0751
 5667TIP3    H217008   0.838   3.302   4.148  1.6696  0.4403  0.9185
 5668TIP3   OH217009   2.632   1.040   0.794  0.4728  0.5686  0.2283
 5668TIP3    H117010   2.550   0.996   0.815  0.2270  0.0684 -1.5875
 5668TIP3    H217011   2.700   0.975   0.813  0.3785  0.6145  0.7373
 5669TIP3   OH217012   2.901   0.232   3.588 -0.2480 -0.1425  0.0806
 5669TIP3    H117013   2.808   0.234   3.566 -0.0161 -3.5981 -2.0100
 5669TIP3    H217014   2.945   0.254   3.505  0.8158  0.7579  0.8607
 5670TIP3   OH217015   3.612   1.344   1.114 -0.1451  0.0254 -0.4700
 5670TIP3    H117016   3.556   1.347   1.192 -0.1684 -1.5719 -0.3914
 5670TIP3    H217017   3.574   1.275   1.060  1.5509 -0.9064 -0.5492
 5671TIP3   OH217018   3.860   4.927   4.912 -0.4300  0.6010 -0.3800
 5671TIP3    H117019   3.807   4.849   4.895  0.0724  0.3417 -0.7605
 5671TIP3    H217020   3.925   4.928   4.842 -1.7023  2.5125 -1.6445
 5672TIP3   OH217021  -0.004   0.809   2.379  0.2893  0.9796 -0.0752
 5672TIP3    H117022  -0.019   0.860   2.300 -1.6577  0.1828 -0.2853
 5672TIP3    H217023   0.083   0.772   2.368 -0.9374 -1.5026 -3.3404
 5673TIP3   OH217024   6.313   4.470   3.982  0.3871 -0.4126 -0.4135
 5673TIP3    H117025   6.234   4.482   3.928  0.8300  0.4311 -0.9023
 5673TIP3    H217026   6.288   4.500   4.069  0.3858  0.5994 -0.7528
 5674TIP3   OH217027   0.879   1.071   4.422  0.3406  0.2670 -0.0462
 5674TIP3    H117028   0.852   1.163   4.428 -1.0492 -0.1060 -0.1603
 5674TIP3    H217029   0.827   1.035   4.350  0.6022 -0.6984  0.2277
 5675TIP3   OH217030   5.737   4.702   3.468 -0.6381  0.1052 -0.4761
 5675TIP3    H117031   5.758   4.795   3.480  1.7670 -0.4550  0.1830
 5675TIP3    H217032   5.683   4.681   3.544  1.8055  0.1936  1.4116
 5676TIP3   OH217033   0.288   4.331   1.673  0.0706  0.2593 -0.6583
 5676TIP3    H117034   0.314   4.299   1.587  0.9121  0.4585 -0.4840
 5676TIP3    H217035   0.203   4.289   1.689 -0.6195  1.0886 -2.0383
 5677TIP3   OH217036   4.089   4.223   1.423 -0.1192 -0.0389 -0.4443
 5677TIP3    H117037   4.030   4.216   1.347 -1.3662 -1.4016  0.5909
 5677TIP3    H217038   4.079   4.314   1.451  2.3588  1.3411 -3.3485
 5678TIP3   OH217039   1.358   2.025   4.765  0.3765  0.3141  0.1285
 5678TIP3    H117040   1.351   2.034   4.670 -2.4088 -0.0993  0.2068
 5678TIP3    H217041   1.410   2.100   4.793 -1.0438  1.9963 -1.5066
 5679TIP3   OH217042   2.382   0.169   1.443  0.2071 -0.2351  0.4250
 5679TIP3    H117043   2.309   0.190   1.384  0.7411  1.5786  0.3518
 5679TIP3    H217044   2.359   0.211   1.526  0.2339 -1.3861  1.0384
 5680TIP3   OH217045   1.757   2.715   0.012 -0.6124  0.0753  0.2431
 5680TIP3    H117046   1.728   2.762   0.090  0.0087  1.1704 -0.1621
 5680TIP3    H217047   1.682   2.720  -0.048 -1.6318 -1.9959  1.2374
 5681TIP3   OH217048   4.837   3.111   4.075 -0.3899  0.2560 -0.1359
 5681TIP3    H117049   4.915   3.072   4.114 -0.5830  0.1491  0.1438
 5681TIP3    H217050   4.803   3.170   4.142 -1.3485 -0.7481  0.2984
 5682TIP3   OH217051   0.829   4.550   0.949  0.0541 -0.5481  0.6187
 5682TIP3    H117052   0.750   4.496   0.952  0.1247 -0.9467 -2.4232
 5682TIP3    H217053   0.797   4.640   0.959 -0.9078 -0.6538 -1.1762
 5683TIP3   OH217054   2.045   2.548   3.357 -0.3580 -0.3308 -0.2162
 5683TIP3    H117055   2.050   2.535   3.451 -0.7355  0.6801 -0.0441
 5683TIP3    H217056   2.124   2.598   3.335 -0.2187 -0.6491 -0.4554
 5684TIP3   OH217057   3.782   1.344   1.356  0.0782  0.2374 -0.3920
 5684TIP3    H117058   3.699   1.387   1.377  0.3473  0.7900 -0.4398
 5684TIP3    H217059   3.777   1.326   1.263  0.5811  1.5812 -0.7150
 5685TIP3   OH217060   2.485   5.773   3.646  0.0810 -0.4042 -0.0107
 5685TIP3    H117061   2.434   5.717   3.587 -0.0726 -1.4258  1.0340
 5685TIP3    H217062   2.576   5.759   3.621 -0.0786  0.8590 -1.4071
 5686TIP3   OH217063   0.205   5.333   4.882  0.4373  0.0340  0.1354
 5686TIP3    H117064   0.244   5.379   4.808  1.4496 -0.0069  0.6295
 5686TIP3    H217065   0.117   5.371   4.890  0.7139  0.8068 -0.4078
 5687TIP3   OH217066   2.858   3.026   0.060 -0.0899  0.4820 -0.0405
 5687TIP3    H117067   2.853   3.080  -0.019  1.3416 -0.2375 -0.6679
 5687TIP3    H217068   2.821   2.941   0.033 -1.5943  0.8781  0.7063
 5688TIP3   OH217069   1.180   0.302   0.587  0.7644 -0.4100  0.3302
 5688TIP3    H117070   1.241   0.374   0.573  0.1990  0.3897  1.7253
 5688TIP3    H217071   1.172   0.259   0.502  2.3077  0.2162 -0.1561
 5689TIP3   OH217072   0.497   2.492   1.253  0.1301 -0.3112  0.2321
 5689TIP3    H117073   0.519   2.545   1.330  0.2179 -0.7691  0.5248
 5689TIP3    H217074   0.553   2.525   1.183 -0.1836  0.3298  0.2770
 5690TIP3   OH217075   5.183   1.098   0.783 -0.8223 -0.3259 -0.3499
 5690TIP3    H117076   5.219   1.155   0.851  0.4227 -2.1608  0.6104
 5690TIP3    H217077   5.098   1.137   0.761 -1.2521  0.3392  2.2358
 5691TIP3   OH217078   3.958   0.693   3.602 -0.2940 -0.1773 -0.1520
 5691TIP3    H117079   3.884   0.639   3.574  0.8715 -1.9109 -0.0370
 5691TIP3    H217080   3.935   0.722   3.690 -1.4297  0.5218 -0.6408
 5692TIP3   OH217081   1.890   5.531   4.093 -0.0135 -0.5041 -0.0370
 5692TIP3    H117082   1.926   5.549   4.006 -1.3055 -0.4481 -0.5867
 5692TIP3    H217083   1.803   5.572   4.092  0.3022  0.2921  1.6124
 5693TIP3   OH217084   3.009   0.462   0.569  0.6066  0.0909 -0.0964
 5693TIP3    H117085   2.919   0.463   0.538  0.3580  0.9715  0.6315
 5693TIP3    H217086   3.061   0.443   0.490 -0.0694  1.4203 -0.8892
 5694TIP3   OH217087   4.430   3.427   3.640 -0.5543  0.4491 -0.2087
 5694TIP3    H117088   4.418   3.491   3.710  1.4950 -0.5788  1.2193
 5694TIP3    H217089   4.347   3.381   3.634 -0.5995  0.1498  2.0550
 5695TIP3   OH217090   1.490   1.304   2.186 -0.0461 -0.2645 -0.4673
 5695TIP3    H117091   1.414   1.356   2.213  0.0630 -0.5099  0.3287
 5695TIP3    H217092   1.502   1.240   2.256  1.9233  0.8296  0.2765
 5696TIP3   OH217093   0.171   4.500   3.595 -0.2134 -0.2686 -0.0744
 5696TIP3    H117094   0.180   4.457   3.680 -0.5057  1.8326  1.1035
 5696TIP3    H217095   0.080   4.487   3.571 -0.3164 -0.2608  0.3031
 5697TIP3   OH217096   3.608   2.717   2.339 -0.7930 -0.2680  0.0649
 5697TIP3    H117097   3.587   2.799   2.294  2.2856  0.3555 -0.5063
 5697TIP3    H217098   3.621   2.654   2.269 -0.8645 -0.6183  0.3651
 5698TIP3   OH217099   2.726   0.313   4.615  0.0959 -0.2794 -0.1672
 5698TIP3    H117100   2.688   0.385   4.565  0.2108  0.9837  1.4767
 5698TIP3    H217101   2.813   0.343   4.640  1.0974 -1.9691 -1.4064
 5699TIP3   OH217102   2.921   0.808   3.360 -0.0878 -0.0500  0.0566
 5699TIP3    H117103   2.896   0.830   3.449  0.9814 -2.4242  1.0290
 5699TIP3    H217104   3.016   0.819   3.358  0.0091 -0.9303 -0.5023
 5700TIP3   OH217105   2.605   4.568   4.785 -0.5102 -0.4309  0.1385
 5700TIP3    H117106   2.585   4.477   4.807 -3.5105  0.2608  0.6935
 5700TIP3    H217107   2.529   4.599   4.736  1.1897  1.3243 -1.5609
 5701TIP3   OH217108   3.540   5.025   2.551 -0.2182  0.2521  0.2408
 5701TIP3    H117109   3.505   5.113   2.536  2.4056  1.1723 -1.0253
 5701TIP3    H217110   3.578   5.029   2.639  0.0405  0.4176  0.1200
 5702TIP3   OH217111   5.275   0.119   2.851 -0.8357  0.3451  0.2978
 5702TIP3    H117112   5.333   0.152   2.782 -1.1820 -1.8723 -1.1443
 5702TIP3    H217113   5.334   0.087   2.919 -0.4172  0.0813 -0.1841
 5703TIP3   OH217114   6.325   4.820   1.230  0.8404 -0.7635  0.1935
 5703TIP3    H117115   6.364   4.807   1.317  2.1496  0.4009 -0.1837
 5703TIP3    H217116   6.311   4.915   1.224 -0.0269 -0.9276 -0.5501
 5704TIP3   OH217117   1.144   1.440   2.852 -0.1573 -0.0172 -0.0708
 5704TIP3    H117118   1.066   1.384   2.860 -0.7016  0.7767  0.3854
 5704TIP3    H217119   1.153   1.479   2.939  0.2208  0.5892 -0.3827
 5705TIP3   OH217120   3.578   3.021   1.492 -0.3642 -0.4634 -0.2224
 5705TIP3    H117121   3.647   3.013   1.558 -1.8067 -1.1581  1.2607
 5705TIP3    H217122   3.525   3.096   1.521 -0.7252 -0.4536 -0.8836
 5706TIP3   OH217123   6.207   0.958   4.967  0.2226  0.0838  0.6296
 5706TIP3    H117124   6.149   0.949   5.043  0.6893  1.2313  1.1459
 5706TIP3    H217125   6.295   0.945   5.003  0.5075  1.4352  0.4558
 5707TIP3   OH217126   5.811   3.228   3.669  0.5083  0.2401  0.5527
 5707TIP3    H117127   5.725   3.199   3.697  0.2161 -0.6831 -1.1751
 5707TIP3    H217128   5.860   3.148   3.651  0.9223  0.7538 -0.7628
 5708TIP3   OH217129   5.293   2.370   0.145  0.0194  0.3176 -0.6350
 5708TIP3    H117130   5.320   2.289   0.187  0.9579  1.7501  1.7308
 5708TIP3    H217131   5.198   2.364   0.139 -0.0644 -0.3741  0.9090
 5709TIP3   OH217132   2.344   1.222   3.327  0.2213  0.0538  0.1002
 5709TIP3    H117133   2.416   1.232   3.265  0.6708  3.8127  0.9917
 5709TIP3    H217134   2.386   1.218   3.413 -0.5193  0.8176  0.5212
 5710TIP3   OH217135   5.897   2.061   0.130 -0.0619 -0.5065  0.1596
 5710TIP3    H117136   5.927   1.974   0.156 -0.2988 -0.5402  0.3224
 5710TIP3    H217137   5.868   2.102   0.212 -1.4831 -0.8735 -0.1458
 5711TIP3   OH217138   0.834   3.941   4.099 -0.0321  0.0114  0.0397
 5711TIP3    H117139   0.760   3.938   4.038  0.5477  2.5561 -0.9603
 5711TIP3    H217140   0.794   3.945   4.186 -1.1112  1.0411 -0.4676
 5712TIP3   OH217141   6.161   2.778   3.366 -0.0116 -0.2578  0.2942
 5712TIP3    H117142   6.220   2.844   3.402  0.2731 -0.0491 -0.5363
 5712TIP3    H217143   6.115   2.822   3.294  1.1258 -1.2885 -1.1330
 5713TIP3   OH217144   4.579   1.167   3.921 -0.2156 -0.2417  0.2789
 5713TIP3    H117145   4.672   1.150   3.932 -0.4865 -1.5077  0.8219
 5713TIP3    H217146   4.549   1.191   4.009 -0.0174  2.3953 -0.2940
 5714TIP3   OH217147   4.527   5.892   4.260 -0.4439 -0.0646 -0.0010
 5714TIP3    H117148   4.614   5.876   4.225  0.9280  0.5330  2.9105
 5714TIP3    H217149   4.483   5.944   4.192  1.4937 -0.2148 -1.4392
 5715TIP3   OH217150   4.852   4.249   2.806  0.2634  0.6916  0.1751
 5715TIP3    H117151   4.837   4.266   2.899  0.8184  1.0673  0.1998
 5715TIP3    H217152   4.924   4.186   2.804  2.7951  3.3888 -0.0348
 5716TIP3   OH217153   3.775   4.861   0.887  0.0957  0.4430 -0.0767
 5716TIP3    H117154   3.822   4.859   0.804 -2.1700  0.4644 -1.4456
 5716TIP3    H217155   3.767   4.955   0.907  1.5483  0.4238  0.7868
 5717TIP3   OH217156   3.672   1.684   2.288  0.3540 -0.4506  0.4857
 5717TIP3    H117157   3.753   1.638   2.266  0.1628 -0.7105  0.3184
 5717TIP3    H217158   3.634   1.708   2.204 -0.8049 -2.1909  0.4598
 5718TIP3   OH217159   4.687   0.307   1.890  0.0548  0.3763 -0.4562
 5718TIP3    H117160   4.642   0.227   1.918 -0.2548  0.5185 -0.5458
 5718TIP3    H217161   4.751   0.278   1.826 -0.4685  0.2686 -0.9423
 5719TIP3   OH217162   3.140   4.648   3.910  0.3927 -0.7392 -0.5023
 5719TIP3    H117163   3.054   4.612   3.887  0.3558 -0.2248 -1.1818
 5719TIP3    H217164   3.194   4.631   3.833  0.3484  0.7557 -0.8887
 5720TIP3   OH217165   2.291   5.851   1.047  0.2785  0.1069 -0.4849
 5720TIP3    H117166   2.357   5.895   1.100 -0.0561 -1.9140  1.7625
 5720TIP3    H217167   2.335   5.837   0.963  1.6887  1.2764  0.0051
 5721TIP3   OH217168   1.323   4.977   2.347  0.3750 -0.3575 -0.0902
 5721TIP3    H117169   1.382   5.050   2.363  0.1789 -0.6556  2.4927
 5721TIP3    H217170   1.381   4.902   2.330  0.8827 -0.6777  2.5459
 5722TIP3   OH217171   1.102   5.866   0.203  0.2389 -0.6260 -0.2237
 5722TIP3    H117172   1.133   5.952   0.176 -0.8860 -0.3562 -0.7270
 5722TIP3    H217173   1.126   5.860   0.296  1.2707 -0.2221 -0.4478
 5723TIP3   OH217174   0.285   1.441   0.917  0.1294 -0.0800 -0.1588
 5723TIP3    H117175   0.320   1.524   0.950 -0.5324 -0.2139  0.9377
 5723TIP3    H217176   0.215   1.465   0.857  1.9427  0.1923 -2.2794
 5724TIP3   OH217177   4.673   4.689   1.143  0.3762  0.1250  0.2950
 5724TIP3    H117178   4.600   4.744   1.171  1.5580  2.5435 -1.0178
 5724TIP3    H217179   4.748   4.722   1.191  1.1626 -0.2101 -0.6597
 5725TIP3   OH217180   3.503   4.311   0.449 -0.3529 -0.1160 -0.0979
 5725TIP3    H117181   3.487   4.224   0.485 -0.9471 -0.8344 -1.9753
 5725TIP3    H217182   3.596   4.311   0.427 -0.5207 -0.5806 -0.8276
 5726TIP3   OH217183   5.484   0.290   0.772 -0.0537 -0.1192  0.5495
 5726TIP3    H117184   5.447   0.375   0.796  0.2503  0.2070 -0.1072
 5726TIP3    H217185   5.572   0.290   0.811  0.2132  0.1651 -0.0372
 5727TIP3   OH217186   1.373   2.724   4.614  0.7191  0.2804 -1.0654
 5727TIP3    H117187   1.392   2.648   4.560  0.9876 -1.0371  0.7640
 5727TIP3    H217188   1.419   2.706   4.697 -3.0705  0.0645  1.2124
 5728TIP3   OH217189   4.891   1.067   5.151 -0.4536  0.9742 -0.0049
 5728TIP3    H117190   4.818   1.012   5.180  0.4222  1.1887  2.9010
 5728TIP3    H217191   4.851   1.151   5.130 -1.0879  1.1607  1.7600
 5729TIP3   OH217192   3.035   2.836   0.767  0.2597  0.5230  0.1629
 5729TIP3    H117193   3.042   2.917   0.717  0.6613  0.2940 -0.1582
 5729TIP3    H217194   3.093   2.775   0.721 -0.7613 -0.2304 -0.1655
 5730TIP3   OH217195   5.889   1.189   4.109 -0.1292  0.1452  0.4494
 5730TIP3    H117196   5.956   1.189   4.042 -1.2766  0.1925 -0.7390
 5730TIP3    H217197   5.928   1.237   4.182 -0.5421  4.7736 -1.9763
 5731TIP3   OH217198   1.537   4.271   3.925  0.3208 -0.1170 -0.5371
 5731TIP3    H117199   1.555   4.196   3.981 -0.8705 -1.1271 -1.4321
 5731TIP3    H217200   1.545   4.347   3.983  2.1330 -0.8571  0.2543
 5732TIP3   OH217201   2.219   2.695   4.112  0.2361  0.4421 -0.0122
 5732TIP3    H117202   2.163   2.720   4.185  0.3237  1.9550 -0.4303
 5732TIP3    H217203   2.159   2.683   4.039  0.2869  0.3134 -0.0330
 5733TIP3   OH217204   4.498   2.455   2.696 -0.4134 -0.0506  0.2769
 5733TIP3    H117205   4.405   2.451   2.675 -0.0075  0.7951 -2.0066
 5733TIP3    H217206   4.538   2.499   2.621  1.7473  0.2472  1.5043
 5734TIP3   OH217207   5.934   4.548   4.416 -0.1066  0.0194  0.0114
 5734TIP3    H117208   5.877   4.621   4.442  0.6226  0.4450  0.4527
 5734TIP3    H217209   5.956   4.566   4.325 -0.4800 -0.0154 -0.0868
 5735TIP3   OH217210   3.745   4.446   4.573  0.0273 -0.4226  0.0489
 5735TIP3    H117211   3.688   4.426   4.647 -0.8053 -1.9183 -0.9459
 5735TIP3    H217212   3.688   4.444   4.497  1.4311 -2.4995 -1.0596
 5736TIP3   OH217213   3.587   4.203   2.475 -0.1222  0.0087  0.3028
 5736TIP3    H117214   3.606   4.279   2.530  1.4458 -1.5903  2.1253
 5736TIP3    H217215   3.495   4.183   2.493 -0.1367  0.6069  0.9413
 5737TIP3   OH217216   0.298   3.272   1.579  0.5347 -0.5578  1.1222
 5737TIP3    H117217   0.268   3.291   1.667  0.1109 -1.3442  1.1586
 5737TIP3    H217218   0.273   3.180   1.564  0.5487 -0.4223  0.1719
 5738TIP3   OH217219   0.068   4.389   0.593 -0.4956  0.8422 -0.2179
 5738TIP3    H117220   0.043   4.311   0.643 -0.5937  0.7711 -0.3782
 5738TIP3    H217221  -0.000   4.453   0.613  0.3579  1.3919  1.0838
 5739TIP3   OH217222   5.966   2.796   4.512 -0.3483  0.1155  0.1775
 5739TIP3    H117223   6.011   2.726   4.466 -1.2884  1.7109 -3.4745
 5739TIP3    H217224   6.036   2.856   4.539  0.2265 -0.9558  1.1856
 5740TIP3   OH217225   6.082   4.845   4.325 -0.0659 -0.1825 -0.3398
 5740TIP3    H117226   6.083   4.940   4.337  2.0407 -0.0720 -0.9577
 5740TIP3    H217227   6.067   4.833   4.231 -1.3731 -0.5215 -0.1046
 5741TIP3   OH217228   1.691   4.903   0.639 -0.0618 -0.5618  0.1983
 5741TIP3    H117229   1.613   4.891   0.693  0.3667  1.4871  1.3834
 5741TIP3    H217230   1.672   4.980   0.585  0.8119 -0.5504 -0.1135
 5742TIP3   OH217231   2.693   5.640   2.574  0.1485  0.3786 -0.0012
 5742TIP3    H117232   2.611   5.689   2.570  0.2405  0.4714 -0.7733
 5742TIP3    H217233   2.701   5.600   2.488  0.0195 -1.0903  0.6309
 5743TIP3   OH217234   3.391   4.782   3.313 -0.4096 -0.0848  0.4457
 5743TIP3    H117235   3.461   4.717   3.314  0.8864  1.2075 -0.7792
 5743TIP3    H217236   3.374   4.801   3.405  1.8140  0.5185  0.7882
 5744TIP3   OH217237   1.400   1.810   0.543 -0.5112  0.2189 -0.4141
 5744TIP3    H117238   1.485   1.767   0.550  0.1197  1.2769 -1.3224
 5744TIP3    H217239   1.378   1.835   0.633 -0.3729 -0.9873 -0.0298
 5745TIP3   OH217240   5.728   0.630   3.072  0.2572 -0.0995 -0.2230
 5745TIP3    H117241   5.760   0.717   3.048  0.4372 -0.4520 -1.2991
 5745TIP3    H217242   5.671   0.605   3.000 -1.3546 -0.0833  1.0054
 5746TIP3   OH217243   0.160   0.401   2.715 -0.3220 -0.4323 -0.1281
 5746TIP3    H117244   0.245   0.381   2.755 -0.2069 -1.3384 -0.8007
 5746TIP3    H217245   0.137   0.487   2.750  0.8652 -0.1780  0.0742
 5747TIP3   OH217246   2.240   1.496   2.516  0.7628 -0.6367  0.2798
 5747TIP3    H117247   2.274   1.467   2.432  1.9606 -2.4600  1.3245
 5747TIP3    H217248   2.160   1.444   2.529  1.9994 -2.3479  1.3961
 5748TIP3   OH217249   1.143   1.603   3.070 -0.1516  0.3006  0.2251
 5748TIP3    H117250   1.116   1.693   3.055  2.4377  1.1843  0.4892
 5748TIP3    H217251   1.172   1.601   3.161  1.3253 -0.3598 -0.2299
 5749TIP3   OH217252   5.619   5.698   2.621  0.4663  0.0662  0.0895
 5749TIP3    H117253   5.601   5.792   2.610  2.0643  0.5879  1.6461
 5749TIP3    H217254   5.687   5.679   2.557  0.9663  0.2513  0.5590
 5750TIP3   OH217255   1.442   4.814   0.688  0.1850  0.2251  0.0840
 5750TIP3    H117256   1.390   4.737   0.665  0.3420 -0.5867  2.2033
 5750TIP3    H217257   1.391   4.888   0.655 -0.3195 -0.7180 -1.3730
 5751TIP3   OH217258   2.486   2.812   0.702 -0.1938  0.5763 -0.3159
 5751TIP3    H117259   2.497   2.839   0.611 -1.2126  0.0536 -0.6057
 5751TIP3    H217260   2.567   2.841   0.745 -0.0928  1.6677 -1.1741
 5752TIP3   OH217261   4.734   1.427   1.917  0.1704  0.5872  0.3219
 5752TIP3    H117262   4.681   1.392   1.988 -0.6053  0.7721 -0.1455
 5752TIP3    H217263   4.814   1.374   1.917  0.1937  0.6203  1.3422
 5753TIP3   OH217264   4.271   3.112   0.975  0.1876  0.2422  0.2257
 5753TIP3    H117265   4.244   3.030   0.933 -0.6163 -0.3522  1.8030
 5753TIP3    H217266   4.348   3.088   1.027  1.2339  0.9890 -0.9385
 5754TIP3   OH217267   0.594   0.580   1.392  0.7624 -0.3119 -0.0288
 5754TIP3    H117268   0.635   0.497   1.369 -1.6880 -0.8859 -3.0111
 5754TIP3    H217269   0.516   0.556   1.442  1.5592  0.4624  1.6757
 5755TIP3   OH217270   0.944   2.448   2.361  0.1480  0.1623  0.1010
 5755TIP3    H117271   0.991   2.465   2.279  1.5421  1.0806  1.0417
 5755TIP3    H217272   0.872   2.510   2.361  0.0941  0.1082 -0.4554
 5756TIP3   OH217273   5.185   3.954   0.649  0.2338 -0.2498 -0.4944
 5756TIP3    H117274   5.205   3.914   0.565 -0.8742  1.7638 -1.8216
 5756TIP3    H217275   5.090   3.964   0.649  0.3747  1.5767  0.0704
 5757TIP3   OH217276   1.824   3.391   1.974 -0.2521  0.0781  0.2507
 5757TIP3    H117277   1.740   3.415   2.013 -0.7796  1.3255 -1.5290
 5757TIP3    H217278   1.889   3.417   2.039 -1.2073 -1.4689  1.9375
 5758TIP3   OH217279   4.160   1.035   4.521  0.2879  0.0218  0.0300
 5758TIP3    H117280   4.136   1.020   4.612 -1.7737 -0.2660 -0.5163
 5758TIP3    H217281   4.149   0.951   4.478 -0.4159  0.5241 -0.8142
 5759TIP3   OH217282   4.226   5.491   1.482  0.1881  0.4150 -0.6730
 5759TIP3    H117283   4.212   5.398   1.501  2.5309 -0.5103 -2.9110
 5759TIP3    H217284   4.170   5.537   1.544  0.2303 -2.4383  1.6738
 5760TIP3   OH217285   3.828   5.234   4.011 -0.0476 -0.2570 -0.5626
 5760TIP3    H117286   3.791   5.234   4.099 -2.1182 -0.4261 -1.3971
 5760TIP3    H217287   3.881   5.154   4.007 -1.9014 -1.5624 -0.2271
 5761TIP3   OH217288   1.862   2.278   4.257 -0.6078 -0.4665 -0.2288
 5761TIP3    H117289   1.840   2.358   4.209  0.8291  0.5483  0.7014
 5761TIP3    H217290   1.787   2.220   4.243 -1.4742  0.8442 -1.3401
 5762TIP3   OH217291   4.814   1.534   2.339 -0.3461  0.1099  0.2311
 5762TIP3    H117292   4.778   1.453   2.304 -0.1422  0.3199 -0.4711
 5762TIP3    H217293   4.865   1.572   2.267  0.3299  0.3954  0.8357
 5763TIP3   OH217294   3.085   2.992   3.856  0.1308  0.2829  0.4910
 5763TIP3    H117295   3.171   2.986   3.898  0.7144 -0.0617 -0.6912
 5763TIP3    H217296   3.027   2.941   3.912  0.9644 -0.4845  0.6857
 5764TIP3   OH217297   4.375   5.086   0.747 -0.0843 -0.1425  0.2166
 5764TIP3    H117298   4.372   5.083   0.652  0.4085  0.0478  0.1921
 5764TIP3    H217299   4.343   5.174   0.769 -2.7351 -1.0344  0.3663
 5765TIP3   OH217300   5.015   2.404   0.113  0.4312 -0.0901 -0.2346
 5765TIP3    H117301   4.996   2.493   0.085  1.3695 -0.1030 -0.9663
 5765TIP3    H217302   4.935   2.355   0.093 -0.1062  0.5940  0.2197
 5766TIP3   OH217303   2.366   0.030   2.688  0.1293  0.1303 -0.6654
 5766TIP3    H117304   2.360  -0.016   2.772 -1.4350  0.6006 -0.5008
 5766TIP3    H217305   2.290   0.002   2.639 -0.2026  1.5991 -1.0312
 5767TIP3   OH217306   2.317   0.487   4.853 -0.1226  0.0571  0.5309
 5767TIP3    H117307   2.240   0.466   4.801  0.8472 -1.2089 -0.4494
 5767TIP3    H217308   2.384   0.511   4.789  0.5768  0.2244  1.3095
 5768TIP3   OH217309   4.871   4.518   3.501 -0.3840 -0.1046 -0.0859
 5768TIP3    H117310   4.856   4.599   3.550 -0.0367  0.5467 -1.0217
 5768TIP3    H217311   4.846   4.540   3.411 -2.1663 -1.6088 -0.0341
 5769TIP3   OH217312   3.221   5.253   4.786 -0.6044 -0.3777  0.2909
 5769TIP3    H117313   3.210   5.307   4.707  0.6729 -1.0044 -0.3601
 5769TIP3    H217314   3.193   5.165   4.758 -3.2416 -0.0136  1.5107
 5770TIP3   OH217315   4.670   4.212   1.919 -0.5592 -0.5441 -0.2402
 5770TIP3    H117316   4.738   4.214   1.852  0.2711  1.6419  0.5809
 5770TIP3    H217317   4.707   4.261   1.992 -2.3438 -0.8354  0.9119
 5771TIP3   OH217318   5.108   5.380   4.782 -0.2069 -0.4192  0.1334
 5771TIP3    H117319   5.038   5.414   4.838 -0.8128 -1.3436 -0.0276
 5771TIP3    H217320   5.172   5.451   4.777 -1.8508  1.0696 -0.9996
 5772TIP3   OH217321   6.276   3.940   4.487  0.6004 -0.4412  0.1922
 5772TIP3    H117322   6.302   3.945   4.395  0.5492 -1.9941  0.0623
 5772TIP3    H217323   6.290   4.028   4.521 -0.3286  0.4330 -1.5414
 5773TIP3   OH217324   3.912   4.476   3.933 -0.0285 -0.3815 -0.1417
 5773TIP3    H117325   3.871   4.487   3.848 -0.0817  1.1034  0.0530
 5773TIP3    H217326   3.910   4.381   3.949 -2.7983 -0.4605 -0.4160
 5774TIP3   OH217327   4.344   2.524   1.657 -0.1731  0.9253  0.2834
 5774TIP3    H117328   4.299   2.602   1.690  1.3229  1.7715  0.4222
 5774TIP3    H217329   4.423   2.558   1.615  0.6892 -0.5494  0.6382
 5775TIP3   OH217330   3.841   2.104   0.863  0.3048 -0.9140  0.1584
 5775TIP3    H117331   3.747   2.098   0.849  0.2199 -0.6977  0.6112
 5775TIP3    H217332   3.850   2.149   0.947  0.8353  1.1350 -0.9158
 5776TIP3   OH217333   6.333   3.801   1.738  0.0876  0.0780  0.5487
 5776TIP3    H117334   6.323   3.826   1.830  2.6699 -1.2800  1.2778
 5776TIP3    H217335   6.243   3.782   1.710 -0.7189 -0.2436  3.0297
 5777TIP3   OH217336   0.052   2.615   1.255  0.1136  0.1108 -0.4956
 5777TIP3    H117337   0.078   2.554   1.187 -0.5964  0.4313 -1.0604
 5777TIP3    H217338   0.120   2.607   1.322  1.4445  0.6092 -1.7376
 5778TIP3   OH217339   5.553   2.621   0.313 -0.6807 -0.0617 -0.0081
 5778TIP3    H117340   5.611   2.623   0.389  0.4071  0.2302 -0.8214
 5778TIP3    H217341   5.551   2.529   0.288  0.8326  0.1400 -0.9922
 5779TIP3   OH217342   4.750   2.426   3.062 -0.0376  0.3386  0.6117
 5779TIP3    H117343   4.760   2.484   2.987 -0.7631 -0.2759  0.0236
 5779TIP3    H217344   4.687   2.360   3.033 -0.6989  0.3664  1.9198
 5780TIP3   OH217345   3.352   2.803   2.152 -0.2621  0.3108  0.5307
 5780TIP3    H117346   3.379   2.831   2.064 -0.0456 -0.6770  0.2590
 5780TIP3    H217347   3.328   2.711   2.140 -0.3369  0.1994  1.4950
 5781TIP3   OH217348   1.335   5.695   2.669 -0.4495 -0.2243 -0.2682
 5781TIP3    H117349   1.286   5.773   2.642 -1.1379 -0.3866  0.4945
 5781TIP3    H217350   1.414   5.697   2.615 -0.3311  1.1446 -0.0669
 5782TIP3   OH217351   5.024   4.840   3.512  0.6605  0.5257  0.2576
 5782TIP3    H117352   5.022   4.874   3.602  2.2598  2.1716 -0.2639
 5782TIP3    H217353   4.967   4.899   3.463 -1.5419 -1.3413  0.4169
 5783TIP3   OH217354   3.362   0.150   0.093 -0.1040 -0.0607 -0.2965
 5783TIP3    H117355   3.321   0.229   0.056  2.5239  1.8086  0.4979
 5783TIP3    H217356   3.441   0.182   0.136  2.5551 -3.4045 -2.1417
 5784TIP3   OH217357   5.985   3.905   4.787 -0.2747 -0.4612  0.5388
 5784TIP3    H117358   5.897   3.871   4.770 -0.6142  0.7188 -0.1121
 5784TIP3    H217359   6.043   3.831   4.766 -1.1226 -1.5124  1.7344
 5785TIP3   OH217360   4.069   1.558   4.047 -0.5074 -0.8489 -0.0620
 5785TIP3    H117361   4.071   1.648   4.012  0.5043  0.0124  2.0518
 5785TIP3    H217362   4.128   1.509   3.989  0.2832  0.2643 -0.2278
 5786TIP3   OH217363   0.558   3.489   0.588 -0.2169 -0.2987 -0.2410
 5786TIP3    H117364   0.645   3.493   0.627  0.9220 -1.2874 -2.4614
 5786TIP3    H217365   0.573   3.498   0.494 -2.4867 -0.7425 -0.7243
 5787TIP3   OH217366   2.885   4.284   4.987 -0.2553  0.2621 -0.2634
 5787TIP3    H117367   2.855   4.364   4.945 -0.0505  1.1666  1.2311
 5787TIP3    H217368   2.959   4.312   5.041 -0.1375 -0.9442  0.2291
 5788TIP3   OH217369   2.141   4.551   0.188  0.2091  0.0048 -0.1926
 5788TIP3    H117370   2.059   4.530   0.144 -0.0295  0.5318 -0.0006
 5788TIP3    H217371   2.166   4.469   0.232  0.6947 -0.6647 -1.6706
 5789TIP3   OH217372   0.321   5.378   4.631 -0.2813  0.0311  0.0740
 5789TIP3    H117373   0.396   5.351   4.578 -0.5405 -0.3918 -0.0903
 5789TIP3    H217374   0.277   5.445   4.579 -1.1678 -1.1765 -0.7790
 5790TIP3   OH217375   3.921   0.729   4.620  0.4876 -0.4263  0.0061
 5790TIP3    H117376   3.896   0.722   4.528  0.5078  1.3610 -0.1774
 5790TIP3    H217377   3.840   0.749   4.666  0.2875 -2.3221  0.5742
 5791TIP3   OH217378   4.281   1.319   2.268 -0.3011  0.4312  0.4828
 5791TIP3    H117379   4.199   1.367   2.279  0.4095  2.0915 -0.8702
 5791TIP3    H217380   4.263   1.255   2.199 -1.1592 -1.0557  2.0425
 5792TIP3   OH217381   5.496   5.276   2.005  0.4982 -0.2286  0.9423
 5792TIP3    H117382   5.579   5.243   1.969 -0.0559 -0.7708  0.1204
 5792TIP3    H217383   5.509   5.371   2.011  1.3440 -0.3524  1.2904
 5793TIP3   OH217384   5.064   4.076   2.751  0.7590  0.3158  0.2982
 5793TIP3    H117385   5.103   4.030   2.826 -0.4463 -1.6434 -0.2162
 5793TIP3    H217386   5.117   4.048   2.676 -0.1396 -0.4970 -0.0554
 5794TIP3   OH217387   1.763   0.811   1.124 -0.8009 -0.2473 -0.0006
 5794TIP3    H117388   1.831   0.861   1.079 -0.5310  0.2879  0.9613
 5794TIP3    H217389   1.698   0.791   1.057 -0.1774  0.1043 -0.7145
 5795TIP3   OH217390   1.582   3.400   1.484 -0.0381 -0.4555  0.1432
 5795TIP3    H117391   1.596   3.490   1.514  0.8318 -0.7305  0.5931
 5795TIP3    H217392   1.647   3.349   1.532  0.0118 -1.2098 -0.7102
 5796TIP3   OH217393   3.396   5.269   2.459 -0.3398  0.1705  0.2649
 5796TIP3    H117394   3.358   5.289   2.374 -1.6137 -0.1500  0.7483
 5796TIP3    H217395   3.339   5.202   2.496  1.7738 -1.7945  0.2039
 5797TIP3   OH217396   5.236   1.110   2.179 -0.5912 -0.0703 -0.0368
 5797TIP3    H117397   5.256   1.203   2.177  1.3424 -0.4264  0.4092
 5797TIP3    H217398   5.229   1.085   2.087  0.1118  0.2855 -0.1898
 5798TIP3   OH217399   5.706   4.201   0.923  0.2235  0.0014 -0.3480
 5798TIP3    H117400   5.750   4.208   1.008  0.1719  0.8632 -0.3823
 5798TIP3    H217401   5.684   4.108   0.915 -0.2936  0.0055  0.8485
 5799TIP3   OH217402   3.997   2.509   3.276  0.5483  0.1833 -0.3879
 5799TIP3    H117403   4.045   2.583   3.312  0.3080  0.4793 -0.6654
 5799TIP3    H217404   3.943   2.478   3.349  0.9178  0.0522 -0.1687
 5800TIP3   OH217405   3.113   0.337   3.429 -0.0023 -0.2609  0.4931
 5800TIP3    H117406   3.194   0.317   3.476  0.2578  0.0361  0.1838
 5800TIP3    H217407   3.134   0.321   3.337 -0.0927  0.4216  0.3433
 5801TIP3   OH217408   0.221   0.416   2.398  0.0443 -0.5530  0.4512
 5801TIP3    H117409   0.239   0.502   2.435  1.7983 -1.0614  0.9203
 5801TIP3    H217410   0.132   0.395   2.426  0.7939 -0.3367  3.2748
 5802TIP3   OH217411   1.776   1.467   0.839 -0.2978 -0.1905 -0.0549
 5802TIP3    H117412   1.698   1.470   0.783 -1.5914  1.4413  1.6848
 5802TIP3    H217413   1.827   1.544   0.812  1.5847 -2.0809 -2.2345
 5803TIP3   OH217414   4.686   0.287   1.216  0.3104 -0.4885 -0.1064
 5803TIP3    H117415   4.770   0.242   1.223  0.3668 -0.6998 -1.9058
 5803TIP3    H217416   4.698   0.349   1.144 -0.7360  0.2770  0.3510
 5804TIP3   OH217417   2.062   0.109   2.149 -0.5006  0.5342  0.4629
 5804TIP3    H117418   2.118   0.184   2.130 -0.5502  0.1449 -1.4984
 5804TIP3    H217419   2.069   0.054   2.071 -1.8882 -0.6045  1.0930
 5805TIP3   OH217420   5.391   2.893   0.605 -0.0518  0.2407  0.2661
 5805TIP3    H117421   5.388   2.959   0.675 -1.3450  1.1535 -0.6123
 5805TIP3    H217422   5.470   2.914   0.556 -1.4753  2.5083 -1.2273
 5806TIP3   OH217423   0.278   0.643   4.326 -0.3051  0.0741  0.2538
 5806TIP3    H117424   0.350   0.705   4.311  0.7084 -0.8610  1.0609
 5806TIP3    H217425   0.244   0.624   4.239  0.2120  0.7753 -0.1175
 5807TIP3   OH217426   3.040   3.907   2.246 -0.2889  0.1441  0.1179
 5807TIP3    H117427   3.029   3.833   2.305 -0.4959  0.5058  0.5372
 5807TIP3    H217428   3.074   3.977   2.301 -0.3651  0.4483 -0.2169
 5808TIP3   OH217429   1.732   5.496   1.871 -0.2499 -0.5168  0.0400
 5808TIP3    H117430   1.642   5.464   1.869 -0.6393  0.5513 -0.8765
 5808TIP3    H217431   1.774   5.453   1.797  0.1518 -1.3847  0.7498
 5809TIP3   OH217432   4.116   5.603   4.530 -0.0003 -0.4567 -0.3112
 5809TIP3    H117433   4.206   5.637   4.531 -0.5043  0.9870  1.7802
 5809TIP3    H217434   4.097   5.584   4.622 -2.1071  0.0219 -0.6059
 5810TIP3   OH217435   5.296   1.831   0.515 -0.1033 -0.1712  0.1562
 5810TIP3    H117436   5.322   1.817   0.424  1.5683 -0.5551  0.6648
 5810TIP3    H217437   5.355   1.900   0.546 -2.2601  1.7394  0.2975
 5811TIP3   OH217438   2.459   3.671   4.212 -0.4146 -0.3821 -0.2442
 5811TIP3    H117439   2.451   3.746   4.154 -0.0918  0.5848  0.9346
 5811TIP3    H217440   2.369   3.648   4.234 -0.5453 -0.7961 -1.1304
 5812TIP3   OH217441   4.916   1.030   3.257 -0.1858 -1.1172 -0.2954
 5812TIP3    H117442   4.892   0.946   3.295  0.5989 -0.7093  1.1607
 5812TIP3    H217443   5.001   1.051   3.296 -1.1516  1.1671  0.7510
 5813TIP3   OH217444   6.219   4.961   4.987  0.0951 -0.1898 -1.0550
 5813TIP3    H117445   6.154   5.028   4.967 -0.5285 -0.7980 -1.1177
 5813TIP3    H217446   6.269   4.996   5.060 -1.7417 -0.6288  0.4911
 5814TIP3   OH217447   6.030   3.107   3.483 -0.1016  0.1820  0.1983
 5814TIP3    H117448   6.031   3.044   3.411  1.8422 -0.6308  0.8841
 5814TIP3    H217449   6.038   3.054   3.562 -0.7441  1.1599  0.9500
 5815TIP3   OH217450   5.916   6.005   4.538  0.1049  0.0396 -0.2309
 5815TIP3    H117451   5.957   5.919   4.540 -0.5500 -0.2601  0.8483
 5815TIP3    H217452   5.899   6.022   4.445 -1.8398 -2.0039 -0.3233
 5816TIP3   OH217453   5.657   1.133   0.123 -0.2801 -0.3035 -0.0542
 5816TIP3    H117454   5.570   1.136   0.082 -0.7633  0.0679  0.9790
 5816TIP3    H217455   5.651   1.194   0.196  1.1134  0.3380 -0.4539
 5817TIP3   OH217456   3.365   0.225   0.388 -0.0839  0.2361 -0.1015
 5817TIP3    H117457   3.407   0.139   0.389  1.0272  0.7515  0.6533
 5817TIP3    H217458   3.292   0.217   0.450 -0.3973 -0.3505 -0.5445
 5818TIP3   OH217459   3.776   1.130   0.675  0.3798 -0.8054  0.2109
 5818TIP3    H117460   3.761   1.222   0.696 -0.0441 -0.5956 -0.9134
 5818TIP3    H217461   3.827   1.131   0.594 -0.4959 -1.5393 -0.3837
 5819TIP3   OH217462   0.789   3.209   3.219  0.0100  0.2521 -0.3009
 5819TIP3    H117463   0.738   3.241   3.293 -1.3177  0.1687 -1.1621
 5819TIP3    H217464   0.785   3.114   3.227  1.0873  0.2333  0.3083
 5820TIP3   OH217465   2.818   4.955   2.897 -0.1318 -0.0330  0.3120
 5820TIP3    H117466   2.789   4.891   2.832 -1.3544 -0.0050  0.8061
 5820TIP3    H217467   2.884   4.909   2.949 -1.0820 -0.9490  0.7435
 5821TIP3   OH217468   2.390   0.115   4.513 -0.0765  0.2250 -0.3090
 5821TIP3    H117469   2.345   0.187   4.469  0.8967  0.8772 -0.2743
 5821TIP3    H217470   2.355   0.116   4.602 -0.3910  0.3695 -0.4317
 5822TIP3   OH217471   5.795   1.873   1.401  0.1092 -0.2687  0.3057
 5822TIP3    H117472   5.707   1.837   1.414  0.0422 -0.3488 -0.3481
 5822TIP3    H217473   5.839   1.859   1.485 -0.6886  0.3000  0.8467
 5823TIP3   OH217474   0.085   1.912   3.838 -0.3579 -0.6419  0.0862
 5823TIP3    H117475   0.124   1.924   3.924  0.7667 -0.7486 -0.3816
 5823TIP3    H217476   0.144   1.958   3.778 -1.4640 -0.0286 -0.5608
 5824TIP3   OH217477   4.501   2.448   4.640 -0.7814 -0.3680 -0.1251
 5824TIP3    H117478   4.593   2.477   4.644 -0.2162 -2.1790  2.7525
 5824TIP3    H217479   4.453   2.517   4.685 -0.6238 -0.1684 -0.2573
 5825TIP3   OH217480   1.361   5.695   1.470 -0.1595  0.1083 -0.0603
 5825TIP3    H117481   1.302   5.620   1.463  1.3795 -1.0855 -0.9756
 5825TIP3    H217482   1.368   5.728   1.381  1.0817 -0.2218 -0.1037
 5826TIP3   OH217483   6.111   1.859   3.908  0.3145 -0.3021 -0.0232
 5826TIP3    H117484   6.082   1.872   3.818  1.5682  0.1920 -0.3762
 5826TIP3    H217485   6.206   1.865   3.904  0.3236  1.5142  1.6067
 5827TIP3   OH217486   0.940   3.431   3.163  0.3896 -0.0988  0.3384
 5827TIP3    H117487   0.865   3.377   3.188 -0.1222  0.6992  0.5830
 5827TIP3    H217488   0.977   3.387   3.087 -0.4610 -0.3902  0.0781
 5828TIP3   OH217489   0.720   0.975   1.095 -0.6233  0.1137 -0.3422
 5828TIP3    H117490   0.756   1.063   1.082 -1.0725  0.4406  0.5419
 5828TIP3    H217491   0.796   0.917   1.092 -0.5178  0.2661 -2.9825
 5829TIP3   OH217492   2.980   5.703   4.019  0.5566  0.7259  0.6802
 5829TIP3    H117493   3.072   5.726   4.022  0.5123  0.8020  2.1552
 5829TIP3    H217494   2.937   5.766   4.077 -0.4334  0.7304 -0.0194
 5830TIP3   OH217495   4.361   0.727   2.135 -0.1667  0.1693  0.3133
 5830TIP3    H117496   4.296   0.700   2.070  0.8292 -0.2332 -0.5413
 5830TIP3    H217497   4.333   0.815   2.161  0.1361  0.9055 -1.6755
 5831TIP3   OH217498   2.075   2.519   4.715 -0.0878 -0.1379  0.2286
 5831TIP3    H117499   2.007   2.468   4.672  1.2605 -0.0933 -2.1235
 5831TIP3    H217500   2.063   2.609   4.683 -0.5485  0.4501  1.9299
 5832TIP3   OH217501   5.424   3.166   0.409 -0.1772 -0.1869  0.0626
 5832TIP3    H117502   5.491   3.221   0.369 -1.2936  0.4332 -1.0397
 5832TIP3    H217503   5.407   3.097   0.345 -1.1896  0.1669 -0.0753
 5833TIP3   OH217504   5.091   3.027   0.429 -0.1054 -0.5427 -0.5802
 5833TIP3    H117505   5.097   3.061   0.340 -0.0686  0.1967 -0.3035
 5833TIP3    H217506   5.113   3.102   0.485 -0.1611 -0.9883  0.0502
 5834TIP3   OH217507   3.635   0.975   3.036  0.4397 -0.0431 -0.2156
 5834TIP3    H117508   3.698   0.930   3.092 -1.2202 -0.0976  1.7228
 5834TIP3    H217509   3.575   0.907   3.006  0.1018  0.2942 -0.3251
 5835TIP3   OH217510   3.642   3.397   4.270  0.0412  0.4072  0.3955
 5835TIP3    H117511   3.547   3.408   4.273 -0.0621 -0.5400  0.8978
 5835TIP3    H217512   3.660   3.364   4.182 -0.4716 -2.3583  1.2134
 5836TIP3   OH217513   4.619   0.344   1.504 -0.1422 -0.1600 -0.0923
 5836TIP3    H117514   4.686   0.303   1.559  1.5556  1.5048 -0.7787
 5836TIP3    H217515   4.642   0.317   1.415 -1.2722 -0.7099 -0.2345
 5837TIP3   OH217516   2.019   0.194   2.551 -0.2332 -0.1613  0.5073
 5837TIP3    H117517   1.942   0.185   2.496  0.1452  1.7657 -0.4316
 5837TIP3    H217518   2.085   0.138   2.509 -0.5514 -0.2903  0.1732
 5838TIP3   OH217519   6.149   0.596   4.991 -0.6733 -0.2422 -0.5417
 5838TIP3    H117520   6.088   0.522   4.985 -0.6333 -0.3128 -0.1100
 5838TIP3    H217521   6.146   0.622   5.083  0.6031 -0.8063 -0.3206
 5839TIP3   OH217522   3.816   2.481   2.340  0.1039 -0.4131 -0.0238
 5839TIP3    H117523   3.800   2.392   2.372  0.9795 -0.0181  1.6242
 5839TIP3    H217524   3.857   2.469   2.254  0.0143 -1.5854  0.0834
 5840TIP3   OH217525   4.330   5.658   0.875 -0.2785  0.8124 -0.1201
 5840TIP3    H117526   4.247   5.625   0.910 -0.2937  1.3722  0.3963
 5840TIP3    H217527   4.339   5.746   0.913  1.2124  0.2469  0.9552
 5841TIP3   OH217528   1.699   0.386   4.654  0.2061  0.8447 -0.2263
 5841TIP3    H117529   1.671   0.361   4.742 -1.1092 -0.1107 -0.8756
 5841TIP3    H217530   1.732   0.475   4.663 -1.5587  1.4213  0.9367
 5842TIP3   OH217531   4.655   1.620   3.024 -0.4611 -0.3691  0.0070
 5842TIP3    H117532   4.561   1.604   3.011 -0.4110 -0.6671  0.0175
 5842TIP3    H217533   4.687   1.646   2.937 -0.8595  1.3038  0.3165
 5843TIP3   OH217534   0.278   5.200   2.960 -0.1209  0.0039 -0.0250
 5843TIP3    H117535   0.356   5.255   2.950 -1.2927  1.5817 -1.0534
 5843TIP3    H217536   0.238   5.199   2.873 -0.7246 -1.6173  0.2419
 5844TIP3   OH217537   1.448   0.759   4.667  0.6436  0.0625  0.3233
 5844TIP3    H117538   1.487   0.702   4.601  1.6164  0.0022  0.9295
 5844TIP3    H217539   1.430   0.701   4.741 -1.4141 -0.0814 -0.2301
 5845TIP3   OH217540   0.531   5.112   4.311 -0.1049  0.2744  0.1891
 5845TIP3    H117541   0.464   5.123   4.243  1.5470  2.6824 -1.2042
 5845TIP3    H217542   0.520   5.189   4.368  0.0154 -0.5280  1.3435
 5846TIP3   OH217543   6.314   1.744   0.527  0.2184  0.2513 -0.6996
 5846TIP3    H117544   6.226   1.706   0.525  0.0053  0.5809  0.7378
 5846TIP3    H217545   6.334   1.765   0.436 -0.8635 -0.5622 -1.1436
 5847TIP3   OH217546   6.000   2.936   3.135 -0.5013 -0.0095  0.4458
 5847TIP3    H117547   5.988   3.030   3.153  3.2102  0.7098 -0.0020
 5847TIP3    H217548   5.946   2.920   3.058 -1.3409  1.7311  0.6157
 5848TIP3   OH217549   5.654   3.579   3.656  0.2603 -0.1053 -0.5991
 5848TIP3    H117550   5.680   3.579   3.748 -0.9096  0.4671 -0.2514
 5848TIP3    H217551   5.598   3.656   3.646  0.5958  0.0006 -1.8611
 5849TIP3   OH217552   0.023   5.311   3.671  1.0254 -0.2285  0.7369
 5849TIP3    H117553   0.079   5.323   3.594  0.6081 -0.3645  0.4077
 5849TIP3    H217554   0.020   5.216   3.684 -1.5734 -0.5159 -1.1181
 5850TIP3   OH217555   3.853   3.082   1.815  0.5232  0.0652  0.2755
 5850TIP3    H117556   3.758   3.093   1.826 -0.2025 -1.8130 -2.9490
 5850TIP3    H217557   3.882   3.045   1.898 -1.2282  1.9623  1.8822
 5851TIP3   OH217558   0.060   3.810   2.574 -0.0285  0.1271  0.3530
 5851TIP3    H117559  -0.023   3.762   2.566  0.4469 -0.8632  1.1537
 5851TIP3    H217560   0.034   3.899   2.597 -0.8739 -0.1955  0.6886
 5852TIP3   OH217561   1.654   5.241   1.620  0.8202 -0.7689  0.3875
 5852TIP3    H117562   1.647   5.226   1.526  2.0743 -0.9583  0.3109
 5852TIP3    H217563   1.741   5.279   1.632 -0.1097  1.2465  1.2297
 5853TIP3   OH217564   0.283   2.847   0.931 -0.0880  0.5616 -0.2487
 5853TIP3    H117565   0.317   2.760   0.910  1.4347  1.1239 -0.2558
 5853TIP3    H217566   0.361   2.898   0.955 -0.9304  1.9590 -0.3656
 5854TIP3   OH217567   1.600   0.615   2.954  0.2575  0.0073  0.4960
 5854TIP3    H117568   1.569   0.705   2.963  1.6391  0.4161  1.6345
 5854TIP3    H217569   1.593   0.578   3.042  0.7133 -0.6310  0.2698
 5855TIP3   OH217570   2.879   4.516   2.203 -0.2247 -0.2142  0.0680
 5855TIP3    H117571   2.897   4.593   2.257  0.5858  1.8152 -2.8599
 5855TIP3    H217572   2.788   4.527   2.175 -1.0892 -1.9688  1.9498
 5856TIP3   OH217573   0.864   2.183   0.584 -0.9851 -0.0351  0.3888
 5856TIP3    H117574   0.817   2.119   0.530 -1.0820  0.2290  0.1560
 5856TIP3    H217575   0.861   2.264   0.533 -0.6916  0.1054  0.5924
 5857TIP3   OH217576   3.662   4.308   1.956 -0.0059  0.1592 -0.8771
 5857TIP3    H117577   3.634   4.279   2.043  1.4719  0.6541 -0.2012
 5857TIP3    H217578   3.602   4.265   1.896 -0.7451 -0.6012  0.3594
 5858TIP3   OH217579   3.524   4.552   3.890 -0.7949  0.0539 -0.7108
 5858TIP3    H117580   3.585   4.613   3.931 -0.3369 -0.9997  0.2247
 5858TIP3    H217581   3.473   4.606   3.829  1.2445  0.9316 -1.7422
 5859TIP3   OH217582   4.821   2.238   0.050  0.4143  0.0516 -0.0514
 5859TIP3    H117583   4.772   2.158   0.033 -0.1819  0.2280  0.8001
 5859TIP3    H217584   4.760   2.308   0.027  0.8643  0.2728 -0.6023
 5860TIP3   OH217585   0.438   1.560   2.259 -0.3482  0.6957  0.0735
 5860TIP3    H117586   0.420   1.622   2.330 -0.0295  1.4044 -0.4543
 5860TIP3    H217587   0.521   1.590   2.221 -0.2318 -0.0081 -0.2436
 5861TIP3   OH217588   2.657   3.100   2.043 -0.2939  0.2238  0.1424
 5861TIP3    H117589   2.708   3.076   1.967  0.1979 -1.7332  1.0313
 5861TIP3    H217590   2.672   3.194   2.054  0.9634  0.1996 -1.1635
 5862TIP3   OH217591   5.631   1.215   2.619  0.3931 -0.0643  0.2117
 5862TIP3    H117592   5.678   1.231   2.701 -0.0343  1.0979  0.2446
 5862TIP3    H217593   5.700   1.188   2.558  1.1958  1.8129  0.2047
 5863TIP3   OH217594   5.917   1.603   2.220 -0.1226 -0.2940  0.4502
 5863TIP3    H117595   5.983   1.670   2.235 -0.9017  0.5956  0.0573
 5863TIP3    H217596   5.887   1.578   2.307  0.7390 -0.7355  0.6307
 5864TIP3   OH217597   3.986   3.529   4.464 -0.0540 -0.2914 -0.1509
 5864TIP3    H117598   3.953   3.563   4.380 -0.3223  3.2466  1.1886
 5864TIP3    H217599   4.044   3.598   4.495 -1.5817 -0.4545  3.5154
 5865TIP3   OH217600   1.669   2.071   2.903  0.6129  0.4008 -0.2975
 5865TIP3    H117601   1.722   2.091   2.826 -0.1916  0.7592 -0.7752
 5865TIP3    H217602   1.700   2.132   2.970  0.6392  0.7733 -0.6458
 5866TIP3   OH217603   3.300   0.227   4.024  0.0842 -0.0639 -0.0232
 5866TIP3    H117604   3.280   0.292   4.091  0.2339 -1.3251  1.2889
 5866TIP3    H217605   3.242   0.250   3.951  1.4568  2.6598 -0.3922
 5867TIP3   OH217606   0.057   2.384   1.844  0.1791  0.7405 -0.4217
 5867TIP3    H117607   0.008   2.423   1.772  1.4607  3.2058 -0.0713
 5867TIP3    H217608   0.053   2.449   1.914  2.3039  0.2170  0.2766
 5868TIP3   OH217609   0.661   5.839   1.795 -0.0629 -0.3511  0.5204
 5868TIP3    H117610   0.685   5.834   1.702  1.8205 -2.1495  1.0222
 5868TIP3    H217611   0.738   5.877   1.838 -0.3506 -0.8634  1.5230
 5869TIP3   OH217612   1.268   0.822   1.562 -0.1412  0.2600  0.7151
 5869TIP3    H117613   1.186   0.803   1.606 -0.4881 -0.0672 -0.0489
 5869TIP3    H217614   1.325   0.857   1.630 -0.6153 -0.3503  1.4418
 5870TIP3   OH217615   1.057   1.672   1.492 -0.0680 -0.1989 -0.1024
 5870TIP3    H117616   1.009   1.603   1.537 -0.8531  0.4736  0.1052
 5870TIP3    H217617   1.026   1.753   1.532 -0.3693  0.3790 -1.4514
 5871TIP3   OH217618   0.631   1.594   2.565  0.8006  0.1299  0.3438
 5871TIP3    H117619   0.620   1.511   2.518  0.5626  0.3686 -0.0243
 5871TIP3    H217620   0.550   1.642   2.549  0.7482  0.2486  0.9396
 5872TIP3   OH217621   5.427   1.626   4.849 -0.4462 -0.2177 -0.7622
 5872TIP3    H117622   5.346   1.579   4.831 -1.5376  2.1538 -2.6056
 5872TIP3    H217623   5.400   1.707   4.892  1.0251  0.1704 -0.4842
 5873TIP3   OH217624   3.410   3.922   0.240 -0.0603  0.0086 -0.0587
 5873TIP3    H117625   3.464   3.852   0.204  1.0913  1.3275 -0.9744
 5873TIP3    H217626   3.411   3.991   0.174  0.8615  1.8892  1.8033
 5874TIP3   OH217627   6.077   3.795   1.631 -0.7369 -0.1248 -0.6972
 5874TIP3    H117628   6.048   3.725   1.689 -0.1288  1.6307  1.9083
 5874TIP3    H217629   6.025   3.871   1.657  0.0745  0.9163 -1.9724
 5875TIP3   OH217630   5.560   5.524   1.532 -0.2558  0.0558  0.3211
 5875TIP3    H117631   5.525   5.569   1.608 -0.8231 -0.3379  0.2989
 5875TIP3    H217632   5.590   5.594   1.474 -1.3371  0.4159  0.1875
 5876TIP3   OH217633   0.379   3.241   2.064  0.2550 -0.3851 -0.1734
 5876TIP3    H117634   0.392   3.237   2.159 -0.7554 -1.4684 -0.0546
 5876TIP3    H217635   0.433   3.315   2.035  0.5222  0.0012  1.2443
 5877TIP3   OH217636   4.060   0.599   1.221 -0.2126 -0.2817  0.0976
 5877TIP3    H117637   4.047   0.692   1.203 -1.5676 -0.3467  0.6425
 5877TIP3    H217638   4.152   0.592   1.244 -0.0738  0.9129 -0.0182
 5878TIP3   OH217639   0.495   1.281   0.616  0.9013  0.5398  0.3151
 5878TIP3    H117640   0.488   1.255   0.708  4.0766  0.5243  0.6752
 5878TIP3    H217641   0.509   1.376   0.619  1.4710  0.4725 -0.1093
 5879TIP3   OH217642   1.691   2.025   3.233  0.3157 -0.2993 -0.4701
 5879TIP3    H117643   1.628   2.096   3.248  1.9003  1.1722 -0.4385
 5879TIP3    H217644   1.642   1.945   3.253 -1.6861  0.7231 -0.9901
 5880TIP3   OH217645   5.680   1.544   4.087 -0.0587 -0.0355 -0.3710
 5880TIP3    H117646   5.696   1.498   4.169  1.4378  0.1661 -0.5190
 5880TIP3    H217647   5.767   1.558   4.050 -0.4056  2.9773 -0.2907
 5881TIP3   OH217648   1.390   2.030   0.765 -0.2266 -0.8239  0.3716
 5881TIP3    H117649   1.395   2.094   0.836  1.2252  0.4915 -0.8353
 5881TIP3    H217650   1.338   2.074   0.697  1.1488 -0.7193 -0.6435
 5882TIP3   OH217651   5.626   1.668   1.413  0.2062 -0.2347  0.0922
 5882TIP3    H117652   5.704   1.616   1.394  1.8423  1.9157  0.4070
 5882TIP3    H217653   5.618   1.665   1.508  2.5442  2.8076  0.5601
 5883TIP3   OH217654   0.222   1.877   4.982 -0.1375  0.1325  0.4463
 5883TIP3    H117655   0.153   1.819   5.014  0.5517 -0.6466  0.5513
 5883TIP3    H217656   0.175   1.951   4.943 -1.0411 -0.6403  0.0353
 5884TIP3   OH217657   3.210   0.780   0.394 -0.3581  0.4362  0.2639
 5884TIP3    H117658   3.254   0.865   0.388  0.6318 -0.0075  0.8851
 5884TIP3    H217659   3.231   0.737   0.311  0.3916  0.2361  0.5470
 5885TIP3   OH217660   5.675   3.317   4.961 -0.4961  0.5674 -0.8680
 5885TIP3    H117661   5.581   3.309   4.980 -0.3986 -1.2937 -1.0066
 5885TIP3    H217662   5.685   3.272   4.877  0.3617  1.7318 -1.4100
 5886TIP3   OH217663   2.734   5.781   2.816 -0.1125 -0.0307 -0.3099
 5886TIP3    H117664   2.739   5.732   2.734  0.0433  1.3193 -1.1482
 5886TIP3    H217665   2.756   5.871   2.791 -0.5273  0.4995  1.1384
 5887TIP3   OH217666   1.755   3.064   4.876 -0.7932  0.1898  0.1644
 5887TIP3    H117667   1.753   2.972   4.848  3.0187  0.3302 -1.2037
 5887TIP3    H217668   1.782   3.060   4.968 -1.6559 -0.0388  0.4177
 5888TIP3   OH217669   5.606   3.511   1.811  0.2663  0.0760  0.4189
 5888TIP3    H117670   5.511   3.523   1.807  0.3957  1.1440  0.2832
 5888TIP3    H217671   5.638   3.593   1.848  1.1341 -0.3151  0.5414
 5889TIP3   OH217672   3.074   3.549   3.785 -0.0738  0.6267  0.8229
 5889TIP3    H117673   3.049   3.625   3.732 -1.9128  1.0170  2.1438
 5889TIP3    H217674   3.084   3.478   3.721 -0.3515  1.5093 -0.2341
 5890TIP3   OH217675   6.183   5.554   2.506  0.5352 -0.1482  0.5576
 5890TIP3    H117676   6.185   5.500   2.427 -0.1906  2.4633 -1.3894
 5890TIP3    H217677   6.125   5.506   2.566 -1.7936 -0.5933 -1.8528
 5891TIP3   OH217678   3.670   3.326   1.577  0.3106 -0.1657  0.2372
 5891TIP3    H117679   3.700   3.260   1.514 -1.4574 -1.9430  1.1435
 5891TIP3    H217680   3.711   3.408   1.548  2.4721 -1.6034 -1.0251
 5892TIP3   OH217681   6.001   1.085   0.665 -0.5270 -0.5271 -0.4957
 5892TIP3    H117682   5.952   1.105   0.585 -1.7069 -0.3504  0.2417
 5892TIP3    H217683   5.933   1.069   0.731  0.4115 -0.1106  0.6109
 5893TIP3   OH217684   4.731   1.268   5.101 -0.1522 -0.6368  0.0821
 5893TIP3    H117685   4.778   1.352   5.098 -0.3923 -0.5352 -1.0983
 5893TIP3    H217686   4.647   1.286   5.060 -1.1222 -0.9145  1.8417
 5894TIP3   OH217687   4.706   5.449   3.991 -0.8312 -0.1698  0.1498
 5894TIP3    H117688   4.614   5.455   4.015 -0.9053  0.0428 -0.1788
 5894TIP3    H217689   4.744   5.533   4.019 -0.9805  0.2003 -0.7139
 5895TIP3   OH217690   1.537   5.765   2.519  0.0291  0.1906  1.0229
 5895TIP3    H117691   1.616   5.749   2.466 -0.6756  0.1445 -0.0323
 5895TIP3    H217692   1.540   5.859   2.538 -0.7378  0.6288 -0.8212
 5896TIP3   OH217693   1.913   5.334   0.951 -0.1429 -0.3017  0.1726
 5896TIP3    H117694   1.874   5.417   0.978 -1.0953 -0.5697 -0.3359
 5896TIP3    H217695   2.002   5.336   0.987 -0.0605  1.0580 -0.0711
 5897TIP3   OH217696   2.656   2.319   2.406  0.2958  0.0951  0.4533
 5897TIP3    H117697   2.663   2.238   2.457  0.8363  0.1180  0.4210
 5897TIP3    H217698   2.742   2.328   2.363 -0.3607 -0.2687 -0.9900
 5898TIP3   OH217699   4.990   3.771   0.055  0.4113 -0.1214  0.2883
 5898TIP3    H117700   4.947   3.764   0.140 -0.3352  0.0767 -0.0541
 5898TIP3    H217701   4.917   3.775  -0.007  0.9290  0.8854 -0.2700
 5899TIP3   OH217702   5.123   2.432   3.795 -0.1062 -0.1287  0.3851
 5899TIP3    H117703   5.169   2.355   3.829 -0.1176 -0.0448  0.5901
 5899TIP3    H217704   5.157   2.443   3.706 -1.3287 -1.3933 -0.2788
 5900TIP3   OH217705   4.865   4.855   1.548 -0.3202  0.3259  0.6796
 5900TIP3    H117706   4.824   4.849   1.634  0.0688  0.6039  0.8861
 5900TIP3    H217707   4.957   4.876   1.566  0.0191 -0.7165  0.2314
 5901TIP3   OH217708   0.549   4.850   4.197 -0.1745 -0.4194  0.7190
 5901TIP3    H117709   0.547   4.934   4.243  1.0639 -0.5782  1.1111
 5901TIP3    H217710   0.557   4.785   4.267  0.4820 -0.7503  0.3417
 5902TIP3   OH217711   1.649   1.964   4.664 -0.3847 -0.5490 -0.4242
 5902TIP3    H117712   1.592   1.896   4.702 -1.4818  0.3311 -0.4391
 5902TIP3    H217713   1.733   1.951   4.707 -0.2031 -2.6751 -1.2976
 5903TIP3   OH217714   5.550   4.237   1.345  0.0260 -0.0657  0.4155
 5903TIP3    H117715   5.526   4.282   1.264  1.0516  0.2985  0.3003
 5903TIP3    H217716   5.621   4.289   1.381 -1.2192  0.4813  2.2099
 5904TIP3   OH217717   0.788   2.042   2.801  0.5973 -0.5634 -0.4859
 5904TIP3    H117718   0.739   1.986   2.742 -0.8595  0.5522 -0.3918
 5904TIP3    H217719   0.863   2.072   2.750 -0.2693 -0.1630 -1.5509
 5905TIP3   OH217720   3.460   0.944   5.023 -0.1935  0.3713  0.0508
 5905TIP3    H117721   3.435   1.026   5.067 -0.5031  1.0701 -1.3854
 5905TIP3    H217722   3.526   0.969   4.959  1.5683 -0.9131  1.2534
 5906TIP3   OH217723   4.696   4.653   3.288 -0.0785  0.1581  0.2161
 5906TIP3    H117724   4.674   4.563   3.315 -0.6929  0.4561  0.7558
 5906TIP3    H217725   4.655   4.663   3.203  0.4391 -0.2417 -0.0868
 5907TIP3   OH217726   6.048   3.731   2.563 -0.2101 -0.0079  0.2144
 5907TIP3    H117727   5.980   3.745   2.497 -0.7344  1.8893  1.0908
 5907TIP3    H217728   6.046   3.637   2.580 -0.6599 -0.4165 -1.7936
 5908TIP3   OH217729   1.529   4.691   4.172  0.1263  0.0576  0.3165
 5908TIP3    H117730   1.500   4.693   4.080 -0.6685  0.6323  0.5674
 5908TIP3    H217731   1.615   4.733   4.170 -0.5758  1.5421  0.0469
 5909TIP3   OH217732   5.132   5.894   0.175  0.1824  0.3449 -0.3381
 5909TIP3    H117733   5.137   5.805   0.211  0.1115  0.0134 -1.1253
 5909TIP3    H217734   5.042   5.902   0.144 -0.5224  1.5440  1.8093
 5910TIP3   OH217735   2.525   0.251   4.774 -0.1110 -0.1322  0.5461
 5910TIP3    H117736   2.544   0.297   4.856  3.0789 -0.3027  0.0629
 5910TIP3    H217737   2.601   0.270   4.719 -0.4142 -2.9452 -1.0158
 5911TIP3   OH217738   5.283   1.257   3.583  0.5330 -0.3102 -0.3935
 5911TIP3    H117739   5.375   1.230   3.574  0.7046  0.6193 -1.8007
 5911TIP3    H217740   5.281   1.310   3.663  1.0139 -1.0870  0.1498
 5912TIP3   OH217741   2.968   4.035   3.663 -0.0075  0.1726 -0.8821
 5912TIP3    H117742   2.900   3.976   3.631  0.9034 -1.1317 -0.5063
 5912TIP3    H217743   3.034   3.977   3.701  1.7829  1.3230 -2.1131
 5913TIP3   OH217744   5.580   4.079   4.596 -0.6467  0.2200 -0.8197
 5913TIP3    H117745   5.609   4.041   4.679  0.2538  1.4166 -0.5482
 5913TIP3    H217746   5.495   4.040   4.580 -0.1064 -1.2933 -0.1823
 5914TIP3   OH217747   4.375   5.812   1.201 -0.3248  0.5633  0.3409
 5914TIP3    H117748   4.388   5.904   1.179  0.6453  0.2295 -0.5856
 5914TIP3    H217749   4.384   5.808   1.296 -1.3938  1.5683  0.5015
 5915TIP3   OH217750   6.268   2.058   3.562 -0.3898  0.0548  0.0047
 5915TIP3    H117751   6.207   1.985   3.559 -1.9451  1.0681  3.0306
 5915TIP3    H217752   6.319   2.043   3.642 -1.4438  2.6691  1.2976
 5916TIP3   OH217753   2.836   2.539   1.769  0.1215 -0.0872  0.1218
 5916TIP3    H117754   2.850   2.621   1.722  0.7711 -0.5776 -0.5533
 5916TIP3    H217755   2.742   2.538   1.789 -0.2847 -0.1420 -1.6776
 5917TIP3   OH217756   0.406   4.766   4.816  0.6606  0.0428 -0.5634
 5917TIP3    H117757   0.380   4.845   4.863 -0.5346  0.2352 -1.5272
 5917TIP3    H217758   0.416   4.700   4.885 -1.1496  0.2923 -0.0254
 5918TIP3   OH217759   2.462   5.842   0.331  0.2028 -0.0259  0.3999
 5918TIP3    H117760   2.454   5.799   0.416  1.3010 -0.2982  0.3769
 5918TIP3    H217761   2.462   5.936   0.352 -1.4293 -0.0202  0.5133
 5919TIP3   OH217762   2.867   1.210   4.333 -0.0741 -0.2747 -0.4554
 5919TIP3    H117763   2.930   1.269   4.374 -0.4725  0.5496 -1.0087
 5919TIP3    H217764   2.891   1.210   4.240 -1.1752  0.4179 -0.7526
 5920TIP3   OH217765   2.128   1.903   3.415  0.4668  0.0787 -0.1614
 5920TIP3    H117766   2.139   1.809   3.400  0.0342  0.1448 -0.9856
 5920TIP3    H217767   2.060   1.929   3.352  0.3160  0.8721  0.3139
 5921TIP3   OH217768   2.656   1.388   1.578 -0.4845  1.3675  0.0104
 5921TIP3    H117769   2.744   1.405   1.610  0.7088  0.0748 -2.3550
 5921TIP3    H217770   2.648   1.442   1.500 -1.2131  0.3662 -0.6365
 5922TIP3   OH217771   4.473   1.960   5.056 -0.2886  0.0356 -0.3687
 5922TIP3    H117772   4.479   1.937   4.964 -0.3995  2.0069 -0.9178
 5922TIP3    H217773   4.411   1.898   5.093  0.2521 -1.1970 -1.4540
 5923TIP3   OH217774   5.066   5.771   0.858 -0.1933 -0.2007 -0.2245
 5923TIP3    H117775   5.144   5.821   0.885  0.3286 -1.3625  0.5025
 5923TIP3    H217776   5.099   5.683   0.841 -0.9351 -0.0998 -2.4044
 5924TIP3   OH217777   2.460   2.066   0.814  0.3313 -0.1623  0.0032
 5924TIP3    H117778   2.496   2.134   0.757  0.4009 -0.4491 -0.3001
 5924TIP3    H217779   2.497   1.985   0.781  0.4851 -0.3194  0.5571
 5925TIP3   OH217780   6.238   4.215   0.716 -0.3147  0.2267  0.1898
 5925TIP3    H117781   6.148   4.207   0.683 -0.7654 -0.9914  1.5957
 5925TIP3    H217782   6.258   4.128   0.750  1.2690  0.5957  0.2515
 5926TIP3   OH217783   1.263   0.857   2.822 -0.5316  0.6157  0.5834
 5926TIP3    H117784   1.322   0.930   2.802 -0.5082  0.1727 -1.1693
 5926TIP3    H217785   1.176   0.895   2.820 -0.4848  0.7135  0.1301
 5927TIP3   OH217786   6.150   2.332   2.234 -0.1822 -0.0215 -0.3010
 5927TIP3    H117787   6.082   2.330   2.301  0.6489 -0.1226  0.5549
 5927TIP3    H217788   6.122   2.400   2.173 -1.4936 -0.6703 -0.4502
 5928TIP3   OH217789   2.663   0.538   4.927  0.1327  0.3158  0.0146
 5928TIP3    H117790   2.623   0.590   4.857  0.3941 -1.3759 -1.4591
 5928TIP3    H217791   2.607   0.554   5.003 -1.9321 -0.0600 -1.3501
 5929TIP3   OH217792   0.506   3.699   5.179 -0.0195  0.1785 -0.2432
 5929TIP3    H117793   0.513   3.780   5.130  0.9130  1.3467  1.7148
 5929TIP3    H217794   0.594   3.681   5.211 -0.4565 -0.8931  0.4529
 5930TIP3   OH217795   2.927   4.716   2.386 -0.1588 -0.5345  0.3292
 5930TIP3    H117796   2.895   4.805   2.400  0.3563 -0.2615 -0.1879
 5930TIP3    H217797   3.004   4.709   2.442 -0.1458 -0.6201  0.3000
 5931TIP3   OH217798   5.718   2.243   0.869  0.4900 -0.1993 -0.0644
 5931TIP3    H117799   5.711   2.332   0.835  0.0651 -0.4032 -0.5114
 5931TIP3    H217800   5.734   2.254   0.962 -1.5000  0.3323  0.2481
 5932TIP3   OH217801   2.032   0.833   2.029  0.1856  0.0397 -0.3288
 5932TIP3    H117802   1.936   0.835   2.037  0.3044 -0.7261  2.4111
 5932TIP3    H217803   2.050   0.879   1.947 -2.4244  2.1178  0.1164
 5933TIP3   OH217804   0.432   3.223   5.136 -0.5200 -0.0029 -0.7314
 5933TIP3    H117805   0.468   3.243   5.223  0.6029 -0.5686 -1.0459
 5933TIP3    H217806   0.394   3.306   5.107 -0.7670  0.2353  0.2283
 5934TIP3   OH217807   4.452   3.079   1.170  0.1255 -0.8483 -0.0933
 5934TIP3    H117808   4.459   3.093   1.265  0.5592 -0.3580 -0.1955
 5934TIP3    H217809   4.540   3.098   1.137 -0.9765  3.2324 -1.1577
 5935TIP3   OH217810   5.956   5.041   2.197  0.1334 -0.1274  0.2325
 5935TIP3    H117811   6.008   5.014   2.273  1.2938 -1.8555 -1.0949
 5935TIP3    H217812   5.868   5.006   2.215  0.2347  0.0038  1.0296
 5936TIP3   OH217813   0.530   5.130   1.076 -0.4167  0.5537 -0.0789
 5936TIP3    H117814   0.514   5.045   1.035 -0.6834 -0.0818  1.2820
 5936TIP3    H217815   0.623   5.132   1.094 -0.6684 -0.2277  1.4695
 5937TIP3   OH217816   6.078   1.459   0.848 -0.7241  0.4194  0.0653
 5937TIP3    H117817   6.146   1.500   0.901 -0.4332  0.7547 -0.5663
 5937TIP3    H217818   5.997   1.472   0.898 -0.7044  2.1159 -0.2997
 5938TIP3   OH217819   5.014   2.990   3.183  0.4823  0.2304  0.1252
 5938TIP3    H117820   4.928   3.025   3.162  0.5938  1.5105  1.6355
 5938TIP3    H217821   5.075   3.041   3.129  0.2771 -1.4058 -1.7665
 5939TIP3   OH217822   0.669   3.960   4.683  0.4798 -0.3943 -0.1490
 5939TIP3    H117823   0.638   4.037   4.731  2.2965 -0.1231  0.6409
 5939TIP3    H217824   0.588   3.917   4.654 -0.7681 -0.4673  2.9612
 5940TIP3   OH217825   2.211   5.307   4.071 -0.5389 -0.9326 -0.5003
 5940TIP3    H117826   2.166   5.266   3.998 -0.0068 -2.5094  0.0146
 5940TIP3    H217827   2.252   5.385   4.033 -2.4219 -0.2570 -1.2751
 5941TIP3   OH217828   1.923   0.124   4.735 -0.3482  0.0090  0.1063
 5941TIP3    H117829   1.839   0.100   4.696 -0.5466  0.6049  0.1698
 5941TIP3    H217830   1.982   0.131   4.660 -0.8945  1.8576 -0.1839
 5942TIP3   OH217831   2.255   1.383   1.718 -0.5828  0.0425  0.2071
 5942TIP3    H117832   2.270   1.472   1.686  1.6517  0.0985  1.2265
 5942TIP3    H217833   2.162   1.368   1.702 -0.6829  1.9372 -1.4799
 5943TIP3   OH217834   4.474   2.823   4.835  0.0386 -0.0434  0.2214
 5943TIP3    H117835   4.432   2.737   4.836 -1.3793  0.5548 -1.6978
 5943TIP3    H217836   4.403   2.885   4.855  1.1225  0.7013  2.0207
 5944TIP3   OH217837   5.482   3.186   3.442  0.6928  0.4567  0.1514
 5944TIP3    H117838   5.425   3.114   3.467  3.0045 -0.7975  2.3219
 5944TIP3    H217839   5.443   3.264   3.480 -0.3130 -0.1132  0.2966
 5945TIP3   OH217840   3.074   0.105   4.557  0.2679 -0.3383  0.3986
 5945TIP3    H117841   3.001   0.067   4.508 -1.2178  1.9058  0.6811
 5945TIP3    H217842   3.038   0.122   4.645  0.9493  1.2029  0.4270
 5946TIP3   OH217843   1.192   4.363   4.623  0.3097 -0.2784  0.1063
 5946TIP3    H117844   1.193   4.372   4.528 -2.1245 -0.0008  0.0574
 5946TIP3    H217845   1.196   4.453   4.655 -1.7084 -0.1675  0.1550
 5947TIP3   OH217846   6.288   0.385   4.643 -0.8300  0.5468 -0.4457
 5947TIP3    H117847   6.305   0.344   4.727  1.8139  0.1265 -1.1092
 5947TIP3    H217848   6.233   0.461   4.663 -0.7076  0.1457  1.5526
 5948TIP3   OH217849   2.997   3.578   3.353 -0.2335  0.3482 -0.3272
 5948TIP3    H117850   3.005   3.667   3.319  1.8859 -0.4319 -2.1066
 5948TIP3    H217851   3.076   3.566   3.406 -0.5827 -0.4236  0.0304
 5949TIP3   OH217852   1.061   4.421   2.411 -0.0997 -0.1888  0.0959
 5949TIP3    H117853   1.037   4.511   2.392 -1.0846 -0.0477  1.8312
 5949TIP3    H217854   0.978   4.374   2.418  0.4061 -1.4040 -1.3502
 5950TIP3   OH217855   0.733   2.102   0.808 -0.7326 -0.1078  0.0022
 5950TIP3    H117856   0.685   2.174   0.850 -2.5061 -0.5345 -1.1814
 5950TIP3    H217857   0.769   2.141   0.728 -1.4026 -0.4086 -0.4629
 5951TIP3   OH217858   5.238   4.752   4.464  0.2987  0.3157  0.4112
 5951TIP3    H117859   5.315   4.808   4.457 -0.8510  1.8239 -1.0404
 5951TIP3    H217860   5.195   4.760   4.378 -1.4494 -0.4989  1.1603
 5952TIP3   OH217861   1.721   3.368   3.843 -0.3872 -0.3995 -0.2227
 5952TIP3    H117862   1.768   3.371   3.760 -1.2768  0.8921 -0.7180
 5952TIP3    H217863   1.710   3.460   3.867  0.3008 -0.7556  1.6076
 5953TIP3   OH217864   1.038   5.961   4.008  0.5222 -0.1647 -0.5446
 5953TIP3    H117865   1.013   6.000   4.092  0.7027 -1.9951  0.4212
 5953TIP3    H217866   0.959   5.965   3.954 -0.1878 -0.7026  0.4196
 5954TIP3   OH217867   5.530   0.713   5.189  0.0018  0.2345 -0.6679
 5954TIP3    H117868   5.525   0.791   5.134 -0.7397  0.4291 -0.3396
 5954TIP3    H217869   5.444   0.671   5.180  0.0832 -0.0605 -0.1513
 5955TIP3   OH217870   4.818   2.760   0.790 -0.2096  0.0385  0.3324
 5955TIP3    H117871   4.864   2.838   0.761 -1.2775  0.8505  0.7651
 5955TIP3    H217872   4.882   2.689   0.780  0.7250  0.9354 -0.1932
 5956TIP3   OH217873   2.649   2.015   4.437  0.1757 -0.5199 -0.0393
 5956TIP3    H117874   2.656   2.082   4.505 -0.8166 -0.7891  0.3366
 5956TIP3    H217875   2.600   2.057   4.366  0.5807 -0.4748 -0.2980
 5957TIP3   OH217876   1.580   3.401   4.657  0.2478 -0.0007  0.1304
 5957TIP3    H117877   1.644   3.375   4.590  1.2542  0.3326  0.9348
 5957TIP3    H217878   1.600   3.345   4.732 -1.8526 -1.4470 -0.3011
 5958TIP3   OH217879   1.901   0.731   3.128 -0.0842 -0.0753  0.0945
 5958TIP3    H117880   1.965   0.789   3.169 -1.3869  0.7620  1.0461
 5958TIP3    H217881   1.840   0.791   3.085  0.4653 -0.8973 -1.9359
 5959TIP3   OH217882   3.764   0.784   3.301 -0.0872  0.2080  0.0058
 5959TIP3    H117883   3.821   0.843   3.349 -0.4435 -0.3419  1.1536
 5959TIP3    H217884   3.823   0.726   3.254  0.2657  0.9729 -0.5150
 5960TIP3   OH217885   4.125   3.893   4.174  0.3903 -0.1907 -0.5103
 5960TIP3    H117886   4.182   3.820   4.195  0.9744 -0.0194 -1.4453
 5960TIP3    H217887   4.127   3.948   4.252  0.3790 -0.8885 -0.0081
 5961TIP3   OH217888   3.278   2.886   0.077  0.0165 -0.1078  0.4834
 5961TIP3    H117889   3.285   2.812   0.017 -4.5715 -1.7222  1.4687
 5961TIP3    H217890   3.269   2.963   0.020 -1.6056 -1.2569 -0.9166
 5962TIP3   OH217891   4.109   2.886   1.575 -0.1717  0.0876  0.0036
 5962TIP3    H117892   4.090   2.934   1.494  0.2585  1.1702  0.5217
 5962TIP3    H217893   4.181   2.935   1.616  0.2393 -0.9704  0.5969
 5963TIP3   OH217894   2.796   0.562   3.909 -0.3486 -0.4112  0.2992
 5963TIP3    H117895   2.849   0.597   3.838  2.3654 -0.8355  2.0053
 5963TIP3    H217896   2.720   0.524   3.864 -0.2211  1.8273 -2.0998
 5964TIP3   OH217897   0.580   3.053   2.259 -0.2892 -0.1600  0.7313
 5964TIP3    H117898   0.514   3.121   2.277 -0.8771 -0.0245 -1.5523
 5964TIP3    H217899   0.640   3.095   2.197  0.7533 -0.9729  1.1725
 5965TIP3   OH217900   4.052   2.012   3.386  0.0674  0.1298 -0.1743
 5965TIP3    H117901   3.971   2.049   3.422 -1.3228 -2.2088 -0.7261
 5965TIP3    H217902   4.063   2.058   3.303  0.0797  1.4012  0.4887
 5966TIP3   OH217903   1.987   5.639   3.859  0.3807 -0.0020  0.2428
 5966TIP3    H117904   2.081   5.639   3.840  0.3277  3.5241 -0.6919
 5966TIP3    H217905   1.963   5.732   3.864 -2.7221 -0.7565  2.3879
 5967TIP3   OH217906   0.557   1.952   1.181  0.3216  0.5416 -0.0042
 5967TIP3    H117907   0.542   1.946   1.087 -1.2313 -0.2046  0.2498
 5967TIP3    H217908   0.636   2.005   1.190  0.4255  0.7289 -1.7139
 5968TIP3   OH217909   3.083   5.307   0.214  0.5784 -0.2118  0.2451
 5968TIP3    H117910   3.068   5.294   0.308  1.5442 -1.4814  0.2452
 5968TIP3    H217911   3.046   5.229   0.173  1.2560 -0.2408 -0.3213
 5969TIP3   OH217912   3.096   3.374   1.616  0.1673 -0.1643  0.3432
 5969TIP3    H117913   3.158   3.302   1.604  0.4299 -0.1894  1.6931
 5969TIP3    H217914   3.047   3.377   1.534  0.9460 -1.1144 -0.1811
 5970TIP3   OH217915   0.978   5.864   0.525 -0.4874 -1.2066 -0.0137
 5970TIP3    H117916   0.940   5.947   0.494  0.7988 -0.6348 -0.1435
 5970TIP3    H217917   0.905   5.803   0.525 -1.4142 -0.1390 -0.1890
 5971TIP3   OH217918   0.221   3.002   5.082 -0.8021  0.1875  0.0996
 5971TIP3    H117919   0.270   3.083   5.093 -2.1463  1.0397  0.0507
 5971TIP3    H217920   0.261   2.941   5.144  1.0277  0.4855 -0.7309
 5972TIP3   OH217921   0.457   4.692   2.784  0.4499  0.2141  0.4759
 5972TIP3    H117922   0.502   4.676   2.867 -0.5720 -0.8318  0.8658
 5972TIP3    H217923   0.364   4.685   2.806  0.1013  1.5021 -0.4576
 5973TIP3   OH217924   3.150   3.524   2.141 -0.4123  0.1229 -0.1193
 5973TIP3    H117925   3.062   3.559   2.153 -0.2698 -0.0063  1.5626
 5973TIP3    H217926   3.148   3.482   2.055 -0.9607  3.0218 -1.6344
 5974TIP3   OH217927   1.468   5.437   2.584  0.5942  0.1364 -0.3023
 5974TIP3    H117928   1.471   5.421   2.490 -0.2631 -0.4143 -0.2536
 5974TIP3    H217929   1.391   5.493   2.596 -0.6670 -1.6155  0.2727
 5975TIP3   OH217930   3.870   4.383   2.215 -0.1512  0.3161 -0.4628
 5975TIP3    H117931   3.805   4.432   2.264 -1.4191  1.1364 -2.7833
 5975TIP3    H217932   3.846   4.397   2.123  1.7803 -1.4924 -1.3329
 5976TIP3   OH217933   2.234   5.704   0.232  0.1134  0.3949 -0.1883
 5976TIP3    H117934   2.152   5.702   0.280  0.4011 -0.4702  0.2968
 5976TIP3    H217935   2.295   5.750   0.289  0.1040  0.5527 -0.3068
 5977TIP3   OH217936   0.443   0.436   2.771 -0.5987  0.3415 -0.1348
 5977TIP3    H117937   0.431   0.391   2.854  0.1479  0.5582  0.0974
 5977TIP3    H217938   0.536   0.426   2.751 -0.6043  0.9882 -0.5298
 5978TIP3   OH217939   0.901   0.751   4.967 -0.1820  0.3970 -0.0638
 5978TIP3    H117940   0.944   0.797   4.895 -0.9467  1.1997 -0.0225
 5978TIP3    H217941   0.888   0.818   5.034  0.8834 -0.4152  1.0132
 5979TIP3   OH217942   0.475   2.998   0.663  0.4394  0.8276  0.3002
 5979TIP3    H117943   0.464   3.089   0.635  0.4078  1.0444  0.9956
 5979TIP3    H217944   0.401   2.952   0.624  0.9151  0.9306 -0.7485
 5980TIP3   OH217945   4.275   5.644   3.534  0.2047 -0.2602 -0.3962
 5980TIP3    H117946   4.181   5.665   3.532  0.5326  1.2695 -1.5143
 5980TIP3    H217947   4.288   5.588   3.458 -0.4900 -4.1064  2.0549
 5981TIP3   OH217948   0.661   2.300   1.010 -0.3438 -0.0875 -0.0152
 5981TIP3    H117949   0.565   2.294   1.015 -0.3763  0.0047 -0.4814
 5981TIP3    H217950   0.692   2.247   1.083 -0.7634  0.4011  0.5377
 5982TIP3   OH217951   6.091   2.059   3.140  0.5041 -0.2488 -0.0080
 5982TIP3    H117952   6.156   2.119   3.178  0.8729 -0.3939 -0.4042
 5982TIP3    H217953   6.129   1.972   3.149 -0.4598 -0.5502  1.4541
 5983TIP3   OH217954   1.198   2.906   2.582 -0.1233  0.1363  0.3245
 5983TIP3    H117955   1.208   3.001   2.585  0.1052  0.1198  0.0286
 5983TIP3    H217956   1.279   2.874   2.544 -0.0429 -0.2072  0.7851
 5984TIP3   OH217957   1.102   4.415   4.290 -0.1410  0.0091 -0.6751
 5984TIP3    H117958   1.157   4.475   4.240  1.1820 -0.9468 -0.4395
 5984TIP3    H217959   1.119   4.329   4.251 -1.3277 -0.3419 -0.4507
 5985TIP3   OH217960   5.557   0.929   0.331  0.1925 -0.9251  0.0557
 5985TIP3    H117961   5.556   0.975   0.247 -0.0464 -0.9061  0.0666
 5985TIP3    H217962   5.557   0.837   0.307  0.4298 -0.9203  0.0343
 5986TIP3   OH217963   2.114   5.864   0.037  0.2482 -0.1291  0.0688
 5986TIP3    H117964   2.184   5.913  -0.007  0.6821 -1.4861 -0.8174
 5986TIP3    H217965   2.157   5.828   0.115  0.0389  0.5237  0.4955
 5987TIP3   OH217966   4.418   4.158   1.298 -0.6950  1.1275  0.7507
 5987TIP3    H117967   4.374   4.125   1.377  0.8234  1.3210  1.7135
 5987TIP3    H217968   4.469   4.232   1.328  2.2536 -0.5467  0.2430
 5988TIP3   OH217969   1.477   1.009   0.753 -0.0239  0.0177 -0.3448
 5988TIP3    H117970   1.517   0.951   0.818  1.1407  0.8179 -0.3274
 5988TIP3    H217971   1.417   0.953   0.704 -0.2479 -0.8011  0.8262
 5989TIP3   OH217972   1.019   3.752   3.812  0.1842  0.9151 -0.3263
 5989TIP3    H117973   0.998   3.845   3.812  1.5680  1.2419 -0.2258
 5989TIP3    H217974   1.074   3.740   3.889 -0.5922 -0.1435  0.0914
 5990TIP3   OH217975   5.739   3.707   1.964  0.1046 -0.0703  0.2158
 5990TIP3    H117976   5.794   3.785   1.958  0.0703 -0.0833 -0.3055
 5990TIP3    H217977   5.670   3.731   2.025  0.7690 -0.1041  0.9946
 5991TIP3   OH217978   1.957   3.867   0.137  0.1949  0.7340  0.4085
 5991TIP3    H117979   2.001   3.951   0.127  2.3694 -0.5700 -2.1211
 5991TIP3    H217980   2.023   3.810   0.177 -0.2724 -0.4400 -0.4269
 5992TIP3   OH217981   1.518   2.548   1.434 -0.0064  0.6334  0.2525
 5992TIP3    H117982   1.470   2.558   1.516  0.7487  0.0301  0.7892
 5992TIP3    H217983   1.452   2.555   1.365 -0.7336  0.5917  0.9405
 5993TIP3   OH217984   2.869   0.080   4.755 -0.5154 -0.0309  0.4944
 5993TIP3    H117985   2.837   0.013   4.694  0.4165  0.4087 -0.5027
 5993TIP3    H217986   2.795   0.141   4.764 -1.6178 -1.4724  1.9270
 5994TIP3   OH217987   5.290   0.758   0.953  0.1095 -0.2259 -0.2100
 5994TIP3    H117988   5.198   0.735   0.967  0.0644  0.0081 -0.1145
 5994TIP3    H217989   5.337   0.717   1.025 -0.1867  1.4182  0.9696
 5995TIP3   OH217990   5.144   5.029   2.139 -0.6817 -0.2596 -0.3969
 5995TIP3    H117991   5.196   5.092   2.189 -0.3123 -1.7523  1.2076
 5995TIP3    H217992   5.197   5.009   2.062  0.7154 -1.0094  0.7139
 5996TIP3   OH217993   1.423   2.644   1.676 -0.3773 -0.3741  0.5435
 5996TIP3    H117994   1.430   2.724   1.625 -3.8047 -1.4779 -1.9762
 5996TIP3    H217995   1.403   2.674   1.765  0.2022  1.5333  0.0777
 5997TIP3   OH217996   1.019   3.864   2.931  0.3867 -0.6231 -0.0139
 5997TIP3    H117997   0.954   3.802   2.962  0.6521  0.0969  2.1807
 5997TIP3    H217998   0.969   3.926   2.877 -0.3792 -1.1940  0.0259
 5998TIP3   OH217999   1.832   5.472   2.117  0.6130 -0.3599  0.0474
 5998TIP3    H118000   1.920   5.508   2.112  0.9120 -1.1916 -1.3087
 5998TIP3    H218001   1.807   5.458   2.026 -1.0347  0.0975  0.3886
 5999TIP3   OH218002   2.484   2.682   2.624 -0.4246 -0.1502 -0.3474
 5999TIP3    H118003   2.570   2.666   2.662 -0.2652 -0.2673 -0.7473
 5999TIP3    H218004   2.480   2.623   2.548 -0.3565  0.7464 -1.0668
 6000TIP3   OH218005   2.560   1.190   3.170  0.1569  0.2440  0.2866
 6000TIP3    H118006   2.575   1.108   3.217  0.9036 -1.3024 -2.3989
 6000TIP3    H218007   2.645   1.235   3.172  0.2045  0.1510  0.3557
 6001TIP3   OH218008   0.681   0.202   2.197  0.7310  0.0699  0.0673
 6001TIP3    H118009   0.610   0.223   2.258 -0.6816 -1.8650 -0.8343
 6001TIP3    H218010   0.753   0.260   2.224 -1.2789  2.4187  0.7313
 6002TIP3   OH218011   5.225   2.427   1.432 -0.2075 -0.0329  0.2394
 6002TIP3    H118012   5.148   2.480   1.408  0.0692  0.3217  0.1118
 6002TIP3    H218013   5.229   2.359   1.364 -0.4659 -0.1119  0.3032
 6003TIP3   OH218014   1.551   1.831   0.270  0.0740  0.3134  0.1127
 6003TIP3    H118015   1.496   1.811   0.346  0.9581 -0.1969  0.6396
 6003TIP3    H218016   1.610   1.755   0.263 -0.3433  0.0993 -1.4137
 6004TIP3   OH218017   0.120   1.996   1.748 -0.4599  0.3512  0.3224
 6004TIP3    H118018   0.089   2.043   1.671 -0.0987  0.6496  0.3559
 6004TIP3    H218019   0.095   2.053   1.822 -0.6294  0.1615  0.4132
 6005TIP3   OH218020   0.745   2.924   4.254 -0.2141 -0.2283  0.4983
 6005TIP3    H118021   0.822   2.954   4.302 -0.5281 -0.8735  1.4398
 6005TIP3    H218022   0.745   2.829   4.266  0.1064 -0.5058 -1.4169
 6006TIP3   OH218023   1.451   4.607   1.250 -0.3211 -0.1132 -0.3185
 6006TIP3    H118024   1.418   4.563   1.329  1.0720  0.7960  0.8020
 6006TIP3    H218025   1.533   4.562   1.231  0.4227  1.0724  0.0300
 6007TIP3   OH218026   0.208   1.715   3.488 -0.4755 -0.0564  0.8266
 6007TIP3    H118027   0.223   1.800   3.446  2.0864  0.6766  2.9628
 6007TIP3    H218028   0.224   1.651   3.419  1.6570  1.1387  0.1211
 6008TIP3   OH218029   2.123   4.570   2.778 -0.0276  0.0604 -0.2102
 6008TIP3    H118030   2.056   4.633   2.804  0.5707  0.5231  0.2365
 6008TIP3    H218031   2.204   4.603   2.817  0.5511 -0.2348 -1.1360
 6009TIP3   OH218032   0.671   0.046   4.697 -0.5765 -0.0711 -0.3452
 6009TIP3    H118033   0.614   0.026   4.623 -0.9074 -0.5071  0.0202
 6009TIP3    H218034   0.759   0.025   4.665 -0.6060  0.6017 -0.9095
 6010TIP3   OH218035   0.403   0.354   3.011 -0.1074  0.1249 -0.5072
 6010TIP3    H118036   0.478   0.371   3.068  0.5924  2.0220 -1.9006
 6010TIP3    H218037   0.355   0.284   3.056  2.0931 -0.6901  0.7832
 6011TIP3   OH218038   0.445   5.059   1.376  0.3056  0.2879 -0.0350
 6011TIP3    H118039   0.518   5.038   1.435  1.0156  1.7190 -0.3386
 6011TIP3    H218040   0.488   5.094   1.298 -0.6436 -1.0776 -1.2174
 6012TIP3   OH218041   6.237   0.027   3.569  0.1015 -0.0608 -0.3609
 6012TIP3    H118042   6.150   0.068   3.571 -0.1259 -0.5337 -0.3580
 6012TIP3    H218043   6.219  -0.064   3.548  0.5942 -0.1832 -0.2491
 6013TIP3   OH218044   5.913   4.497   4.120  0.1034 -0.1439 -0.3940
 6013TIP3    H118045   5.918   4.407   4.152 -0.7915 -0.8375 -2.1178
 6013TIP3    H218046   5.820   4.515   4.113  0.1908 -0.3176 -3.2226
 6014TIP3   OH218047   6.088   0.211   0.680  0.3444 -0.2811 -0.1256
 6014TIP3    H118048   6.101   0.243   0.591  1.6025  0.1911  0.2040
 6014TIP3    H218049   6.118   0.120   0.676 -2.7399 -1.3794 -0.9362
 6015TIP3   OH218050   1.724   3.686   3.776 -0.0854 -0.2936  0.2379
 6015TIP3    H118051   1.785   3.669   3.704  0.8317 -0.7095  1.0775
 6015TIP3    H218052   1.641   3.648   3.748  0.1181  0.0267 -0.8139
 6016TIP3   OH218053   5.261   2.883   1.003 -0.1901  0.1032  0.0982
 6016TIP3    H118054   5.213   2.879   0.920  0.6745  1.5478 -0.5119
 6016TIP3    H218055   5.284   2.793   1.021 -4.1890 -0.9373  1.1267
 6017TIP3   OH218056   0.249   4.552   0.141 -0.1564  0.1071 -0.2497
 6017TIP3    H118057   0.321   4.584   0.197 -0.9977  1.8706 -0.1008
 6017TIP3    H218058   0.284   4.558   0.052 -0.7371  2.9764 -0.3718
 6018TIP3   OH218059   6.185   3.941   2.354  0.6031 -0.6020  0.2354
 6018TIP3    H118060   6.236   3.861   2.368  0.2815 -0.8355  0.0602
 6018TIP3    H218061   6.103   3.926   2.399 -0.6143 -1.5194 -2.1317
 6019TIP3   OH218062   4.401   2.647   0.189  0.4234 -0.0868  0.1964
 6019TIP3    H118063   4.350   2.645   0.107  0.8555 -0.0244 -0.0752
 6019TIP3    H218064   4.408   2.740   0.210 -0.0687 -0.1238  0.5486
 6020TIP3   OH218065   1.828   5.204   2.890 -0.4419 -0.4281 -0.2134
 6020TIP3    H118066   1.750   5.251   2.919  0.2916  0.0038  1.1425
 6020TIP3    H218067   1.893   5.273   2.874  0.1775 -0.8849  0.3185
 6021TIP3   OH218068   4.100   2.741   2.810  0.6640  0.5009  0.3696
 6021TIP3    H118069   4.090   2.681   2.883 -1.2291 -1.4493 -1.3216
 6021TIP3    H218070   4.154   2.693   2.746 -0.3204  0.8216 -0.7465
 6022TIP3   OH218071   0.428   2.507   1.931 -0.3456  0.6640 -0.0047
 6022TIP3    H118072   0.380   2.445   1.985  1.5487 -0.4190  0.4940
 6022TIP3    H218073   0.444   2.582   1.988 -0.2595  0.4526  0.2470
 6023TIP3   OH218074   6.219   5.097   3.885 -0.4655 -0.1653  0.0067
 6023TIP3    H118075   6.227   5.029   3.951 -1.4366 -0.1556  0.1486
 6023TIP3    H218076   6.256   5.175   3.927  1.9308 -0.8470 -0.6341
 6024TIP3   OH218077   3.536   4.027   0.481  0.0456 -0.5402 -0.1227
 6024TIP3    H118078   3.488   3.994   0.405 -1.9166  0.1643  0.7659
 6024TIP3    H218079   3.478   4.012   0.555  1.0893  0.6077  0.9690
 6025TIP3   OH218080   3.102   5.513   0.022 -0.0582 -1.0225 -0.0086
 6025TIP3    H118081   3.015   5.497  -0.014 -0.2840 -0.4074  0.2549
 6025TIP3    H218082   3.103   5.463   0.104 -0.3602 -0.6224  0.2496
 6026TIP3   OH218083   2.275   4.947   2.747 -0.1463 -0.1135  0.5913
 6026TIP3    H118084   2.251   5.039   2.734 -1.2555 -0.6175 -1.3697
 6026TIP3    H218085   2.369   4.944   2.728 -0.4332  0.3709 -1.0524
 6027TIP3   OH218086   1.648   4.434   2.820 -0.3893 -0.0428  0.1349
 6027TIP3    H118087   1.704   4.466   2.749 -1.5913 -0.1886 -0.8993
 6027TIP3    H218088   1.702   4.445   2.899  1.7530 -1.6628 -0.9672
 6028TIP3   OH218089   1.602   3.840   4.823 -0.0743  0.1084  0.3216
 6028TIP3    H118090   1.582   3.929   4.853 -0.5038  0.0176  0.3050
 6028TIP3    H218091   1.697   3.841   4.808  0.1297  0.1963  1.5351
 6029TIP3   OH218092   3.444   0.073   4.234  0.5156  0.9025  0.5898
 6029TIP3    H118093   3.449  -0.015   4.198  1.8877  1.5168 -0.8253
 6029TIP3    H218094   3.377   0.116   4.181  1.1808  1.2416  0.0048
 6030TIP3   OH218095   0.441   3.870   4.579  0.1540  0.5702 -0.2941
 6030TIP3    H118096   0.421   3.946   4.524  0.2766  1.4526  0.8292
 6030TIP3    H218097   0.364   3.814   4.573  0.3729  0.3960 -1.7395
 6031TIP3   OH218098   2.047   5.722   4.576 -0.2881 -0.5568 -0.0512
 6031TIP3    H118099   2.014   5.690   4.660 -2.2990  1.3231 -0.0585
 6031TIP3    H218100   1.974   5.771   4.538  1.2341  0.3526 -1.9837
 6032TIP3   OH218101   2.306   1.859   2.139 -0.7798  0.1643  0.8936
 6032TIP3    H118102   2.297   1.893   2.228  1.6758 -0.9247  1.6405
 6032TIP3    H218103   2.400   1.851   2.125 -1.1406 -2.3544 -0.7646
 6033TIP3   OH218104   5.028   5.604   4.243  0.1519 -0.1511 -0.0111
 6033TIP3    H118105   5.034   5.521   4.196 -1.1631 -0.5977  0.5654
 6033TIP3    H218106   5.040   5.581   4.335 -2.8209 -0.1891  0.4878
 6034TIP3   OH218107   3.795   5.279   1.931 -0.1728  0.4029 -0.1179
 6034TIP3    H118108   3.846   5.332   1.870  0.8093 -0.2300  0.1301
 6034TIP3    H218109   3.831   5.191   1.923  0.0829  0.3309  1.4713
 6035TIP3   OH218110   2.530   1.180   1.229  0.2599  0.2274 -0.1440
 6035TIP3    H118111   2.493   1.150   1.146 -0.5831 -0.7896  0.5792
 6035TIP3    H218112   2.571   1.102   1.267  2.1530  1.0565 -0.3599
 6036TIP3   OH218113   6.281   1.969   4.164  0.6432 -0.4803 -0.0552
 6036TIP3    H118114   6.280   2.062   4.185  0.9763 -0.7325  1.1497
 6036TIP3    H218115   6.189   1.943   4.167  0.6067 -0.3210  0.2092
 6037TIP3   OH218116   4.423   3.321   4.651 -0.1676 -0.0656 -0.1314
 6037TIP3    H118117   4.351   3.336   4.589  0.8731  2.8677 -0.7457
 6037TIP3    H218118   4.483   3.264   4.604 -1.0590 -0.8136 -0.4081
 6038TIP3   OH218119   0.465   5.280   1.602 -0.3171 -0.0088  0.9639
 6038TIP3    H118120   0.514   5.232   1.668 -3.0118 -0.6025  2.6774
 6038TIP3    H218121   0.443   5.363   1.644 -1.4623 -0.0937  0.5618
 6039TIP3   OH218122   4.035   2.157   2.756  0.5195  0.2444 -0.1457
 6039TIP3    H118123   4.101   2.193   2.815  1.4428  0.5836 -1.3435
 6039TIP3    H218124   4.076   2.159   2.669 -0.4574 -1.0730 -0.6839
 6040TIP3   OH218125   1.895   0.266   0.766  0.2948 -0.6119 -0.1211
 6040TIP3    H118126   1.826   0.293   0.826 -0.9392 -1.4329 -1.1291
 6040TIP3    H218127   1.893   0.332   0.697 -1.2140 -1.9437 -1.4307
 6041TIP3   OH218128   4.620   4.352   2.600  0.1338 -0.4058  0.2602
 6041TIP3    H118129   4.647   4.348   2.509  0.6299  1.8546  0.2546
 6041TIP3    H218130   4.702   4.355   2.650 -0.0391  1.5659  0.5335
 6042TIP3   OH218131   5.203   1.783   3.825 -0.1115  0.1815  0.0800
 6042TIP3    H118132   5.238   1.770   3.913  0.0402  0.5054  0.0701
 6042TIP3    H218133   5.158   1.867   3.829 -0.2387  0.1228 -0.1095
 6043TIP3   OH218134   1.214   5.018   1.164  0.3639 -0.2057  0.2609
 6043TIP3    H118135   1.238   4.940   1.213  1.3964 -1.0026 -1.4301
 6043TIP3    H218136   1.186   4.984   1.078 -1.0200  1.1562  0.1273
 6044TIP3   OH218137   2.097   0.726   4.506 -0.3775  0.0030  0.1691
 6044TIP3    H118138   2.011   0.690   4.486  0.3114 -1.5981 -0.0672
 6044TIP3    H218139   2.113   0.790   4.437 -0.7825 -0.7372 -0.6367
 6045TIP3   OH218140   0.344   0.616   3.091  0.3763 -0.6450  0.0238
 6045TIP3    H118141   0.344   0.525   3.062  1.4625 -1.0914  1.2683
 6045TIP3    H218142   0.411   0.658   3.037  0.1926 -0.6949 -0.2445
 6046TIP3   OH218143   5.467   0.795   4.478  0.2578  0.1817  0.5706
 6046TIP3    H118144   5.381   0.815   4.516  0.7578 -0.1765  1.9749
 6046TIP3    H218145   5.455   0.807   4.384 -1.6699 -1.0973  0.5784
 6047TIP3   OH218146   4.765   5.087   2.733  0.6637  0.8706 -0.1669
 6047TIP3    H118147   4.759   5.183   2.738  3.1355  1.0495  1.3606
 6047TIP3    H218148   4.852   5.071   2.695  0.4869 -0.7746  0.0646
 6048TIP3   OH218149   5.579   2.062   4.267 -0.3117  0.1624 -0.1520
 6048TIP3    H118150   5.614   1.996   4.207  0.4853  1.7104 -1.4695
 6048TIP3    H218151   5.650   2.125   4.276 -1.3379  1.2594  0.4340
 6049TIP3   OH218152   5.293   4.175   1.433 -0.7007  0.3275  0.2792
 6049TIP3    H118153   5.387   4.188   1.421 -0.9739  1.6548 -0.6224
 6049TIP3    H218154   5.285   4.088   1.471  1.0151  0.9211  2.1837
 6050TIP3   OH218155   0.074   3.949   1.251  0.4196  0.0490 -0.3799
 6050TIP3    H118156  -0.006   3.991   1.218  0.2683 -0.0594 -0.1570
 6050TIP3    H218157   0.142   3.974   1.189  0.0439 -0.5475 -1.0401
 6051TIP3   OH218158   0.678   4.223   4.436 -0.6611  0.0164  0.2828
 6051TIP3    H118159   0.726   4.141   4.450 -0.4144  0.2031  0.5439
 6051TIP3    H218160   0.745   4.290   4.436 -0.9290  0.2919  0.7384
 6052TIP3   OH218161   4.918   0.161   3.100 -0.9350 -0.3554  0.0602
 6052TIP3    H118162   5.009   0.171   3.073 -0.7651 -2.9034 -0.6322
 6052TIP3    H218163   4.922   0.115   3.184 -1.5869  1.6500  1.2381
 6053TIP3   OH218164   0.953   5.531   4.680 -0.4297 -0.6834  0.3090
 6053TIP3    H118165   1.007   5.489   4.748 -0.9591 -1.8632  0.0241
 6053TIP3    H218166   0.974   5.624   4.688  0.9552 -1.0076  0.8149
 6054TIP3   OH218167   3.286   5.557   3.233  0.0377 -0.3931 -0.0859
 6054TIP3    H118168   3.268   5.535   3.325  2.9450 -0.1048  0.6377
 6054TIP3    H218169   3.381   5.568   3.229 -0.1965  1.5502 -2.7190
 6055TIP3   OH218170   1.425   2.756   3.935 -0.1919 -0.1346  0.3460
 6055TIP3    H118171   1.421   2.851   3.947 -1.8190  0.3275 -2.7181
 6055TIP3    H218172   1.351   2.736   3.878 -0.0281 -3.3276  1.0751
 6056TIP3   OH218173   0.499   1.701   1.326 -0.1373 -0.7244  0.0672
 6056TIP3    H118174   0.518   1.655   1.408  0.0188 -0.0195  0.4396
 6056TIP3    H218175   0.559   1.776   1.326 -1.6260  0.5369  0.3869
 6057TIP3   OH218176   0.243   0.309   4.305 -0.4402 -0.1348 -0.0110
 6057TIP3    H118177   0.229   0.388   4.356  0.0110 -0.2144  0.2407
 6057TIP3    H218178   0.163   0.300   4.252 -0.4633  0.5285 -0.1014
 6058TIP3   OH218179   5.546   0.720   3.269 -0.4943 -0.3526  0.0779
 6058TIP3    H118180   5.631   0.678   3.254 -0.1852  0.1444  0.3823
 6058TIP3    H218181   5.487   0.678   3.207 -0.3462 -1.6591  0.8036
 6059TIP3   OH218182   5.172   4.852   1.835 -0.4450  0.5824  0.0276
 6059TIP3    H118183   5.158   4.869   1.741 -1.7604  0.3167  0.1550
 6059TIP3    H218184   5.252   4.899   1.856 -0.8890  1.8143 -0.9272
 6060TIP3   OH218185   4.257   3.203   2.220  0.2712 -0.3263 -0.0240
 6060TIP3    H118186   4.173   3.244   2.242 -0.3672 -1.2695 -0.6436
 6060TIP3    H218187   4.295   3.261   2.154 -0.0127 -0.0426  0.0584
 6061TIP3   OH218188   5.323   2.534   3.559  0.3504  0.9005 -0.1640
 6061TIP3    H118189   5.328   2.497   3.471 -0.5008 -1.0967  0.5660
 6061TIP3    H218190   5.414   2.548   3.585  0.6559  0.3277 -0.8952
 6062TIP3   OH218191   3.225   0.455   4.160 -0.2540 -0.0652  0.1340
 6062TIP3    H118192   3.145   0.504   4.140  0.1271  0.7784  0.6120
 6062TIP3    H218193   3.224   0.446   4.255  0.2489 -0.0095  0.1436
 6063TIP3   OH218194   3.340   2.814   4.691 -0.4899 -0.2833  0.1825
 6063TIP3    H118195   3.396   2.886   4.721  0.6655  0.0831 -2.4974
 6063TIP3    H218196   3.366   2.739   4.745  0.7522  0.5185  0.7420
 6064TIP3   OH218197   3.887   1.571   3.749 -0.3462  0.3874  0.3662
 6064TIP3    H118198   3.832   1.593   3.673 -2.3985  2.5565  2.3281
 6064TIP3    H218199   3.926   1.655   3.775  0.4324 -0.3380  1.6382
 6065TIP3   OH218200   4.106   1.195   1.150  0.8031  0.0805  0.0967
 6065TIP3    H118201   4.177   1.214   1.089 -0.4015 -1.5428 -1.9348
 6065TIP3    H218202   4.133   1.115   1.195  0.4949 -0.2425 -0.2919
 6066TIP3   OH218203   5.238   3.748   2.067  0.0166 -0.0838 -0.2763
 6066TIP3    H118204   5.164   3.807   2.077 -0.5653 -1.1776  3.3322
 6066TIP3    H218205   5.198   3.661   2.059  0.8996 -0.3110 -2.9479
 6067TIP3   OH218206   4.598   4.700   2.336 -0.1014 -0.7382 -0.3574
 6067TIP3    H118207   4.635   4.673   2.252 -0.2177 -0.4434 -0.5018
 6067TIP3    H218208   4.507   4.722   2.318  0.5667  2.1125 -0.7543
 6068TIP3   OH218209   3.135   0.363   4.409  0.7375 -0.8560 -0.3210
 6068TIP3    H118210   3.125   0.314   4.491  1.5736  1.1142  1.0316
 6068TIP3    H218211   3.059   0.421   4.406  0.3142 -1.4441 -1.3617
 6069TIP3   OH218212   5.893   0.382   3.009  0.4921  0.0595 -0.3235
 6069TIP3    H118213   5.903   0.398   2.915 -0.7058 -0.5810 -0.5866
 6069TIP3    H218214   5.856   0.464   3.044 -0.6490 -0.2594 -0.7286
 6070TIP3   OH218215   6.313   1.439   0.424  0.2145  0.7363 -0.2394
 6070TIP3    H118216   6.243   1.414   0.485 -0.1242  0.5750 -0.6873
 6070TIP3    H218217   6.392   1.402   0.462 -0.1969 -0.5597 -0.5981
 6071TIP3   OH218218   3.663   1.789   0.134  0.0287 -0.0371  0.4147
 6071TIP3    H118219   3.694   1.848   0.202 -1.2350 -0.4831  1.4129
 6071TIP3    H218220   3.695   1.827   0.052 -0.5419  1.8766  1.0519
 6072TIP3   OH218221   3.455   1.080   3.727 -0.4365 -0.6133 -0.4159
 6072TIP3    H118222   3.539   1.036   3.738  0.5088  1.2982  0.6723
 6072TIP3    H218223   3.440   1.123   3.811 -2.8403 -1.4132 -0.3741
 6073TIP3   OH218224   5.618   0.538   1.922  0.0710 -0.0775 -0.4532
 6073TIP3    H118225   5.570   0.610   1.881 -0.5900 -0.2995 -0.0908
 6073TIP3    H218226   5.573   0.459   1.891  0.9447 -0.3614 -1.0495
 6074TIP3   OH218227   4.767   5.693   3.696 -0.4078 -0.1429 -0.4190
 6074TIP3    H118228   4.801   5.655   3.615  2.2954 -0.8808  0.9712
 6074TIP3    H218229   4.672   5.698   3.681 -0.4378 -3.4466 -2.3216
 6075TIP3   OH218230   4.510   5.001   2.222  0.1534  0.0761  0.1960
 6075TIP3    H118231   4.472   5.088   2.208  1.1668  0.3982 -0.6790
 6075TIP3    H218232   4.583   5.016   2.282  0.1776 -0.2081  0.2384
 6076TIP3   OH218233   1.502   1.045   1.516  0.2078  0.1169 -0.0301
 6076TIP3    H118234   1.484   1.018   1.606 -0.5662 -0.3288 -0.3048
 6076TIP3    H218235   1.485   1.139   1.515  0.8158  0.2373  0.4286
 6077TIP3   OH218236   0.377   1.952   1.625 -0.0121 -0.3242  0.0130
 6077TIP3    H118237   0.291   1.921   1.653 -0.8979  0.4908 -1.6590
 6077TIP3    H218238   0.380   2.043   1.655 -0.6055  0.2788 -1.6554
 6078TIP3   OH218239   0.532   5.363   4.392 -0.3386 -0.6622 -0.2024
 6078TIP3    H118240   0.490   5.430   4.339 -0.4285 -1.2641 -0.9205
 6078TIP3    H218241   0.616   5.402   4.417 -2.0794  1.4037  3.0716
 6079TIP3   OH218242   5.677   0.873   0.577 -0.2992  0.0396 -0.1806
 6079TIP3    H118243   5.626   0.852   0.499 -0.0131 -1.0095 -0.1119
 6079TIP3    H218244   5.613   0.899   0.642 -0.7577 -1.0901 -0.1464
 6080TIP3   OH218245   4.663   5.717   1.273 -0.2534 -0.6392  0.0972
 6080TIP3    H118246   4.596   5.760   1.220 -0.6246  0.8904  1.7053
 6080TIP3    H218247   4.614   5.668   1.339  0.1938 -0.5792  0.4823
 6081TIP3   OH218248   1.893   4.553   0.822  0.3079 -0.2838 -0.2097
 6081TIP3    H118249   1.852   4.596   0.747  0.5109 -0.6433 -0.5329
 6081TIP3    H218250   1.943   4.480   0.783  1.6440  0.4300  0.1107
 6082TIP3   OH218251   6.111   4.369   2.919 -0.0697  0.3254  0.1369
 6082TIP3    H118252   6.040   4.307   2.910 -0.2845  0.5565  0.2212
 6082TIP3    H218253   6.169   4.331   2.985 -0.1892  0.2074  0.1731
 6083TIP3   OH218254   4.341   0.851   1.504 -0.4434 -0.4840 -0.5090
 6083TIP3    H118255   4.367   0.942   1.514  0.3327 -0.9403  2.4283
 6083TIP3    H218256   4.420   0.806   1.474 -0.2382 -0.5268  0.0980
 6084TIP3   OH218257   2.103   5.625   4.222 -0.3923 -0.1510  0.2285
 6084TIP3    H118258   2.014   5.605   4.193 -0.0406 -2.6231  0.6331
 6084TIP3    H218259   2.135   5.543   4.260  1.8372  0.8597  0.7044
 6085TIP3   OH218260   0.985   5.850   5.080 -0.5193 -0.1696 -0.0880
 6085TIP3    H118261   0.968   5.775   5.024 -0.0561  0.5608 -1.2407
 6085TIP3    H218262   0.996   5.812   5.167 -2.0323 -1.2482 -0.3156
 6086TIP3   OH218263   4.558   2.293   4.288 -0.1650 -0.3181 -0.0882
 6086TIP3    H118264   4.503   2.215   4.301  0.9240 -0.9100  1.1900
 6086TIP3    H218265   4.578   2.323   4.377  0.4937  0.6552 -0.5521
 6087TIP3   OH218266   2.995   5.077   0.101 -0.3154 -0.1341 -0.2392
 6087TIP3    H118267   2.915   5.046   0.059  0.1331 -1.9566  0.1533
 6087TIP3    H218268   3.013   5.012   0.169  0.7548  0.9832  0.5872
 6088TIP3   OH218269   5.294   1.193   4.215 -0.1779 -0.4294  0.0681
 6088TIP3    H118270   5.288   1.258   4.285 -0.7532  0.3131 -0.6368
 6088TIP3    H218271   5.372   1.219   4.165  0.7561 -1.4961  0.9355
 6089TIP3   OH218272   1.332   3.761   1.940 -0.3330  0.3972  0.5745
 6089TIP3    H118273   1.361   3.777   2.029 -1.9837 -0.4914  1.3315
 6089TIP3    H218274   1.271   3.687   1.948  0.3366 -0.4513 -1.4534
 6090TIP3   OH218275   0.111   0.508   3.804  0.3254 -0.2220  0.5029
 6090TIP3    H118276   0.192   0.543   3.842  0.4668 -0.0898  0.0857
 6090TIP3    H218277   0.105   0.549   3.718  0.0895 -0.6307  0.3198
 6091TIP3   OH218278   3.105   1.961   0.124 -0.1158  0.2958  0.6355
 6091TIP3    H118279   3.049   2.014   0.180 -0.1245  0.9394  0.0340
 6091TIP3    H218280   3.045   1.904   0.077 -0.3156  1.1845 -0.2205
 6092TIP3   OH218281   3.566   1.252   4.405  0.2165 -0.0673 -0.1744
 6092TIP3    H118282   3.647   1.269   4.453  0.2986 -0.7273 -0.0777
 6092TIP3    H218283   3.591   1.258   4.313  0.6412 -1.4622 -0.1611
 6093TIP3   OH218284   4.300   0.489   1.259 -0.3780  0.1361  0.0559
 6093TIP3    H118285   4.366   0.559   1.259 -0.7268  0.4705  0.3508
 6093TIP3    H218286   4.322   0.435   1.183  0.2531  0.2268  0.1693
 6094TIP3   OH218287   5.306   5.088   1.929  0.3502 -0.4116  0.3019
 6094TIP3    H118288   5.249   5.136   1.868  2.4698 -0.0831 -1.5554
 6094TIP3    H218289   5.371   5.152   1.956  1.0984 -1.2986  0.6622
 6095TIP3   OH218290   4.784   2.137   1.652 -0.4172 -0.1220 -0.4317
 6095TIP3    H118291   4.770   2.046   1.678  0.3878  0.1790  1.2142
 6095TIP3    H218292   4.698   2.178   1.658 -0.5154 -0.4289  0.3212
 6096TIP3   OH218293   0.077   1.743   1.815  0.0706  0.1792 -0.2461
 6096TIP3    H118294   0.127   1.820   1.788 -1.1273  0.9290 -0.3954
 6096TIP3    H218295  -0.004   1.779   1.851  0.8012 -0.8359  2.6996
 6097TIP3   OH218296   2.569   5.386   4.377 -0.5702 -0.7119 -0.8356
 6097TIP3    H118297   2.569   5.373   4.472  3.2116 -0.6127 -0.6733
 6097TIP3    H218298   2.540   5.302   4.341 -0.7652 -1.1817  0.3789
 6098TIP3   OH218299   5.065   4.605   1.258 -1.1411 -0.4255  1.0131
 6098TIP3    H118300   5.038   4.563   1.175 -1.2493  2.3946 -0.4843
 6098TIP3    H218301   5.142   4.555   1.285  0.2597 -0.1547 -2.0161
 6099TIP3   OH218302   1.081   0.176   1.559 -0.1159  0.2109  0.2229
 6099TIP3    H118303   1.084   0.117   1.483 -0.4975  0.4785 -0.0090
 6099TIP3    H218304   0.992   0.165   1.594  0.4533 -0.8453  1.3987
 6100TIP3   OH218305   4.188   0.615   4.651 -0.0730 -0.2046  0.1323
 6100TIP3    H118306   4.097   0.646   4.657 -0.4536 -1.0515 -0.9146
 6100TIP3    H218307   4.189   0.562   4.572  1.6634  0.8368 -0.5926
 6101TIP3   OH218308   4.916   5.642   1.852  0.1991 -0.3964 -0.2752
 6101TIP3    H118309   4.874   5.715   1.805  0.1317 -0.3763 -0.1838
 6101TIP3    H218310   4.930   5.576   1.784  1.2745  0.1300 -0.5853
 6102TIP3   OH218311   2.318   4.907   3.021 -0.0193 -0.1264  0.0119
 6102TIP3    H118312   2.295   4.908   2.928  1.1395  0.2678 -0.2847
 6102TIP3    H218313   2.370   4.827   3.032 -1.6576 -1.1577  0.7375
 6103TIP3   OH218314   1.530   5.333   1.832 -0.5529 -0.2493 -0.2869
 6103TIP3    H118315   1.537   5.306   1.741 -0.2388  2.3364 -1.1284
 6103TIP3    H218316   1.437   5.348   1.846 -0.7168 -1.5549  0.1526
 6104TIP3   OH218317   4.154   5.381   4.149  0.1693  0.2876  0.1960
 6104TIP3    H118318   4.168   5.461   4.098 -1.5775  0.5284  0.0219
 6104TIP3    H218319   4.109   5.322   4.088 -0.0183 -0.2104  0.8140
 6105TIP3   OH218320   6.029   4.999   1.049 -0.1623 -0.0280  0.1913
 6105TIP3    H118321   6.094   5.011   0.980  1.0943  0.6659  1.4504
 6105TIP3    H218322   6.078   5.008   1.131 -2.1528  2.6483  1.2390
 6106TIP3   OH218323   2.358   1.007   1.796 -0.0886  0.0223  0.1594
 6106TIP3    H118324   2.403   0.922   1.791 -1.8922 -0.9385 -0.8746
 6106TIP3    H218325   2.424   1.071   1.770  0.7183 -1.3209 -1.2888
 6107TIP3   OH218326   6.130   2.199   1.506  0.3656  0.0700 -0.4246
 6107TIP3    H118327   6.180   2.281   1.498  0.9451 -0.4231 -2.7519
 6107TIP3    H218328   6.196   2.132   1.521 -0.0188 -0.1163  0.5090
 6108TIP3   OH218329   5.114   3.012   2.706  0.4034 -0.1122 -0.3736
 6108TIP3    H118330   5.206   3.026   2.728  0.0933  0.5013  0.6328
 6108TIP3    H218331   5.067   3.073   2.762 -0.6125 -0.2943 -1.0022
 6109TIP3   OH218332   4.592   3.415   2.306  0.1230 -0.3335 -0.0160
 6109TIP3    H118333   4.568   3.323   2.314  2.3878 -0.8949  1.0745
 6109TIP3    H218334   4.532   3.461   2.366 -1.9910 -0.8090 -1.6165
 6110TIP3   OH218335   5.031   4.916   3.780 -0.3276 -0.5277 -0.7432
 6110TIP3    H118336   5.000   4.893   3.867 -0.7052 -0.2088 -0.7911
 6110TIP3    H218337   5.107   4.972   3.795 -0.8345  0.1367 -0.6072
 6111TIP3   OH218338   5.899   3.923   0.181 -0.1336  0.1102  0.5399
 6111TIP3    H118339   5.890   4.009   0.140  3.3694  0.3841  0.0857
 6111TIP3    H218340   5.926   3.865   0.111 -0.0631 -0.8278  1.3152
 6112TIP3   OH218341   6.153   2.380   2.995  0.2172  0.4110  0.7107
 6112TIP3    H118342   6.151   2.304   2.936  1.8063  0.0051  1.1209
 6112TIP3    H218343   6.166   2.343   3.082 -1.2029  1.0594  1.2170
 6113TIP3   OH218344   0.962   3.570   0.894 -0.2445 -0.3070 -0.6218
 6113TIP3    H118345   1.001   3.625   0.963 -0.2793 -0.5238 -0.4313
 6113TIP3    H218346   1.028   3.571   0.824  1.2810 -2.7025  0.6606
 6114TIP3   OH218347   5.346   2.664   4.292 -0.4841 -0.0145 -0.0107
 6114TIP3    H118348   5.354   2.738   4.232 -0.9353 -0.2307 -0.3463
 6114TIP3    H218349   5.373   2.588   4.241  1.3239  0.0702  0.7402
 6115TIP3   OH218350   1.378   5.070   0.390  0.1890  0.2430 -0.0837
 6115TIP3    H118351   1.311   5.037   0.451  0.0616  1.7060  0.6317
 6115TIP3    H218352   1.338   5.149   0.353  1.0353  0.4289 -0.6011
 6116TIP3   OH218353   1.011   5.031   1.831 -0.5216 -0.2471 -0.3123
 6116TIP3    H118354   1.082   4.970   1.851 -2.6878 -2.9436 -0.1368
 6116TIP3    H218355   1.049   5.095   1.771  1.9785 -1.6423 -0.3314
 6117TIP3   OH218356   5.363   5.648   2.150 -0.5773  0.4894  0.0082
 6117TIP3    H118357   5.351   5.739   2.122 -1.4069  0.5322  0.4769
 6117TIP3    H218358   5.296   5.635   2.217  0.5216 -0.0061  1.0510
 6118TIP3   OH218359   0.550   5.205   2.221  0.5765 -0.0785  0.1717
 6118TIP3    H118360   0.484   5.257   2.176 -0.5072 -0.4001  1.2986
 6118TIP3    H218361   0.522   5.114   2.207  0.1779 -0.1830  1.4894
 6119TIP3   OH218362   4.287   0.050   4.297 -0.1274  0.1237  0.2769
 6119TIP3    H118363   4.377   0.073   4.275  0.2349 -2.1479 -0.9215
 6119TIP3    H218364   4.289   0.024   4.389 -0.2886  3.2064  1.2569
 6120TIP3   OH218365   6.240   3.629   4.289 -0.2399 -0.6166  0.0910
 6120TIP3    H118366   6.304   3.650   4.357 -0.0034  0.2266 -0.3845
 6120TIP3    H218367   6.292   3.598   4.215 -0.4559 -0.9266  0.0665
 6121TIP3   OH218368   4.015   2.753   2.141  0.3184 -0.0145  0.3107
 6121TIP3    H118369   3.963   2.754   2.221  1.5242 -0.7825  1.1369
 6121TIP3    H218370   4.086   2.816   2.158 -0.8136  1.7712 -1.1781
 6122TIP3   OH218371   3.160   0.362   0.908 -0.2817 -0.1347  0.1689
 6122TIP3    H118372   3.195   0.443   0.946 -0.7588 -0.6984  1.9235
 6122TIP3    H218373   3.203   0.354   0.823  0.3005  1.5900  0.2717
 6123TIP3   OH218374   5.503   0.316   4.186 -0.2051  0.1403 -0.2728
 6123TIP3    H118375   5.485   0.378   4.115 -1.5313  1.8957  1.4999
 6123TIP3    H218376   5.566   0.362   4.241  0.8073 -1.2092 -0.2563
 6124TIP3   OH218377   2.115   5.029   0.671 -0.3544 -0.3854 -0.4879
 6124TIP3    H118378   2.081   5.034   0.760 -0.3300  0.8573 -0.5277
 6124TIP3    H218379   2.081   4.947   0.636 -2.4550  0.3145 -0.1918
 6125TIP3   OH218380   1.094   1.147   4.614 -0.2846  0.3678 -0.0480
 6125TIP3    H118381   1.078   1.233   4.576 -1.4971 -0.2006 -0.8462
 6125TIP3    H218382   1.008   1.105   4.618  0.2667 -0.7685  0.4572
 6126TIP3   OH218383   5.913   3.425   2.657 -0.3450  0.2669 -0.6187
 6126TIP3    H118384   5.949   3.348   2.614  0.3196 -0.7286  1.5761
 6126TIP3    H218385   5.822   3.402   2.676 -0.1681  0.0219 -0.0330
 6127TIP3   OH218386   1.050   3.143   0.260  0.0645  1.1935 -0.3904
 6127TIP3    H118387   0.960   3.163   0.287  0.4207  1.6650  0.4984
 6127TIP3    H218388   1.072   3.063   0.307  0.5204  1.7520  0.3768
 6128TIP3   OH218389   4.990   5.281   4.305  0.0231 -0.3764 -0.2736
 6128TIP3    H118390   5.022   5.349   4.364 -1.4881 -0.3332  0.5431
 6128TIP3    H218391   4.902   5.262   4.336 -1.5210  0.8154 -3.5027
 6129TIP3   OH218392   0.287   0.367  -0.009  0.0913 -0.6805 -0.4665
 6129TIP3    H118393   0.217   0.401   0.046  1.4560  0.7539  0.4642
 6129TIP3    H218394   0.346   0.441  -0.021  2.0052 -2.1142 -0.2973
 6130TIP3   OH218395   3.398   5.666   3.528 -0.6508 -0.3645  0.0947
 6130TIP3    H118396   3.349   5.736   3.485  1.3808  0.6120 -0.7150
 6130TIP3    H218397   3.453   5.711   3.593  0.7131 -1.1762 -0.4609
 6131TIP3   OH218398   3.897   5.621   0.284 -0.1468 -0.0555 -0.1751
 6131TIP3    H118399   3.952   5.553   0.324 -0.2516 -0.0654 -0.0449
 6131TIP3    H218400   3.955   5.697   0.278 -0.4821  0.3487  1.2045
 6132TIP3   OH218401   1.505   4.690   2.847  0.3507 -0.1039  0.1450
 6132TIP3    H118402   1.458   4.623   2.798  2.0862 -2.3139  1.2953
 6132TIP3    H218403   1.580   4.712   2.792  0.8879 -0.6635  0.6338
 6133TIP3   OH218404   5.787   0.734   4.769  0.3093 -0.4111 -0.1683
 6133TIP3    H118405   5.851   0.803   4.755 -0.1511 -0.0337 -0.4318
 6133TIP3    H218406   5.708   0.780   4.799 -0.3313 -0.7078 -1.3455
 6134TIP3   OH218407   1.004   5.577   1.933  0.7065  0.5117 -0.0393
 6134TIP3    H118408   1.009   5.653   1.991  0.7477  1.0595 -0.7470
 6134TIP3    H218409   1.057   5.510   1.977  1.2527  1.1193  0.2462
 6135TIP3   OH218410   1.800   4.182   2.368  0.4207  0.3876  0.2144
 6135TIP3    H118411   1.744   4.259   2.372  1.6413  1.3773 -0.9596
 6135TIP3    H218412   1.757   4.119   2.426  0.6376  2.7261  3.1899
 6136TIP3   OH218413   0.084   0.018   3.008 -0.0548  0.0651  0.2491
 6136TIP3    H118414   0.024   0.089   2.983 -1.6174 -1.5659 -0.8700
 6136TIP3    H218415   0.046  -0.060   2.967  2.2047 -1.2423  0.5288
 6137TIP3   OH218416   1.890   3.087   5.122 -0.4611  0.6240 -0.0300
 6137TIP3    H118417   1.879   3.079   5.216  0.7678 -1.5888  0.0006
 6137TIP3    H218418   1.984   3.100   5.110 -0.5907  0.7633 -0.9661
 6138TIP3   OH218419   0.657   3.359   2.579 -0.6472  0.2936 -0.4174
 6138TIP3    H118420   0.717   3.303   2.628  0.5267  0.3917 -1.6823
 6138TIP3    H218421   0.708   3.389   2.504 -2.1558  0.7561 -1.2982
 6139TIP3   OH218422   4.221   5.339   5.076  0.2303 -0.6218  0.4644
 6139TIP3    H118423   4.164   5.366   5.148 -1.0370 -4.3149  1.0966
 6139TIP3    H218424   4.168   5.351   4.997  0.5790  0.8227  0.4363
 6140TIP3   OH218425   2.192   1.198   2.843  0.3979  0.1453 -0.1088
 6140TIP3    H118426   2.277   1.196   2.799  0.1360  1.2385 -0.6944
 6140TIP3    H218427   2.149   1.118   2.813  1.7098 -1.1672  1.2884
 6141TIP3   OH218428   5.180   4.687   2.652 -0.1628  0.3742  0.0232
 6141TIP3    H118429   5.223   4.769   2.630  0.4275 -0.0682 -0.4724
 6141TIP3    H218430   5.241   4.642   2.710 -0.3391  0.1359  0.0267
 6142TIP3   OH218431   3.767   2.976   0.765  0.1677 -0.2260  0.1096
 6142TIP3    H118432   3.790   2.902   0.822 -1.9770  0.3161  1.8367
 6142TIP3    H218433   3.760   2.938   0.678 -1.1408 -2.1809  0.9817
 6143TIP3   OH218434   4.827   5.271   4.957 -0.2280 -0.3270  0.0927
 6143TIP3    H118435   4.743   5.266   4.911  0.4644 -0.8623 -1.2059
 6143TIP3    H218436   4.853   5.363   4.951 -0.0971 -0.4065 -0.7317
 6144TIP3   OH218437   0.410   2.000   2.266 -0.1880 -0.0179  0.2171
 6144TIP3    H118438   0.500   1.975   2.246 -0.8099 -0.3154 -2.5122
 6144TIP3    H218439   0.418   2.077   2.322  1.7958  0.7551 -1.0512
 6145TIP3   OH218440   2.500   1.896   0.571 -0.0833  0.5011  0.8377
 6145TIP3    H118441   2.515   1.930   0.483  0.3537 -2.0022 -0.1570
 6145TIP3    H218442   2.584   1.904   0.615 -0.1447  1.2031  0.8377
 6146TIP3   OH218443   0.213   3.085   1.258  0.5818 -0.6824 -0.3616
 6146TIP3    H118444   0.296   3.048   1.228  0.3741 -1.7207  0.2863
 6146TIP3    H218445   0.154   3.077   1.183  1.0494  0.0515 -0.8226
 6147TIP3   OH218446   3.664   5.144   3.799 -0.4691 -0.3611  0.6899
 6147TIP3    H118447   3.661   5.053   3.830 -1.0425 -0.2604  0.9329
 6147TIP3    H218448   3.727   5.187   3.856 -0.7846 -0.4179  1.0874
 6148TIP3   OH218449   1.839   5.018   2.371  0.3612  0.0876 -0.3531
 6148TIP3    H118450   1.838   4.944   2.311 -1.0118  0.0806 -0.3695
 6148TIP3    H218451   1.865   5.093   2.317  0.1263 -0.0981 -0.7291
 6149TIP3   OH218452   4.705   0.597   1.584  0.2761  0.3353 -0.4054
 6149TIP3    H118453   4.653   0.525   1.546 -0.9090  0.3637  1.0622
 6149TIP3    H218454   4.786   0.555   1.612 -0.6721 -0.6499  1.0550
 6150TIP3   OH218455   4.155   1.775   0.967 -0.2254  0.0090 -0.0179
 6150TIP3    H118456   4.087   1.819   1.018  0.4550  0.5531  0.4448
 6150TIP3    H218457   4.144   1.809   0.878  1.9342  3.3269  0.7733
 6151TIP3   OH218458   4.035   4.649   3.075  0.1517  0.4051  0.3258
 6151TIP3    H118459   4.096   4.722   3.087  0.8455 -0.0418 -0.2974
 6151TIP3    H218460   4.066   4.607   2.994  0.2832 -1.0588  1.1117
 6152TIP3   OH218461   0.088   3.007   1.036 -0.4190 -0.3879 -0.1796
 6152TIP3    H118462   0.019   3.007   0.971  1.1655 -1.9096 -1.9518
 6152TIP3    H218463   0.153   2.945   1.004  1.8724  1.0625  1.3071
 6153TIP3   OH218464   1.301   0.514   0.454  0.1722  0.1470 -0.0177
 6153TIP3    H118465   1.272   0.590   0.504 -2.3799  0.6659 -2.0607
 6153TIP3    H218466   1.373   0.547   0.399  0.8353  0.3771  0.9749
 6154TIP3   OH218467   4.788   1.047   1.198 -0.4272 -0.7937  0.5532
 6154TIP3    H118468   4.868   1.099   1.209  0.3541 -1.8620  0.0678
 6154TIP3    H218469   4.730   1.104   1.146  0.8819 -0.8333 -1.0608
 6155TIP3   OH218470   2.516   5.487   5.151  0.6125 -0.2597 -0.2440
 6155TIP3    H118471   2.543   5.560   5.096  0.4895  0.7609  1.0126
 6155TIP3    H218472   2.589   5.424   5.145  0.1813 -0.6180 -2.2941
 6156TIP3   OH218473   5.630   3.723   0.218  0.1695 -0.3528  0.2495
 6156TIP3    H118474   5.694   3.794   0.209  0.7247 -0.8401  0.2924
 6156TIP3    H218475   5.602   3.704   0.129  0.5555 -0.5555  0.1678
 6157TIP3   OH218476   3.223   4.907   3.619 -0.3343  0.1558  0.5711
 6157TIP3    H118477   3.238   4.999   3.598 -2.4936  0.5722  0.6203
 6157TIP3    H218478   3.130   4.902   3.641 -0.1742 -1.9669  1.0199
 6158TIP3   OH218479   0.146   3.256   4.465 -0.2714  0.3675  0.1173
 6158TIP3    H118480   0.230   3.301   4.471 -0.3868  0.8868 -1.5018
 6158TIP3    H218481   0.165   3.165   4.487  0.6972  0.4945 -0.1565
 6159TIP3   OH218482   4.163   0.766   5.153  0.0392 -0.9250 -0.8672
 6159TIP3    H118483   4.090   0.825   5.133  1.5804  2.6265  2.6398
 6159TIP3    H218484   4.237   0.803   5.105  0.6527 -1.0511 -0.0312
 6160TIP3   OH218485   2.919   1.393   3.948 -0.2940  0.0040  0.2098
 6160TIP3    H118486   2.937   1.441   3.867 -2.2315 -0.3693 -0.5087
 6160TIP3    H218487   2.951   1.450   4.017 -0.0786  1.0908 -0.7522
 6161TIP3   OH218488   0.272   0.447   0.962  0.3905 -0.7583 -0.1527
 6161TIP3    H118489   0.243   0.476   0.875 -1.4323 -1.4720  0.1763
 6161TIP3    H218490   0.361   0.413   0.948  1.4009  1.9903 -1.1311
 6162TIP3   OH218491   0.640   0.368   0.481  0.1699 -0.4439 -0.3069
 6162TIP3    H118492   0.660   0.376   0.388 -0.0668 -0.6308 -0.3756
 6162TIP3    H218493   0.635   0.273   0.496 -1.5401 -0.4229 -0.4901
 6163TIP3   OH218494   5.250   0.192   1.388 -0.7848  0.4567 -0.2811
 6163TIP3    H118495   5.266   0.203   1.482 -2.1998 -1.8781  0.3051
 6163TIP3    H218496   5.204   0.272   1.363 -0.5729  1.0286  1.0367
 6164TIP3   OH218497   0.084   1.983   3.344  0.1015 -0.0862  0.5849
 6164TIP3    H118498   0.179   1.990   3.344  0.2937 -2.0883  1.7152
 6164TIP3    H218499   0.055   2.047   3.410  0.8049 -0.7241  1.5285
 6165TIP3   OH218500   3.434   2.038   3.339 -0.1453 -0.1065 -0.0228
 6165TIP3    H118501   3.411   2.130   3.352 -0.6903 -0.2535  0.0694
 6165TIP3    H218502   3.472   2.035   3.251 -0.4317  0.1491 -0.1547
 6166TIP3   OH218503   3.213   1.919   2.406 -0.4521 -0.3571 -0.7260
 6166TIP3    H118504   3.162   1.846   2.443  1.2021 -1.0280  0.3572
 6166TIP3    H218505   3.300   1.882   2.392  0.3438  1.3232 -0.4425
 6167TIP3   OH218506   2.542   3.054   4.619 -0.6313  0.0523 -0.0701
 6167TIP3    H118507   2.483   3.058   4.544 -1.5771  0.0905  0.6537
 6167TIP3    H218508   2.485   3.033   4.693 -0.0124  1.8027  0.9607
 6168TIP3   OH218509   3.155   0.273   3.786  0.4696 -0.7866  0.1665
 6168TIP3    H118510   3.068   0.247   3.758  1.1641 -1.8077 -1.1490
 6168TIP3    H218511   3.213   0.244   3.716  1.5042  3.4855 -1.0211
 6169TIP3   OH218512   0.932   2.775   3.784  0.2286  0.1942 -0.2664
 6169TIP3    H118513   0.877   2.849   3.811  1.7540  2.4177 -2.7257
 6169TIP3    H218514   0.869   2.710   3.752 -1.0928  1.7170 -0.9218
 6170TIP3   OH218515   4.120   5.726   3.096  0.5661 -0.5807  0.0383
 6170TIP3    H118516   4.202   5.683   3.072  0.3370 -0.5908 -0.7807
 6170TIP3    H218517   4.112   5.798   3.034 -0.1813 -0.7505 -0.0725
 6171TIP3   OH218518   4.510   3.036   1.469  0.7367  0.4116  0.3818
 6171TIP3    H118519   4.437   3.050   1.529 -0.2074  0.0457 -0.6436
 6171TIP3    H218520   4.512   2.941   1.455 -0.6825  0.6473 -2.0376
 6172TIP3   OH218521   0.667   0.909   4.775  0.4356  0.4829 -0.4995
 6172TIP3    H118522   0.684   0.815   4.780  1.7048  0.6307 -1.5006
 6172TIP3    H218523   0.683   0.941   4.864  0.6027 -0.1556 -0.2919
 6173TIP3   OH218524   0.731   5.661   3.231 -0.0714 -0.0878 -0.8877
 6173TIP3    H118525   0.786   5.738   3.244  0.4402 -0.6201  0.3185
 6173TIP3    H218526   0.768   5.595   3.290 -1.5751 -0.6850 -0.5441
 6174TIP3   OH218527   5.800   5.759   0.753  0.0804 -0.0590  0.6715
 6174TIP3    H118528   5.790   5.670   0.721  0.6968  0.5274 -1.2679
 6174TIP3    H218529   5.712   5.797   0.745 -0.1426 -0.4144  1.3350
 6175TIP3   OH218530   4.390   3.354   0.530  0.0623  0.5000 -0.1009
 6175TIP3    H118531   4.344   3.290   0.584  0.7155 -1.2901 -1.5455
 6175TIP3    H218532   4.340   3.357   0.449 -0.2764  2.3082  0.1436
 6176TIP3   OH218533   5.436   5.716   0.573  0.3961 -0.0549 -0.5872
 6176TIP3    H118534   5.400   5.731   0.485  0.0962  1.5760 -0.2299
 6176TIP3    H218535   5.383   5.645   0.608 -1.9223  1.6044 -0.4607
 6177TIP3   OH218536   1.519   0.223   1.415  0.7532  1.0540 -0.0279
 6177TIP3    H118537   1.569   0.156   1.462 -0.6771  0.0726  0.1468
 6177TIP3    H218538   1.456   0.256   1.479  0.6663  1.7349 -0.4527
 6178TIP3   OH218539   1.896   1.874   4.461 -0.6606  0.4609 -0.5973
 6178TIP3    H118540   1.947   1.951   4.485  3.0594 -2.1114  0.7244
 6178TIP3    H218541   1.909   1.866   4.366  0.2557  0.6650 -0.5017
 6179TIP3   OH218542   5.664   3.891   4.139  0.1397 -0.0600 -0.2968
 6179TIP3    H118543   5.655   3.864   4.230 -0.3650  0.9324 -0.0400
 6179TIP3    H218544   5.596   3.958   4.127  1.2759  1.0151 -0.9239
 6180TIP3   OH218545   2.315   0.464   3.773 -0.6507 -0.5850  0.7939
 6180TIP3    H118546   2.268   0.512   3.842 -1.3607 -0.1873  0.0496
 6180TIP3    H218547   2.246   0.428   3.717 -0.2311  3.0486 -2.4840
 6181TIP3   OH218548   0.772   5.258   5.010 -0.5835 -0.1995  0.8556
 6181TIP3    H118549   0.734   5.346   5.011 -2.4017 -0.8903  3.4203
 6181TIP3    H218550   0.743   5.219   5.093 -0.4454 -3.4804 -0.5047
 6182TIP3   OH218551   4.734   4.632   3.915  0.3963  0.2832 -1.0212
 6182TIP3    H118552   4.764   4.544   3.938  0.7109  0.8680  1.0165
 6182TIP3    H218553   4.639   4.630   3.927  0.4863  0.4053 -0.2620
 6183TIP3   OH218554   4.956   4.085   0.660 -0.5057 -0.2895 -0.4900
 6183TIP3    H118555   4.883   4.147   0.654 -0.0548  0.4212  0.9726
 6183TIP3    H218556   5.014   4.123   0.726 -0.4991 -2.5619  0.9014
 6184TIP3   OH218557   1.506   2.270   4.669  0.2610  0.2657  0.3521
 6184TIP3    H118558   1.558   2.232   4.598  1.2715  1.6361  0.3256
 6184TIP3    H218559   1.451   2.336   4.626  1.3630  1.5777  0.8967
 6185TIP3   OH218560   6.236   3.832   0.261  0.0793  0.0633 -0.3914
 6185TIP3    H118561   6.240   3.796   0.173 -0.3526 -1.0329  0.0263
 6185TIP3    H218562   6.280   3.768   0.316  1.6202  1.3956  0.0149
 6186TIP3   OH218563   5.701   3.494   1.559 -0.5952 -0.1890 -0.0058
 6186TIP3    H118564   5.671   3.511   1.649  0.4596 -0.3415  0.3942
 6186TIP3    H218565   5.676   3.572   1.510 -1.8423 -0.4106  0.2401
 6187TIP3   OH218566   3.122   2.137   2.528  0.0949  0.1901  0.1143
 6187TIP3    H118567   3.156   2.061   2.480  0.7440  0.2793  0.4212
 6187TIP3    H218568   3.194   2.200   2.526  0.4646 -0.1181  1.9240
 6188TIP3   OH218569   3.687   5.335   3.145 -0.2722  0.4448  0.3973
 6188TIP3    H118570   3.666   5.319   3.053 -1.4747  0.9151  0.5681
 6188TIP3    H218571   3.773   5.376   3.143  0.2045 -0.5466 -0.4349
 6189TIP3   OH218572   3.931   3.770   1.668  0.6091 -0.1604 -0.2855
 6189TIP3    H118573   3.991   3.791   1.597  1.1465 -0.2508  0.1324
 6189TIP3    H218574   3.979   3.794   1.748  0.0092 -0.0395  0.0474
 6190TIP3   OH218575   1.999   5.568   1.439 -0.6064 -0.5257  0.9680
 6190TIP3    H118576   1.966   5.641   1.387  2.5277 -0.4003 -1.0901
 6190TIP3    H218577   2.030   5.608   1.520  0.1875  0.2754  0.2733
 6191TIP3   OH218578   3.958   3.075   3.689 -0.0622  0.1237 -0.0459
 6191TIP3    H118579   3.973   3.067   3.784  1.6105 -0.1238 -0.2898
 6191TIP3    H218580   3.936   2.987   3.661 -1.2687  0.3286  0.1931
 6192TIP3   OH218581   3.015   4.124   2.040 -0.5099  0.6574 -0.5443
 6192TIP3    H118582   2.964   4.167   2.110  0.2061  0.4977  0.0868
 6192TIP3    H218583   3.026   4.034   2.071 -2.1800 -0.0816 -1.9552
 6193TIP3   OH218584   0.920   4.280   0.959  0.2344  0.3874 -0.3501
 6193TIP3    H118585   0.968   4.255   0.880 -0.0029  0.6558 -0.5808
 6193TIP3    H218586   0.904   4.374   0.949 -0.4070  0.2846 -0.3160
 6194TIP3   OH218587   1.018   1.833   1.277  0.6824 -0.2065  0.1317
 6194TIP3    H118588   1.050   1.763   1.333  1.5565  0.5411  0.5857
 6194TIP3    H218589   1.054   1.914   1.315  1.0391  0.3477 -1.2906
 6195TIP3   OH218590   1.482   0.746   1.425 -0.3943  0.0883 -0.3379
 6195TIP3    H118591   1.390   0.739   1.450 -0.4434  0.5671 -0.3811
 6195TIP3    H218592   1.511   0.830   1.461 -0.2658  0.4412 -1.2466
 6196TIP3   OH218593   3.935   3.406   2.990 -0.4347 -1.3359  0.1650
 6196TIP3    H118594   4.015   3.370   2.952 -0.2065 -0.3956 -0.2839
 6196TIP3    H218595   3.942   3.500   2.974 -0.6309 -0.9680  1.9837
 6197TIP3   OH218596   4.351   1.299   3.564  0.1178 -1.0645  0.2373
 6197TIP3    H118597   4.256   1.286   3.560 -0.1808  0.8699  0.3615
 6197TIP3    H218598   4.376   1.324   3.475  0.2545 -0.1065  0.5310
 6198TIP3   OH218599   3.213   3.620   1.175 -0.1963 -0.0806  0.1622
 6198TIP3    H118600   3.166   3.702   1.160 -0.9964 -0.6606 -0.6082
 6198TIP3    H218601   3.305   3.645   1.180 -0.5164  1.0005  1.0734
 6199TIP3   OH218602   4.493   3.443   1.609 -0.2965  0.2006  0.3929
 6199TIP3    H118603   4.481   3.507   1.679  2.3022  1.2051  0.0527
 6199TIP3    H218604   4.584   3.454   1.581 -0.8783 -0.9416 -2.3923
 6200TIP3   OH218605   3.216   5.488   0.773 -0.0599 -0.0747  0.1694
 6200TIP3    H118606   3.200   5.432   0.849 -1.5927  1.7282  1.2431
 6200TIP3    H218607   3.294   5.539   0.797  0.0374 -0.1923  0.1065
 6201TIP3   OH218608   2.061   4.761   0.615  0.1079  0.3760 -0.2394
 6201TIP3    H118609   2.126   4.690   0.615  0.7485  0.9549 -0.6000
 6201TIP3    H218610   1.978   4.717   0.595  0.4370 -0.3228 -0.0910
 6202TIP3   OH218611   1.920   4.155   4.160  0.0829 -0.0528 -0.1306
 6202TIP3    H118612   1.967   4.115   4.233  0.2761 -0.1317 -0.2961
 6202TIP3    H218613   1.885   4.082   4.110 -0.2862  0.0098  0.0407
 6203TIP3   OH218614   3.797   5.501   4.022 -0.2395 -0.4073 -0.3805
 6203TIP3    H118615   3.855   5.517   4.097 -0.7217 -2.0538  0.3867
 6203TIP3    H218616   3.799   5.406   4.011 -1.6590 -0.3485 -1.2763
 6204TIP3   OH218617   1.676   5.986   1.455  0.0765  0.3097 -0.1420
 6204TIP3    H118618   1.726   5.948   1.526  1.5222 -2.3031 -2.3599
 6204TIP3    H218619   1.634   5.912   1.412  0.6659  1.4675 -2.9925
 6205TIP3   OH218620   6.317   2.336   3.631  0.8389 -0.1449  0.0551
 6205TIP3    H118621   6.357   2.349   3.545  1.7642 -1.5002  0.2479
 6205TIP3    H218622   6.279   2.248   3.627 -1.7121  0.8780  0.0756
 6206TIP3   OH218623   2.252   5.285   2.117  0.4291  0.2521  0.5178
 6206TIP3    H118624   2.199   5.276   2.197  0.0641 -1.0871  0.1462
 6206TIP3    H218625   2.338   5.252   2.142 -0.1414 -1.8298 -0.0650
 6207TIP3   OH218626   2.250   5.566   1.667 -0.5710  0.1839  0.7367
 6207TIP3    H118627   2.217   5.510   1.738  0.3806  0.7655  1.6550
 6207TIP3    H218628   2.307   5.629   1.711 -0.1218  0.6758 -0.5290
 6208TIP3   OH218629   2.160   4.948   1.160 -0.4117 -0.0073  0.2815
 6208TIP3    H118630   2.144   4.892   1.085 -0.7052 -0.4013  0.6338
 6208TIP3    H218631   2.075   4.984   1.182 -0.6805 -1.2957  1.5153
 6209TIP3   OH218632   4.902   5.519   1.566  0.3601 -0.3945 -0.0340
 6209TIP3    H118633   4.959   5.591   1.538 -1.0437  0.6002 -0.4056
 6209TIP3    H218634   4.931   5.445   1.513  0.5365  0.4025 -1.1018
 6210TIP3   OH218635   0.102   2.479   0.328 -0.0269 -1.0244  0.2133
 6210TIP3    H118636   0.007   2.467   0.325 -0.1942  0.2733 -2.0584
 6210TIP3    H218637   0.123   2.524   0.246  2.5316 -1.0455  0.7743
 6211TIP3   OH218638   5.812   0.870   2.985  0.4131 -0.2394 -0.0795
 6211TIP3    H118639   5.872   0.938   2.955 -0.1392  0.1491 -0.3236
 6211TIP3    H218640   5.740   0.872   2.922 -0.5888  0.3424  1.0435
 6212TIP3   OH218641   5.597   2.304   0.570  0.1248 -0.1841 -0.4148
 6212TIP3    H118642   5.633   2.365   0.505 -1.3959  0.0692 -1.0542
 6212TIP3    H218643   5.549   2.360   0.631 -1.6022 -0.7223 -1.2192
 6213TIP3   OH218644   3.125   2.156   1.121 -0.5439  0.3963 -0.0728
 6213TIP3    H118645   3.214   2.123   1.132 -0.0702  1.5054 -0.4021
 6213TIP3    H218646   3.079   2.087   1.072  0.1775 -0.1069 -0.0483
 6214TIP3   OH218647   5.347   1.075   0.384  0.2997 -0.2014  0.3648
 6214TIP3    H118648   5.432   1.032   0.400  0.9241  0.6894 -0.4648
 6214TIP3    H218649   5.284   1.021   0.432  1.2365 -1.2869  0.4256
 6215TIP3   OH218650   2.271   2.129   3.922 -0.6913 -0.4876 -0.0152
 6215TIP3    H118651   2.179   2.140   3.946 -0.6717  0.5559 -0.3669
 6215TIP3    H218652   2.270   2.065   3.851 -1.2924  0.4934 -0.9201
 6216TIP3   OH218653   1.093   0.757   2.475 -0.7001  0.6023 -0.3040
 6216TIP3    H118654   1.005   0.747   2.509 -0.6215 -0.5869 -0.4109
 6216TIP3    H218655   1.148   0.706   2.534 -0.1656  0.8548 -0.5729
 6217TIP3   OH218656   5.357   5.732   4.255 -0.0365  0.1516  0.0726
 6217TIP3    H118657   5.299   5.764   4.187  0.3303 -0.1497 -0.3868
 6217TIP3    H218658   5.445   5.744   4.220  0.1154 -1.7241 -0.3128
 6218TIP3   OH218659   2.543   1.898   2.293 -0.0937 -0.1261  0.2867
 6218TIP3    H118660   2.635   1.923   2.305 -0.3663  0.6623  0.8214
 6218TIP3    H218661   2.528   1.827   2.355 -0.4334  1.2640  1.8561
 6219TIP3   OH218662   1.776   0.998   1.777 -0.2913  0.1680  0.2534
 6219TIP3    H118663   1.851   1.015   1.834 -0.1040 -1.2331  0.4761
 6219TIP3    H218664   1.811   0.945   1.706 -0.8920  0.3155 -0.1616
 6220TIP3   OH218665   2.909   3.856   1.350  0.1427  0.3187 -0.5215
 6220TIP3    H118666   2.945   3.821   1.269 -2.5872 -1.3011 -1.1619
 6220TIP3    H218667   2.842   3.918   1.322 -1.3031 -0.7595  0.4006
 6221TIP3   OH218668   1.610   0.853   4.198  1.0866  0.2517  0.0783
 6221TIP3    H118669   1.514   0.846   4.201  1.1489 -1.2263 -0.6536
 6221TIP3    H218670   1.630   0.871   4.107  1.5161  0.6323  0.2437
 6222TIP3   OH218671   0.219   3.588   4.384  0.4108  0.0378 -0.1063
 6222TIP3    H118672   0.258   3.500   4.382 -0.1327 -0.2464  1.1741
 6222TIP3    H218673   0.216   3.611   4.477  0.9442  1.6080 -0.4412
 6223TIP3   OH218674   1.949   4.169   3.653 -0.1513  0.0390  0.2155
 6223TIP3    H118675   1.955   4.141   3.562 -0.7806  0.0800  0.1628
 6223TIP3    H218676   1.998   4.103   3.702 -2.0756 -1.5106  0.1764
 6224TIP3   OH218677   1.075   0.175   1.028  0.1694 -0.2433  0.0876
 6224TIP3    H118678   1.126   0.242   0.982  0.5487 -1.3874 -1.2085
 6224TIP3    H218679   0.997   0.222   1.059 -0.0397  0.6346 -1.6124
 6225TIP3   OH218680   0.949   2.725   4.791  0.3644  0.3314 -0.3425
 6225TIP3    H118681   0.921   2.636   4.812  0.0403  0.5868  0.3585
 6225TIP3    H218682   1.012   2.715   4.720  1.3210 -0.5617  0.5967
 6226TIP3   OH218683   0.233   1.218   3.119  0.0418 -0.0379  0.4895
 6226TIP3    H118684   0.309   1.267   3.086 -1.2416  0.8925 -1.2308
 6226TIP3    H218685   0.264   1.180   3.201  2.3900  0.2520 -0.1672
 6227TIP3   OH218686   3.772   5.453   5.066 -0.0783 -0.3760 -0.1137
 6227TIP3    H118687   3.754   5.538   5.025 -0.6668 -0.8190 -0.8014
 6227TIP3    H218688   3.862   5.460   5.096 -0.6923  1.1872  1.5895
 6228TIP3   OH218689   5.742   2.766   4.678  0.2911  0.2356 -0.4862
 6228TIP3    H118690   5.820   2.786   4.626 -0.7881  2.1314 -1.4883
 6228TIP3    H218691   5.760   2.805   4.763  1.3197 -1.2945  0.0323
 6229TIP3   OH218692   4.266   3.184   0.705  0.0693  0.5573  0.3232
 6229TIP3    H118693   4.171   3.178   0.710  0.0461  0.2770 -0.3015
 6229TIP3    H218694   4.296   3.175   0.795 -0.5410  1.7733  0.6646
 6230TIP3   OH218695   6.327   1.299   4.364  0.5862 -0.3068  0.3421
 6230TIP3    H118696   6.341   1.244   4.441  0.1736 -0.1951  0.4955
 6230TIP3    H218697   6.233   1.313   4.360  0.4205 -1.6147 -1.0963
 6231TIP3   OH218698   5.399   0.610   3.644  0.2074 -0.3195 -0.1015
 6231TIP3    H118699   5.479   0.558   3.642  0.0641 -0.5763  0.7394
 6231TIP3    H218700   5.396   0.648   3.732 -1.4452 -1.6554  0.4758
 6232TIP3   OH218701   4.003   0.157   4.625 -0.0571  0.3788 -0.1300
 6232TIP3    H118702   3.989   0.070   4.587 -1.4020  0.7469 -0.5307
 6232TIP3    H218703   4.084   0.188   4.585  0.3840 -0.6551 -0.0472
 6233TIP3   OH218704   4.889   1.538   4.054 -0.6365  0.3464 -0.1858
 6233TIP3    H118705   4.934   1.454   4.058  1.2564  1.3513  0.9333
 6233TIP3    H218706   4.806   1.524   4.100  0.0264 -0.7011  0.7265
 6234TIP3   OH218707   3.379   0.679   5.166 -0.6319  0.2083  0.1233
 6234TIP3    H118708   3.453   0.695   5.107 -0.4273 -1.6171 -0.1712
 6234TIP3    H218709   3.304   0.717   5.120 -0.0506  1.1730 -0.0515
 6235TIP3   OH218710   1.698   1.507   3.948  0.3677 -0.0513  0.8100
 6235TIP3    H118711   1.673   1.571   4.014 -0.3039  0.0618  0.4629
 6235TIP3    H218712   1.793   1.512   3.943  0.4200 -0.0226  1.7205
 6236TIP3   OH218713   1.563   3.508   2.060 -0.4033  0.3407  0.0059
 6236TIP3    H118714   1.575   3.464   2.144  2.3877 -1.4412 -1.1855
 6236TIP3    H218715   1.618   3.586   2.066 -0.1019  0.1451 -0.2070
 6237TIP3   OH218716   0.162   1.564   3.269  0.2387  0.1534 -0.0139
 6237TIP3    H118717   0.093   1.506   3.237  0.9676 -0.1892 -1.0079
 6237TIP3    H218718   0.148   1.646   3.222  1.1614 -0.2723 -1.0775
 6238TIP3   OH218719   1.261   1.087   2.235 -0.5811 -0.8433 -0.2434
 6238TIP3    H118720   1.317   1.093   2.313 -0.5950  0.2757 -0.3052
 6238TIP3    H218721   1.317   1.048   2.169 -0.2394 -0.8294  0.0331
 6239TIP3   OH218722   4.353   0.161   3.970  0.0218  0.3522 -0.0695
 6239TIP3    H118723   4.332   0.070   3.990  1.7604  0.1733  1.2331
 6239TIP3    H218724   4.449   0.163   3.966 -0.0375  1.8060 -1.7655
 6240TIP3   OH218725   1.593   0.989   4.593  0.3471 -0.0949 -0.7936
 6240TIP3    H118726   1.563   0.914   4.643 -0.3556 -1.3277 -2.9184
 6240TIP3    H218727   1.534   1.060   4.617 -0.3388 -0.8191 -0.3186
 6241TIP3   OH218728   3.864   2.176   1.135  0.3311  0.3277 -0.1930
 6241TIP3    H118729   3.832   2.265   1.126 -2.0690 -0.4511 -0.1153
 6241TIP3    H218730   3.862   2.158   1.229 -1.1842 -0.4344 -0.3459
 6242TIP3   OH218731   3.747   2.635   4.084 -0.0636  0.5497 -0.1968
 6242TIP3    H118732   3.775   2.550   4.051  0.7936  0.3698  0.9386
 6242TIP3    H218733   3.731   2.621   4.177 -1.6570  1.2245 -0.3308
 6243TIP3   OH218734   3.729   2.185   1.983 -0.2611  0.1313  0.0853
 6243TIP3    H118735   3.815   2.179   1.943 -0.3938 -1.4973  0.0102
 6243TIP3    H218736   3.671   2.211   1.911 -0.0424  0.0044 -0.1362
 6244TIP3   OH218737   2.835   1.538   2.619 -0.9925  0.3712  0.1578
 6244TIP3    H118738   2.901   1.506   2.680 -0.4951 -1.7941 -1.3815
 6244TIP3    H218739   2.769   1.579   2.675  0.4766  0.4522  1.9310
 6245TIP3   OH218740   3.120   3.173   0.158  0.2687 -0.8538 -0.0520
 6245TIP3    H118741   3.047   3.116   0.133  0.1756 -1.7514  2.0650
 6245TIP3    H218742   3.156   3.133   0.237  0.7533  1.5405  1.0516
 6246TIP3   OH218743   5.444   1.134   1.652 -0.1922 -1.2844 -0.1116
 6246TIP3    H118744   5.359   1.089   1.651 -0.3889 -0.9183  0.2048
 6246TIP3    H218745   5.441   1.191   1.575 -1.5046  1.0641  1.5457
 6247TIP3   OH218746   1.736   5.093   4.600  0.5013 -0.2058 -0.4209
 6247TIP3    H118747   1.798   5.163   4.623 -1.0453  0.5969  1.4918
 6247TIP3    H218748   1.778   5.049   4.526  1.5811  2.7097 -1.7416
 6248TIP3   OH218749   3.040   5.182   1.976 -0.2852  0.2194  0.5726
 6248TIP3    H118750   3.015   5.130   2.053 -1.3350  0.7701  0.6234
 6248TIP3    H218751   3.136   5.183   1.978 -0.2937  0.3086  1.9385
 6249TIP3   OH218752   1.480   4.653   5.130  0.3699  0.5676 -0.5241
 6249TIP3    H118753   1.516   4.569   5.104  3.4341  1.5657  0.1423
 6249TIP3    H218754   1.487   4.708   5.052  0.7693  0.9247 -0.2388
 6250TIP3   OH218755   6.087   4.327   1.208  0.0276 -0.0792  0.6165
 6250TIP3    H118756   6.131   4.325   1.123  1.0328 -0.5856  1.1237
 6250TIP3    H218757   6.159   4.327   1.272 -0.6734  1.4743  1.4715
 6251TIP3   OH218758   0.268   5.530   2.991 -0.4184  0.2314 -0.3734
 6251TIP3    H118759   0.282   5.603   3.050  0.7798  0.9010 -1.4360
 6251TIP3    H218760   0.355   5.506   2.961 -0.9438 -0.5016 -1.3885
 6252TIP3   OH218761   4.703   1.214   4.508 -0.2098  0.1315 -0.0430
 6252TIP3    H118762   4.643   1.145   4.536  0.1373 -0.1786 -0.0469
 6252TIP3    H218763   4.790   1.179   4.530 -0.1023  1.2845  1.5695
 6253TIP3   OH218764   1.293   2.813   4.306  0.2558  0.4541 -0.1038
 6253TIP3    H118765   1.239   2.828   4.228  1.5131 -0.0940 -1.1080
 6253TIP3    H218766   1.257   2.732   4.344  0.5413 -0.0759 -0.9388
 6254TIP3   OH218767   2.920   5.433   3.048  0.4627  0.3493 -0.4944
 6254TIP3    H118768   2.826   5.446   3.055  0.3092  0.0672 -1.7402
 6254TIP3    H218769   2.942   5.373   3.119 -0.6455 -1.1163 -1.3353
 6255TIP3   OH218770   3.489   0.402   3.418 -0.1882 -0.5552 -0.2155
 6255TIP3    H118771   3.500   0.495   3.434 -0.1100 -0.3922 -1.1917
 6255TIP3    H218772   3.565   0.377   3.366  0.4958 -1.4547  1.1404
 6256TIP3   OH218773   5.681   2.611   2.776 -0.0266  0.1943 -0.2107
 6256TIP3    H118774   5.664   2.576   2.689  0.2107 -1.8298  0.5102
 6256TIP3    H218775   5.601   2.658   2.799  0.5208  2.2341 -2.1404
 6257TIP3   OH218776   5.254   4.406   1.241 -0.4436 -0.4820  0.0061
 6257TIP3    H118777   5.299   4.396   1.325  0.2960 -0.1827 -0.3470
 6257TIP3    H218778   5.324   4.428   1.179 -1.0679 -0.0786 -0.5634
 6258TIP3   OH218779   1.243   4.120   0.747 -0.2525 -0.3241  0.1245
 6258TIP3    H118780   1.219   4.212   0.757 -1.1221 -0.6457  1.2665
 6258TIP3    H218781   1.338   4.118   0.762  0.0335  0.5561 -1.3588
 6259TIP3   OH218782   0.471   3.029   1.645 -0.7734  0.0239  0.3146
 6259TIP3    H118783   0.487   3.078   1.564 -1.4724 -0.3480 -0.0682
 6259TIP3    H218784   0.557   3.016   1.683 -0.5045  0.8561  0.0124
 6260TIP3   OH218785   5.362   4.160   3.152  0.3471 -0.6923  0.2587
 6260TIP3    H118786   5.322   4.193   3.233 -0.8625 -1.4585 -0.0106
 6260TIP3    H218787   5.454   4.187   3.158 -0.1344  0.9001  1.0108
 6261TIP3   OH218788   0.228   1.373   4.223 -0.3169  0.7593 -0.0388
 6261TIP3    H118789   0.190   1.325   4.297  0.7316 -0.4516 -0.2553
 6261TIP3    H218790   0.316   1.398   4.252  0.3618 -0.3043 -1.0791
 6262TIP3   OH218791   6.243   5.449   4.314  0.4191  0.0556 -0.0200
 6262TIP3    H118792   6.205   5.448   4.401  2.0397 -2.0221  0.7368
 6262TIP3    H218793   6.187   5.509   4.264 -2.1028 -0.6850  1.7232
 6263TIP3   OH218794   4.332   2.021   3.387  0.0117  0.2960 -0.0492
 6263TIP3    H118795   4.330   2.093   3.325  2.2442  1.1600  0.7683
 6263TIP3    H218796   4.245   2.020   3.427 -0.1852  2.3025 -0.3576
 6264TIP3   OH218797   4.555   2.326   1.642 -0.2297  0.0114 -0.2992
 6264TIP3    H118798   4.606   2.353   1.719 -2.8624 -1.0535  2.0231
 6264TIP3    H218799   4.472   2.375   1.651 -1.0525 -1.0262 -1.8296
 6265TIP3   OH218800   6.159   1.279   3.980 -0.1645  0.2914 -0.2364
 6265TIP3    H118801   6.225   1.286   3.912  1.1822 -0.2316  0.9732
 6265TIP3    H218802   6.129   1.370   3.993 -0.4610  0.3975 -1.4907
 6266TIP3   OH218803   5.407   5.073   1.230  0.2204 -0.1046  0.8614
 6266TIP3    H118804   5.489   5.044   1.270 -0.6658 -0.7546  2.2602
 6266TIP3    H218805   5.435   5.124   1.154  2.0063  1.5762  2.5052
 6267TIP3   OH218806   5.067   1.445   2.473  0.0606 -0.1551 -0.4583
 6267TIP3    H118807   5.064   1.469   2.566 -1.4091 -0.5258 -0.3832
 6267TIP3    H218808   5.012   1.511   2.430  0.8730  0.1182 -1.1013
 6268TIP3   OH218809   6.071   3.227   0.332 -0.2991  0.6403 -0.3394
 6268TIP3    H118810   6.051   3.133   0.331 -0.7722  0.7168 -2.6369
 6268TIP3    H218811   6.166   3.231   0.320 -0.1623  0.4608  0.6081
 6269TIP3   OH218812   5.360   3.967   1.899  0.2370 -0.8685 -0.1763
 6269TIP3    H118813   5.318   3.883   1.918  0.9943 -1.1889  0.1467
 6269TIP3    H218814   5.386   3.960   1.807 -0.1163 -0.7972 -0.2841
 6270TIP3   OH218815   1.797   5.469   0.171 -0.0564 -0.0173  0.1224
 6270TIP3    H118816   1.885   5.464   0.209 -0.0640  1.2255  0.3686
 6270TIP3    H218817   1.810   5.516   0.088 -0.7249  2.2181  1.1934
 6271TIP3   OH218818   1.085   2.434   4.973 -0.3910  0.1698  0.2924
 6271TIP3    H118819   1.062   2.345   4.999  0.1987 -0.3118 -0.7602
 6271TIP3    H218820   1.051   2.489   5.044 -1.2390 -0.8338  0.7016
 6272TIP3   OH218821   0.774   2.853   1.948  0.0664  0.4312 -0.2263
 6272TIP3    H118822   0.846   2.797   1.919  1.3570  2.2593 -0.7975
 6272TIP3    H218823   0.778   2.850   2.044  0.7411  0.3069 -0.2549
 6273TIP3   OH218824   5.583   3.437   0.514  0.4346 -0.4165  0.4190
 6273TIP3    H118825   5.513   3.436   0.448  0.4918  1.0714  0.3106
 6273TIP3    H218826   5.606   3.529   0.523  2.8864 -0.9277 -0.0384
 6274TIP3   OH218827   4.741   0.227   3.695 -0.4740  0.1498  0.2902
 6274TIP3    H118828   4.791   0.154   3.658 -1.1194 -0.0474 -0.2138
 6274TIP3    H218829   4.668   0.239   3.635  0.3040  2.0594 -0.3347
 6275TIP3   OH218830   4.532   4.523   0.975  0.6190  0.3535 -0.5994
 6275TIP3    H118831   4.596   4.575   1.022  0.3581 -0.5011  0.7535
 6275TIP3    H218832   4.568   4.434   0.976 -1.0120 -0.3638  1.1288
 6276TIP3   OH218833   3.700   3.367   3.998 -0.2952 -0.4413 -0.7072
 6276TIP3    H118834   3.786   3.409   3.993 -0.6037  0.0991 -1.6653
 6276TIP3    H218835   3.687   3.328   3.912 -0.8669 -0.8152 -0.4592
 6277TIP3   OH218836   4.006   3.574   3.713 -0.0530 -0.0002  0.3669
 6277TIP3    H118837   4.012   3.481   3.689  1.6155 -0.0342  0.8106
 6277TIP3    H218838   4.054   3.619   3.644  0.3609  0.3918  0.9080
 6278TIP3   OH218839   1.301   4.320   2.259 -0.3730  0.0489  0.3076
 6278TIP3    H118840   1.299   4.257   2.332  0.7738 -0.9121 -0.4578
 6278TIP3    H218841   1.211   4.353   2.254 -0.8393 -1.0278  1.1685
 6279TIP3   OH218842   2.068   2.250   1.003 -0.0364 -0.0762 -0.0191
 6279TIP3    H118843   2.160   2.268   0.983  0.3651 -1.0052  0.9290
 6279TIP3    H218844   2.031   2.221   0.920  0.6774 -0.2933 -0.2741
 6280TIP3   OH218845   5.270   2.399   1.683 -0.0864  0.3910 -0.8426
 6280TIP3    H118846   5.192   2.424   1.732 -0.3702  0.5743 -1.3760
 6280TIP3    H218847   5.253   2.431   1.594  2.1354  3.7504 -0.2335
 6281TIP3   OH218848   0.177   4.466   4.910  0.0893  0.6841  0.7074
 6281TIP3    H118849   0.189   4.373   4.891  0.1458  0.7285  0.5228
 6281TIP3    H218850   0.084   4.474   4.930 -0.1743  0.8016 -0.5189
 6282TIP3   OH218851   2.825   1.411   2.088 -0.2578  0.1549 -0.2564
 6282TIP3    H118852   2.850   1.499   2.063 -0.1767  0.5500  1.1466
 6282TIP3    H218853   2.732   1.406   2.067 -0.0789  0.2683 -1.1275
 6283TIP3   OH218854   4.225   1.723   4.248  0.2639  0.0315  0.0176
 6283TIP3    H118855   4.130   1.726   4.262  0.4440 -0.1367  1.4163
 6283TIP3    H218856   4.251   1.814   4.236 -0.0246  0.1118  0.0027
 6284TIP3   OH218857   5.390   5.296   4.708  0.1555 -0.6477 -0.4248
 6284TIP3    H118858   5.478   5.305   4.671  0.0559  0.1923 -0.4767
 6284TIP3    H218859   5.368   5.384   4.737 -1.3175 -0.4857 -1.9038
 6285TIP3   OH218860   0.375   4.497   4.265 -0.6126 -0.5718 -0.1362
 6285TIP3    H118861   0.457   4.515   4.311  1.4774 -1.9534 -2.9827
 6285TIP3    H218862   0.339   4.583   4.244  2.6387  0.3724 -2.7540
 6286TIP3   OH218863   3.255   4.023   5.012  0.0428 -0.6503 -0.1748
 6286TIP3    H118864   3.183   4.040   4.951  0.6633  2.0041 -0.3155
 6286TIP3    H218865   3.319   4.092   4.992  0.1526  0.5463  3.6366
 6287TIP3   OH218866   3.954   5.907   2.540  0.1513 -0.3693 -0.3159
 6287TIP3    H118867   3.871   5.943   2.510  0.4799  0.9662  0.3045
 6287TIP3    H218868   3.986   5.855   2.467  0.6446  2.2749 -2.1118
 6288TIP3   OH218869   4.292   2.302   1.971 -0.2197 -0.2833 -0.0442
 6288TIP3    H118870   4.356   2.363   2.006 -0.8528 -0.3695  1.3276
 6288TIP3    H218871   4.228   2.358   1.926 -2.0823  0.4682  3.1489
 6289TIP3   OH218872   5.646   1.945   0.892  0.0390  0.1271  0.0565
 6289TIP3    H118873   5.678   1.912   0.976 -0.5386 -1.0283 -0.1605
 6289TIP3    H218874   5.699   2.023   0.876  1.0305 -0.3458  0.8779
 6290TIP3   OH218875   2.151   0.313   3.621  0.3010 -0.5886 -0.8367
 6290TIP3    H118876   2.181   0.222   3.616 -0.6879 -0.9557 -0.4105
 6290TIP3    H218877   2.116   0.332   3.534 -0.2106 -0.8869 -0.7015
 6291TIP3   OH218878   5.780   2.774   4.200  0.0530 -0.0905 -0.2127
 6291TIP3    H118879   5.732   2.840   4.149  0.2224  1.9863  2.1313
 6291TIP3    H218880   5.871   2.788   4.176 -0.0022 -0.1677 -0.4732
 6292TIP3   OH218881   1.808   1.468   1.831 -0.3860 -0.7291 -0.3754
 6292TIP3    H118882   1.766   1.480   1.746 -1.3343 -0.6496  0.0895
 6292TIP3    H218883   1.891   1.425   1.811 -0.0224  0.4334 -1.4456
 6293TIP3   OH218884   2.694   1.088   0.278  0.4986  0.6093 -0.0305
 6293TIP3    H118885   2.729   1.118   0.362 -0.9076  0.1451  0.7647
 6293TIP3    H218886   2.738   1.005   0.262 -0.0832  0.0940  0.8907
 6294TIP3   OH218887   4.163   3.275   4.494  0.3066 -0.1942 -0.4688
 6294TIP3    H118888   4.140   3.196   4.542  0.5111 -0.9010 -1.5114
 6294TIP3    H218889   4.120   3.346   4.543  0.6357 -0.8561  0.8309
 6295TIP3   OH218890   3.321   0.651   0.188 -0.9563  0.0878 -0.2086
 6295TIP3    H118891   3.330   0.595   0.112  2.2144 -0.6805  0.5717
 6295TIP3    H218892   3.376   0.610   0.255 -2.9834  1.1396  2.2854
 6296TIP3   OH218893   1.735   0.665   1.389  0.3107  0.5728 -0.3220
 6296TIP3    H118894   1.743   0.709   1.305 -0.2530  0.5932 -0.3727
 6296TIP3    H218895   1.640   0.660   1.404  0.2764 -1.8652 -0.9703
 6297TIP3   OH218896   0.335   2.227   1.865 -0.8222  0.4737 -0.8700
 6297TIP3    H118897   0.324   2.229   1.770 -1.7912  1.9419 -0.7597
 6297TIP3    H218898   0.271   2.289   1.898  0.7544  1.4055  0.6163
 6298TIP3   OH218899   0.459   3.683   1.854  0.2947  0.5894 -0.1363
 6298TIP3    H118900   0.441   3.684   1.760  1.0577  1.5606 -0.2902
 6298TIP3    H218901   0.373   3.685   1.895 -0.0319  1.8936 -0.8263
 6299TIP3   OH218902   5.916   4.537   2.812  0.6208  0.2209  0.0730
 6299TIP3    H118903   5.966   4.491   2.879  0.3538  0.3008  0.3309
 6299TIP3    H218904   5.852   4.588   2.861  0.8202  0.7564 -0.2164
 6300TIP3   OH218905   1.081   5.272   2.039  0.3448 -0.2866 -0.0559
 6300TIP3    H118906   0.998   5.225   2.037 -0.7654  1.5977 -0.2912
 6300TIP3    H218907   1.082   5.315   2.124  0.2854  1.0625 -0.7232
 6301TIP3   OH218908   1.526   5.741   1.663  0.5217 -0.6453  0.2434
 6301TIP3    H118909   1.484   5.718   1.581 -0.5882  0.2118  0.5369
 6301TIP3    H218910   1.571   5.824   1.645  0.3657 -0.5098  0.4708
 6302TIP3   OH218911   3.999   3.201   1.607 -0.4669  0.1789 -0.4019
 6302TIP3    H118912   3.957   3.202   1.521 -0.4350 -3.3449 -0.5958
 6302TIP3    H218913   3.941   3.149   1.662  0.2801  1.0545  1.3021
 6303TIP3   OH218914   2.045   3.217   4.774  0.5977 -0.1495 -0.0350
 6303TIP3    H118915   2.124   3.256   4.811  0.1313  0.8934 -0.1136
 6303TIP3    H218916   2.014   3.281   4.710  0.4106 -1.1441 -0.9584
 6304TIP3   OH218917   2.863   5.095   1.761 -1.0564 -0.0244 -0.2932
 6304TIP3    H118918   2.941   5.113   1.813 -0.7028  0.6914 -1.0507
 6304TIP3    H218919   2.830   5.182   1.738 -0.4806 -0.3131 -2.3297
 6305TIP3   OH218920   4.078   1.569   2.019 -0.3686 -0.0155  0.2120
 6305TIP3    H118921   4.152   1.627   1.999  0.9635 -1.6506  0.2166
 6305TIP3    H218922   4.060   1.524   1.936 -0.7186 -0.3495  0.4705
 6306TIP3   OH218923   3.375   4.363   1.484  0.0166 -0.5663  0.2051
 6306TIP3    H118924   3.393   4.388   1.574  2.4338  0.0105 -0.3698
 6306TIP3    H218925   3.421   4.281   1.472 -1.8836 -1.6671 -0.0174
 6307TIP3   OH218926   5.956   4.689   3.689  0.3360  0.5898  0.0748
 6307TIP3    H118927   5.915   4.607   3.661 -0.2320  0.5286  1.0266
 6307TIP3    H218928   6.008   4.664   3.766  0.2958  1.0836  0.2670
 6308TIP3   OH218929   5.372   3.961   4.861  0.0892  0.5335  0.0112
 6308TIP3    H118930   5.282   3.989   4.846 -0.2740  0.0268  1.1070
 6308TIP3    H218931   5.422   4.042   4.862 -0.4497  0.8734 -0.0240
 6309TIP3   OH218932   5.861   0.606   1.605  0.0352 -0.9814 -0.6729
 6309TIP3    H118933   5.866   0.699   1.585 -0.2964 -0.3025  2.0176
 6309TIP3    H218934   5.782   0.575   1.561 -1.5617  0.7529  0.8095
 6310TIP3   OH218935   2.462   4.860   0.386 -0.2545  0.4193 -0.5608
 6310TIP3    H118936   2.405   4.929   0.421 -0.3579 -0.5288  1.2278
 6310TIP3    H218937   2.551   4.895   0.397 -0.2895  0.1660  0.6354
 6311TIP3   OH218938   3.911   2.434   1.650  0.1061 -0.4444 -0.3919
 6311TIP3    H118939   3.823   2.410   1.621  0.7035 -2.4729 -0.6462
 6311TIP3    H218940   3.934   2.509   1.595 -2.1529  1.4648  1.0006
 6312TIP3   OH218941   4.807   3.182   1.705 -0.1263  0.0591  0.1534
 6312TIP3    H118942   4.778   3.109   1.759 -1.4120 -0.0779 -0.6817
 6312TIP3    H218943   4.849   3.140   1.629  1.9306  0.2507  1.1314
 6313TIP3   OH218944   4.339   2.503   1.039  0.1166 -1.0746 -0.1052
 6313TIP3    H118945   4.401   2.550   0.983 -0.7626 -0.1975 -0.3760
 6313TIP3    H218946   4.373   2.516   1.128  0.6403 -1.1141 -0.2938
 6314TIP3   OH218947   3.291   5.980   3.057  0.0798  0.3351  0.2096
 6314TIP3    H118948   3.246   5.897   3.073 -0.1365  0.4828  0.3877
 6314TIP3    H218949   3.372   5.974   3.107  1.0743 -0.6074 -1.4557
 6315TIP3   OH218950   4.228   3.496   3.389  0.1447 -0.2635  0.4714
 6315TIP3    H118951   4.306   3.551   3.402  1.4582 -1.3009 -2.2765
 6315TIP3    H218952   4.158   3.543   3.434  1.9622  1.7193  1.3996
 6316TIP3   OH218953   2.600   1.654   3.068  0.0073 -0.5840  0.2433
 6316TIP3    H118954   2.563   1.568   3.049 -0.4668 -0.1099 -1.0487
 6316TIP3    H218955   2.677   1.635   3.122  0.6984 -1.9043 -1.1504
 6317TIP3   OH218956   5.626   1.027   1.494  0.7231 -0.0394 -1.0106
 6317TIP3    H118957   5.548   1.021   1.440  0.2671 -2.0547 -0.1865
 6317TIP3    H218958   5.597   1.070   1.574  1.4275  3.0758 -2.2379
 6318TIP3   OH218959   0.891   5.920   1.993 -0.1255  0.1128 -0.3727
 6318TIP3    H118960   0.974   5.882   1.964 -0.0507  1.1095 -1.5158
 6318TIP3    H218961   0.904   6.014   1.987 -1.0645  0.3006  0.2781
 6319TIP3   OH218962   5.268   3.997   4.565  0.6349 -0.3186 -0.4037
 6319TIP3    H118963   5.203   3.973   4.631 -4.3315  1.8044 -3.9622
 6319TIP3    H218964   5.269   3.924   4.503  1.9598 -0.4254 -0.3008
 6320TIP3   OH218965   2.760   1.514   0.581 -0.6514 -0.2873 -0.4460
 6320TIP3    H118966   2.828   1.579   0.599 -1.0188 -0.0034 -0.0506
 6320TIP3    H218967   2.779   1.482   0.493 -1.2492  1.3329 -1.1892
 6321TIP3   OH218968   5.397   5.832   0.073  0.0656 -0.1598 -0.8450
 6321TIP3    H118969   5.307   5.808   0.093  0.3857 -0.8260 -0.1394
 6321TIP3    H218970   5.426   5.882   0.149 -0.3774  2.0130 -2.0091
 6322TIP3   OH218971   4.302   5.602   1.996 -0.5121  0.3746  0.2507
 6322TIP3    H118972   4.362   5.549   2.049  0.4440  2.9235  1.9583
 6322TIP3    H218973   4.336   5.595   1.907  0.3549 -0.7944  0.6383
 6323TIP3   OH218974   5.640   4.430   3.866  0.3106  0.5256  0.2317
 6323TIP3    H118975   5.640   4.474   3.951 -2.0788  0.5225  0.2997
 6323TIP3    H218976   5.612   4.340   3.885 -1.8386  0.9442 -0.6631
 6324TIP3   OH218977   2.597   0.349   3.549 -0.0640 -0.0195  0.2646
 6324TIP3    H118978   2.513   0.364   3.506 -0.5666 -0.8254  0.9317
 6324TIP3    H218979   2.647   0.429   3.533 -1.1306  0.6649  0.2539
 6325TIP3   OH218980   1.496   1.883   2.975 -0.1598 -0.3436 -0.5843
 6325TIP3    H118981   1.539   1.813   3.024  0.9641  0.3633 -0.5210
 6325TIP3    H218982   1.568   1.942   2.951 -0.6452 -0.7027 -3.1481
 6326TIP3   OH218983   3.888   2.812   3.539  0.3804 -0.4383  0.5318
 6326TIP3    H118984   3.822   2.771   3.483  0.9186 -0.5903 -0.0053
 6326TIP3    H218985   3.971   2.796   3.494  0.6456  0.9506  0.4822
 6327TIP3   OH218986   2.356   3.830   1.187  0.2416  0.5775 -0.3733
 6327TIP3    H118987   2.397   3.808   1.271 -0.1169 -0.2163 -0.3897
 6327TIP3    H218988   2.425   3.874   1.138  0.9333 -0.2887 -0.2153
 6328TIP3   OH218989   4.572   2.477   5.070 -0.2074 -0.5244  0.0622
 6328TIP3    H118990   4.595   2.409   5.008 -0.7593  1.3973 -2.4168
 6328TIP3    H218991   4.481   2.459   5.093 -0.4397 -0.4677 -0.7996
 6329TIP3   OH218992   0.834   1.213   1.111 -0.6896  0.5030 -0.1176
 6329TIP3    H118993   0.812   1.296   1.154  0.6046 -0.4412  2.5450
 6329TIP3    H218994   0.917   1.187   1.150  0.2466 -0.8437 -2.7601
 6330TIP3   OH218995   4.744   0.860   0.465 -0.7157  0.0605  0.0653
 6330TIP3    H118996   4.659   0.843   0.422 -0.6985 -0.4160  0.2087
 6330TIP3    H218997   4.720   0.891   0.552 -0.7473  0.3707 -0.0547
 6331TIP3   OH218998   2.022   0.447   4.764  0.2337  0.0010  0.0842
 6331TIP3    H118999   1.958   0.391   4.808  1.2385 -0.7946  0.6088
 6331TIP3    H219000   2.016   0.531   4.808  0.2397 -0.3659  0.7931
 6332TIP3   OH219001   5.206   1.338   2.876 -0.5430 -0.1876 -0.0898
 6332TIP3    H119002   5.239   1.323   2.787  0.5806  0.4015  0.2189
 6332TIP3    H219003   5.193   1.432   2.881 -0.0480 -0.1542  0.5662
 6333TIP3   OH219004   2.084   3.720   3.357 -0.2297 -0.4891 -0.0040
 6333TIP3    H119005   2.043   3.729   3.271 -0.8696 -0.0067  0.3444
 6333TIP3    H219006   2.094   3.625   3.368 -1.1876 -0.6096 -0.1302
 6334TIP3   OH219007   4.028   3.167   1.107  0.9336  0.2966 -0.1160
 6334TIP3    H119008   3.957   3.177   1.044  0.6037  0.9324  0.3500
 6334TIP3    H219009   4.105   3.149   1.053  0.7578  1.3520 -0.7400
 6335TIP3   OH219010   5.357   2.342   2.097 -0.2362 -0.1185  0.7503
 6335TIP3    H119011   5.340   2.297   2.180 -1.8912 -1.3081 -0.1658
 6335TIP3    H219012   5.287   2.313   2.039  0.9999  0.4980 -1.1629
 6336TIP3   OH219013   0.409   5.517   1.731  0.2870  0.2441  0.7893
 6336TIP3    H119014   0.449   5.539   1.816 -0.4483 -1.3973  1.6079
 6336TIP3    H219015   0.376   5.601   1.698 -0.4973  0.7676  2.7202
 6337TIP3   OH219016   1.789   5.899   0.264 -0.0626  0.6060 -0.0611
 6337TIP3    H119017   1.797   5.992   0.244 -1.2704  0.5741 -0.7674
 6337TIP3    H219018   1.740   5.862   0.190  2.3958 -1.0606 -0.9801
 6338TIP3   OH219019   2.866   5.446   3.922 -0.5913  0.0525  0.5726
 6338TIP3    H119020   2.903   5.529   3.952 -2.3074  0.9267  0.4144
 6338TIP3    H219021   2.819   5.412   3.997 -0.3753 -0.4975  0.4637
 6339TIP3   OH219022   1.067   1.585   3.719 -0.1677  0.9306 -0.7019
 6339TIP3    H119023   1.035   1.673   3.739 -0.1084  0.5756  1.1668
 6339TIP3    H219024   0.987   1.531   3.714 -0.1006  0.7319  0.2124
 6340TIP3   OH219025   2.694   2.286   3.685 -0.3197  0.7765 -0.6873
 6340TIP3    H119026   2.759   2.215   3.690 -0.4978  0.5478 -1.5068
 6340TIP3    H219027   2.617   2.246   3.644  0.1862  1.8407 -2.8487
 6341TIP3   OH219028   2.082   5.458   5.010  0.3291  0.5116  0.4577
 6341TIP3    H119029   2.172   5.426   5.019 -0.2014 -1.6237 -1.0592
 6341TIP3    H219030   2.038   5.392   4.956 -1.8350  2.1277  0.0954
 6342TIP3   OH219031   4.551   3.504   4.844  0.2144 -0.3994  0.7049
 6342TIP3    H119032   4.567   3.411   4.859  1.7022 -0.4589 -0.9215
 6342TIP3    H219033   4.464   3.508   4.806  0.7175 -1.3126 -0.5991
 6343TIP3   OH219034   2.164   1.880   1.267  0.1668 -0.0139 -0.5398
 6343TIP3    H119035   2.116   1.824   1.206 -0.1874  0.2890 -0.5435
 6343TIP3    H219036   2.252   1.884   1.231  0.1690 -0.4908 -0.5902
 6344TIP3   OH219037   2.785   4.425   0.098 -0.3668  0.1426 -0.6523
 6344TIP3    H119038   2.828   4.461   0.175  1.9059  1.3321 -2.3623
 6344TIP3    H219039   2.692   4.439   0.114  0.1003  1.4085  1.3596
 6345TIP3   OH219040   2.091   0.064   3.962  0.4058 -0.3241 -0.3335
 6345TIP3    H119041   2.075   0.136   3.902  0.4185  0.4356  0.5474
 6345TIP3    H219042   2.045  -0.011   3.923 -0.5097  0.4193 -0.7148
 6346TIP3   OH219043   5.886   5.291   0.488  0.4766  0.2430  0.5435
 6346TIP3    H119044   5.831   5.234   0.434 -1.6400  2.2009  0.5038
 6346TIP3    H219045   5.939   5.341   0.425  2.2925 -1.5075  0.5768
 6347TIP3   OH219046   0.305   3.332   1.167  0.8984  0.1538 -0.2070
 6347TIP3    H119047   0.322   3.278   1.091  0.6815  0.0572 -0.1876
 6347TIP3    H219048   0.255   3.276   1.226 -1.2697  1.0271 -1.0959
 6348TIP3   OH219049   6.287   5.196   0.152  0.0011 -0.1031  0.0754
 6348TIP3    H119050   6.360   5.210   0.091 -0.7672  0.1969 -0.8030
 6348TIP3    H219051   6.327   5.203   0.239  1.0573 -0.1745 -0.3828
 6349TIP3   OH219052   5.419   3.041   1.176 -0.0485  0.0615  0.4153
 6349TIP3    H119053   5.390   2.990   1.101 -0.5868  1.8124 -0.6081
 6349TIP3    H219054   5.341   3.048   1.232  0.1705 -0.6463  0.8335
 6350TIP3   OH219055   4.487   3.431   1.196  0.5636 -0.4460 -0.0221
 6350TIP3    H119056   4.551   3.384   1.249  1.2676  0.6512  0.1279
 6350TIP3    H219057   4.540   3.488   1.139 -0.1534 -1.6173 -1.9806
 6351TIP3   OH219058   2.844   1.266   2.468 -0.5327  1.0456  0.2164
 6351TIP3    H119059   2.754   1.258   2.437 -0.4735  0.2647  0.2038
 6351TIP3    H219060   2.861   1.360   2.471 -1.8474  1.2824  1.6806
 6352TIP3   OH219061   4.252   4.613   3.755 -0.3246  0.2179  0.2127
 6352TIP3    H119062   4.188   4.684   3.764 -1.2976 -0.2198 -2.4931
 6352TIP3    H219063   4.320   4.650   3.699  0.2725 -0.3202  0.5754
 6353TIP3   OH219064   0.441   1.164   0.873 -0.2666 -0.1581 -0.3974
 6353TIP3    H119065   0.512   1.162   0.937 -0.6032  2.0279  0.1083
 6353TIP3    H219066   0.386   1.237   0.900 -2.4330 -1.4467 -1.0936
 6354TIP3   OH219067   4.929   4.264   3.902 -0.3473  0.0188 -0.1341
 6354TIP3    H119068   4.922   4.316   3.981 -2.0165  0.0137 -0.2515
 6354TIP3    H219069   4.982   4.188   3.928  0.5701  0.8465  0.4951
 6355TIP3   OH219070   0.717   0.156   2.851  0.2589 -0.0572 -0.2485
 6355TIP3    H119071   0.633   0.160   2.896  0.0484 -2.2850 -0.3715
 6355TIP3    H219072   0.695   0.138   2.760  0.8251  1.3835 -0.7045
 6356TIP3   OH219073   2.550   5.625   3.918 -0.0235 -0.3509 -0.0278
 6356TIP3    H119074   2.534   5.715   3.944  1.1201  0.3647 -1.6597
 6356TIP3    H219075   2.603   5.588   3.988 -0.1432  0.3729  0.4422
 6357TIP3   OH219076   5.131   4.936   1.538 -0.2635  0.0480 -0.6652
 6357TIP3    H119077   5.130   5.015   1.483  0.3880  1.3941  1.1621
 6357TIP3    H219078   5.180   4.872   1.487 -2.3817  0.1237 -3.0140
 6358TIP3   OH219079   1.467   0.665   0.310  0.2724 -0.1674  0.3455
 6358TIP3    H119080   1.481   0.684   0.217  0.3750  0.0138  0.3994
 6358TIP3    H219081   1.417   0.739   0.343  2.0578  0.8333  0.9352
 6359TIP3   OH219082   2.625   4.492   2.428  0.3760 -0.2013 -0.5317
 6359TIP3    H119083   2.673   4.568   2.461  0.3499 -0.7656  0.9235
 6359TIP3    H219084   2.652   4.483   2.337  1.3702  0.7850 -0.3539
 6360TIP3   OH219085   3.458   2.132   3.035 -0.0449 -0.3943  0.0953
 6360TIP3    H119086   3.453   2.224   3.060 -1.9411 -0.5188  0.2880
 6360TIP3    H219087   3.547   2.121   3.001 -0.2451  1.8496 -1.3260
 6361TIP3   OH219088   0.232   3.826   2.344  0.0593 -0.1386 -0.3197
 6361TIP3    H119089   0.201   3.834   2.255 -0.1470  0.4135 -0.1995
 6361TIP3    H219090   0.158   3.789   2.393  0.3515 -0.9570 -0.4783
 6362TIP3   OH219091   2.824   4.133   2.537 -0.2283  0.4332 -0.3220
 6362TIP3    H119092   2.816   4.038   2.529 -1.0706  0.4859 -0.2185
 6362TIP3    H219093   2.741   4.161   2.576  0.4763  1.0811  0.7659
 6363TIP3   OH219094   2.656   2.721   3.600 -0.5993  0.0113  0.2896
 6363TIP3    H119095   2.709   2.717   3.679  0.2271  0.6375 -0.2109
 6363TIP3    H219096   2.566   2.708   3.630 -0.0141 -3.7598  0.8646
 6364TIP3   OH219097   1.724   0.368   1.241 -0.0196  0.1765  0.1881
 6364TIP3    H119098   1.695   0.371   1.332  0.1478 -1.3842  0.3255
 6364TIP3    H219099   1.809   0.411   1.242 -1.0790  2.3917  0.2768
 6365TIP3   OH219100   2.083   5.803   1.994  0.0510 -0.3903 -0.2061
 6365TIP3    H119101   2.167   5.839   1.963 -0.9047  2.0311 -0.1976
 6365TIP3    H219102   2.032   5.880   2.018 -2.7035 -1.6942 -1.4855
 6366TIP3   OH219103   5.138   2.250   1.979  0.2842 -0.0126 -0.7258
 6366TIP3    H119104   5.108   2.177   1.926 -0.2156  0.2151 -0.7542
 6366TIP3    H219105   5.097   2.327   1.940 -0.5001  0.1019  0.2954
 6367TIP3   OH219106   0.339   2.001   3.368 -0.3287 -0.1303  0.6691
 6367TIP3    H119107   0.395   2.001   3.446 -0.8553  0.6881  1.0591
 6367TIP3    H219108   0.391   2.046   3.301 -0.1563 -0.2036  0.7515
 6368TIP3   OH219109   5.662   3.613   2.773  0.0719  0.1039 -0.4550
 6368TIP3    H119110   5.570   3.591   2.785  0.2783 -0.9451 -0.7052
 6368TIP3    H219111   5.674   3.614   2.678  0.5441 -0.7595 -0.4100
 6369TIP3   OH219112   3.390   0.407   1.778 -0.1442  0.1028  0.0550
 6369TIP3    H119113   3.473   0.424   1.733 -0.6658  1.1844 -0.5207
 6369TIP3    H219114   3.326   0.397   1.708 -1.0022  1.9967  0.5000
 6370TIP3   OH219115   0.801   1.760   4.232  0.4664  0.1147  0.3118
 6370TIP3    H119116   0.790   1.853   4.249  1.9011  0.1400  1.2757
 6370TIP3    H219117   0.822   1.722   4.318 -1.1193 -1.2879  0.1491
 6371TIP3   OH219118   2.603   4.564   2.128 -0.3526 -0.0404  0.1490
 6371TIP3    H119119   2.551   4.503   2.075 -1.5485 -0.3354  1.5825
 6371TIP3    H219120   2.539   4.624   2.165  0.5347  0.5892  0.7041
 6372TIP3   OH219121   2.369   0.865   5.001  0.3703  0.4837  0.6060
 6372TIP3    H119122   2.300   0.836   4.941  0.1800  1.3631  0.3828
 6372TIP3    H219123   2.409   0.784   5.032 -0.6847 -0.0423  0.6550
 6373TIP3   OH219124   6.312   0.959   2.153  0.1018 -0.4283 -0.2439
 6373TIP3    H119125   6.283   1.042   2.190 -0.7867 -1.0636  0.5224
 6373TIP3    H219126   6.335   0.979   2.063  1.0563  0.8914  0.2699
 6374TIP3   OH219127   2.218   2.655   2.569 -0.4345 -0.4759  0.2395
 6374TIP3    H119128   2.235   2.570   2.529 -0.3031 -0.4672  0.2735
 6374TIP3    H219129   2.302   2.679   2.608  0.1201  0.5787 -1.4713
 6375TIP3   OH219130   0.303   4.085   3.002  0.3894  0.9398  0.4878
 6375TIP3    H119131   0.355   4.149   2.952  0.8054  0.0116 -0.3214
 6375TIP3    H219132   0.226   4.068   2.947  0.5353  0.3816  0.4430
 6376TIP3   OH219133   5.966   5.605   3.198 -0.2882  0.1886  0.1182
 6376TIP3    H119134   6.059   5.583   3.193 -0.2906 -0.1461  1.3810
 6376TIP3    H219135   5.962   5.682   3.255 -0.8918 -0.5469  1.0946
 6377TIP3   OH219136   3.684   4.994   0.586  0.3328 -0.0670  0.2103
 6377TIP3    H119137   3.640   4.995   0.501  0.4395  3.3353  0.0775
 6377TIP3    H219138   3.613   4.980   0.649  0.0433 -1.1515 -0.3331
 6378TIP3   OH219139   1.284   5.612   4.570  0.8868 -0.2723  0.0955
 6378TIP3    H119140   1.260   5.614   4.477 -0.3451  2.1274  0.4016
 6378TIP3    H219141   1.228   5.545   4.608  0.3512 -0.2526 -0.6448
 6379TIP3   OH219142   5.470   0.716   1.195 -0.3330 -0.0735  0.8778
 6379TIP3    H119143   5.454   0.771   1.272  2.4863  0.1639  1.4010
 6379TIP3    H219144   5.564   0.725   1.179 -0.5389 -1.5291 -1.5431
 6380TIP3   OH219145   4.188   2.086   0.906  0.2317 -0.7451 -0.1669
 6380TIP3    H119146   4.183   2.017   0.973  1.0797 -1.4230 -0.7800
 6380TIP3    H219147   4.171   2.167   0.954 -0.2628 -1.3193  0.6664
 6381TIP3   OH219148   3.542   2.763   0.702 -0.5987  0.2821  0.2239
 6381TIP3    H119149   3.551   2.676   0.664  0.9412  0.1592  0.7769
 6381TIP3    H219150   3.482   2.750   0.776  0.6976 -0.6435  1.1685
 6382TIP3   OH219151   5.724   3.916   0.789  0.7213 -0.1064  0.0890
 6382TIP3    H119152   5.818   3.907   0.774  0.6092 -0.0391 -0.7024
 6382TIP3    H219153   5.699   3.833   0.830  1.4477  0.6183  2.0716
 6383TIP3   OH219154  -0.014   5.846   4.178  0.0944 -0.1146  0.6931
 6383TIP3    H119155   0.071   5.806   4.159 -0.5319 -1.1646 -0.0539
 6383TIP3    H219156  -0.013   5.928   4.129 -0.3144 -1.3794 -1.5769
 6384TIP3   OH219157   0.648   0.404   5.130  0.3294 -0.0916  0.3606
 6384TIP3    H119158   0.630   0.485   5.177  1.0602 -0.5668  1.5048
 6384TIP3    H219159   0.742   0.406   5.113  0.2107 -0.3088 -0.3830
 6385TIP3   OH219160   3.237   2.976   1.295 -0.2704 -0.9148  0.6205
 6385TIP3    H119161   3.226   2.973   1.200 -1.0506 -1.8230  0.7239
 6385TIP3    H219162   3.327   2.949   1.310  0.6630  1.5807  0.0299
 6386TIP3   OH219163   2.402   4.131   1.312 -0.6798  0.5112 -0.8419
 6386TIP3    H119164   2.482   4.083   1.291 -0.5784  0.1213  0.3475
 6386TIP3    H219165   2.429   4.222   1.321 -0.0473  0.1727  1.0703
 6387TIP3   OH219166   3.846   5.866   1.938 -0.2133 -0.7005 -0.1153
 6387TIP3    H119167   3.893   5.783   1.944  1.2327 -0.1958 -2.9985
 6387TIP3    H219168   3.907   5.931   1.973 -1.0330 -0.6956  1.3832
 6388TIP3   OH219169   1.885   0.826   0.682  0.1382  0.5922 -0.1394
 6388TIP3    H119170   1.828   0.890   0.725 -0.7168  1.1034 -1.9309
 6388TIP3    H219171   1.831   0.748   0.675  0.3372  0.4527 -0.1089
 6389TIP3   OH219172   4.690   0.473   3.801  0.3414  0.1875 -0.2032
 6389TIP3    H119173   4.761   0.499   3.860  0.5447  0.7198 -0.6835
 6389TIP3    H219174   4.728   0.403   3.747  1.4109  2.2770 -2.3197
 6390TIP3   OH219175   4.500   2.792   1.256  0.2822  0.4903  0.1593
 6390TIP3    H119176   4.593   2.808   1.238 -0.0901  2.5692 -0.2187
 6390TIP3    H219177   4.457   2.874   1.233 -1.2971  0.6096  3.0819
 6391TIP3   OH219178   6.282   1.469   5.078  0.6062  0.0271 -0.5138
 6391TIP3    H119179   6.254   1.380   5.099  1.0314  0.3339  1.5775
 6391TIP3    H219180   6.210   1.505   5.026 -0.3397 -0.9977  0.0517
 6392TIP3   OH219181   5.893   0.754   1.862 -0.6365  0.6797  0.1580
 6392TIP3    H119182   5.942   0.713   1.933  0.6812  0.1582 -0.9945
 6392TIP3    H219183   5.907   0.695   1.787 -2.9998  0.5382 -0.2529
 6393TIP3   OH219184   2.433   0.380   0.730  0.1716 -0.6428  0.2535
 6393TIP3    H119185   2.481   0.359   0.810  2.2715  0.3626 -0.6918
 6393TIP3    H219186   2.361   0.437   0.760  0.9513 -0.2423  1.4179
 6394TIP3   OH219187   4.087   4.723   2.098  0.0355 -0.4632  0.3035
 6394TIP3    H119188   4.013   4.743   2.155  1.2288  0.0109  1.7420
 6394TIP3    H219189   4.097   4.628   2.105 -1.4096 -0.7764 -1.1948
 6395TIP3   OH219190   2.220   3.112   2.620 -0.3343  1.0407  0.0461
 6395TIP3    H119191   2.199   3.090   2.529 -2.3171  0.7664  0.5098
 6395TIP3    H219192   2.299   3.062   2.639 -1.1372 -0.6860 -0.8827
 6396TIP3   OH219193   4.258   2.771   4.175 -0.2085 -0.1364 -0.2812
 6396TIP3    H119194   4.192   2.834   4.205 -1.4117 -1.1088 -0.7813
 6396TIP3    H219195   4.284   2.723   4.254  0.7442  0.9723  0.1091
 6397TIP3   OH219196   3.066   5.890   1.840  0.3077  0.0509 -0.3228
 6397TIP3    H119197   3.035   5.945   1.768  0.0932  2.2884  1.3621
 6397TIP3    H219198   3.156   5.921   1.856 -0.5955  1.6730  2.1539
 6398TIP3   OH219199   6.136   1.548   3.989  0.1024  0.3129 -0.0699
 6398TIP3    H119200   6.175   1.600   3.919  0.3757 -0.4095 -0.4667
 6398TIP3    H219201   6.197   1.556   4.062  0.0288  0.7294 -0.0530
 6399TIP3   OH219202   1.122   0.474   3.002 -0.2858  0.3141  0.0457
 6399TIP3    H119203   1.140   0.563   2.972  0.3875 -0.5027 -2.1568
 6399TIP3    H219204   1.083   0.486   3.089  2.4457  2.6113  1.1275
 6400TIP3   OH219205   1.157   3.015   3.007 -0.7168 -0.1026 -0.4929
 6400TIP3    H119206   1.242   3.052   3.029 -0.7532 -0.9161  1.2274
 6400TIP3    H219207   1.176   2.939   2.952 -0.3798  0.2276 -0.8244
 6401TIP3   OH219208   6.104   0.805   3.933 -0.2730 -0.3902  0.2837
 6401TIP3    H119209   6.153   0.885   3.953 -0.5856  0.1041 -0.8096
 6401TIP3    H219210   6.017   0.819   3.972 -0.5590  0.1295 -0.5191
 6402TIP3   OH219211   3.212   4.923   2.079  0.5682 -0.2178  0.0790
 6402TIP3    H119212   3.276   4.853   2.092  1.1952  0.2822 -0.2645
 6402TIP3    H219213   3.230   4.956   1.991 -0.3240 -0.2282 -0.1169
 6403TIP3   OH219214  -0.004   0.163   2.218 -0.0006  0.4368  0.0612
 6403TIP3    H119215   0.001   0.222   2.294  0.8525 -0.7849  0.9963
 6403TIP3    H219216   0.049   0.087   2.243 -1.0622 -0.7396 -1.1011
 6404TIP3   OH219217   1.871   5.320   2.412 -0.1098  0.5651  0.0205
 6404TIP3    H119218   1.810   5.352   2.345 -0.8164  0.3096  0.5289
 6404TIP3    H219219   1.828   5.340   2.495  1.1989  1.7677  0.4471
 6405TIP3   OH219220   3.421   2.264   0.537  0.2554 -0.0084 -0.2914
 6405TIP3    H119221   3.388   2.200   0.601  0.1136 -0.8502 -1.1764
 6405TIP3    H219222   3.358   2.260   0.465  0.4219  0.9162 -0.4944
 6406TIP3   OH219223   5.156   5.311   1.764  0.5723  0.4018  0.0766
 6406TIP3    H119224   5.073   5.263   1.759  0.4661  0.5893  0.0438
 6406TIP3    H219225   5.191   5.309   1.675  0.3849  0.7092 -0.0064
 6407TIP3   OH219226   3.385   2.541   4.780 -0.0161  0.1692 -0.2273
 6407TIP3    H119227   3.316   2.487   4.820 -0.3830 -1.9563 -3.3642
 6407TIP3    H219228   3.465   2.515   4.826 -0.5963 -1.1651  0.1007
 6408TIP3   OH219229   5.519   1.413   2.887  0.0295 -0.1152 -0.6764
 6408TIP3    H119230   5.516   1.317   2.896  1.7835 -0.1218  0.1607
 6408TIP3    H219231   5.515   1.445   2.977 -1.2481  0.6626 -0.9820
 6409TIP3   OH219232   5.435   0.722   1.810  0.1692  0.3184  0.0524
 6409TIP3    H119233   5.428   0.744   1.717 -0.2982 -0.9376 -0.2311
 6409TIP3    H219234   5.360   0.665   1.826  0.9583 -0.5220  0.8821
 6410TIP3   OH219235   0.144   4.213   3.493 -1.0236 -0.0326  0.4109
 6410TIP3    H119236   0.175   4.256   3.413 -0.6231 -0.6701  0.2238
 6410TIP3    H219237   0.194   4.132   3.498 -2.8633 -1.2474 -0.0553
 6411TIP3   OH219238   4.377   1.617   2.922 -0.5922 -0.3375  0.2047
 6411TIP3    H119239   4.285   1.637   2.904 -0.6199 -1.0412 -0.5273
 6411TIP3    H219240   4.426   1.667   2.858 -0.4810 -0.2232  0.3778
 6412TIP3   OH219241   5.795   0.745   0.230  0.0991 -0.2698  0.7234
 6412TIP3    H119242   5.755   0.776   0.149 -0.2889 -3.2682 -0.3575
 6412TIP3    H219243   5.870   0.803   0.244  0.5037  0.0150 -2.0835
 6413TIP3   OH219244   5.649   4.547   4.100  0.2505  0.4275  0.0520
 6413TIP3    H119245   5.587   4.506   4.160 -1.1467  0.0516 -1.5548
 6413TIP3    H219246   5.628   4.640   4.104 -0.9389  0.2379 -0.9637
 6414TIP3   OH219247   1.472   3.752   5.136 -0.4776  0.2818 -0.0882
 6414TIP3    H119248   1.381   3.739   5.108 -0.5953  1.4856 -0.2985
 6414TIP3    H219249   1.520   3.680   5.096 -1.2563 -0.0750 -0.3955
 6415TIP3   OH219250   0.431   5.554   0.521  0.0628 -0.3219  0.0251
 6415TIP3    H119251   0.434   5.589   0.432 -0.0008 -1.2231 -0.3442
 6415TIP3    H219252   0.341   5.569   0.551  0.1902  0.3367  0.0936
 6416TIP3   OH219253   2.637   0.673   1.301  0.2108 -0.5852  0.2882
 6416TIP3    H119254   2.576   0.628   1.359  0.0851 -1.5203 -0.5419
 6416TIP3    H219255   2.714   0.689   1.355  0.2790 -1.8661  0.6052
 6417TIP3   OH219256   4.608   5.598   0.568 -0.4500 -0.4897  0.6024
 6417TIP3    H119257   4.638   5.636   0.650  2.8008  1.4578 -1.2657
 6417TIP3    H219258   4.513   5.610   0.568 -0.1552  3.1063  2.3946
 6418TIP3   OH219259   2.808   3.851   3.551 -0.3298  0.1518  0.7431
 6418TIP3    H119260   2.745   3.822   3.617  2.0192  0.5612  3.3814
 6418TIP3    H219261   2.886   3.797   3.568  0.2632 -0.0071 -2.0476
 6419TIP3   OH219262   0.245   1.732   2.196 -0.0171  0.5346  0.0587
 6419TIP3    H119263   0.294   1.650   2.209  1.0583  1.1825  0.2128
 6419TIP3    H219264   0.179   1.731   2.265 -1.1670 -1.0020 -0.9850
 6420TIP3   OH219265   5.399   2.477   4.537 -0.3801  0.6842 -0.1767
 6420TIP3    H119266   5.449   2.423   4.598  0.1639 -0.3121 -1.4436
 6420TIP3    H219267   5.345   2.414   4.489 -0.7310  1.4235 -0.7688
 6421TIP3   OH219268   6.033   2.968   0.292 -0.3079  0.1017 -0.5943
 6421TIP3    H119269   6.092   2.934   0.224 -1.5856 -0.4685 -1.4465
 6421TIP3    H219270   5.970   2.898   0.307 -0.6559  0.6239  0.4530
 6422TIP3   OH219271   4.095   4.866   1.632 -0.0908  0.4766 -0.2242
 6422TIP3    H119272   4.008   4.826   1.636  0.1731 -0.1044 -0.2009
 6422TIP3    H219273   4.147   4.803   1.581  0.4635  0.5413  0.2593
 6423TIP3   OH219274   5.665   4.080   3.562  0.1321  0.5158 -0.3028
 6423TIP3    H119275   5.677   4.067   3.468 -0.2769 -0.9307 -0.1822
 6423TIP3    H219276   5.752   4.103   3.594  0.5119 -0.0656 -0.8810
 6424TIP3   OH219277   5.792   3.786   2.933  0.4682 -0.2663  0.1136
 6424TIP3    H119278   5.751   3.711   2.892  1.6622 -0.6588 -0.4129
 6424TIP3    H219279   5.867   3.806   2.877 -0.3492  1.9108 -0.3027
 6425TIP3   OH219280   1.095   2.732   4.532 -0.0857  0.2529 -0.1347
 6425TIP3    H119281   1.189   2.738   4.550 -0.1410  0.9749 -0.0606
 6425TIP3    H219282   1.089   2.686   4.449  0.4611  2.3360 -1.4160
 6426TIP3   OH219283   5.778   2.427   1.545  0.0458 -0.3637  0.5511
 6426TIP3    H119284   5.764   2.338   1.577  0.0942 -0.8843 -0.8314
 6426TIP3    H219285   5.708   2.442   1.483  0.5587  0.2254  0.1025
 6427TIP3   OH219286   2.796   0.122   5.130 -0.4843 -0.1054  0.3237
 6427TIP3    H119287   2.822   0.186   5.064  0.3176 -0.0657  0.6691
 6427TIP3    H219288   2.716   0.158   5.169 -0.6332  0.1539 -0.2207
 6428TIP3   OH219289   1.711   2.893   2.672 -0.1896  0.3397 -0.1586
 6428TIP3    H119290   1.797   2.922   2.702 -0.7247  2.8135 -0.8280
 6428TIP3    H219291   1.706   2.921   2.581 -1.2957 -0.7411 -0.4552
 6429TIP3   OH219292   3.601   5.006   4.060  0.2812 -0.2745  0.3280
 6429TIP3    H119293   3.618   4.916   4.032 -0.5431 -0.4408  0.3154
 6429TIP3    H219294   3.518   5.028   4.017  1.1929  1.0072 -0.8386
 6430TIP3   OH219295   3.472   1.274   0.491 -0.9044 -0.3930  0.1803
 6430TIP3    H119296   3.529   1.289   0.416 -2.5436 -1.1945 -1.2965
 6430TIP3    H219297   3.499   1.187   0.523  0.0010  0.0799  0.7392
 6431TIP3   OH219298   3.142   4.213   3.085 -0.0416 -0.1773  0.0357
 6431TIP3    H119299   3.186   4.194   3.002  1.6384  0.0259  0.8360
 6431TIP3    H219300   3.143   4.130   3.132  1.4718  0.3099  0.9217
 6432TIP3   OH219301   5.161   0.506   4.512  0.3829  0.2321  0.1436
 6432TIP3    H119302   5.115   0.428   4.544  2.7843 -0.1193  3.1840
 6432TIP3    H219303   5.129   0.577   4.568  2.6655  0.1529  1.6629
 6433TIP3   OH219304   2.118   5.137   0.943  0.5436 -0.0362 -0.5271
 6433TIP3    H119305   2.066   5.092   1.010 -0.6606  1.7305 -0.2154
 6433TIP3    H219306   2.150   5.216   0.987  1.1406  0.3060 -1.5513
 6434TIP3   OH219307   2.871   0.418   3.069  0.0856 -0.2188 -0.1156
 6434TIP3    H119308   2.797   0.405   3.010 -1.0779  0.9060  1.0317
 6434TIP3    H219309   2.866   0.511   3.093  2.3717  0.0968 -0.6464
 6435TIP3   OH219310   3.162   3.582   4.901 -0.6708  0.4081  0.2727
 6435TIP3    H119311   3.072   3.603   4.925 -1.0770 -2.3987  1.6166
 6435TIP3    H219312   3.161   3.576   4.806 -1.9334  0.3138  0.2759
 6436TIP3   OH219313   3.703   1.379   0.738  0.1767  0.2996 -0.4919
 6436TIP3    H119314   3.654   1.406   0.660 -1.4734  0.4627  0.5548
 6436TIP3    H219315   3.638   1.380   0.808  1.6756  0.4032  0.9454
 6437TIP3   OH219316   3.669   0.108   3.067 -0.3421  0.0487  0.0270
 6437TIP3    H119317   3.613   0.038   3.102  0.5108 -1.2146 -1.0099
 6437TIP3    H219318   3.750   0.100   3.118 -0.0809 -0.0201 -0.3972
 6438TIP3   OH219319   2.706   3.787   1.065 -0.0840 -0.6469  0.8971
 6438TIP3    H119320   2.703   3.730   1.142 -1.0938 -0.4546  1.0095
 6438TIP3    H219321   2.676   3.872   1.097  0.4729 -0.2940  0.5079
 6439TIP3   OH219322   2.910   3.239   1.826 -0.4681  0.1186 -0.2797
 6439TIP3    H119323   2.878   3.327   1.844 -1.4193  0.0320 -1.4516
 6439TIP3    H219324   2.951   3.245   1.740  0.3028 -0.3921  0.0334
 6440TIP3   OH219325   5.885   2.085   4.300 -0.0589 -0.2923 -0.1195
 6440TIP3    H119326   5.939   2.080   4.221  0.4099  0.2194  0.1636
 6440TIP3    H219327   5.903   2.003   4.346  0.6293 -0.0545  0.0590
 6441TIP3   OH219328   4.367   5.479   2.645  0.2281  0.5127  0.1667
 6441TIP3    H119329   4.381   5.551   2.584  0.3057  0.8377  0.5603
 6441TIP3    H219330   4.279   5.493   2.679 -0.4170 -0.5395 -1.0038
 6442TIP3   OH219331   0.061   5.032   3.614  0.3352  0.0438  0.1318
 6442TIP3    H119332   0.140   4.986   3.641  1.2612  2.3861  1.7751
 6442TIP3    H219333   0.051   5.011   3.521  0.5963 -3.4086  0.7637
 6443TIP3   OH219334   2.554   5.525   3.218  0.5046  0.2952  0.3816
 6443TIP3    H119335   2.612   5.594   3.187  2.3354 -1.8670 -1.2947
 6443TIP3    H219336   2.608   5.446   3.219 -2.3847 -1.9466 -1.5451
 6444TIP3   OH219337   3.386   4.719   2.153  0.3727  0.0758  0.4296
 6444TIP3    H119338   3.381   4.624   2.165 -0.0213  0.0518  0.1084
 6444TIP3    H219339   3.396   4.754   2.242 -1.1017 -0.1764  0.7191
 6445TIP3   OH219340   2.821   4.976   4.587  0.5077  0.1661 -0.3039
 6445TIP3    H119341   2.801   4.891   4.625 -0.2840  0.4547 -0.0645
 6445TIP3    H219342   2.916   4.985   4.596  0.5206 -0.4358  0.1965
 6446TIP3   OH219343   3.459   0.805   2.043  0.1842 -0.0489  0.6596
 6446TIP3    H119344   3.382   0.861   2.049 -0.0758 -0.2598 -0.5815
 6446TIP3    H219345   3.475   0.795   1.949  0.5796 -1.5611  0.8579
 6447TIP3   OH219346   4.777   4.813   2.495 -0.3034  0.2911 -0.3051
 6447TIP3    H119347   4.856   4.773   2.460  1.1963  0.7947  2.2631
 6447TIP3    H219348   4.705   4.761   2.460  1.2899 -1.5491 -0.9591
 6448TIP3   OH219349   0.638   4.952   3.939  0.1532 -0.5271 -0.0658
 6448TIP3    H119350   0.629   4.874   3.995 -0.9845 -0.6433 -0.3920
 6448TIP3    H219351   0.730   4.951   3.912  0.5890 -0.7856  1.3301
 6449TIP3   OH219352   3.251   5.727   4.036  0.3329  0.6626  0.0385
 6449TIP3    H119353   3.289   5.806   4.075  3.0311  0.4385 -1.8505
 6449TIP3    H219354   3.317   5.659   4.050 -1.2847 -0.9272  0.3130
 6450TIP3   OH219355   4.635   5.195   1.808 -0.4283  0.1311 -0.2354
 6450TIP3    H119356   4.548   5.156   1.803 -0.1101 -0.4256 -2.1683
 6450TIP3    H219357   4.632   5.269   1.747  0.1714  0.6943  0.4003
 6451TIP3   OH219358   0.377   1.070   2.779  0.2039 -0.7170 -0.1324
 6451TIP3    H119359   0.332   1.059   2.696 -1.0417 -0.4605  0.4815
 6451TIP3    H219360   0.413   1.159   2.775  1.3016 -1.1721 -0.9070
 6452TIP3   OH219361   0.869   4.287   3.372 -0.6866 -0.4566 -0.0517
 6452TIP3    H119362   0.896   4.356   3.433 -3.5040  0.3910  0.3393
 6452TIP3    H219363   0.790   4.320   3.331 -1.9978 -3.3254 -0.0551
 6453TIP3   OH219364   4.099   4.121   2.213 -0.1497  0.4362  1.1049
 6453TIP3    H119365   4.014   4.143   2.251 -1.0448  0.0374 -0.5502
 6453TIP3    H219366   4.078   4.061   2.141  1.3079  1.8788 -0.6332
 6454TIP3   OH219367   3.701   5.241   0.732 -0.3501 -0.0918 -0.3016
 6454TIP3    H119368   3.692   5.149   0.704 -0.5300  0.3187 -1.7111
 6454TIP3    H219369   3.794   5.253   0.746 -0.3013 -0.4469 -0.3063
 6455TIP3   OH219370   1.028   2.713   1.037  0.5966 -0.3827 -0.4146
 6455TIP3    H119371   1.016   2.741   1.127  1.4682 -1.0888 -0.0707
 6455TIP3    H219372   1.001   2.621   1.036  1.6143 -0.6921 -0.6229
 6456TIP3   OH219373   5.193   4.572   2.056  0.9802 -0.3047  0.1809
 6456TIP3    H119374   5.167   4.505   2.120  0.0569 -0.4509 -0.3305
 6456TIP3    H219375   5.195   4.526   1.972  0.0459  0.3597 -0.2261
 6457TIP3   OH219376   0.256   1.282   4.585  0.4481 -0.0151  0.6550
 6457TIP3    H119377   0.185   1.219   4.573  0.9198 -0.4265 -0.0737
 6457TIP3    H219378   0.269   1.285   4.680 -1.1693  0.7915  0.8955
 6458TIP3   OH219379   5.873   2.315   2.001 -0.3118 -0.2381  0.1685
 6458TIP3    H119380   5.843   2.360   2.079 -0.8088  0.1786 -0.2609
 6458TIP3    H219381   5.896   2.385   1.939 -0.0660 -0.5634 -0.1168
 6459TIP3   OH219382   4.207   3.676   3.077  0.2833 -0.1107  0.2853
 6459TIP3    H119383   4.268   3.637   3.014  0.9254 -0.1563  0.9101
 6459TIP3    H219384   4.225   3.770   3.072 -0.3417 -0.0185 -0.2826
 6460TIP3   OH219385   4.002   4.597   0.863 -0.0416  0.4165  0.5466
 6460TIP3    H119386   4.096   4.591   0.843 -0.0737  1.7811 -0.1236
 6460TIP3    H219387   3.972   4.673   0.814 -1.4618  0.1498  0.9577
 6461TIP3   OH219388   5.093   0.645   2.269  0.2347 -0.4754  0.4973
 6461TIP3    H119389   5.022   0.708   2.269  0.8186  0.2545  2.4891
 6461TIP3    H219390   5.172   0.698   2.281  0.7937 -1.4877  1.5667
 6462TIP3   OH219391   4.773   4.302   3.670  0.3678 -0.1741  0.1666
 6462TIP3    H119392   4.801   4.378   3.619  0.7477  0.3493  1.1391
 6462TIP3    H219393   4.844   4.287   3.732  0.0551 -0.9945  0.3381
 6463TIP3   OH219394   1.077   2.664   0.548  0.3792 -0.0909  0.2084
 6463TIP3    H119395   1.104   2.678   0.639 -0.1897 -2.2945  0.7873
 6463TIP3    H219396   1.153   2.623   0.507 -0.7784 -3.2445  0.9614
 6464TIP3   OH219397   4.728   2.066   2.470 -0.0024  0.0013 -0.6328
 6464TIP3    H119398   4.808   2.020   2.443  0.2990 -0.2258  0.5421
 6464TIP3    H219399   4.748   2.158   2.458  0.9118  0.0149  0.7690
 6465TIP3   OH219400   2.651   1.287   4.531  0.1347  0.3771 -0.3003
 6465TIP3    H119401   2.601   1.211   4.500  0.4519  0.5278 -1.2000
 6465TIP3    H219402   2.727   1.291   4.473  1.6928 -0.3695  1.5856
 6466TIP3   OH219403   4.755   5.556   3.059  0.0459 -0.2178  0.4177
 6466TIP3    H119404   4.743   5.516   2.973 -0.2804  0.2588  0.2388
 6466TIP3    H219405   4.695   5.509   3.116  0.1760 -0.4533  0.3626
 6467TIP3   OH219406   0.644   5.361   0.011  0.0227 -0.2195  0.3823
 6467TIP3    H119407   0.555   5.397   0.006  0.5298  0.9312 -2.0044
 6467TIP3    H219408   0.692   5.424   0.065 -0.3301 -0.2348  0.7234
 6468TIP3   OH219409   4.500   2.028   0.472  0.7357 -0.3172 -0.8276
 6468TIP3    H119410   4.454   2.095   0.523  0.1810  0.2312 -1.9841
 6468TIP3    H219411   4.587   2.023   0.511  0.3540  0.1281  0.1064
 6469TIP3   OH219412   3.029   1.257   2.158  0.6352  0.3679  0.0657
 6469TIP3    H119413   2.969   1.329   2.140  0.5827  0.0490 -1.0956
 6469TIP3    H219414   3.047   1.264   2.252  0.7123  1.9474 -0.0435
 6470TIP3   OH219415   5.690   4.110   0.306  0.1861 -0.0123 -0.3494
 6470TIP3    H119416   5.634   4.184   0.329  0.9646 -0.1593  2.3472
 6470TIP3    H219417   5.777   4.135   0.337  0.7653 -1.4843 -0.6865
 6471TIP3   OH219418   0.617   2.864   3.795  0.3338 -0.1674 -0.3413
 6471TIP3    H119419   0.583   2.853   3.706  2.2502  0.8707 -1.2533
 6471TIP3    H219420   0.654   2.952   3.796  1.0689 -0.4520  1.2469
 6472TIP3   OH219421   0.324   2.275   1.582 -0.0772  0.0223  0.1696
 6472TIP3    H119422   0.261   2.307   1.517  0.2401  0.0673 -0.1181
 6472TIP3    H219423   0.409   2.294   1.544  0.1241  0.7829  0.9528
 6473TIP3   OH219424   6.012   4.625   3.124 -0.3362  0.2975  0.0632
 6473TIP3    H119425   5.942   4.682   3.157  0.9330  1.5436  0.7108
 6473TIP3    H219426   6.046   4.672   3.047  0.0687 -0.0803  0.0075
 6474TIP3   OH219427   4.428   4.515   0.063  0.0173 -0.4094 -0.2241
 6474TIP3    H119428   4.442   4.599   0.106 -0.4571 -0.8377  0.8056
 6474TIP3    H219429   4.413   4.537  -0.029  0.8445  0.5458 -0.1477
 6475TIP3   OH219430   4.208   1.437   0.831 -0.6162  0.2193  0.0370
 6475TIP3    H119431   4.114   1.446   0.848 -0.8459  1.6272 -1.7108
 6475TIP3    H219432   4.227   1.504   0.765  1.7993  0.5698  0.9720
 6476TIP3   OH219433   4.733   4.884   3.424  0.5492 -0.6026  0.1742
 6476TIP3    H119434   4.753   4.863   3.515 -1.2088  1.6158  1.1924
 6476TIP3    H219435   4.732   4.800   3.379  3.1914 -1.6047  1.7866
 6477TIP3   OH219436   5.845   3.905   1.160  0.1663 -0.5344  0.0393
 6477TIP3    H119437   5.815   3.989   1.126 -0.4208 -0.4223  0.8076
 6477TIP3    H219438   5.940   3.914   1.166  0.2382 -0.4135 -1.1475
 6478TIP3   OH219439   2.112   2.289   2.463 -0.6624 -0.0440  0.5984
 6478TIP3    H119440   2.131   2.371   2.418 -0.2334 -0.4698 -0.0206
 6478TIP3    H219441   2.135   2.304   2.554  0.2983  0.2287  0.3148
 6479TIP3   OH219442   4.081   5.024   3.152 -0.4520  0.3019  0.2674
 6479TIP3    H119443   4.144   5.094   3.169 -0.3816  0.3414 -0.1256
 6479TIP3    H219444   4.134   4.956   3.110 -0.8679  0.7864 -1.1013
 6480TIP3   OH219445   0.478   2.166   2.484 -0.5500 -0.2318 -0.1696
 6480TIP3    H119446   0.444   2.096   2.540  1.9216  0.3164  2.2649
 6480TIP3    H219447   0.507   2.233   2.545  0.3441  1.4064 -2.2633
 6481TIP3   OH219448   2.851   1.100   3.447 -0.6125  0.2283  0.5780
 6481TIP3    H119449   2.913   1.172   3.437 -0.0373 -0.3982 -0.5376
 6481TIP3    H219450   2.885   1.048   3.520 -0.1106  0.1823  0.3123
 6482TIP3   OH219451   4.764   2.222   4.532 -0.0015  0.1248 -0.5962
 6482TIP3    H119452   4.839   2.222   4.473 -0.3397 -1.0542 -1.0520
 6482TIP3    H219453   4.760   2.312   4.566 -0.2216  1.0485 -2.8837
 6483TIP3   OH219454   4.379   1.546   1.670  0.1250 -0.0846  0.3198
 6483TIP3    H119455   4.402   1.463   1.711  1.1678  0.5334  1.0192
 6483TIP3    H219456   4.425   1.545   1.587 -1.1644 -0.8862 -0.4260
 6484TIP3   OH219457   1.490   3.295   0.150  0.3687 -0.0871  0.2143
 6484TIP3    H119458   1.455   3.313   0.238 -2.9139  0.2550 -1.0538
 6484TIP3    H219459   1.467   3.204   0.133 -0.7806  0.3941 -0.9870
 6485TIP3   OH219460   5.995   4.524   0.899 -0.0191  0.2321 -0.0855
 6485TIP3    H119461   5.975   4.596   0.959 -1.4555 -0.7689  0.7124
 6485TIP3    H219462   6.041   4.460   0.953 -0.7628 -0.4113 -0.2014
 6486TIP3   OH219463   2.291   1.772   3.866  0.0580 -0.1733  0.3241
 6486TIP3    H119464   2.251   1.743   3.948 -0.1591  1.6024  0.8958
 6486TIP3    H219465   2.383   1.785   3.888 -0.3039  1.9189  0.7997
 6487TIP3   OH219466   0.601   3.556   4.749  0.6053 -0.5553  0.0886
 6487TIP3    H119467   0.653   3.636   4.736 -0.5822  0.5140  1.5740
 6487TIP3    H219468   0.664   3.490   4.776  1.3784  0.3801  0.6326
 6488TIP3   OH219469   1.762   2.057   3.876  0.2938  0.2448 -0.3328
 6488TIP3    H119470   1.720   2.139   3.849  2.5022  1.8696  0.9090
 6488TIP3    H219471   1.734   2.045   3.967  2.5900  1.5278  0.6277
 6489TIP3   OH219472   4.151   0.538   0.929  0.0055 -0.4592 -0.2546
 6489TIP3    H119473   4.087   0.588   0.878  0.4005  0.3085 -0.0108
 6489TIP3    H219474   4.115   0.536   1.018 -0.0666 -0.7136 -0.2885
 6490TIP3   OH219475   2.956   3.878   3.331  0.3474 -0.2920  0.6294
 6490TIP3    H119476   2.897   3.876   3.256  0.7720 -1.1661  0.3095
 6490TIP3    H219477   2.898   3.876   3.407 -0.0456 -2.0964  0.3286
 6491TIP3   OH219478   0.364   2.941   3.460 -0.6434  0.0463 -0.0155
 6491TIP3    H119479   0.415   2.867   3.491  0.0366  0.2747 -0.5591
 6491TIP3    H219480   0.404   2.965   3.377 -1.2430  0.6319 -0.1468
 6492TIP3   OH219481   5.431   4.629   3.384  0.4339 -0.1489  0.5010
 6492TIP3    H119482   5.367   4.696   3.410 -0.5861 -0.6320 -0.6104
 6492TIP3    H219483   5.511   4.653   3.429 -0.8883 -0.3335  3.1269
 6493TIP3   OH219484   4.204   4.414   3.929  0.3028  0.7575 -0.1989
 6493TIP3    H119485   4.118   4.419   3.970 -0.3372 -0.3169 -1.3172
 6493TIP3    H219486   4.202   4.480   3.860  0.9592  1.7819  0.7359
 6494TIP3   OH219487   2.289   3.836   3.486  0.2001 -0.0338  0.1311
 6494TIP3    H119488   2.280   3.931   3.485  1.5309  0.1746  1.9021
 6494TIP3    H219489   2.213   3.803   3.439  0.1937  1.9216 -1.3150
 6495TIP3   OH219490   2.667   5.100   3.077  0.1513 -0.3133 -0.0579
 6495TIP3    H119491   2.584   5.114   3.032  0.3462  1.1853 -0.0142
 6495TIP3    H219492   2.707   5.026   3.031 -0.2938  0.2653 -1.4510
 6496TIP3   OH219493   5.984   2.346   0.429 -0.0544 -0.5154  0.1773
 6496TIP3    H119494   5.923   2.328   0.357  0.4369 -0.5045 -0.2523
 6496TIP3    H219495   5.976   2.270   0.486 -1.3937  0.0533  0.7950
 6497TIP3   OH219496   0.245   3.433   2.519  0.5565  0.2760  0.0539
 6497TIP3    H119497   0.186   3.394   2.584 -1.7803  2.2901 -0.7079
 6497TIP3    H219498   0.322   3.460   2.569 -0.3672  0.0917  1.6421
 6498TIP3   OH219499   4.506   2.276   0.830  0.3658  0.0178  0.0133
 6498TIP3    H119500   4.496   2.289   0.924  0.7204  0.4724 -0.0137
 6498TIP3    H219501   4.557   2.351   0.800 -1.3933  0.9328 -0.8661
 6499TIP3   OH219502   5.414   2.779   3.854  0.2551  0.3069  0.6458
 6499TIP3    H119503   5.333   2.733   3.874  0.1137  0.9465  1.5947
 6499TIP3    H219504   5.480   2.735   3.907  0.5708 -0.2989 -0.2241
 6500TIP3   OH219505   0.885   0.740   3.274  0.4055  0.2623  0.6045
 6500TIP3    H119506   0.819   0.679   3.307  0.7196 -0.4416 -0.0379
 6500TIP3    H219507   0.947   0.749   3.347 -1.5574  2.7778  2.1256
 6501TIP3   OH219508   1.490   1.524   1.780  0.0893 -0.1300 -0.3389
 6501TIP3    H119509   1.451   1.546   1.695 -0.2411  1.1246  0.1172
 6501TIP3    H219510   1.452   1.587   1.841  1.3851 -0.1094  0.4900
 6502TIP3   OH219511   1.770   3.874   0.857 -0.4730  0.1459  0.1976
 6502TIP3    H119512   1.689   3.831   0.829 -0.3487 -0.1437  0.2703
 6502TIP3    H219513   1.825   3.874   0.779 -0.3242 -0.1890  0.2986
 6503TIP3   OH219514   1.122   0.665   1.268 -0.6978  0.1634  0.7855
 6503TIP3    H119515   1.190   0.732   1.275 -0.0271 -0.5377  1.1066
 6503TIP3    H219516   1.146   0.599   1.332 -0.6180 -1.0133 -0.4084
 6504TIP3   OH219517   3.774   2.431   1.060  0.1435  0.0587  0.0519
 6504TIP3    H119518   3.808   2.468   0.978  0.2147 -0.7538 -0.2929
 6504TIP3    H219519   3.722   2.501   1.098 -0.6791  0.1329 -1.1722
 6505TIP3   OH219520   6.252   2.160   4.579 -0.1300  0.0813  0.0137
 6505TIP3    H119521   6.310   2.215   4.631  2.1593 -2.4160  0.3132
 6505TIP3    H219522   6.212   2.101   4.643  0.1968 -0.8980 -0.6706
 6506TIP3   OH219523   6.164   0.975   4.564 -0.0819 -0.4287 -0.5769
 6506TIP3    H119524   6.162   0.888   4.526 -0.0725 -0.2948 -0.8866
 6506TIP3    H219525   6.081   1.015   4.538  0.6870  0.3179 -2.0248
 6507TIP3   OH219526   0.069   0.243   3.514  0.6760 -0.0095 -0.0286
 6507TIP3    H119527   0.069   0.158   3.470  1.7671 -0.0700  0.0667
 6507TIP3    H219528  -0.002   0.238   3.577  1.1080 -1.0771  0.3915
 6508TIP3   OH219529   0.034   1.135   0.693  0.3032 -0.4103  0.2587
 6508TIP3    H119530  -0.038   1.157   0.753  0.5918 -1.3702  0.9861
 6508TIP3    H219531   0.102   1.200   0.713 -0.2774  0.3825 -0.2978
 6509TIP3   OH219532   3.330   5.044   1.497 -0.4344  0.4351 -0.1789
 6509TIP3    H119533   3.366   5.044   1.408  1.4769 -1.0292  0.5196
 6509TIP3    H219534   3.257   4.983   1.492 -0.9648  1.1112 -0.9525
 6510TIP3   OH219535   5.717   3.533   2.348 -0.2385 -0.2835 -0.1355
 6510TIP3    H119536   5.632   3.489   2.358 -0.2066 -0.6317 -1.2037
 6510TIP3    H219537   5.746   3.508   2.260  0.1713  1.2167 -0.4522
 6511TIP3   OH219538   6.190   1.455   2.882  0.0171  0.1541 -0.7192
 6511TIP3    H119539   6.280   1.422   2.886  0.0041  0.2412  1.5685
 6511TIP3    H219540   6.139   1.392   2.933 -1.8269 -1.4030 -4.0907
 6512TIP3   OH219541   2.117   0.911   0.284 -0.4210  0.5960  0.2248
 6512TIP3    H119542   2.056   0.933   0.354 -1.5085  0.2491 -0.5838
 6512TIP3    H219543   2.062   0.895   0.207  0.7764  1.8593 -0.9722
 6513TIP3   OH219544   5.286   3.305   2.321  0.1140 -0.6951  0.1899
 6513TIP3    H119545   5.242   3.388   2.341  0.4485 -0.4955  0.1095
 6513TIP3    H219546   5.272   3.250   2.398 -1.5198 -1.1657 -0.4023
 6514TIP3   OH219547   6.282   5.721   0.731  0.2985 -0.5220 -1.0076
 6514TIP3    H119548   6.278   5.643   0.676  0.6275 -2.0293  0.9796
 6514TIP3    H219549   6.370   5.756   0.717  0.6305 -1.3011 -0.9267
 6515TIP3   OH219550   5.667   4.919   4.242  0.2658  0.1362 -0.1787
 6515TIP3    H119551   5.629   4.865   4.173  0.4808 -1.1715  0.6778
 6515TIP3    H219552   5.732   4.973   4.197  1.7259 -1.9986 -0.7965
 6516TIP3   OH219553   3.576   2.555   3.066  0.7260  0.2648 -1.0005
 6516TIP3    H119554   3.513   2.574   2.997 -0.0453  1.0689 -0.0982
 6516TIP3    H219555   3.620   2.639   3.083  2.0561 -0.2712 -1.6002
 6517TIP3   OH219556   4.556   3.841   3.735  0.1225 -0.0512  0.1850
 6517TIP3    H119557   4.577   3.799   3.819 -1.0225 -0.4525  0.2948
 6517TIP3    H219558   4.560   3.935   3.754 -1.9018 -0.1076  1.2201
 6518TIP3   OH219559   5.940   1.931   2.875 -0.0643 -0.2318 -0.2118
 6518TIP3    H119560   5.939   2.024   2.900 -0.7400 -0.4068  0.4391
 6518TIP3    H219561   6.032   1.906   2.881 -0.1506 -0.2115  1.9596
 6519TIP3   OH219562   0.514   3.845   0.111 -0.0181 -0.0010  0.0170
 6519TIP3    H119563   0.563   3.864   0.191 -0.4658 -1.0499  0.5564
 6519TIP3    H219564   0.427   3.881   0.128 -0.0498 -0.0265 -0.0929
 6520TIP3   OH219565   0.812   2.480   4.791 -0.4745 -0.0168 -0.3702
 6520TIP3    H119566   0.784   2.510   4.878 -0.6057 -1.2752  0.0479
 6520TIP3    H219567   0.870   2.406   4.809  2.3990  1.8342 -1.2432
 6521TIP3   OH219568   0.809   5.530   0.141 -0.1402  0.0013  0.4119
 6521TIP3    H119569   0.881   5.467   0.127  0.5317  0.3545  2.0436
 6521TIP3    H219570   0.834   5.606   0.089  0.6193  0.0532  0.8237
 6522TIP3   OH219571   4.339   4.007   0.332  0.2289  0.0061 -0.1665
 6522TIP3    H119572   4.250   4.038   0.320  0.0714  0.1944  1.2839
 6522TIP3    H219573   4.369   3.982   0.244 -1.3900 -0.4750 -0.6011
 6523TIP3   OH219574   5.242   4.753   1.391 -0.5026  0.0483 -0.2732
 6523TIP3    H119575   5.285   4.771   1.307 -1.4248  0.9038 -0.5740
 6523TIP3    H219576   5.162   4.707   1.368 -0.1319 -0.8872  0.2402
 6524TIP3   OH219577   1.694   2.237   0.947  0.2978  0.4583 -0.3468
 6524TIP3    H119578   1.663   2.326   0.927 -0.2026  0.4586  0.4048
 6524TIP3    H219579   1.748   2.248   1.025  3.5937  0.7167 -2.4437
 6525TIP3   OH219580   2.400   4.895   1.461 -0.1958  0.1987  0.7273
 6525TIP3    H119581   2.317   4.926   1.424  0.9319  1.4226 -0.8850
 6525TIP3    H219582   2.439   4.972   1.503  0.7935  0.0112  0.1804
 6526TIP3   OH219583   1.672   2.072   1.285 -0.2456  0.4241  0.5603
 6526TIP3    H119584   1.641   2.024   1.208 -0.2633  0.0495  0.7941
 6526TIP3    H219585   1.753   2.114   1.257 -0.2511  0.2877  0.3392
 6527TIP3   OH219586   1.046   3.999   0.880 -0.2054 -0.4460  0.0727
 6527TIP3    H119587   1.124   4.031   0.834 -1.2084 -0.8645 -2.0713
 6527TIP3    H219588   1.079   3.960   0.960  1.7257 -0.0654 -0.4936
 6528TIP3   OH219589   4.193   5.808   0.602 -0.0911  0.8308 -0.2113
 6528TIP3    H119590   4.157   5.840   0.685 -0.8283  0.1341 -0.2556
 6528TIP3    H219591   4.232   5.724   0.623 -1.2128  0.1454 -0.7514
 6529TIP3   OH219592   3.852   2.277   0.626 -0.5575 -0.3351 -0.4839
 6529TIP3    H119593   3.927   2.249   0.573 -0.3306 -0.9315  0.1319
 6529TIP3    H219594   3.850   2.214   0.698 -1.9257 -0.6070 -0.7311
 6530TIP3   OH219595   4.313   4.021   1.078 -0.0099  0.3090 -0.7144
 6530TIP3    H119596   4.256   4.055   1.010 -0.5282  0.2079 -0.3396
 6530TIP3    H219597   4.256   3.966   1.132 -0.0826  1.8734  0.9117
 6531TIP3   OH219598   2.086   4.287   2.306 -0.1277  0.4285 -0.1082
 6531TIP3    H119599   2.141   4.215   2.340 -0.1305  0.5474  0.1482
 6531TIP3    H219600   2.004   4.279   2.354 -0.6736 -0.2985 -1.1205
 6532TIP3   OH219601   2.617   4.412   0.719 -0.1030  0.4340  0.9216
 6532TIP3    H119602   2.619   4.320   0.694 -1.1543  0.6088  0.1060
 6532TIP3    H219603   2.707   4.432   0.747  0.2726 -0.6769  0.5479
 6533TIP3   OH219604   0.853   2.325   4.008 -0.4906 -0.0384  0.3156
 6533TIP3    H119605   0.882   2.376   3.932 -0.3797  0.4084  0.6522
 6533TIP3    H219606   0.888   2.237   3.993  2.6354  0.8477  1.5330
 6534TIP3   OH219607   3.840   4.765   1.588  0.5271  0.2576  0.4413
 6534TIP3    H119608   3.813   4.794   1.501  1.3760 -0.5607 -0.1148
 6534TIP3    H219609   3.761   4.775   1.642 -0.3854 -0.4092 -0.7159
 6535TIP3   OH219610   3.358   2.203   2.004 -0.4100 -1.1133  0.4352
 6535TIP3    H119611   3.420   2.152   2.056  1.0831 -1.1935 -1.3010
 6535TIP3    H219612   3.323   2.268   2.064  0.4109 -1.8811  1.7878
 6536TIP3   OH219613   1.788   5.997   3.183 -0.2103  0.2344  0.0397
 6536TIP3    H119614   1.872   5.996   3.229  0.2823 -1.0814 -0.8364
 6536TIP3    H219615   1.752   5.909   3.198 -0.3490  0.0070 -1.4791
 6537TIP3   OH219616   5.839   5.395   1.464 -0.2513  1.2575 -0.2399
 6537TIP3    H119617   5.787   5.439   1.531  0.0495  1.9205 -0.4364
 6537TIP3    H219618   5.926   5.433   1.472  0.2848  0.0008  0.2398
 6538TIP3   OH219619   5.598   1.262   0.393  0.4783  0.1218 -0.1951
 6538TIP3    H119620   5.504   1.255   0.378  0.8535  0.9683 -3.7927
 6538TIP3    H219621   5.614   1.356   0.402  0.9593 -0.0538  1.0154
 6539TIP3   OH219622   0.533   2.065   0.242 -0.4792  0.1299  0.5435
 6539TIP3    H119623   0.454   2.112   0.215  0.7325  0.6872 -2.5393
 6539TIP3    H219624   0.527   1.981   0.196  1.0591  0.5341 -0.4964
 6540TIP3   OH219625   4.917   1.689   4.613 -0.4433  0.1897 -0.3272
 6540TIP3    H119626   4.930   1.781   4.590  3.0456 -0.3907 -1.1888
 6540TIP3    H219627   4.912   1.644   4.528 -1.2147 -0.5502  0.0953
 6541TIP3   OH219628   2.531   4.370   1.311  0.5927 -0.2879 -0.2255
 6541TIP3    H119629   2.560   4.450   1.267 -1.4505 -0.6366 -2.4254
 6541TIP3    H219630   2.595   4.304   1.285 -0.1103 -0.2921 -2.1663
 6542TIP3   OH219631   0.366   5.494   4.043 -0.5878 -0.1626 -0.3322
 6542TIP3    H119632   0.359   5.585   4.011 -0.2035 -0.0939 -0.2243
 6542TIP3    H219633   0.295   5.448   4.000 -0.0022 -0.0976 -1.4003
 6543TIP3   OH219634   1.430   4.585   0.387 -0.3217  0.4900  0.4211
 6543TIP3    H119635   1.409   4.526   0.314 -1.0125  1.6300 -0.3323
 6543TIP3    H219636   1.444   4.670   0.346 -2.5604  1.6005  1.7581
 6544TIP3   OH219637   5.149   2.780   3.640 -0.8627  0.1468 -0.1941
 6544TIP3    H119638   5.201   2.850   3.600 -2.1357  0.3555 -1.5480
 6544TIP3    H219639   5.188   2.700   3.607 -0.3763  0.2511  0.1173
 6545TIP3   OH219640   4.734   6.007   3.741 -0.0012  0.2003 -0.4079
 6545TIP3    H119641   4.793   6.015   3.816 -1.4457  0.2180  0.7773
 6545TIP3    H219642   4.729   5.912   3.725 -0.9038  0.0694  0.5562
 6546TIP3   OH219643   3.957   5.541   4.249  0.0926 -0.4788  0.0026
 6546TIP3    H119644   4.025   5.608   4.249  0.1318 -0.4400 -2.0384
 6546TIP3    H219645   4.003   5.460   4.274  0.8954 -0.4303 -1.2377
 6547TIP3   OH219646   6.131   1.223   3.667 -0.2412  0.4741  0.0628
 6547TIP3    H119647   6.125   1.319   3.670 -1.7430  0.5086 -1.9075
 6547TIP3    H219648   6.055   1.193   3.717  0.0960  0.3019  0.4776
 6548TIP3   OH219649   3.187   4.566   0.861  0.7183  0.0975 -0.2088
 6548TIP3    H119650   3.226   4.622   0.793  0.6703  0.1651 -0.1796
 6548TIP3    H219651   3.245   4.575   0.936 -0.1944  1.3918  0.3554
 6549TIP3   OH219652   5.047   5.800   1.315 -0.4959 -0.2987  0.3866
 6549TIP3    H119653   4.976   5.847   1.359 -0.7895 -0.4222  0.0527
 6549TIP3    H219654   5.002   5.739   1.256 -0.1746 -2.3676  2.1554
 6550TIP3   OH219655   5.216   0.656   0.449  0.3156 -0.3875 -0.0378
 6550TIP3    H119656   5.151   0.681   0.383  2.2156  0.2094 -1.8073
 6550TIP3    H219657   5.220   0.731   0.508 -0.0423 -0.0958 -0.3775
 6551TIP3   OH219658   0.810   3.426   2.357 -0.7455 -0.0354  0.3945
 6551TIP3    H119659   0.869   3.375   2.302 -1.0183 -0.5829  0.6023
 6551TIP3    H219660   0.789   3.503   2.305 -0.2333 -0.0752  0.1261
 6552TIP3   OH219661   3.675   4.677   1.066 -0.1943 -0.2432 -0.0414
 6552TIP3    H119662   3.583   4.701   1.076  0.2273  0.5441  3.5620
 6552TIP3    H219663   3.711   4.741   1.005 -1.5748  0.9372  0.3506
 6553TIP3   OH219664   1.429   3.044   4.046 -0.2071  0.2533 -0.5211
 6553TIP3    H119665   1.402   3.098   3.972 -1.2997 -0.8480 -0.9640
 6553TIP3    H219666   1.347   3.005   4.078  0.6598 -2.1260 -1.0328
 6554TIP3   OH219667   2.815   1.644   4.766 -0.4921 -0.3368 -0.0863
 6554TIP3    H119668   2.781   1.685   4.845 -0.5979 -0.8637  0.1444
 6554TIP3    H219669   2.755   1.572   4.748 -0.4907 -0.1966 -0.6718
 6555TIP3   OH219670   5.229   2.918   1.511  0.2634 -0.0646  0.2415
 6555TIP3    H119671   5.175   2.884   1.439  0.2869  0.0333  0.1769
 6555TIP3    H219672   5.217   3.013   1.506  0.8937  0.0037 -0.1365
 6556TIP3   OH219673   2.490   5.431   0.739  0.2743  0.2018 -0.0556
 6556TIP3    H119674   2.460   5.478   0.817  1.8629 -1.3425  1.6116
 6556TIP3    H219675   2.410   5.398   0.699 -0.5391 -1.6015  2.7259
 6557TIP3   OH219676   3.067   1.267   3.444  0.1132 -0.6483  0.1884
 6557TIP3    H119677   3.109   1.353   3.449  1.2610 -1.1176 -0.7702
 6557TIP3    H219678   3.134   1.206   3.476 -0.5239 -1.2403  0.4259
 6558TIP3   OH219679   4.443   2.064   2.524 -0.3952 -0.5495  0.1803
 6558TIP3    H119680   4.440   1.995   2.458 -0.5573  1.4920 -2.1047
 6558TIP3    H219681   4.533   2.097   2.521 -0.4301 -0.3599  0.9334
 6559TIP3   OH219682   4.446   5.122   4.733 -0.4165  0.1380  0.5261
 6559TIP3    H119683   4.390   5.172   4.674  0.5705  0.9436  0.2550
 6559TIP3    H219684   4.491   5.188   4.785  0.8133 -0.4630  0.2563
 6560TIP3   OH219685   4.980   5.653   2.602  0.5227 -0.3744  0.4573
 6560TIP3    H119686   5.011   5.568   2.633 -0.2220  0.6805  4.7276
 6560TIP3    H219687   5.041   5.716   2.640 -1.6083  1.1866  1.5412
 6561TIP3   OH219688   3.459   2.080   3.810  0.0856 -0.0010  0.6706
 6561TIP3    H119689   3.366   2.068   3.830 -0.1154  0.3504 -0.0343
 6561TIP3    H219690   3.485   2.155   3.863  0.1267 -0.4817  1.3426
 6562TIP3   OH219691   3.100   4.933   3.934 -0.5856  0.0940  0.1893
 6562TIP3    H119692   3.069   4.935   3.844  1.9459 -0.8249 -0.7869
 6562TIP3    H219693   3.135   4.845   3.946  1.4497  0.9753  1.1838
 6563TIP3   OH219694   3.437   3.104   3.136 -0.0090  0.1658  0.2652
 6563TIP3    H119695   3.522   3.071   3.164 -0.6511 -2.0802 -0.2779
 6563TIP3    H219696   3.382   3.098   3.215 -0.6498 -2.0355 -0.2982
 6564TIP3   OH219697   1.534   0.414   3.168 -0.0692  0.0971  0.4251
 6564TIP3    H119698   1.565   0.354   3.235  0.2060 -0.1461  0.0822
 6564TIP3    H219699   1.476   0.361   3.113 -1.1018  0.5458  1.0571
 6565TIP3   OH219700   2.678   4.153   4.788  0.3716  0.1386 -0.3676
 6565TIP3    H119701   2.721   4.089   4.844 -0.2170  0.5474  0.5986
 6565TIP3    H219702   2.616   4.197   4.847 -0.1729  0.6788 -1.3216
 6566TIP3   OH219703   4.640   3.298   1.394  0.3324 -0.8080 -0.0157
 6566TIP3    H119704   4.583   3.254   1.456 -0.5559 -2.6277 -1.9745
 6566TIP3    H219705   4.719   3.244   1.393  0.6733 -0.3176  0.1165
 6567TIP3   OH219706   4.072   3.506   1.198 -0.0268 -0.3779 -0.2425
 6567TIP3    H119707   4.157   3.489   1.239 -0.8385 -0.9499  1.2745
 6567TIP3    H219708   4.041   3.419   1.171  0.1231 -0.1001 -1.3568
 6568TIP3   OH219709   5.576   5.409   5.013  0.4008 -0.7331 -0.8816
 6568TIP3    H119710   5.495   5.366   4.987 -1.7086  2.7574 -0.8054
 6568TIP3    H219711   5.603   5.364   5.093 -1.8907 -1.6045 -0.5202
 6569TIP3   OH219712   0.766   2.434   5.065  0.6202  0.1065 -0.0118
 6569TIP3    H119713   0.739   2.344   5.079 -1.6263  0.8665  1.0569
 6569TIP3    H219714   0.698   2.472   5.009  0.4402  1.6032  1.1303
 6570TIP3   OH219715   3.832   4.028   4.783 -0.6240 -0.2463 -0.2112
 6570TIP3    H119716   3.846   3.947   4.733 -1.9015 -0.7263  0.1756
 6570TIP3    H219717   3.743   4.054   4.762 -0.9504 -0.0726  1.2428
 6571TIP3   OH219718   4.769   5.063   2.376  0.4548  0.1527  0.4492
 6571TIP3    H119719   4.833   5.130   2.404  0.1499 -0.2553  2.2672
 6571TIP3    H219720   4.770   4.999   2.447 -1.0117 -0.5537 -0.1411
 6572TIP3   OH219721   2.124   4.187   3.259  0.4394  0.2602  0.3528
 6572TIP3    H119722   2.069   4.257   3.222 -0.9124 -0.2372  1.3460
 6572TIP3    H219723   2.197   4.180   3.198  0.6554  2.5747  0.2358
 6573TIP3   OH219724   5.967   0.667   3.259  0.6428  0.5605 -0.2897
 6573TIP3    H119725   5.898   0.669   3.192 -1.1331 -0.7864  1.4045
 6573TIP3    H219726   6.025   0.740   3.235 -1.4538  1.8916 -1.6655
 6574TIP3   OH219727   5.296   5.920   1.357 -0.3332  0.0912  0.3871
 6574TIP3    H119728   5.203   5.899   1.345 -0.3224 -0.5171  1.3171
 6574TIP3    H219729   5.342   5.845   1.320 -0.1339  1.1250 -1.6290
 6575TIP3   OH219730   1.870   3.665   2.841  0.0380  0.2726 -0.0598
 6575TIP3    H119731   1.853   3.658   2.747 -1.9830  1.0743  0.1935
 6575TIP3    H219732   1.858   3.576   2.875  0.6920 -0.0016 -0.5211
 6576TIP3   OH219733   3.910   0.816   1.893 -0.2016 -0.2807 -0.2820
 6576TIP3    H119734   3.914   0.897   1.945  0.5537 -1.0601  0.9326
 6576TIP3    H219735   3.904   0.846   1.803 -0.0544  1.1433  0.1486
 6577TIP3   OH219736   0.167   0.893   4.731  0.1636 -0.0314 -0.7281
 6577TIP3    H119737   0.227   0.822   4.709 -0.3821 -0.1238 -1.9552
 6577TIP3    H219738   0.221   0.956   4.780  0.7051 -1.1649  0.1782
 6578TIP3   OH219739   1.876   4.137   2.679  0.0650  0.1459 -0.6245
 6578TIP3    H119740   1.880   4.223   2.639 -1.2789 -0.1002 -1.3734
 6578TIP3    H219741   1.797   4.097   2.641 -0.3816 -0.6992  1.1003
 6579TIP3   OH219742   4.081   4.099   4.365  0.4294  0.8452 -0.2843
 6579TIP3    H119743   4.008   4.108   4.303  0.6039  0.1009 -0.6139
 6579TIP3    H219744   4.069   4.171   4.428 -1.7277 -0.3719  0.8189
 6580TIP3   OH219745   0.776   2.042   1.521  0.0472 -0.7796  0.1063
 6580TIP3    H119746   0.861   2.069   1.486 -1.1722  0.7033 -2.0008
 6580TIP3    H219747   0.781   2.061   1.614  1.2279  1.6421 -0.3665
 6581TIP3   OH219748   6.336   4.640   3.218  0.4545 -0.0576 -0.1158
 6581TIP3    H119749   6.387   4.703   3.269 -1.5156  1.4882  0.1069
 6581TIP3    H219750   6.285   4.591   3.283  0.3534 -0.3541 -0.4129
 6582TIP3   OH219751   3.964   0.357   4.062 -0.6104  0.0643  0.1958
 6582TIP3    H119752   4.022   0.313   4.124  1.2218  1.3450 -0.5218
 6582TIP3    H219753   3.879   0.315   4.075  0.0419 -0.7049  2.5170
 6583TIP3   OH219754   1.447   5.122   0.681 -0.2179  0.1879 -0.4435
 6583TIP3    H119755   1.401   5.202   0.655  1.1013  0.6612 -1.4422
 6583TIP3    H219756   1.506   5.103   0.608  1.8552  0.1709  1.1409
 6584TIP3   OH219757   2.695   0.813   3.829  0.0631 -0.2792 -0.0847
 6584TIP3    H119758   2.719   0.753   3.899  1.0823  0.3860  0.1499
 6584TIP3    H219759   2.705   0.900   3.868 -2.5620  0.0863 -0.0237
 6585TIP3   OH219760   0.303   3.862   3.186  0.0960  0.0981 -0.0512
 6585TIP3    H119761   0.266   3.805   3.119 -0.0197 -1.0079  0.9222
 6585TIP3    H219762   0.315   3.946   3.142 -1.6618 -0.0744 -0.9470
 6586TIP3   OH219763   2.204   3.850  -0.005  0.0332 -0.5563  0.6659
 6586TIP3    H119764   2.232   3.830   0.085  0.9870 -0.2745  0.4399
 6586TIP3    H219765   2.232   3.775  -0.056 -2.1949 -1.6232  0.8787
 6587TIP3   OH219766   1.497   1.257   3.918 -0.6045  0.2682 -0.1585
 6587TIP3    H119767   1.472   1.165   3.903 -2.0851  0.8418 -1.4477
 6587TIP3    H219768   1.593   1.255   3.919 -0.5914 -1.2003 -0.8092
 6588TIP3   OH219769   2.965   4.858   3.697  0.7497  0.2654  0.1699
 6588TIP3    H119770   2.927   4.772   3.715  0.2435  0.4279 -0.1078
 6588TIP3    H219771   2.889   4.914   3.677  0.7657  1.4450  2.9137
 6589TIP3   OH219772   1.251   3.560   3.704  0.6155  0.4831  0.6015
 6589TIP3    H119773   1.214   3.534   3.788  0.8854 -0.8449  0.3343
 6589TIP3    H219774   1.343   3.536   3.710  0.6846  0.5704 -0.0058
 6590TIP3   OH219775   3.619   0.730   1.201 -0.5914 -0.0256 -0.6169
 6590TIP3    H119776   3.666   0.666   1.147  1.7377 -0.2508  1.5003
 6590TIP3    H219777   3.535   0.688   1.220  0.9401 -2.7027  0.8882
 6591TIP3   OH219778   3.469   2.857   1.282  0.1318  0.3867 -0.1863
 6591TIP3    H119779   3.528   2.782   1.276  1.2475  1.1588  0.6519
 6591TIP3    H219780   3.509   2.914   1.348 -3.0016 -0.3202  2.6056
 6592TIP3   OH219781   6.040   2.944   2.813 -0.5058  0.4903  0.1224
 6592TIP3    H119782   5.948   2.931   2.832  0.0844 -2.2377  1.6798
 6592TIP3    H219783   6.044   2.960   2.719 -2.4973  0.0638 -0.0599
 6593TIP3   OH219784   0.345   4.035   3.467  0.1431  0.4391 -0.1221
 6593TIP3    H119785   0.417   4.049   3.529 -0.4104 -0.1719  0.6761
 6593TIP3    H219786   0.311   3.949   3.488 -1.2427  0.9781 -0.0467
 6594TIP3   OH219787   3.858   0.170   0.200  0.0564  0.2264 -0.0154
 6594TIP3    H119788   3.876   0.169   0.106 -0.1117  1.6233 -0.0774
 6594TIP3    H219789   3.923   0.230   0.236 -0.9143  0.9883  0.5233
 6595TIP3   OH219790   5.724   2.451   2.207 -0.3966  0.3070 -0.0115
 6595TIP3    H119791   5.629   2.441   2.220 -0.1760  0.9585  2.6077
 6595TIP3    H219792   5.736   2.546   2.195  0.0669  0.4989  1.6876
 6596TIP3   OH219793   4.771   4.298   4.745  0.3944  0.0180  0.2307
 6596TIP3    H119794   4.791   4.204   4.748  2.7046  0.4499  0.3990
 6596TIP3    H219795   4.750   4.316   4.653  0.8631 -0.4909  0.0217
 6597TIP3   OH219796   1.530   2.245   3.240  0.5374 -0.2726 -0.5698
 6597TIP3    H119797   1.520   2.254   3.334  0.4902 -1.5236 -0.4347
 6597TIP3    H219798   1.441   2.252   3.205  0.7295  1.9256 -0.7187
 6598TIP3   OH219799   2.156   0.877   0.731 -0.5314 -0.5551  0.4763
 6598TIP3    H119800   2.063   0.864   0.751 -0.3965  0.2815  1.7429
 6598TIP3    H219801   2.160   0.881   0.635 -2.1278  1.6785  0.4492
 6599TIP3   OH219802   0.645   1.778   1.903 -0.1676 -0.5016 -0.2047
 6599TIP3    H119803   0.624   1.703   1.848 -2.0001  0.5241 -1.0174
 6599TIP3    H219804   0.649   1.743   1.991  0.4402 -1.7738 -0.7133
 6600TIP3   OH219805   1.644   4.990   1.986 -0.3247 -0.5816 -0.1799
 6600TIP3    H119806   1.733   4.956   1.981  0.5471  1.6542 -0.7845
 6600TIP3    H219807   1.605   4.968   1.901  0.2747  0.0372 -0.6209
 6601TIP3   OH219808   4.709   0.653   4.177  0.5590  0.2306 -0.3891
 6601TIP3    H119809   4.666   0.730   4.216  1.0681  0.2106  0.2307
 6601TIP3    H219810   4.637   0.600   4.142  0.1090  0.4053  0.2565
 6602TIP3   OH219811   3.082   5.197   2.417  0.1625  0.4533  0.4846
 6602TIP3    H119812   3.100   5.274   2.363 -0.5884 -0.4402 -1.1346
 6602TIP3    H219813   3.125   5.125   2.371 -0.4405 -0.3304  1.1198
 6603TIP3   OH219814   4.687   3.639   2.473  0.0527 -0.0078 -0.0781
 6603TIP3    H119815   4.707   3.687   2.393  2.0290 -1.1515 -0.3447
 6603TIP3    H219816   4.607   3.679   2.506 -1.2063  0.0915 -2.9437
 6604TIP3   OH219817   6.322   4.494   1.551 -0.4746  0.6187 -0.5806
 6604TIP3    H119818   6.365   4.568   1.509  0.1357  0.1355 -0.8255
 6604TIP3    H219819   6.286   4.530   1.632  0.1229  1.1083 -0.5233
 6605TIP3   OH219820   6.365   2.110   0.177  0.1531  0.0908  0.1544
 6605TIP3    H119821   6.310   2.172   0.129 -1.4306 -2.3927 -1.5035
 6605TIP3    H219822   6.330   2.110   0.266 -0.4581  0.8343 -0.0723
 6606TIP3   OH219823   1.027   0.458   4.656 -0.0563  0.1454  0.2535
 6606TIP3    H119824   1.011   0.366   4.674 -0.1870  0.0759 -0.2069
 6606TIP3    H219825   1.070   0.491   4.735  4.0218 -1.3015 -1.1569
 6607TIP3   OH219826   1.566   0.020   2.632  0.1799  0.1672  0.5960
 6607TIP3    H119827   1.590   0.110   2.654 -0.9310  0.2532  1.5199
 6607TIP3    H219828   1.645  -0.031   2.653  0.7917  0.8932  0.1381
 6608TIP3   OH219829   2.259   1.396   4.421 -0.0576  0.1837  0.4839
 6608TIP3    H119830   2.344   1.413   4.381  0.6479 -1.3941  1.2226
 6608TIP3    H219831   2.279   1.362   4.508 -1.3560 -1.6949  0.1157
 6609TIP3   OH219832   1.084   2.488   2.110  0.1262 -0.0451  0.0606
 6609TIP3    H119833   1.121   2.575   2.127 -0.6365  0.7675 -2.0747
 6609TIP3    H219834   1.160   2.432   2.099  0.6369  0.1726  2.0099
 6610TIP3   OH219835   2.432   3.772   0.312  0.5280 -0.3254 -0.3371
 6610TIP3    H119836   2.510   3.740   0.357 -0.6638 -0.0851  2.0494
 6610TIP3    H219837   2.457   3.857   0.277  1.1038  0.1596  1.2026
 6611TIP3   OH219838   1.353   4.591   3.684 -0.0806  0.1508  0.4892
 6611TIP3    H119839   1.339   4.522   3.619  0.0659 -0.0717  0.6936
 6611TIP3    H219840   1.315   4.669   3.644 -1.8668 -0.4158  0.9853
 6612TIP3   OH219841   2.752   3.168   4.776 -0.2535  0.1140 -0.3719
 6612TIP3    H119842   2.692   3.212   4.837  0.2014  0.1709  0.0432
 6612TIP3    H219843   2.697   3.142   4.702 -1.1455 -1.3299  0.7376
 6613TIP3   OH219844   1.354   0.903   4.228 -0.5186  0.7514  0.8271
 6613TIP3    H119845   1.323   0.962   4.297 -1.4013  1.3566 -0.0507
 6613TIP3    H219846   1.289   0.913   4.158  0.5157  0.3815 -0.2093
 6614TIP3   OH219847   0.666   1.850   3.278 -0.7117 -0.1137  0.1563
 6614TIP3    H119848   0.741   1.901   3.247 -1.0490  0.9445  1.0312
 6614TIP3    H219849   0.624   1.819   3.198  0.4361 -0.4123 -0.3532
 6615TIP3   OH219850   3.882   1.156   3.968 -0.3001 -0.5815 -0.1137
 6615TIP3    H119851   3.794   1.190   3.983  0.3785  0.8027  1.0174
 6615TIP3    H219852   3.889   1.080   4.026 -0.4457 -0.1619  0.4512
 6616TIP3   OH219853   6.282   5.225   2.410 -0.2088 -0.3655  0.3128
 6616TIP3    H119854   6.367   5.183   2.400 -0.0695 -0.2453  0.9824
 6616TIP3    H219855   6.269   5.272   2.327  1.0661  0.8586  0.7686
 6617TIP3   OH219856   5.031   3.403   2.661 -0.7694  0.3384  0.5753
 6617TIP3    H119857   4.959   3.419   2.600  1.2629  3.4720 -1.2713
 6617TIP3    H219858   5.021   3.471   2.728  0.5931  1.0683  0.0818
 6618TIP3   OH219859   0.363   0.160   4.951 -0.2225 -0.3670 -0.3830
 6618TIP3    H119860   0.301   0.132   4.883 -1.3303  1.8743 -0.3995
 6618TIP3    H219861   0.386   0.250   4.926 -0.0535  0.2270  1.7614
 6619TIP3   OH219862   5.531   2.441   1.394 -0.1157  1.0398  0.7958
 6619TIP3    H119863   5.491   2.505   1.453 -3.5187 -0.1926  0.0526
 6619TIP3    H219864   5.485   2.359   1.414  0.5139  0.0013 -1.7115
 6620TIP3   OH219865   5.498   0.764   4.781 -0.2412 -0.2833 -0.7314
 6620TIP3    H119866   5.448   0.697   4.827 -0.4768  0.4816  0.1554
 6620TIP3    H219867   5.477   0.751   4.689 -3.4361  1.0625 -0.2976
 6621TIP3   OH219868   0.385   0.701   2.683 -0.6890  0.0444  0.3326
 6621TIP3    H119869   0.458   0.761   2.702  0.0922 -1.0860  0.9787
 6621TIP3    H219870   0.402   0.625   2.737 -1.6339 -0.8125 -0.5435
 6622TIP3   OH219871   4.066   5.368   0.787 -0.4388  0.2131  0.1596
 6622TIP3    H119872   4.056   5.420   0.707 -0.4449  2.1820  1.3614
 6622TIP3    H219873   4.079   5.279   0.756 -0.0159  0.9684 -2.0452
 6623TIP3   OH219874   1.139   3.927   5.018 -0.3598 -0.3601  0.2744
 6623TIP3    H119875   1.206   3.996   5.017 -0.9021  0.2249  1.8185
 6623TIP3    H219876   1.153   3.879   4.936  1.7392 -0.0545  0.4026
 6624TIP3   OH219877   2.309   2.002   2.643  0.4170 -0.4153  0.1152
 6624TIP3    H119878   2.342   2.083   2.681  1.1797 -0.1042 -1.1467
 6624TIP3    H219879   2.303   2.020   2.549  0.3130 -1.7189 -0.1522
 6625TIP3   OH219880   5.927   2.537   1.844 -0.3216  0.2017 -0.7044
 6625TIP3    H119881   5.873   2.616   1.845 -3.1157 -1.5857  0.6090
 6625TIP3    H219882   5.907   2.495   1.760 -0.2762 -0.0508 -0.5879
 6626TIP3   OH219883   3.715   1.810   3.297 -0.3497  0.4433  0.0250
 6626TIP3    H119884   3.752   1.833   3.212  1.0263 -0.1607  0.4302
 6626TIP3    H219885   3.724   1.715   3.302 -0.0312  0.5171  1.0103
 6627TIP3   OH219886   3.874   2.902   4.352  0.0759  0.1098 -0.5118
 6627TIP3    H119887   3.909   2.848   4.423  0.1298  0.6506 -0.1223
 6627TIP3    H219888   3.794   2.940   4.387  0.1323  0.4254 -0.7236
 6628TIP3   OH219889   6.286   2.865   1.223 -0.0921  0.2687  0.2940
 6628TIP3    H119890   6.356   2.907   1.173  0.5053  0.3260  1.1652
 6628TIP3    H219891   6.318   2.777   1.242 -0.5281  0.0725  0.1489
 6629TIP3   OH219892   2.573   4.228   1.040  0.1892  0.7413  0.2034
 6629TIP3    H119893   2.664   4.250   1.021  0.8941 -1.6241  0.4138
 6629TIP3    H219894   2.575   4.189   1.127 -1.0431  0.7830  0.2773
 6630TIP3   OH219895   2.868   5.065   3.303 -0.1935 -0.0678  0.2192
 6630TIP3    H119896   2.932   4.995   3.300 -0.3720 -0.2293  0.1631
 6630TIP3    H219897   2.787   5.025   3.271  0.6631  1.2473 -4.4047
 6631TIP3   OH219898   2.684   2.351   3.056  0.1343  0.6300 -0.1686
 6631TIP3    H119899   2.771   2.353   3.096 -0.1876 -1.1768  0.7652
 6631TIP3    H219900   2.696   2.385   2.968  2.0606 -0.7351 -0.4886
 6632TIP3   OH219901   1.502   0.525   1.982  0.3934 -0.0966  0.0176
 6632TIP3    H119902   1.491   0.431   1.995 -2.0377 -0.0391 -1.1468
 6632TIP3    H219903   1.505   0.535   1.886  1.7908  0.9396  0.1339
 6633TIP3   OH219904   5.066   0.393   1.437 -0.1413 -0.3128 -0.0464
 6633TIP3    H119905   5.109   0.363   1.517  2.3885 -2.0185 -1.8685
 6633TIP3    H219906   4.991   0.335   1.426 -0.6609  0.1017  1.1706
 6634TIP3   OH219907   3.276   2.133   4.984  0.2259 -0.7630  0.3906
 6634TIP3    H119908   3.314   2.221   4.986 -0.0867 -0.6287  0.4763
 6634TIP3    H219909   3.246   2.118   5.074 -0.3666 -0.6716  0.2129
 6635TIP3   OH219910   1.961   4.115   0.419 -0.3646  0.5089 -0.4208
 6635TIP3    H119911   2.022   4.043   0.431 -0.3887  0.3744 -1.0678
 6635TIP3    H219912   1.912   4.119   0.501 -0.9940 -0.8142 -0.7046
 6636TIP3   OH219913   4.334   5.534   0.592  0.1369  0.6019  0.6527
 6636TIP3    H119914   4.326   5.505   0.682  0.3709  2.0286  1.1523
 6636TIP3    H219915   4.246   5.521   0.555 -0.4812  1.7710  1.6499
 6637TIP3   OH219916   0.465   1.368   3.054 -0.0945 -0.2255  0.1066
 6637TIP3    H119917   0.549   1.369   3.099 -0.1465 -0.7894  0.2266
 6637TIP3    H219918   0.477   1.424   2.978  0.5557 -0.7175 -0.1607
 6638TIP3   OH219919   2.855   0.194   2.267  0.4012  0.0426 -0.1026
 6638TIP3    H119920   2.829   0.189   2.359  0.8623 -2.4777 -0.0167
 6638TIP3    H219921   2.951   0.198   2.270  0.4060  0.1950 -0.4666
 6639TIP3   OH219922   3.844   4.430   1.033  0.3376 -0.0220 -0.2347
 6639TIP3    H119923   3.898   4.485   0.976  0.1635  0.6190  0.2088
 6639TIP3    H219924   3.781   4.490   1.073  1.4109 -0.1434  1.8045
 6640TIP3   OH219925   5.165   0.389   2.866 -0.4445  0.3038  0.3384
 6640TIP3    H119926   5.152   0.299   2.836 -0.3836  0.3318  0.2269
 6640TIP3    H219927   5.194   0.436   2.788 -1.4217  0.6337  0.1700
 6641TIP3   OH219928   2.587   5.070   1.611  0.4931 -0.2105  0.7414
 6641TIP3    H119929   2.661   5.009   1.615  0.3357 -0.5294 -0.5920
 6641TIP3    H219930   2.606   5.126   1.535 -0.6547 -0.3532  0.3242
 6642TIP3   OH219931   0.524   5.789   3.870 -0.2240  0.2301  0.4002
 6642TIP3    H119932   0.491   5.813   3.957 -2.0664 -1.1853  0.1540
 6642TIP3    H219933   0.460   5.826   3.809  0.8968  0.9616 -0.3489
 6643TIP3   OH219934   1.357   1.099   4.715 -0.5517 -0.3129 -0.1957
 6643TIP3    H119935   1.397   1.149   4.786  0.0789 -1.2993  0.1577
 6643TIP3    H219936   1.280   1.150   4.690 -0.1586  0.6152  0.4333
 6644TIP3   OH219937   5.339   4.607   3.112 -0.4891 -0.2066 -0.2536
 6644TIP3    H119938   5.247   4.614   3.137 -0.1938 -0.4232  0.9505
 6644TIP3    H219939   5.388   4.629   3.192  0.5052  0.0099 -0.9032
 6645TIP3   OH219940   4.730   5.079   1.512 -0.3006  0.0356 -0.7410
 6645TIP3    H119941   4.774   4.995   1.528 -0.7236 -0.2314 -0.9520
 6645TIP3    H219942   4.779   5.142   1.563 -0.8927 -0.5916  0.6519
   6.34519   5.98229   5.18083   0.00000   0.00000  -2.11507   0.00000  -2.11507  -2.99115
